<event>
12    1  0.1541840E-007  0.1043839E+04  0.7818608E-02  0.9261728E-01
         -1   -1    0    0    0  501 -0.00000000000E+00  0.00000000000E+00  0.34681244763E+03  0.34681244763E+03  0.00000000000E+00 0. -1.
          1   -1    0    0  501    0  0.00000000000E+00 -0.00000000000E+00 -0.78543903020E+03  0.78543903020E+03  0.00000000000E+00 0.  1.
         23    2    1    2    0    0 -0.70962544423E+02 -0.49572914657E+01  0.35324183348E+02  0.11773402892E+03  0.86909413689E+02 0.  0.
        254    2    1    2    0    0  0.70962544423E+02  0.49572914657E+01 -0.47395076592E+03  0.10145174489E+04  0.89417899113E+03 0.  0.
        -24    2    4    4    0    0 -0.86302174160E+02  0.34711303690E+03  0.43951135299E+02  0.36934583874E+03  0.80926637484E+02 0.  0.
         24    2    4    4    0    0  0.15726471858E+03 -0.34215574543E+03 -0.51790190122E+03  0.64517161017E+03  0.78875100248E+02 0.  0.
         11    1    3    3    0    0 -0.23942704925E+02 -0.27580905999E+02  0.51471557017E+02  0.63113236937E+02  0.00000000000E+00 0. -1.
        -11    1    3    3    0    0 -0.47019839498E+02  0.22623614534E+02 -0.16147373669E+02  0.54620791988E+02  0.00000000000E+00 0.  1.
          4    1    6    6  502    0  0.39179828789E+02 -0.64039169510E+02 -0.57876177926E+02  0.94793070352E+02  0.00000000000E+00 0. -1.
          3    1    5    5  503    0 -0.87268857653E+01  0.19376188316E+02 -0.16835523508E+02  0.27111437818E+02  0.00000000000E+00 0. -1.
         -4    1    5    5    0  503 -0.77575288395E+02  0.32773684858E+03  0.60786658807E+02  0.34223440093E+03  0.00000000000E+00 0.  1.
         -3    1    6    6    0  502  0.11808488979E+03 -0.27811657592E+03 -0.46002572329E+03  0.55037853982E+03  0.00000000000E+00 0.  1.
<mgrwt>
<rscale>  0 0.10438391E+04</rscale>
<asrwt>0</asrwt>
<pdfrwt beam="1">  1        1 0.12083677E+00 0.10438391E+04</pdfrwt>
<pdfrwt beam="2">  1       -1 0.53355762E-01 0.10438391E+04</pdfrwt>
<totfact> 0.80670801E+01</totfact>
</mgrwt>
</event>
<event>
12    1  0.1541840E-007  0.1498651E+04  0.7818608E-02  0.8885351E-01
          1   -1    0    0  501    0  0.00000000000E+00  0.00000000000E+00  0.13447453357E+04  0.13447453357E+04  0.00000000000E+00 0. -1.
         -1   -1    0    0    0  501 -0.00000000000E+00 -0.00000000000E+00 -0.41754275196E+03  0.41754275196E+03  0.00000000000E+00 0.  1.
         23    2    1    2    0    0  0.38514395722E+03 -0.16971257796E+03  0.57352613346E+03  0.71721444632E+03  0.91247516930E+02 0.  0.
        254    2    1    2    0    0 -0.38514395722E+03  0.16971257796E+03  0.35367645028E+03  0.10450736413E+04  0.88879337163E+03 0.  0.
        -24    2    4    4    0    0 -0.47285379483E+03 -0.23772892471E+03  0.30757789953E+03  0.61719857501E+03  0.78893369685E+02 0.  0.
         24    2    4    4    0    0  0.87709837609E+02  0.40744150267E+03  0.46098550744E+02  0.42787506633E+03  0.85149294176E+02 0.  0.
         13    1    3    3    0    0  0.27246889689E+03 -0.12933600122E+03  0.47265397063E+03  0.56068607700E+03  0.00000000000E+00 0. -1.
        -13    1    3    3    0    0  0.11267506033E+03 -0.40376576734E+02  0.10087216284E+03  0.15652836933E+03  0.00000000000E+00 0.  1.
          4    1    6    6  502    0  0.72628873501E+02  0.35856935853E+03  0.11322595904E+02  0.36602614568E+03  0.00000000000E+00 0. -1.
          1    1    5    5  503    0 -0.28560480915E+03 -0.10628901781E+03  0.15209950786E+03  0.34059025619E+03  0.00000000000E+00 0. -1.
         -2    1    5    5    0  503 -0.18724898568E+03 -0.13143990691E+03  0.15547839167E+03  0.27660831882E+03  0.00000000000E+00 0.  1.
         -3    1    6    6    0  502  0.15080964107E+02  0.48872144144E+02  0.34775954841E+02  0.61848920659E+02  0.00000000000E+00 0.  1.
<mgrwt>
<rscale>  0 0.14986510E+04</rscale>
<asrwt>0</asrwt>
<pdfrwt beam="1">  1        1 0.20688390E+00 0.14986510E+04</pdfrwt>
<pdfrwt beam="2">  1       -1 0.64237347E-01 0.14986510E+04</pdfrwt>
<totfact> 0.19983034E+01</totfact>
</mgrwt>
</event>
<event>
12    1  0.1714804E-007  0.1474787E+04  0.7818608E-02  0.8901395E-01
         -2   -1    0    0    0  501 -0.00000000000E+00  0.00000000000E+00  0.36028756472E+03  0.36028756472E+03  0.00000000000E+00 0.  1.
          2   -1    0    0  501    0  0.00000000000E+00 -0.00000000000E+00 -0.15092087026E+04  0.15092087026E+04  0.00000000000E+00 0. -1.
         23    2    1    2    0    0 -0.27239021691E+03 -0.31744123425E+03 -0.56566515187E+03  0.70942035296E+03  0.91295156913E+02 0.  0.
        254    2    1    2    0    0  0.27239021691E+03  0.31744123425E+03 -0.58325598603E+03  0.11600759144E+04  0.91138532708E+03 0.  0.
        -24    2    4    4    0    0 -0.19562007461E+03  0.37605196620E+03 -0.34687461357E+02  0.43267050195E+03  0.79487410386E+02 0.  0.
         24    2    4    4    0    0  0.46801029153E+03 -0.58610731951E+02 -0.54856852467E+03  0.72740541243E+03  0.75646261628E+02 0.  0.
         13    1    3    3    0    0 -0.72177372852E+01 -0.43773602601E+02 -0.37214434425E+02  0.57906287618E+02  0.00000000000E+00 0.  1.
        -13    1    3    3    0    0 -0.26517247963E+03 -0.27366763165E+03 -0.52845071745E+03  0.65151406534E+03  0.00000000000E+00 0. -1.
          4    1    6    6  502    0  0.65005457356E+02 -0.21532073501E+02 -0.47639992784E+02  0.83420073051E+02  0.00000000000E+00 0. -1.
          1    1    5    5  503    0 -0.48307086318E+02  0.85961090566E+02 -0.42143555799E+02  0.10723321769E+03  0.00000000000E+00 0. -1.
         -2    1    5    5    0  503 -0.14731298829E+03  0.29009087563E+03  0.74560944426E+01  0.32543728427E+03  0.00000000000E+00 0.  1.
         -3    1    6    6    0  502  0.40300483417E+03 -0.37078658450E+02 -0.50092853188E+03  0.64398533938E+03  0.00000000000E+00 0.  1.
<mgrwt>
<rscale>  0 0.14747869E+04</rscale>
<asrwt>0</asrwt>
<pdfrwt beam="1">  1        2 0.23218595E+00 0.14747869E+04</pdfrwt>
<pdfrwt beam="2">  1       -2 0.55428856E-01 0.14747869E+04</pdfrwt>
<totfact> 0.37135218E+01</totfact>
</mgrwt>
</event>
<event>
12    1  0.1541840E-007  0.2994971E+04  0.7818608E-02  0.8245168E-01
         -1   -1    0    0    0  501 -0.00000000000E+00  0.00000000000E+00  0.15314300869E+04  0.15314300869E+04  0.00000000000E+00 0.  1.
          1   -1    0    0  501    0  0.00000000000E+00 -0.00000000000E+00 -0.14642932040E+04  0.14642932040E+04  0.00000000000E+00 0. -1.
         23    2    1    2    0    0 -0.67431004234E+03  0.32614202115E+03 -0.11110362211E+04  0.13430490418E+04  0.91195356050E+02 0.  0.
        254    2    1    2    0    0  0.67431004234E+03 -0.32614202115E+03  0.11781731040E+04  0.16526742491E+04  0.88440808430E+03 0.  0.
        -24    2    4    4    0    0  0.32807626662E+03 -0.43597639141E+03  0.11548987016E+04  0.12797448242E+04  0.79033875467E+02 0.  0.
         24    2    4    4    0    0  0.34623377572E+03  0.10983437027E+03  0.23274402372E+02  0.37292942492E+03  0.81198779680E+02 0.  0.
         13    1    3    3    0    0 -0.51013596258E+03  0.24418943235E+03 -0.76488301918E+03  0.95126926379E+03  0.00000000000E+00 0.  1.
        -13    1    3    3    0    0 -0.16417407976E+03  0.81952588797E+02 -0.34615320192E+03  0.39177977803E+03  0.00000000000E+00 0. -1.
          4    1    6    6  502    0  0.24150663684E+03  0.68909607759E+02 -0.21145257866E+02  0.25203394932E+03  0.00000000000E+00 0. -1.
          3    1    5    5  503    0  0.74038002657E+02 -0.84776313322E+02  0.31669413161E+03  0.33610091064E+03  0.00000000000E+00 0. -1.
         -4    1    5    5    0  503  0.25403826396E+03 -0.35120007809E+03  0.83820457003E+03  0.94364391357E+03  0.00000000000E+00 0.  1.
         -3    1    6    6    0  502  0.10472713889E+03  0.40924762508E+02  0.44419660239E+02  0.12089547560E+03  0.00000000000E+00 0.  1.
<mgrwt>
<rscale>  0 0.29949709E+04</rscale>
<asrwt>0</asrwt>
<pdfrwt beam="1">  1        1 0.22527588E+00 0.29949709E+04</pdfrwt>
<pdfrwt beam="2">  1       -1 0.23560463E+00 0.29949709E+04</pdfrwt>
<totfact> 0.51110598E-01</totfact>
</mgrwt>
</event>
<event>
12    1  0.1541840E-007  0.1831178E+04  0.7818608E-02  0.8689893E-01
          1   -1    0    0  501    0  0.00000000000E+00  0.00000000000E+00  0.60522311360E+03  0.60522311360E+03  0.00000000000E+00 0. -1.
         -1   -1    0    0    0  501 -0.00000000000E+00 -0.00000000000E+00 -0.13851142933E+04  0.13851142933E+04  0.00000000000E+00 0.  1.
         23    2    1    2    0    0 -0.31323147781E+03 -0.14178256410E+02  0.37554120873E+03  0.49784900721E+03  0.92235854649E+02 0.  0.
        254    2    1    2    0    0  0.31323147781E+03  0.14178256410E+02 -0.11554323884E+04  0.14924883997E+04  0.89116925290E+03 0.  0.
        -24    2    4    4    0    0 -0.22595115999E+03  0.74018410499E+02 -0.46138837683E+02  0.25505446894E+03  0.79945844109E+02 0.  0.
         24    2    4    4    0    0  0.53918263780E+03 -0.59840154088E+02 -0.11092935507E+04  0.12374339307E+04  0.80073655474E+02 0.  0.
         13    1    3    3    0    0 -0.28763396245E+03 -0.20855058195E+01  0.37057059508E+03  0.46910575740E+03  0.00000000000E+00 0. -1.
        -13    1    3    3    0    0 -0.25597515360E+02 -0.12092750591E+02  0.49706136436E+01  0.28743249807E+02  0.00000000000E+00 0.  1.
          4    1    6    6  502    0  0.40438343851E+03 -0.78346196871E+02 -0.85396577069E+03  0.94811477650E+03  0.00000000000E+00 0. -1.
          1    1    5    5  503    0 -0.22858620750E+03  0.71409583754E+02 -0.33414140559E+02  0.24180051220E+03  0.00000000000E+00 0. -1.
         -2    1    5    5    0  503  0.26350475108E+01  0.26088267445E+01 -0.12724697124E+02  0.13253956740E+02  0.00000000000E+00 0.  1.
         -3    1    6    6    0  502  0.13479919929E+03  0.18506042782E+02 -0.25532778003E+03  0.28931915423E+03  0.00000000000E+00 0.  1.
<mgrwt>
<rscale>  0 0.18311780E+04</rscale>
<asrwt>0</asrwt>
<pdfrwt beam="1">  1        1 0.93111249E-01 0.18311780E+04</pdfrwt>
<pdfrwt beam="2">  1       -1 0.21309451E+00 0.18311780E+04</pdfrwt>
<totfact> 0.38981169E+00</totfact>
</mgrwt>
</event>
<event>
12    1  0.1541840E-007  0.1408405E+04  0.7818608E-02  0.8947757E-01
          2   -1    0    0  501    0  0.00000000000E+00  0.00000000000E+00  0.10566434229E+04  0.10566434229E+04  0.00000000000E+00 0. -1.
         -2   -1    0    0    0  501 -0.00000000000E+00 -0.00000000000E+00 -0.46931718634E+03  0.46931718634E+03  0.00000000000E+00 0.  1.
         23    2    1    2    0    0  0.17863569376E+03 -0.26310708604E+03  0.45189432724E+03  0.56002298107E+03  0.91001134783E+02 0.  0.
        254    2    1    2    0    0 -0.17863569376E+03  0.26310708604E+03  0.13543190928E+03  0.96593762812E+03  0.90197430649E+03 0.  0.
        -24    2    4    4    0    0 -0.25906736903E+03 -0.17803259381E+03  0.33725326611E+03  0.46780077645E+03  0.79286157581E+02 0.  0.
         24    2    4    4    0    0  0.80431675269E+02  0.44113967985E+03 -0.20182135683E+03  0.49813685167E+03  0.79592659189E+02 0.  0.
         13    1    3    3    0    0  0.12041515238E+03 -0.10203812797E+03  0.18865183148E+03  0.24596971765E+03  0.00000000000E+00 0.  1.
        -13    1    3    3    0    0  0.58220541385E+02 -0.16106895806E+03  0.26324249576E+03  0.31405326342E+03  0.00000000000E+00 0. -1.
          2    1    6    6  502    0 -0.16719986065E+00  0.21746598993E+03 -0.10384543026E+03  0.24098829457E+03  0.00000000000E+00 0. -1.
          3    1    5    5  503    0 -0.16868274102E+03 -0.15783356486E+03  0.25296383888E+03  0.34257262747E+03  0.00000000000E+00 0. -1.
         -4    1    5    5    0  503 -0.90384628016E+02 -0.20199028951E+02  0.84289427237E+02  0.12522814898E+03  0.00000000000E+00 0.  1.
         -1    1    6    6    0  502  0.80598875130E+02  0.22367368992E+03 -0.97975926573E+02  0.25714855710E+03  0.00000000000E+00 0.  1.
<mgrwt>
<rscale>  0 0.14084047E+04</rscale>
<asrwt>0</asrwt>
<pdfrwt beam="1">  1        2 0.16256053E+00 0.14084047E+04</pdfrwt>
<pdfrwt beam="2">  1       -2 0.72202644E-01 0.14084047E+04</pdfrwt>
<totfact> 0.39174923E+01</totfact>
</mgrwt>
</event>
<event>
12    1  0.1541840E-007  0.2321669E+04  0.7818608E-02  0.8469426E-01
          1   -1    0    0  501    0  0.00000000000E+00  0.00000000000E+00  0.14567732154E+04  0.14567732154E+04  0.00000000000E+00 0. -1.
         -1   -1    0    0    0  501 -0.00000000000E+00 -0.00000000000E+00 -0.92501503115E+03  0.92501503115E+03  0.00000000000E+00 0.  1.
         23    2    1    2    0    0  0.43392356775E+03 -0.45167570832E+03  0.10189178265E+04  0.11996431466E+04  0.93002869915E+02 0.  0.
        254    2    1    2    0    0 -0.43392356775E+03  0.45167570832E+03 -0.48715964230E+03  0.11821450999E+04  0.87626589119E+03 0.  0.
        -24    2    4    4    0    0  0.24476522254E+03  0.93824911240E+01 -0.68671740330E+02  0.26702301790E+03  0.81163038775E+02 0.  0.
         24    2    4    4    0    0 -0.67868879028E+03  0.44229321719E+03 -0.41848790197E+03  0.91512208203E+03  0.77939315440E+02 0.  0.
         13    1    3    3    0    0  0.75493013745E+02 -0.81918652387E+02  0.12052149757E+03  0.16411974930E+03  0.00000000000E+00 0.  1.
        -13    1    3    3    0    0  0.35843055400E+03 -0.36975705593E+03  0.89839632895E+03  0.10355233973E+04  0.00000000000E+00 0. -1.
          2    1    6    6  502    0 -0.30585116697E+02  0.42391633786E+02 -0.27588838997E+02  0.59107055549E+02  0.00000000000E+00 0. -1.
          1    1    5    5  503    0  0.81286505944E+01 -0.17351333446E+02  0.59417985527E-01  0.19161087217E+02  0.00000000000E+00 0. -1.
         -2    1    5    5    0  503  0.23663657194E+03  0.26733824570E+02 -0.68731158315E+02  0.24786193068E+03  0.00000000000E+00 0.  1.
         -1    1    6    6    0  502 -0.64810367359E+03  0.39990158341E+03 -0.39089906298E+03  0.85601502648E+03  0.00000000000E+00 0.  1.
<mgrwt>
<rscale>  0 0.23216693E+04</rscale>
<asrwt>0</asrwt>
<pdfrwt beam="1">  1        1 0.22411896E+00 0.23216693E+04</pdfrwt>
<pdfrwt beam="2">  1       -1 0.14231001E+00 0.23216693E+04</pdfrwt>
<totfact> 0.25396865E+00</totfact>
</mgrwt>
</event>
<event>
12    1  0.1541840E-007  0.1653707E+04  0.7818608E-02  0.8788216E-01
          2   -1    0    0  501    0  0.00000000000E+00  0.00000000000E+00  0.23087954194E+04  0.23087954194E+04  0.00000000000E+00 0. -1.
         -2   -1    0    0    0  501 -0.00000000000E+00 -0.00000000000E+00 -0.29612270102E+03  0.29612270102E+03  0.00000000000E+00 0.  1.
         23    2    1    2    0    0  0.13712944170E+03 -0.19351573764E+03  0.15103774322E+04  0.15316567963E+04  0.92085446586E+02 0.  0.
        254    2    1    2    0    0 -0.13712944170E+03  0.19351573764E+03  0.50229528620E+03  0.10732613241E+04  0.91833354008E+03 0.  0.
        -24    2    4    4    0    0  0.32185069040E+03  0.27045355728E+03  0.40803482504E+03  0.59113497970E+03  0.78836236751E+02 0.  0.
         24    2    4    4    0    0 -0.45898013210E+03 -0.76937819643E+02  0.94260461160E+02  0.48212634442E+03  0.83537941654E+02 0.  0.
         11    1    3    3    0    0  0.13258618365E+03 -0.18017309245E+03  0.11822960702E+04  0.12032728024E+04  0.00000000000E+00 0. -1.
        -11    1    3    3    0    0  0.45432580522E+01 -0.13342645188E+02  0.32808136196E+03  0.32838399389E+03  0.00000000000E+00 0.  1.
          4    1    6    6  502    0 -0.20277296289E+03  0.19000404695E+01  0.62465005904E+02  0.21218473459E+03  0.00000000000E+00 0. -1.
          1    1    5    5  503    0  0.12323858271E+03  0.56155401250E+02  0.12296104139E+03  0.18292237440E+03  0.00000000000E+00 0. -1.
         -2    1    5    5    0  503  0.19861210769E+03  0.21429815603E+03  0.28507378365E+03  0.40821260530E+03  0.00000000000E+00 0.  1.
         -3    1    6    6    0  502 -0.25620716921E+03 -0.78837860113E+02  0.31795455256E+02  0.26994160983E+03  0.00000000000E+00 0.  1.
<mgrwt>
<rscale>  0 0.16537070E+04</rscale>
<asrwt>0</asrwt>
<pdfrwt beam="1">  1        2 0.35519928E+00 0.16537070E+04</pdfrwt>
<pdfrwt beam="2">  1       -2 0.45557340E-01 0.16537070E+04</pdfrwt>
<totfact> 0.19574939E+01</totfact>
</mgrwt>
</event>
<event>
12    1  0.1541840E-007  0.1074833E+04  0.7818608E-02  0.9230074E-01
         -2   -1    0    0    0  501 -0.00000000000E+00  0.00000000000E+00  0.20412422393E+03  0.20412422393E+03  0.00000000000E+00 0.  1.
          2   -1    0    0  501    0  0.00000000000E+00 -0.00000000000E+00 -0.14149060611E+04  0.14149060611E+04  0.00000000000E+00 0. -1.
         23    2    1    2    0    0  0.61290637223E+02  0.21563244957E+02 -0.43030332751E+01  0.11040068328E+03  0.89153121252E+02 0.  0.
        254    2    1    2    0    0 -0.61290637223E+02 -0.21563244957E+02 -0.12064788039E+04  0.15086296017E+04  0.90341056849E+03 0.  0.
        -24    2    4    4    0    0 -0.28274611573E+02 -0.22475768624E+03 -0.12594954321E+04  0.12822217617E+04  0.80302127507E+02 0.  0.
         24    2    4    4    0    0 -0.33016025650E+02  0.20319444129E+03  0.53016628192E+02  0.22640783999E+03  0.77921166728E+02 0.  0.
         11    1    3    3    0    0  0.46529344600E+02 -0.91738583364E+01 -0.39260608247E+02  0.61567320435E+02  0.00000000000E+00 0. -1.
        -11    1    3    3    0    0  0.14761292624E+02  0.30737103293E+02  0.34957574972E+02  0.48833362844E+02  0.00000000000E+00 0.  1.
          2    1    6    6  502    0 -0.18316908780E+02  0.17947130447E+03  0.70260095449E+02  0.19360252913E+03  0.00000000000E+00 0. -1.
          1    1    5    5  503    0 -0.14746986579E+02 -0.22617620293E+03 -0.11800102502E+04  0.12015811828E+04  0.00000000000E+00 0. -1.
         -2    1    5    5    0  503 -0.13527624994E+02  0.14185166845E+01 -0.79485181880E+02  0.80640578905E+02  0.00000000000E+00 0.  1.
         -1    1    6    6    0  502 -0.14699116870E+02  0.23723136820E+02 -0.17243467257E+02  0.32805310857E+02  0.00000000000E+00 0.  1.
<mgrwt>
<rscale>  0 0.10748332E+04</rscale>
<asrwt>0</asrwt>
<pdfrwt beam="1">  1        2 0.21767785E+00 0.10748332E+04</pdfrwt>
<pdfrwt beam="2">  1       -2 0.31403728E-01 0.10748332E+04</pdfrwt>
<totfact> 0.13265616E+02</totfact>
</mgrwt>
</event>
<event>
12    1  0.1541840E-007  0.2781908E+04  0.7818608E-02  0.8308907E-01
          2   -1    0    0  501    0  0.00000000000E+00  0.00000000000E+00  0.14755359878E+04  0.14755359878E+04  0.00000000000E+00 0. -1.
         -2   -1    0    0    0  501 -0.00000000000E+00 -0.00000000000E+00 -0.13112205402E+04  0.13112205402E+04  0.00000000000E+00 0.  1.
         23    2    1    2    0    0 -0.11070918461E+04  0.50554212655E+03 -0.19060339074E+03  0.12352294075E+04  0.90757032676E+02 0.  0.
        254    2    1    2    0    0  0.11070918461E+04 -0.50554212655E+03  0.35491883836E+03  0.15515271205E+04  0.89445169038E+03 0.  0.
        -24    2    4    4    0    0  0.92289956929E+03 -0.14219747404E+03 -0.89157098561E+02  0.94221206973E+03  0.88605075961E+02 0.  0.
         24    2    4    4    0    0  0.18419227685E+03 -0.36334465251E+03  0.44407593693E+03  0.60931505081E+03  0.90084749157E+02 0.  0.
         13    1    3    3    0    0 -0.80942121537E+03  0.35455314170E+03 -0.17671974017E+03  0.90116618930E+03  0.00000000000E+00 0.  1.
        -13    1    3    3    0    0 -0.29767063078E+03  0.15098898485E+03 -0.13883650565E+02  0.33406321816E+03  0.00000000000E+00 0. -1.
          2    1    6    6  502    0  0.18253307151E+03 -0.30795213053E+03  0.35333138614E+03  0.50298698325E+03  0.00000000000E+00 0. -1.
          3    1    5    5  503    0  0.85501275288E+03 -0.13627142080E+03 -0.10529206984E+03  0.87218296686E+03  0.00000000000E+00 0. -1.
         -4    1    5    5    0  503  0.67886816415E+02 -0.59260532454E+01  0.16134971275E+02  0.70029102865E+02  0.00000000000E+00 0.  1.
         -1    1    6    6    0  502  0.16592053486E+01 -0.55392521982E+02  0.90744550785E+02  0.10632806756E+03  0.00000000000E+00 0.  1.
<mgrwt>
<rscale>  0 0.27819080E+04</rscale>
<asrwt>0</asrwt>
<pdfrwt beam="1">  1        2 0.22700554E+00 0.27819080E+04</pdfrwt>
<pdfrwt beam="2">  1       -2 0.20172624E+00 0.27819080E+04</pdfrwt>
<totfact> 0.14799673E+00</totfact>
</mgrwt>
</event>
<event>
12    1  0.1541840E-007  0.2849092E+04  0.7818608E-02  0.8288187E-01
          1   -1    0    0  501    0  0.00000000000E+00  0.00000000000E+00  0.15926843261E+04  0.15926843261E+04  0.00000000000E+00 0. -1.
         -1   -1    0    0    0  501 -0.00000000000E+00 -0.00000000000E+00 -0.12741583249E+04  0.12741583249E+04  0.00000000000E+00 0.  1.
         23    2    1    2    0    0  0.11304674632E+03  0.11588552122E+04  0.68328975867E+03  0.13531173921E+04  0.91196561113E+02 0.  0.
        254    2    1    2    0    0 -0.11304674632E+03 -0.11588552122E+04 -0.36476375754E+03  0.15137252589E+04  0.89587197227E+03 0.  0.
        -24    2    4    4    0    0  0.16695125829E+03 -0.25534742379E+03 -0.46148493295E+03  0.55900359093E+03  0.80259839541E+02 0.  0.
         24    2    4    4    0    0 -0.27999800461E+03 -0.90350778845E+03  0.96721175418E+02  0.95472166793E+03  0.86100354601E+02 0.  0.
         11    1    3    3    0    0  0.66323964538E+02  0.99982522415E+03  0.59375838344E+03  0.11647310269E+04  0.00000000000E+00 0. -1.
        -11    1    3    3    0    0  0.46722781782E+02  0.15902998809E+03  0.89531375232E+02  0.18838636522E+03  0.00000000000E+00 0.  1.
          4    1    6    6  502    0 -0.23720784286E+01 -0.24059713577E+02  0.15948438575E+02  0.28962894649E+02  0.00000000000E+00 0. -1.
          3    1    5    5  503    0  0.16159735122E+02  0.23137404242E+01 -0.17033111167E+02  0.23592738502E+02  0.00000000000E+00 0. -1.
         -4    1    5    5    0  503  0.15079152317E+03 -0.25766116422E+03 -0.44445182179E+03  0.53541085243E+03  0.00000000000E+00 0.  1.
         -1    1    6    6    0  502 -0.27762592618E+03 -0.87944807488E+03  0.80772736842E+02  0.92575877328E+03  0.00000000000E+00 0.  1.
<mgrwt>
<rscale>  0 0.28490925E+04</rscale>
<asrwt>0</asrwt>
<pdfrwt beam="1">  1        1 0.24502836E+00 0.28490925E+04</pdfrwt>
<pdfrwt beam="2">  1       -1 0.19602436E+00 0.28490925E+04</pdfrwt>
<totfact> 0.78047087E-01</totfact>
</mgrwt>
</event>
<event>
12    1  0.1541840E-007  0.3042507E+04  0.7818608E-02  0.8231696E-01
         -2   -1    0    0    0  501 -0.00000000000E+00  0.00000000000E+00  0.17659060078E+04  0.17659060078E+04  0.00000000000E+00 0.  1.
          2   -1    0    0  501    0  0.00000000000E+00 -0.00000000000E+00 -0.13104959974E+04  0.13104959974E+04  0.00000000000E+00 0. -1.
         23    2    1    2    0    0  0.13839453564E+04 -0.36815726160E+02  0.11796955607E+03  0.13922539020E+04  0.88283431753E+02 0.  0.
        254    2    1    2    0    0 -0.13839453564E+04  0.36815726160E+02  0.33744045434E+03  0.16841481032E+04  0.89767957872E+03 0.  0.
        -24    2    4    4    0    0 -0.71497234204E+03 -0.41470484298E+03  0.25875445261E+03  0.86955404348E+03  0.77490716334E+02 0.  0.
         24    2    4    4    0    0 -0.66897301433E+03  0.45152056914E+03  0.78686001729E+02  0.81459405967E+03  0.77306383544E+02 0.  0.
         11    1    3    3    0    0  0.86850167238E+02  0.67685182189E+01  0.27178800202E+02  0.91254871478E+02  0.00000000000E+00 0. -1.
        -11    1    3    3    0    0  0.12970951891E+04 -0.43584244379E+02  0.90790755872E+02  0.13009990305E+04  0.00000000000E+00 0.  1.
          4    1    6    6  502    0 -0.52005941964E+03  0.38034667740E+03  0.43026090291E+02  0.64573728358E+03  0.00000000000E+00 0. -1.
          3    1    5    5  503    0 -0.62097782961E+03 -0.33424574813E+03  0.23665546755E+03  0.74386792869E+03  0.00000000000E+00 0. -1.
         -4    1    5    5    0  503 -0.93994512431E+02 -0.80459094854E+02  0.22098985058E+02  0.12568611480E+03  0.00000000000E+00 0.  1.
         -3    1    6    6    0  502 -0.14891359469E+03  0.71173891739E+02  0.35659911438E+02  0.16885677609E+03  0.00000000000E+00 0.  1.
<mgrwt>
<rscale>  0 0.30425074E+04</rscale>
<asrwt>0</asrwt>
<pdfrwt beam="1">  1        2 0.20161477E+00 0.30425074E+04</pdfrwt>
<pdfrwt beam="2">  1       -2 0.27167785E+00 0.30425074E+04</pdfrwt>
<totfact> 0.65817801E-01</totfact>
</mgrwt>
</event>
<event>
12    1  0.1541840E-007  0.3171294E+04  0.7818608E-02  0.8196440E-01
         -2   -1    0    0    0  501 -0.00000000000E+00  0.00000000000E+00  0.15741985066E+04  0.15741985066E+04  0.00000000000E+00 0.  1.
          2   -1    0    0  501    0  0.00000000000E+00 -0.00000000000E+00 -0.15971790492E+04  0.15971790492E+04  0.00000000000E+00 0. -1.
         23    2    1    2    0    0 -0.42802038992E+03 -0.31792487870E+03  0.13557302342E+04  0.14600274329E+04  0.96943045208E+02 0.  0.
        254    2    1    2    0    0  0.42802038992E+03  0.31792487870E+03 -0.13787107768E+04  0.17113501229E+04  0.86232137539E+03 0.  0.
        -24    2    4    4    0    0  0.39772645919E+03  0.53305494716E+03 -0.59771064608E+03  0.89770400819E+03  0.79249964313E+02 0.  0.
         24    2    4    4    0    0  0.30293930729E+02 -0.21513006846E+03 -0.78100013074E+03  0.81364611474E+03  0.69714612678E+02 0.  0.
         13    1    3    3    0    0 -0.30445511847E+03 -0.27640833525E+03  0.10063835357E+04  0.10871533046E+04  0.00000000000E+00 0.  1.
        -13    1    3    3    0    0 -0.12356527145E+03 -0.41516543454E+02  0.34934669859E+03  0.37287412823E+03  0.00000000000E+00 0. -1.
          2    1    6    6  502    0  0.21412774365E+01 -0.17190555856E+03 -0.66175052587E+03  0.68371767904E+03  0.00000000000E+00 0. -1.
          1    1    5    5  503    0  0.26091027434E+03  0.34116366713E+03 -0.33436768596E+03  0.54430558370E+03  0.00000000000E+00 0. -1.
         -2    1    5    5    0  503  0.13681618485E+03  0.19189128003E+03 -0.26334296012E+03  0.35339842449E+03  0.00000000000E+00 0.  1.
         -1    1    6    6    0  502  0.28152653292E+02 -0.43224509907E+02 -0.11924960487E+03  0.12992843571E+03  0.00000000000E+00 0.  1.
<mgrwt>
<rscale>  0 0.31712943E+04</rscale>
<asrwt>0</asrwt>
<pdfrwt beam="1">  1        2 0.24571985E+00 0.31712943E+04</pdfrwt>
<pdfrwt beam="2">  1       -2 0.24218439E+00 0.31712943E+04</pdfrwt>
<totfact> 0.67838017E-01</totfact>
</mgrwt>
</event>
<event>
12    1  0.1541840E-007  0.3286262E+04  0.7818608E-02  0.8166400E-01
         -2   -1    0    0    0  501 -0.00000000000E+00  0.00000000000E+00  0.31489539312E+04  0.31489539312E+04  0.00000000000E+00 0.  1.
          2   -1    0    0  501    0  0.00000000000E+00 -0.00000000000E+00 -0.85738912459E+03  0.85738912459E+03  0.00000000000E+00 0. -1.
         23    2    1    2    0    0  0.67948461459E+03  0.30309816578E+03 -0.55490907552E+03  0.93313350917E+03  0.96157289286E+02 0.  0.
        254    2    1    2    0    0 -0.67948461459E+03 -0.30309816578E+03  0.28464738821E+04  0.30732095466E+04  0.88805152788E+03 0.  0.
        -24    2    4    4    0    0  0.14353431768E+03 -0.27824475120E+03  0.97989730472E+03  0.10315874040E+04  0.77146628943E+02 0.  0.
         24    2    4    4    0    0 -0.82301893227E+03 -0.24853414580E+02  0.18665765774E+04  0.20416221426E+04  0.78326233192E+02 0.  0.
         13    1    3    3    0    0  0.38802447873E+03  0.19377528484E+03 -0.37653463716E+03  0.57436067945E+03  0.00000000000E+00 0.  1.
        -13    1    3    3    0    0  0.29146013585E+03  0.10932288094E+03 -0.17837443836E+03  0.35877282973E+03  0.00000000000E+00 0. -1.
          4    1    6    6  502    0 -0.52084501654E+03  0.21358480626E+02  0.11583045502E+04  0.12701988612E+04  0.00000000000E+00 0. -1.
          1    1    5    5  503    0  0.11723380359E+03 -0.22349634548E+03  0.67362115620E+03  0.71934681707E+03  0.00000000000E+00 0. -1.
         -2    1    5    5    0  503  0.26300514088E+02 -0.54748405721E+02  0.30627614852E+03  0.31224058693E+03  0.00000000000E+00 0.  1.
         -3    1    6    6    0  502 -0.30217391573E+03 -0.46211895206E+02  0.70827202718E+03  0.77142328140E+03  0.00000000000E+00 0.  1.
<mgrwt>
<rscale>  0 0.32862616E+04</rscale>
<asrwt>0</asrwt>
<pdfrwt beam="1">  1        2 0.13190602E+00 0.32862616E+04</pdfrwt>
<pdfrwt beam="2">  1       -2 0.48445445E+00 0.32862616E+04</pdfrwt>
<totfact> 0.54119171E-02</totfact>
</mgrwt>
</event>
<event>
12    1  0.1541840E-007  0.3451779E+04  0.7818608E-02  0.8125314E-01
         -1   -1    0    0    0  501 -0.00000000000E+00  0.00000000000E+00  0.16198665002E+04  0.16198665002E+04  0.00000000000E+00 0.  1.
          1   -1    0    0  501    0  0.00000000000E+00 -0.00000000000E+00 -0.18388520889E+04  0.18388520889E+04  0.00000000000E+00 0. -1.
         23    2    1    2    0    0 -0.87647892251E+02  0.12501839922E+04  0.90668779301E+03  0.15495121295E+04  0.90900593612E+02 0.  0.
        254    2    1    2    0    0  0.87647892251E+02 -0.12501839922E+04 -0.11256733817E+04  0.19092064597E+04  0.89849127771E+03 0.  0.
        -24    2    4    4    0    0 -0.14338239823E+02  0.60971742676E+02 -0.38418328317E+03  0.39736268010E+03  0.79857159612E+02 0.  0.
         24    2    4    4    0    0  0.10198613207E+03 -0.13111557349E+04 -0.74149009850E+03  0.15118437796E+04  0.79583386705E+02 0.  0.
         11    1    3    3    0    0 -0.10871176690E+02  0.19644308589E+03  0.10323451064E+03  0.22218333120E+03  0.00000000000E+00 0. -1.
        -11    1    3    3    0    0 -0.76776715560E+02  0.10537409063E+04  0.80345328237E+03  0.13273287983E+04  0.00000000000E+00 0.  1.
          2    1    6    6  502    0  0.79117667907E+02 -0.10242632477E+04 -0.54067639439E+03  0.11609073044E+04  0.00000000000E+00 0. -1.
          1    1    5    5  503    0  0.82141438073E+01  0.65343252956E+02 -0.35023040217E+03  0.35636855566E+03  0.00000000000E+00 0. -1.
         -2    1    5    5    0  503 -0.22552383631E+02 -0.43715102808E+01 -0.33952881004E+02  0.40994124433E+02  0.00000000000E+00 0.  1.
         -1    1    6    6    0  502  0.22868464167E+02 -0.28689248721E+03 -0.20081370411E+03  0.35093647521E+03  0.00000000000E+00 0.  1.
<mgrwt>
<rscale>  0 0.34517792E+04</rscale>
<asrwt>0</asrwt>
<pdfrwt beam="1">  1        1 0.28290032E+00 0.34517792E+04</pdfrwt>
<pdfrwt beam="2">  1       -1 0.24921023E+00 0.34517792E+04</pdfrwt>
<totfact> 0.22157008E-01</totfact>
</mgrwt>
</event>
<event>
12    1  0.1541840E-007  0.2289872E+04  0.7818608E-02  0.8481925E-01
          1   -1    0    0  501    0  0.00000000000E+00  0.00000000000E+00  0.99467506098E+03  0.99467506098E+03  0.00000000000E+00 0. -1.
         -1   -1    0    0    0  501 -0.00000000000E+00 -0.00000000000E+00 -0.13178963283E+04  0.13178963283E+04  0.00000000000E+00 0.  1.
         23    2    1    2    0    0  0.42171117367E+03  0.85908934554E+03 -0.26562690566E+03  0.99738615803E+03  0.91360153330E+02 0.  0.
        254    2    1    2    0    0 -0.42171117367E+03 -0.85908934554E+03 -0.57594361689E+02  0.13151852313E+04  0.90028898941E+03 0.  0.
        -24    2    4    4    0    0 -0.29263952709E+03 -0.95618948350E+00 -0.28131740298E+03  0.41470461361E+03  0.84862407540E+02 0.  0.
         24    2    4    4    0    0 -0.12907164658E+03 -0.85813315605E+03  0.22372304129E+03  0.90048061767E+03  0.88098468347E+02 0.  0.
         11    1    3    3    0    0  0.37893445556E+03  0.80230572068E+03 -0.22449079689E+03  0.91524964296E+03  0.00000000000E+00 0. -1.
        -11    1    3    3    0    0  0.42776718113E+02  0.56783624855E+02 -0.41136108770E+02  0.82136515077E+02  0.00000000000E+00 0.  1.
          2    1    6    6  502    0 -0.11102741805E+03 -0.51813949008E+03  0.10732061443E+03  0.54066009009E+03  0.00000000000E+00 0. -1.
          1    1    5    5  503    0 -0.16167099468E+03  0.37787131143E+02 -0.13002837907E+03  0.21088564950E+03  0.00000000000E+00 0. -1.
         -2    1    5    5    0  503 -0.13096853242E+03 -0.38743320626E+02 -0.15128902391E+03  0.20381896411E+03  0.00000000000E+00 0.  1.
         -1    1    6    6    0  502 -0.18044228525E+02 -0.33999366597E+03  0.11640242686E+03  0.35982052757E+03  0.00000000000E+00 0.  1.
<mgrwt>
<rscale>  0 0.22898721E+04</rscale>
<asrwt>0</asrwt>
<pdfrwt beam="1">  1        1 0.15302693E+00 0.22898721E+04</pdfrwt>
<pdfrwt beam="2">  1       -1 0.20275328E+00 0.22898721E+04</pdfrwt>
<totfact> 0.19911606E+00</totfact>
</mgrwt>
</event>
<event>
12    1  0.1541840E-007  0.1550990E+04  0.7818608E-02  0.8851235E-01
         -4   -1    0    0    0  501 -0.00000000000E+00  0.00000000000E+00  0.34370985903E+03  0.34370985903E+03  0.00000000000E+00 0.  1.
          4   -1    0    0  501    0  0.00000000000E+00 -0.00000000000E+00 -0.17497106434E+04  0.17497106434E+04  0.00000000000E+00 0. -1.
         23    2    1    2    0    0  0.10588683648E+03  0.47752017983E+03 -0.28574519416E+03  0.57382051963E+03  0.91553964828E+02 0.  0.
        254    2    1    2    0    0 -0.10588683648E+03 -0.47752017983E+03 -0.11202555902E+04  0.15195999828E+04  0.90275909084E+03 0.  0.
        -24    2    4    4    0    0 -0.32281619213E+03  0.53211054539E+02 -0.10842890824E+03  0.35391623786E+03  0.80362709339E+02 0.  0.
         24    2    4    4    0    0  0.21692935565E+03 -0.53073123437E+03 -0.10118266820E+04  0.11656837450E+04  0.79318159529E+02 0.  0.
         13    1    3    3    0    0 -0.19735745987E+01  0.27103614789E+02  0.40536031825E+01  0.27476037380E+02  0.00000000000E+00 0. -1.
        -13    1    3    3    0    0  0.10786041108E+03  0.45041656504E+03 -0.28979879735E+03  0.54634448225E+03  0.00000000000E+00 0.  1.
          2    1    6    6  502    0  0.84228093700E+01 -0.37773181811E+01 -0.54592489077E+01  0.10724516258E+02  0.00000000000E+00 0. -1.
          3    1    5    5  503    0 -0.18366815569E+03 -0.10077092738E+02 -0.55176056298E+02  0.19204149656E+03  0.00000000000E+00 0. -1.
         -4    1    5    5    0  503 -0.13914803644E+03  0.63288147277E+02 -0.53252851945E+02  0.16187474130E+03  0.00000000000E+00 0.  1.
         -1    1    6    6    0  502  0.20850654628E+03 -0.52695391619E+03 -0.10063674331E+04  0.11549592287E+04  0.00000000000E+00 0.  1.
<mgrwt>
<rscale>  0 0.15509904E+04</rscale>
<asrwt>0</asrwt>
<pdfrwt beam="1">  1        4 0.26918625E+00 0.15509904E+04</pdfrwt>
<pdfrwt beam="2">  1       -4 0.52878440E-01 0.15509904E+04</pdfrwt>
<totfact> 0.31821372E-01</totfact>
</mgrwt>
</event>
<event>
12    1  0.1541840E-007  0.2513703E+04  0.7818608E-02  0.8398120E-01
          2   -1    0    0  501    0  0.00000000000E+00  0.00000000000E+00  0.17581282816E+04  0.17581282816E+04  0.00000000000E+00 0. -1.
         -2   -1    0    0    0  501 -0.00000000000E+00 -0.00000000000E+00 -0.89849889354E+03  0.89849889354E+03  0.00000000000E+00 0.  1.
         23    2    1    2    0    0  0.13784742249E+03 -0.10026577641E+04  0.81556543200E+03  0.13026527285E+04  0.86212837212E+02 0.  0.
        254    2    1    2    0    0 -0.13784742249E+03  0.10026577641E+04  0.44063956089E+02  0.13539744467E+04  0.89832102624E+03 0.  0.
        -24    2    4    4    0    0 -0.14209385117E+03  0.18437078111E+03 -0.36133805363E+03  0.43737106750E+03  0.80901262190E+02 0.  0.
         24    2    4    4    0    0  0.42464286844E+01  0.81828698302E+03  0.40540200972E+03  0.91660337917E+03  0.78735928882E+02 0.  0.
         11    1    3    3    0    0  0.65239129983E+02 -0.38135118390E+03  0.26108205815E+03  0.46674265996E+03  0.00000000000E+00 0.  1.
        -11    1    3    3    0    0  0.72608292508E+02 -0.62130658022E+03  0.55448337385E+03  0.83591006851E+03  0.00000000000E+00 0. -1.
          2    1    6    6  502    0 -0.37105618875E+02  0.41319339397E+03  0.20120866297E+03  0.46107541013E+03  0.00000000000E+00 0. -1.
          1    1    5    5  503    0 -0.13623567550E+01  0.53046677196E+02 -0.94038170532E+02  0.10797677294E+03  0.00000000000E+00 0. -1.
         -2    1    5    5    0  503 -0.14073149442E+03  0.13132410391E+03 -0.26729988310E+03  0.32939429457E+03  0.00000000000E+00 0.  1.
         -1    1    6    6    0  502  0.41352047560E+02  0.40509358905E+03  0.20419334675E+03  0.45552796904E+03  0.00000000000E+00 0.  1.
<mgrwt>
<rscale>  0 0.25137035E+04</rscale>
<asrwt>0</asrwt>
<pdfrwt beam="1">  1        2 0.27048127E+00 0.25137035E+04</pdfrwt>
<pdfrwt beam="2">  1       -2 0.13823060E+00 0.25137035E+04</pdfrwt>
<totfact> 0.30110032E+00</totfact>
</mgrwt>
</event>
<event>
12    1  0.1541840E-007  0.2827926E+04  0.7818608E-02  0.8294651E-01
          1   -1    0    0  501    0  0.00000000000E+00  0.00000000000E+00  0.11229540829E+04  0.11229540829E+04  0.00000000000E+00 0. -1.
         -1   -1    0    0    0  501 -0.00000000000E+00 -0.00000000000E+00 -0.17803851681E+04  0.17803851681E+04  0.00000000000E+00 0.  1.
         23    2    1    2    0    0  0.21436986525E+03 -0.78595199096E+03 -0.12880722682E+04  0.15268112232E+04  0.91363954850E+02 0.  0.
        254    2    1    2    0    0 -0.21436986525E+03  0.78595199096E+03  0.63064118298E+03  0.13765280278E+04  0.91293271299E+03 0.  0.
        -24    2    4    4    0    0 -0.32026194832E+03  0.74271000766E+03  0.90137233962E+02  0.81745079472E+03  0.76910401316E+02 0.  0.
         24    2    4    4    0    0  0.10589208307E+03  0.43241983301E+02  0.54050394902E+03  0.55907723309E+03  0.85672815232E+02 0.  0.
         11    1    3    3    0    0  0.27320721835E+02 -0.35192308411E+02 -0.51095829728E+02  0.67791623586E+02  0.00000000000E+00 0. -1.
        -11    1    3    3    0    0  0.18704914342E+03 -0.75075968254E+03 -0.12369764384E+04  0.14590195997E+04  0.00000000000E+00 0.  1.
          4    1    6    6  502    0 -0.13169238558E+02  0.15909762600E+02  0.71174484441E+02  0.74110435336E+02  0.00000000000E+00 0. -1.
          3    1    5    5  503    0 -0.15329777583E+03  0.40538104853E+03  0.15132233442E+02  0.43366229612E+03  0.00000000000E+00 0. -1.
         -4    1    5    5    0  503 -0.16696417249E+03  0.33732895912E+03  0.75005000520E+02  0.38378849860E+03  0.00000000000E+00 0.  1.
         -3    1    6    6    0  502  0.11906132163E+03  0.27332220701E+02  0.46932946458E+03  0.48496679775E+03  0.00000000000E+00 0.  1.
<mgrwt>
<rscale>  0 0.28279256E+04</rscale>
<asrwt>0</asrwt>
<pdfrwt beam="1">  1        1 0.17276217E+00 0.28279256E+04</pdfrwt>
<pdfrwt beam="2">  1       -1 0.27390541E+00 0.28279256E+04</pdfrwt>
<totfact> 0.51292115E-01</totfact>
</mgrwt>
</event>
<event>
12    1  0.1541840E-007  0.1580306E+04  0.7818608E-02  0.8832739E-01
         -1   -1    0    0    0  501 -0.00000000000E+00  0.00000000000E+00  0.46566551694E+03  0.46566551694E+03  0.00000000000E+00 0.  1.
          1   -1    0    0  501    0  0.00000000000E+00 -0.00000000000E+00 -0.13407520152E+04  0.13407520152E+04  0.00000000000E+00 0. -1.
         23    2    1    2    0    0  0.37780515876E+03  0.88029522657E+02  0.11216187956E+03  0.41437597444E+03  0.92958195554E+02 0.  0.
        254    2    1    2    0    0 -0.37780515876E+03 -0.88029522657E+02 -0.98724837781E+03  0.13920415577E+04  0.90146236972E+03 0.  0.
        -24    2    4    4    0    0 -0.53965887687E+03  0.23582249305E+03 -0.48245398351E+03  0.76562663146E+03  0.81106972441E+02 0.  0.
         24    2    4    4    0    0  0.16185371811E+03 -0.32385201571E+03 -0.50479439431E+03  0.62641492624E+03  0.80632035512E+02 0.  0.
         13    1    3    3    0    0  0.30440016514E+02  0.11344079576E+02 -0.16066988824E+02  0.36241286907E+02  0.00000000000E+00 0. -1.
        -13    1    3    3    0    0  0.34736514225E+03  0.76685443081E+02  0.12822886838E+03  0.37813468753E+03  0.00000000000E+00 0.  1.
          2    1    6    6  502    0  0.12933981597E+02  0.14494919444E+01 -0.20970909356E+02  0.24681327883E+02  0.00000000000E+00 0. -1.
          1    1    5    5  503    0 -0.11546120429E+03  0.81202172506E+02 -0.90031324762E+02  0.16742377954E+03  0.00000000000E+00 0. -1.
         -2    1    5    5    0  503 -0.42419767258E+03  0.15462032055E+03 -0.39242265875E+03  0.59820285192E+03  0.00000000000E+00 0.  1.
         -1    1    6    6    0  502  0.14891973651E+03 -0.32530150765E+03 -0.48382348495E+03  0.60173359836E+03  0.00000000000E+00 0.  1.
<mgrwt>
<rscale>  0 0.15803063E+04</rscale>
<asrwt>0</asrwt>
<pdfrwt beam="1">  1        1 0.20626954E+00 0.15803063E+04</pdfrwt>
<pdfrwt beam="2">  1       -1 0.71640849E-01 0.15803063E+04</pdfrwt>
<totfact> 0.15992904E+01</totfact>
</mgrwt>
</event>
<event>
12    1  0.1541840E-007  0.1497887E+04  0.7818608E-02  0.8885859E-01
         -2   -1    0    0    0  501 -0.00000000000E+00  0.00000000000E+00  0.44477091056E+03  0.44477091056E+03  0.00000000000E+00 0.  1.
          2   -1    0    0  501    0  0.00000000000E+00 -0.00000000000E+00 -0.12611355562E+04  0.12611355562E+04  0.00000000000E+00 0. -1.
         23    2    1    2    0    0 -0.45412782209E+03  0.10113299331E+03 -0.31549417446E+03  0.56967069039E+03  0.92348038628E+02 0.  0.
        254    2    1    2    0    0  0.45412782209E+03 -0.10113299331E+03 -0.50087047118E+03  0.11362357764E+04  0.90757950037E+03 0.  0.
        -24    2    4    4    0    0  0.69116801748E+03 -0.90249127752E+02 -0.17230399442E+03  0.72249007199E+03  0.80281406220E+02 0.  0.
         24    2    4    4    0    0 -0.23704019539E+03 -0.10883865554E+02 -0.32856647676E+03  0.41374570439E+03  0.83204960738E+02 0.  0.
         13    1    3    3    0    0 -0.88899356461E+02  0.30465413056E-01 -0.25510503053E+02  0.92487200592E+02  0.00000000000E+00 0. -1.
        -13    1    3    3    0    0 -0.36522846563E+03  0.10110252789E+03 -0.28998367141E+03  0.47718348980E+03  0.00000000000E+00 0.  1.
          4    1    6    6  502    0 -0.81391147402E+02 -0.28276594262E+02 -0.68131802108E+02  0.10984546926E+03  0.00000000000E+00 0. -1.
          1    1    5    5  503    0  0.13678497178E+03 -0.27751875818E+02 -0.34958782715E+01  0.13961560186E+03  0.00000000000E+00 0. -1.
         -2    1    5    5    0  503  0.55438304570E+03 -0.62497251934E+02 -0.16880811615E+03  0.58287447013E+03  0.00000000000E+00 0.  1.
         -3    1    6    6    0  502 -0.15564904799E+03  0.17392728709E+02 -0.26043467465E+03  0.30390023513E+03  0.00000000000E+00 0.  1.
<mgrwt>
<rscale>  0 0.14978871E+04</rscale>
<asrwt>0</asrwt>
<pdfrwt beam="1">  1        2 0.19402085E+00 0.14978871E+04</pdfrwt>
<pdfrwt beam="2">  1       -2 0.68426295E-01 0.14978871E+04</pdfrwt>
<totfact> 0.32889069E+01</totfact>
</mgrwt>
</event>
<event>
12    1  0.1541840E-007  0.1810114E+04  0.7818608E-02  0.8700939E-01
          2   -1    0    0  501    0  0.00000000000E+00  0.00000000000E+00  0.13130762580E+04  0.13130762580E+04  0.00000000000E+00 0. -1.
         -2   -1    0    0    0  501 -0.00000000000E+00 -0.00000000000E+00 -0.62382376314E+03  0.62382376314E+03  0.00000000000E+00 0.  1.
         23    2    1    2    0    0 -0.28908283733E+03  0.13010512143E+03 -0.37934075472E+03  0.50261087345E+03  0.90675533989E+02 0.  0.
        254    2    1    2    0    0  0.28908283733E+03 -0.13010512143E+03  0.10685932496E+04  0.14342891477E+04  0.90266139647E+03 0.  0.
        -24    2    4    4    0    0  0.35725815364E+03 -0.94934500300E+02  0.12024510669E+04  0.12606902600E+04  0.82494943485E+02 0.  0.
         24    2    4    4    0    0 -0.68175316311E+02 -0.35170621128E+02 -0.13385781735E+03  0.17359888765E+03  0.79585251047E+02 0.  0.
         13    1    3    3    0    0 -0.26056917115E+03  0.81842676017E+02 -0.30342022531E+03  0.40823810418E+03  0.00000000000E+00 0.  1.
        -13    1    3    3    0    0 -0.28513666176E+02  0.48262445411E+02 -0.75920529405E+02  0.94372769277E+02  0.00000000000E+00 0. -1.
          2    1    6    6  502    0 -0.77693867863E+01 -0.22730307744E+02 -0.10080293573E+03  0.10362558619E+03  0.00000000000E+00 0. -1.
          1    1    5    5  503    0  0.31172243140E+03 -0.72192670857E+02  0.11094771950E+04  0.11546957618E+04  0.00000000000E+00 0. -1.
         -2    1    5    5    0  503  0.45535722236E+02 -0.22741829443E+02  0.92973871898E+02  0.10599449826E+03  0.00000000000E+00 0.  1.
         -1    1    6    6    0  502 -0.60405929525E+02 -0.12440313385E+02 -0.33054881618E+02  0.69973301463E+02  0.00000000000E+00 0.  1.
<mgrwt>
<rscale>  0 0.18101140E+04</rscale>
<asrwt>0</asrwt>
<pdfrwt beam="1">  1        2 0.20201173E+00 0.18101140E+04</pdfrwt>
<pdfrwt beam="2">  1       -2 0.95972887E-01 0.18101140E+04</pdfrwt>
<totfact> 0.13946219E+01</totfact>
</mgrwt>
</event>
<event>
12    1  0.1787266E-007  0.1808678E+04  0.7818608E-02  0.8701698E-01
         -2   -1    0    0    0  501 -0.00000000000E+00  0.00000000000E+00  0.69248932560E+03  0.69248932560E+03  0.00000000000E+00 0.  1.
          2   -1    0    0  501    0  0.00000000000E+00 -0.00000000000E+00 -0.11809989449E+04  0.11809989449E+04  0.00000000000E+00 0. -1.
         23    2    1    2    0    0 -0.15314976749E+03  0.40894239892E+03  0.34691340334E+03  0.56933263390E+03  0.11446397551E+03 0.  0.
        254    2    1    2    0    0  0.15314976749E+03 -0.40894239892E+03 -0.83542302266E+03  0.13041556366E+04  0.90122225939E+03 0.  0.
        -24    2    4    4    0    0 -0.73808776749E+02 -0.62265005542E+03 -0.72935239928E+03  0.96535165867E+03  0.82511063036E+02 0.  0.
         24    2    4    4    0    0  0.22695854424E+03  0.21370765649E+03 -0.10607062338E+03  0.33880397795E+03  0.79724620309E+02 0.  0.
         13    1    3    3    0    0 -0.14923498520E+03  0.36099386946E+03  0.34503503286E+03  0.52118790134E+03  0.00000000000E+00 0.  1.
        -13    1    3    3    0    0 -0.39147822880E+01  0.47948529465E+02  0.18783704739E+01  0.48144732566E+02  0.00000000000E+00 0. -1.
          2    1    6    6  502    0  0.22409037234E+03  0.22022731160E+03 -0.10087740156E+03  0.32998911178E+03  0.00000000000E+00 0. -1.
          3    1    5    5  503    0 -0.90912793294E+02 -0.54109872224E+03 -0.62113011762E+03  0.82876751035E+03  0.00000000000E+00 0. -1.
         -4    1    5    5    0  503  0.17104016545E+02 -0.81551333182E+02 -0.10822228165E+03  0.13658414832E+03  0.00000000000E+00 0.  1.
         -1    1    6    6    0  502  0.28681718956E+01 -0.65196551018E+01 -0.51932218214E+01  0.88148661678E+01  0.00000000000E+00 0.  1.
<mgrwt>
<rscale>  0 0.18086782E+04</rscale>
<asrwt>0</asrwt>
<pdfrwt beam="1">  1        2 0.18169214E+00 0.18086782E+04</pdfrwt>
<pdfrwt beam="2">  1       -2 0.10653682E+00 0.18086782E+04</pdfrwt>
<totfact> 0.13023761E+01</totfact>
</mgrwt>
</event>
<event>
12    1  0.1541840E-007  0.1992887E+04  0.7818608E-02  0.8609953E-01
          2   -1    0    0  501    0  0.00000000000E+00  0.00000000000E+00  0.20379392903E+04  0.20379392903E+04  0.00000000000E+00 0.  1.
         -2   -1    0    0    0  501 -0.00000000000E+00 -0.00000000000E+00 -0.48720778049E+03  0.48720778049E+03  0.00000000000E+00 0. -1.
         23    2    1    2    0    0 -0.16816648477E+03  0.17133770327E+03 -0.33230255180E+03  0.42039414105E+03  0.93111077420E+02 0.  0.
        254    2    1    2    0    0  0.16816648477E+03 -0.17133770327E+03  0.18830340616E+04  0.21047529297E+04  0.90913752693E+03 0.  0.
        -24    2    4    4    0    0 -0.23747930110E+03  0.19875233900E+03  0.34949179830E+03  0.47386787210E+03  0.80668038425E+02 0.  0.
         24    2    4    4    0    0  0.40564578587E+03 -0.37009004226E+03  0.15335422633E+04  0.16308850576E+04  0.80740664394E+02 0.  0.
         13    1    3    3    0    0 -0.40149534323E+02  0.26084523249E+02 -0.17816656104E+02  0.51086404201E+02  0.00000000000E+00 0.  1.
        -13    1    3    3    0    0 -0.12801695045E+03  0.14525318002E+03 -0.31448589569E+03  0.36930773685E+03  0.00000000000E+00 0. -1.
          2    1    6    6  502    0  0.40270300438E+03 -0.36454180986E+03  0.15302382225E+04  0.16237886127E+04  0.00000000000E+00 0. -1.
          3    1    5    5  503    0 -0.17166055851E+03  0.13844239955E+03  0.18999303846E+03  0.29108589798E+03  0.00000000000E+00 0. -1.
         -4    1    5    5    0  503 -0.65818742590E+02  0.60309939445E+02  0.15949875984E+03  0.18278197412E+03  0.00000000000E+00 0.  1.
         -1    1    6    6    0  502  0.29427814832E+01 -0.55482324035E+01  0.33040407333E+01  0.70964449430E+01  0.00000000000E+00 0.  1.
<mgrwt>
<rscale>  0 0.19928872E+04</rscale>
<asrwt>0</asrwt>
<pdfrwt beam="1">  1        2 0.31352912E+00 0.19928872E+04</pdfrwt>
<pdfrwt beam="2">  1       -2 0.74955044E-01 0.19928872E+04</pdfrwt>
<totfact> 0.94583396E+00</totfact>
</mgrwt>
</event>
<event>
12    1  0.1541840E-007  0.1170066E+04  0.7818608E-02  0.9139469E-01
          2   -1    0    0  501    0  0.00000000000E+00  0.00000000000E+00  0.16256015782E+04  0.16256015782E+04  0.00000000000E+00 0. -1.
         -2   -1    0    0    0  501 -0.00000000000E+00 -0.00000000000E+00 -0.21054587754E+03  0.21054587754E+03  0.00000000000E+00 0.  1.
         23    2    1    2    0    0  0.27282897596E+02 -0.84488200711E+02  0.61973064467E+03  0.63269233027E+03  0.91383260367E+02 0.  0.
        254    2    1    2    0    0 -0.27282897596E+02  0.84488200711E+02  0.79532505602E+03  0.12034551255E+04  0.89882127355E+03 0.  0.
        -24    2    4    4    0    0 -0.25165900101E+03  0.41754824275E+03  0.41693092962E+03  0.64614627875E+03  0.77426259433E+02 0.  0.
         24    2    4    4    0    0  0.22437610342E+03 -0.33306004204E+03  0.37839412640E+03  0.55730884675E+03  0.78341613403E+02 0.  0.
         11    1    3    3    0    0  0.58158123570E+02 -0.63536946430E+02  0.49721779207E+03  0.50462346720E+03  0.00000000000E+00 0.  1.
        -11    1    3    3    0    0 -0.30875225975E+02 -0.20951254281E+02  0.12251285260E+03  0.12806886307E+03  0.00000000000E+00 0. -1.
          4    1    6    6  502    0  0.22132141741E+03 -0.28534308155E+03  0.33999025103E+03  0.49598106294E+03  0.00000000000E+00 0. -1.
          1    1    5    5  503    0 -0.19522939283E+03  0.28288838427E+03  0.25410280804E+03  0.42744425465E+03  0.00000000000E+00 0. -1.
         -2    1    5    5    0  503 -0.56429608177E+02  0.13465985847E+03  0.16282812159E+03  0.21870202409E+03  0.00000000000E+00 0.  1.
         -1    1    6    6    0  502  0.30546860005E+01 -0.47716960485E+02  0.38403875363E+02  0.61327783813E+02  0.00000000000E+00 0.  1.
<mgrwt>
<rscale>  0 0.11700662E+04</rscale>
<asrwt>0</asrwt>
<pdfrwt beam="1">  1        2 0.25009254E+00 0.11700662E+04</pdfrwt>
<pdfrwt beam="2">  1       -2 0.32391674E-01 0.11700662E+04</pdfrwt>
<totfact> 0.94666188E+01</totfact>
</mgrwt>
</event>
<event>
12    1  0.1541840E-007  0.1372442E+04  0.7818608E-02  0.8974011E-01
          2   -1    0    0  501    0  0.00000000000E+00  0.00000000000E+00  0.26527719396E+04  0.26527719396E+04  0.00000000000E+00 0. -1.
         -2   -1    0    0    0  501 -0.00000000000E+00 -0.00000000000E+00 -0.17751227408E+03  0.17751227408E+03  0.00000000000E+00 0.  1.
         23    2    1    2    0    0  0.17910362472E+03 -0.31166982874E+03  0.90080412305E+03  0.97452631618E+03  0.95064621620E+02 0.  0.
        254    2    1    2    0    0 -0.17910362472E+03  0.31166982874E+03  0.15744555425E+04  0.18557578975E+04  0.91417226407E+03 0.  0.
        -24    2    4    4    0    0  0.16505642409E+03  0.36502285986E+02 -0.30759690850E+02  0.18932763084E+03  0.79515741850E+02 0.  0.
         24    2    4    4    0    0 -0.34416004882E+03  0.27516754276E+03  0.16052152334E+04  0.16664302667E+04  0.78170151348E+02 0.  0.
         11    1    3    3    0    0  0.14403570303E+03 -0.30108609532E+03  0.78328825608E+03  0.85143385689E+03  0.00000000000E+00 0.  1.
        -11    1    3    3    0    0  0.35067921688E+02 -0.10583733427E+02  0.11751586697E+03  0.12309245929E+03  0.00000000000E+00 0. -1.
          4    1    6    6  502    0 -0.11365100474E+03  0.13103550075E+03  0.70754178242E+03  0.72849312090E+03  0.00000000000E+00 0. -1.
          3    1    5    5  503    0  0.10472666119E+03 -0.16542716434E+02 -0.24020295064E+02  0.10871204904E+03  0.00000000000E+00 0. -1.
         -4    1    5    5    0  503  0.60329762901E+02  0.53045002421E+02 -0.67393957862E+01  0.80615581800E+02  0.00000000000E+00 0.  1.
         -3    1    6    6    0  502 -0.23050904407E+03  0.14413204201E+03  0.89767345095E+03  0.93793714580E+03  0.00000000000E+00 0.  1.
<mgrwt>
<rscale>  0 0.13724425E+04</rscale>
<asrwt>0</asrwt>
<pdfrwt beam="1">  1        2 0.40811873E+00 0.13724425E+04</pdfrwt>
<pdfrwt beam="2">  1       -2 0.27309583E-01 0.13724425E+04</pdfrwt>
<totfact> 0.33905376E+01</totfact>
</mgrwt>
</event>
<event>
12    1  0.1541840E-007  0.1973943E+04  0.7818608E-02  0.8618901E-01
         -2   -1    0    0    0  501 -0.00000000000E+00  0.00000000000E+00  0.62205423037E+03  0.62205423037E+03  0.00000000000E+00 0.  1.
          2   -1    0    0  501    0  0.00000000000E+00 -0.00000000000E+00 -0.15659615049E+04  0.15659615049E+04  0.00000000000E+00 0. -1.
         23    2    1    2    0    0 -0.42922331448E+03 -0.63716032657E+03 -0.52238027986E+03  0.93360772983E+03  0.92392104402E+02 0.  0.
        254    2    1    2    0    0  0.42922331448E+03  0.63716032657E+03 -0.42152699471E+03  0.12544080055E+04  0.89757924524E+03 0.  0.
        -24    2    4    4    0    0  0.55132513630E+03  0.69426864929E+03 -0.97495763414E+02  0.89498898568E+03  0.74374036489E+02 0.  0.
         24    2    4    4    0    0 -0.12210182182E+03 -0.57108322717E+02 -0.32403123129E+03  0.35941901979E+03  0.77560154207E+02 0.  0.
         13    1    3    3    0    0 -0.36868171236E+03 -0.59342066293E+03 -0.46202557600E+03  0.83758099375E+03  0.00000000000E+00 0. -1.
        -13    1    3    3    0    0 -0.60541602125E+02 -0.43739663647E+02 -0.60354703861E+02  0.96026736079E+02  0.00000000000E+00 0.  1.
          2    1    6    6  502    0 -0.25591944452E+02  0.96533505590E+01 -0.12847472677E+03  0.13135406433E+03  0.00000000000E+00 0. -1.
          1    1    5    5  503    0  0.29466965251E+03  0.31466852010E+03 -0.34885689049E+02  0.43250837328E+03  0.00000000000E+00 0. -1.
         -2    1    5    5    0  503  0.25665548380E+03  0.37960012919E+03 -0.62610074365E+02  0.46248061241E+03  0.00000000000E+00 0.  1.
         -1    1    6    6    0  502 -0.96509877373E+02 -0.66761673276E+02 -0.19555650452E+03  0.22806495546E+03  0.00000000000E+00 0.  1.
<mgrwt>
<rscale>  0 0.19739432E+04</rscale>
<asrwt>0</asrwt>
<pdfrwt beam="1">  1        2 0.24091715E+00 0.19739432E+04</pdfrwt>
<pdfrwt beam="2">  1       -2 0.95700652E-01 0.19739432E+04</pdfrwt>
<totfact> 0.99396244E+00</totfact>
</mgrwt>
</event>
<event>
12    1  0.1541840E-007  0.2642094E+04  0.7818608E-02  0.8354042E-01
         -1   -1    0    0    0  501 -0.00000000000E+00  0.00000000000E+00  0.66941404705E+03  0.66941404705E+03  0.00000000000E+00 0.  1.
          1   -1    0    0  501    0  0.00000000000E+00 -0.00000000000E+00 -0.26070047817E+04  0.26070047817E+04  0.00000000000E+00 0. -1.
         23    2    1    2    0    0  0.87745592231E+03  0.58081200506E+03 -0.23974252391E+03  0.10849953275E+04  0.11165528224E+03 0.  0.
        254    2    1    2    0    0 -0.87745592231E+03 -0.58081200506E+03 -0.16978482108E+04  0.21914235013E+04  0.90131955177E+03 0.  0.
        -24    2    4    4    0    0 -0.53000717789E+03 -0.37403548330E+03 -0.27318391681E+03  0.70838305212E+03  0.79793137172E+02 0.  0.
         24    2    4    4    0    0 -0.34744874442E+03 -0.20677652176E+03 -0.14246642939E+04  0.14830404492E+04  0.79142046245E+02 0.  0.
         11    1    3    3    0    0  0.37462396657E+03  0.28151234668E+03 -0.57584110432E+02  0.47213159970E+03  0.00000000000E+00 0. -1.
        -11    1    3    3    0    0  0.50283195574E+03  0.29929965838E+03 -0.18215841348E+03  0.61286372778E+03  0.00000000000E+00 0.  1.
          2    1    6    6  502    0 -0.33997332231E+03 -0.20228062427E+03 -0.14177525945E+04  0.14719109110E+04  0.00000000000E+00 0. -1.
          3    1    5    5  503    0 -0.19152635398E+03 -0.14211026533E+03 -0.59681552392E+02  0.24584458398E+03  0.00000000000E+00 0. -1.
         -4    1    5    5    0  503 -0.33848082392E+03 -0.23192521797E+03 -0.21350236442E+03  0.46253846814E+03  0.00000000000E+00 0.  1.
         -1    1    6    6    0  502 -0.74754221131E+01 -0.44958974903E+01 -0.69116994835E+01  0.11129538165E+02  0.00000000000E+00 0.  1.
<mgrwt>
<rscale>  0 0.26420943E+04</rscale>
<asrwt>0</asrwt>
<pdfrwt beam="1">  1        1 0.40107766E+00 0.26420943E+04</pdfrwt>
<pdfrwt beam="2">  1       -1 0.10298678E+00 0.26420943E+04</pdfrwt>
<totfact> 0.89121313E-01</totfact>
</mgrwt>
</event>
<event>
12    1  0.1541840E-007  0.2170624E+04  0.7818608E-02  0.8530755E-01
          2   -1    0    0  501    0  0.00000000000E+00  0.00000000000E+00  0.14080691215E+04  0.14080691215E+04  0.00000000000E+00 0. -1.
         -2   -1    0    0    0  501 -0.00000000000E+00 -0.00000000000E+00 -0.83653725268E+03  0.83653725268E+03  0.00000000000E+00 0.  1.
         23    2    1    2    0    0  0.82805569810E+03  0.43580009219E+03  0.28377646632E+03  0.98172383097E+03  0.87490787782E+02 0.  0.
        254    2    1    2    0    0 -0.82805569810E+03 -0.43580009219E+03  0.28775540246E+03  0.12628825432E+04  0.79779144312E+03 0.  0.
        -24    2    4    4    0    0 -0.91468972949E+03 -0.53396916148E+03  0.18197941526E+03  0.10777679474E+04  0.81773310316E+02 0.  0.
         24    2    4    4    0    0  0.86634031397E+02  0.98169069289E+02  0.10577598720E+03  0.18511459574E+03  0.77046950153E+02 0.  0.
         11    1    3    3    0    0  0.81947479942E+03  0.41786774307E+03  0.27602617771E+03  0.96038682225E+03  0.00000000000E+00 0.  1.
        -11    1    3    3    0    0  0.85808986766E+01  0.17932349125E+02  0.77502886079E+01  0.21337008711E+02  0.00000000000E+00 0. -1.
          2    1    6    6  502    0  0.22473597095E+02  0.50249444711E+00  0.51654690939E+02  0.56334023139E+02  0.00000000000E+00 0. -1.
          1    1    5    5  503    0 -0.27257906744E+02 -0.17213657857E+01  0.16033557713E+01  0.27359227511E+02  0.00000000000E+00 0. -1.
         -2    1    5    5    0  503 -0.88743182275E+03 -0.53224779569E+03  0.18037605949E+03  0.10504087199E+04  0.00000000000E+00 0.  1.
         -1    1    6    6    0  502  0.64160434302E+02  0.97666574842E+02  0.54121296260E+02  0.12878057260E+03  0.00000000000E+00 0.  1.
<mgrwt>
<rscale>  0 0.21706241E+04</rscale>
<asrwt>0</asrwt>
<pdfrwt beam="1">  1        2 0.21662602E+00 0.21706241E+04</pdfrwt>
<pdfrwt beam="2">  1       -2 0.12869804E+00 0.21706241E+04</pdfrwt>
<totfact> 0.58454193E+00</totfact>
</mgrwt>
</event>
<event>
12    1  0.1541840E-007  0.3084261E+04  0.7818608E-02  0.8220071E-01
         -2   -1    0    0    0  501 -0.00000000000E+00  0.00000000000E+00  0.63671564489E+03  0.63671564489E+03  0.00000000000E+00 0. -1.
          2   -1    0    0  501    0  0.00000000000E+00 -0.00000000000E+00 -0.37350533215E+04  0.37350533215E+04  0.00000000000E+00 0.  1.
         23    2    1    2    0    0 -0.42395478882E+03 -0.13252735496E+04 -0.10792515863E+04  0.17632932516E+04  0.91276833961E+02 0.  0.
        254    2    1    2    0    0  0.42395478882E+03  0.13252735496E+04 -0.20190860903E+04  0.26084757148E+04  0.88957814154E+03 0.  0.
        -24    2    4    4    0    0 -0.19364694272E+02  0.14066930909E+03  0.59363208848E+02  0.17410870584E+03  0.81406418536E+02 0.  0.
         24    2    4    4    0    0  0.44331948310E+03  0.11846042406E+04 -0.20784492992E+04  0.24343670089E+04  0.79824018873E+02 0.  0.
         13    1    3    3    0    0 -0.31413932091E+03 -0.10235637275E+04 -0.78321537617E+03  0.13265717254E+04  0.00000000000E+00 0. -1.
        -13    1    3    3    0    0 -0.10981546792E+03 -0.30170982217E+03 -0.29603621010E+03  0.43672152623E+03  0.00000000000E+00 0.  1.
          2    1    6    6  502    0  0.27760011802E+02  0.14044903354E+03 -0.25420956668E+03  0.29175169763E+03  0.00000000000E+00 0. -1.
          3    1    5    5  503    0  0.23244156102E+02  0.78989588017E+02  0.54994812859E+02  0.99015530344E+02  0.00000000000E+00 0. -1.
         -4    1    5    5    0  503 -0.42608850374E+02  0.61679721074E+02  0.43683959895E+01  0.75093175492E+02  0.00000000000E+00 0.  1.
         -1    1    6    6    0  502  0.41555947129E+03  0.10441552070E+04 -0.18242397325E+04  0.21426153113E+04  0.00000000000E+00 0.  1.
<mgrwt>
<rscale>  0 0.30842613E+04</rscale>
<asrwt>0</asrwt>
<pdfrwt beam="1">  1        2 0.57462358E+00 0.30842613E+04</pdfrwt>
<pdfrwt beam="2">  1       -2 0.97956254E-01 0.30842613E+04</pdfrwt>
<totfact> 0.40488473E-01</totfact>
</mgrwt>
</event>
<event>
12    1  0.1541840E-007  0.1240100E+04  0.7818608E-02  0.9078464E-01
          1   -1    0    0  501    0  0.00000000000E+00  0.00000000000E+00  0.20494817970E+04  0.20494817970E+04  0.00000000000E+00 0. -1.
         -1   -1    0    0    0  501 -0.00000000000E+00 -0.00000000000E+00 -0.18758978800E+03  0.18758978800E+03  0.00000000000E+00 0.  1.
         23    2    1    2    0    0  0.73636444753E+02 -0.15093023650E+03  0.38886368655E+02  0.19548375317E+03  0.92192655902E+02 0.  0.
        254    2    1    2    0    0 -0.73636444753E+02  0.15093023650E+03  0.18230056403E+04  0.20415878318E+04  0.90361996882E+03 0.  0.
        -24    2    4    4    0    0  0.36161731368E+03 -0.40759331368E+02  0.43850379892E+03  0.57537423649E+03  0.79633696978E+02 0.  0.
         24    2    4    4    0    0 -0.43525375844E+03  0.19168956787E+03  0.13845018414E+04  0.14662135953E+04  0.82135458862E+02 0.  0.
         11    1    3    3    0    0  0.12775087790E+02 -0.94869436216E+02 -0.14777422907E+02  0.96859615030E+02  0.00000000000E+00 0.  1.
        -11    1    3    3    0    0  0.60861356963E+02 -0.56060800281E+02  0.53663791562E+02  0.98624138143E+02  0.00000000000E+00 0. -1.
          2    1    6    6  502    0 -0.24631599560E+03  0.15204367649E+03  0.81449042156E+03  0.86439776496E+03  0.00000000000E+00 0. -1.
          3    1    5    5  503    0  0.25342195910E+03 -0.35111669961E+02  0.24856016647E+03  0.35670390392E+03  0.00000000000E+00 0. -1.
         -4    1    5    5    0  503  0.10819535459E+03 -0.56476614075E+01  0.18994363245E+03  0.21867033256E+03  0.00000000000E+00 0.  1.
         -1    1    6    6    0  502 -0.18893776284E+03  0.39645891372E+02  0.57001141983E+03  0.60181583035E+03  0.00000000000E+00 0.  1.
<mgrwt>
<rscale>  0 0.12400998E+04</rscale>
<asrwt>0</asrwt>
<pdfrwt beam="1">  1        1 0.31530488E+00 0.12400998E+04</pdfrwt>
<pdfrwt beam="2">  1       -1 0.28859969E-01 0.12400998E+04</pdfrwt>
<totfact> 0.29783139E+01</totfact>
</mgrwt>
</event>
<event>
12    1  0.1541840E-007  0.1463040E+04  0.7818608E-02  0.8909410E-01
          2   -1    0    0  501    0  0.00000000000E+00  0.00000000000E+00  0.10318392064E+04  0.10318392064E+04  0.00000000000E+00 0. -1.
         -2   -1    0    0    0  501 -0.00000000000E+00 -0.00000000000E+00 -0.51860912669E+03  0.51860912669E+03  0.00000000000E+00 0.  1.
         23    2    1    2    0    0  0.41751469437E+03 -0.29990997953E+02 -0.15928540610E+02  0.42878037394E+03  0.91547313967E+02 0.  0.
        254    2    1    2    0    0 -0.41751469437E+03  0.29990997953E+02  0.52915862029E+03  0.11216679591E+04  0.89605367314E+03 0.  0.
        -24    2    4    4    0    0  0.21255912396E+02 -0.75595671130E+01  0.65206287359E+03  0.65739184201E+03  0.80430603324E+02 0.  0.
         24    2    4    4    0    0 -0.43877060677E+03  0.37550565066E+02 -0.12290425330E+03  0.46427611713E+03  0.80728973477E+02 0.  0.
         11    1    3    3    0    0  0.12615983816E+03 -0.45951951989E+02 -0.26233563525E+02  0.13680674878E+03  0.00000000000E+00 0. -1.
        -11    1    3    3    0    0  0.29135485621E+03  0.15960954037E+02  0.10305022915E+02  0.29197362516E+03  0.00000000000E+00 0.  1.
          2    1    6    6  502    0 -0.50971844760E+02 -0.13166182369E+02 -0.35592123151E+02  0.63547435407E+02  0.00000000000E+00 0. -1.
          1    1    5    5  503    0 -0.12987754951E+02 -0.21354950675E+02  0.73135401058E+02  0.77288437588E+02  0.00000000000E+00 0. -1.
         -2    1    5    5    0  503  0.34243667347E+02  0.13795383562E+02  0.57892747254E+03  0.58010340442E+03  0.00000000000E+00 0.  1.
         -1    1    6    6    0  502 -0.38779876201E+03  0.50716747434E+02 -0.87312130149E+02  0.40072868172E+03  0.00000000000E+00 0.  1.
<mgrwt>
<rscale>  0 0.14630396E+04</rscale>
<asrwt>0</asrwt>
<pdfrwt beam="1">  1        2 0.15874449E+00 0.14630396E+04</pdfrwt>
<pdfrwt beam="2">  1       -2 0.79786020E-01 0.14630396E+04</pdfrwt>
<totfact> 0.32391433E+01</totfact>
</mgrwt>
</event>
<event>
12    1  0.1676893E-007  0.1816551E+04  0.7818608E-02  0.8697547E-01
          2   -1    0    0  501    0  0.00000000000E+00  0.00000000000E+00  0.25424154996E+04  0.25424154996E+04  0.00000000000E+00 0.  1.
         -2   -1    0    0    0  501 -0.00000000000E+00 -0.00000000000E+00 -0.32448054587E+03  0.32448054587E+03  0.00000000000E+00 0. -1.
         23    2    1    2    0    0  0.67232532606E+03  0.11199558849E+03  0.93024261304E+03  0.11567412274E+04  0.90191974501E+02 0.  0.
        254    2    1    2    0    0 -0.67232532606E+03 -0.11199558849E+03  0.12876923407E+04  0.17101548180E+04  0.89549627660E+03 0.  0.
        -24    2    4    4    0    0 -0.54898589916E+03 -0.41336011895E+03  0.11612857991E+04  0.13518132528E+04  0.81007763275E+02 0.  0.
         24    2    4    4    0    0 -0.12333942690E+03  0.30136453047E+03  0.12640654153E+03  0.35834156521E+03  0.79980429894E+02 0.  0.
         11    1    3    3    0    0  0.31011016220E+02  0.11140185728E+02  0.83520626710E+02  0.89785755836E+02  0.00000000000E+00 0. -1.
        -11    1    3    3    0    0  0.64131430984E+03  0.10085540276E+03  0.84672198633E+03  0.10669554716E+04  0.00000000000E+00 0.  1.
          4    1    6    6  502    0 -0.12097709098E+03  0.27385667620E+03  0.89945899642E+02  0.31260710245E+03  0.00000000000E+00 0. -1.
          1    1    5    5  503    0 -0.54431172791E+03 -0.39538323950E+03  0.11384920791E+04  0.13224096859E+04  0.00000000000E+00 0. -1.
         -2    1    5    5    0  503 -0.46741712537E+01 -0.17976879453E+02  0.22793720015E+02  0.29403566856E+02  0.00000000000E+00 0.  1.
         -3    1    6    6    0  502 -0.23623359250E+01  0.27507854265E+02  0.36460641884E+02  0.45734462760E+02  0.00000000000E+00 0.  1.
<mgrwt>
<rscale>  0 0.18165510E+04</rscale>
<asrwt>0</asrwt>
<pdfrwt beam="1">  1        2 0.39114083E+00 0.18165510E+04</pdfrwt>
<pdfrwt beam="2">  1       -2 0.49920086E-01 0.18165510E+04</pdfrwt>
<totfact> 0.11787708E+01</totfact>
</mgrwt>
</event>
<event>
12    1  0.1541840E-007  0.3430447E+04  0.7818608E-02  0.8130474E-01
         -1   -1    0    0    0  501 -0.00000000000E+00  0.00000000000E+00  0.20215757824E+04  0.20215757824E+04  0.00000000000E+00 0.  1.
          1   -1    0    0  501    0  0.00000000000E+00 -0.00000000000E+00 -0.14552963785E+04  0.14552963785E+04  0.00000000000E+00 0. -1.
         23    2    1    2    0    0  0.12868255502E+04  0.67901258077E+03  0.93200402151E+03  0.17312664515E+04  0.10804604793E+03 0.  0.
        254    2    1    2    0    0 -0.12868255502E+04 -0.67901258077E+03 -0.36572461763E+03  0.17456057094E+04  0.89241622312E+03 0.  0.
        -24    2    4    4    0    0 -0.89678818313E+01 -0.38485386136E+03 -0.85256743539E+02  0.40224027196E+03  0.79596523493E+02 0.  0.
         24    2    4    4    0    0 -0.12778576684E+04 -0.29415871941E+03 -0.28046787409E+03  0.13433654374E+04  0.80739688793E+02 0.  0.
         13    1    3    3    0    0  0.88936302696E+03  0.51869803686E+03  0.63101735309E+03  0.12075583411E+04  0.00000000000E+00 0.  1.
        -13    1    3    3    0    0  0.39746252322E+03  0.16031454391E+03  0.30098666842E+03  0.52370811042E+03  0.00000000000E+00 0. -1.
          4    1    6    6  502    0 -0.29105818067E+03 -0.37043110702E+02 -0.45694009361E+02  0.29694275387E+03  0.00000000000E+00 0. -1.
          1    1    5    5  503    0 -0.87986511365E+01 -0.78141329786E+02 -0.50756802021E+02  0.93593464697E+02  0.00000000000E+00 0. -1.
         -2    1    5    5    0  503 -0.16923069484E+00 -0.30671253158E+03 -0.34499941518E+02  0.30864680726E+03  0.00000000000E+00 0.  1.
         -3    1    6    6    0  502 -0.98679948768E+03 -0.25711560871E+03 -0.23477386473E+03  0.10464226836E+04  0.00000000000E+00 0.  1.
<mgrwt>
<rscale>  0 0.34304472E+04</rscale>
<asrwt>0</asrwt>
<pdfrwt beam="1">  1        1 0.22389175E+00 0.34304472E+04</pdfrwt>
<pdfrwt beam="2">  1       -1 0.31101166E+00 0.34304472E+04</pdfrwt>
<totfact> 0.16148689E-01</totfact>
</mgrwt>
</event>
<event>
12    1  0.1541840E-007  0.1181429E+04  0.7818608E-02  0.9129268E-01
         -1   -1    0    0    0  501 -0.00000000000E+00  0.00000000000E+00  0.12493536250E+03  0.12493536250E+03  0.00000000000E+00 0.  1.
          1   -1    0    0  501    0  0.00000000000E+00 -0.00000000000E+00 -0.27929953091E+04  0.27929953091E+04  0.00000000000E+00 0. -1.
         23    2    1    2    0    0  0.25134719722E+03 -0.12425898767E+03 -0.13275574462E+04  0.13597649134E+04  0.89084999173E+02 0.  0.
        254    2    1    2    0    0 -0.25134719722E+03  0.12425898767E+03 -0.13405025004E+04  0.15581657582E+04  0.74318091134E+03 0.  0.
        -24    2    4    4    0    0  0.20508559662E+03 -0.17158078551E+02 -0.81174315458E+03  0.84106164861E+03  0.78123275450E+02 0.  0.
         24    2    4    4    0    0 -0.45643279384E+03  0.14141706622E+03 -0.52875934580E+03  0.71710410960E+03  0.79512114279E+02 0.  0.
         13    1    3    3    0    0  0.17045444419E+03 -0.42591927852E+02 -0.69610311216E+03  0.71793337618E+03  0.00000000000E+00 0.  1.
        -13    1    3    3    0    0  0.80892753032E+02 -0.81667059817E+02 -0.63145433407E+03  0.64183153722E+03  0.00000000000E+00 0. -1.
          4    1    6    6  502    0 -0.17469669258E+03  0.30604483841E+02 -0.24263171642E+03  0.30054237412E+03  0.00000000000E+00 0. -1.
          1    1    5    5  503    0  0.33417540540E+02 -0.11782657595E+02 -0.57750075261E+02  0.67754219266E+02  0.00000000000E+00 0. -1.
         -2    1    5    5    0  503  0.17166805608E+03 -0.53754209565E+01 -0.75399307931E+03  0.77330742935E+03  0.00000000000E+00 0.  1.
         -3    1    6    6    0  502 -0.28173610127E+03  0.11081258238E+03 -0.28612762938E+03  0.41656173548E+03  0.00000000000E+00 0.  1.
<mgrwt>
<rscale>  0 0.11814294E+04</rscale>
<asrwt>0</asrwt>
<pdfrwt beam="1">  1        1 0.42969160E+00 0.11814294E+04</pdfrwt>
<pdfrwt beam="2">  1       -1 0.19220824E-01 0.11814294E+04</pdfrwt>
<totfact> 0.18458969E+01</totfact>
</mgrwt>
</event>
<event>
12    1  0.1541840E-007  0.1515678E+04  0.7818608E-02  0.8874093E-01
          2   -1    0    0  501    0  0.00000000000E+00  0.00000000000E+00  0.14933906293E+04  0.14933906293E+04  0.00000000000E+00 0. -1.
         -2   -1    0    0    0  501 -0.00000000000E+00 -0.00000000000E+00 -0.38457469905E+03  0.38457469905E+03  0.00000000000E+00 0.  1.
         23    2    1    2    0    0  0.74074493408E+02 -0.74423826697E+02  0.94937452466E+03  0.96006525959E+03  0.96888482536E+02 0.  0.
        254    2    1    2    0    0 -0.74074493408E+02  0.74423826697E+02  0.15944140563E+03  0.91790006881E+03  0.89782684184E+03 0.  0.
        -24    2    4    4    0    0 -0.22089921684E+03  0.40254700114E+03 -0.87729655066E+02  0.47433992376E+03  0.80382328689E+02 0.  0.
         24    2    4    4    0    0  0.14682472344E+03 -0.32812317444E+03  0.24717106070E+03  0.44356014505E+03  0.80185734441E+02 0.  0.
         13    1    3    3    0    0 -0.84075608856E+01 -0.89168813055E+01  0.42707483080E+03  0.42725063951E+03  0.00000000000E+00 0. -1.
        -13    1    3    3    0    0  0.82482054293E+02 -0.65506945392E+02  0.52229969386E+03  0.53281462009E+03  0.00000000000E+00 0.  1.
          2    1    6    6  502    0  0.26972105784E+02 -0.11584676986E+03  0.11855056333E+03  0.16793512034E+03  0.00000000000E+00 0. -1.
          1    1    5    5  503    0 -0.27490724111E+01  0.58631070047E+02 -0.15602841987E+02  0.60733915171E+02  0.00000000000E+00 0. -1.
         -2    1    5    5    0  503 -0.21815014443E+03  0.34391593109E+03 -0.72126813079E+02  0.41360600859E+03  0.00000000000E+00 0.  1.
         -1    1    6    6    0  502  0.11985261765E+03 -0.21227640459E+03  0.12862049736E+03  0.27562502471E+03  0.00000000000E+00 0.  1.
<mgrwt>
<rscale>  0 0.15156784E+04</rscale>
<asrwt>0</asrwt>
<pdfrwt beam="1">  1        2 0.22975240E+00 0.15156784E+04</pdfrwt>
<pdfrwt beam="2">  1       -2 0.59165339E-01 0.15156784E+04</pdfrwt>
<totfact> 0.32959147E+01</totfact>
</mgrwt>
</event>
<event>
12    1  0.1541840E-007  0.1725957E+04  0.7818608E-02  0.8746697E-01
          2   -1    0    0  501    0  0.00000000000E+00  0.00000000000E+00  0.67875015217E+03  0.67875015217E+03  0.00000000000E+00 0. -1.
         -2   -1    0    0    0  501 -0.00000000000E+00 -0.00000000000E+00 -0.10972102158E+04  0.10972102158E+04  0.00000000000E+00 0.  1.
         23    2    1    2    0    0 -0.55905595709E+03  0.58822299365E+02 -0.44292643994E+03  0.72146871648E+03  0.91266925008E+02 0.  0.
        254    2    1    2    0    0  0.55905595709E+03 -0.58822299365E+02  0.24466376301E+02  0.10544916515E+04  0.89182420547E+03 0.  0.
        -24    2    4    4    0    0  0.11021714758E+03  0.35754220463E+03  0.17347327295E+03  0.41943525220E+03  0.76476837343E+02 0.  0.
         24    2    4    4    0    0  0.44883880951E+03 -0.41636450400E+03 -0.14900689664E+03  0.63505639930E+03  0.79233187050E+02 0.  0.
         13    1    3    3    0    0 -0.30660564504E+03  0.18651128897E+02 -0.29623205945E+03  0.42674151336E+03  0.00000000000E+00 0. -1.
        -13    1    3    3    0    0 -0.25245031205E+03  0.40171170469E+02 -0.14669438049E+03  0.29472720312E+03  0.00000000000E+00 0.  1.
          2    1    6    6  502    0  0.45181866072E+03 -0.41119834011E+03 -0.14506562422E+03  0.62790780567E+03  0.00000000000E+00 0. -1.
          3    1    5    5  503    0  0.12030414537E+03  0.29619525917E+03  0.14383550481E+03  0.35056150871E+03  0.00000000000E+00 0. -1.
         -4    1    5    5    0  503 -0.10086997791E+02  0.61346945467E+02  0.29637768136E+02  0.68873743492E+02  0.00000000000E+00 0.  1.
         -1    1    6    6    0  502 -0.29798512131E+01 -0.51661638851E+01 -0.39412724283E+01  0.71485936305E+01  0.00000000000E+00 0.  1.
<mgrwt>
<rscale>  0 0.17259567E+04</rscale>
<asrwt>0</asrwt>
<pdfrwt beam="1">  1        2 0.10442310E+00 0.17259567E+04</pdfrwt>
<pdfrwt beam="2">  1       -2 0.16880157E+00 0.17259567E+04</pdfrwt>
<totfact> 0.87867968E+00</totfact>
</mgrwt>
</event>
<event>
12    1  0.1541840E-007  0.1924162E+04  0.7818608E-02  0.8642922E-01
         -1   -1    0    0    0  501 -0.00000000000E+00  0.00000000000E+00  0.35055771090E+03  0.35055771090E+03  0.00000000000E+00 0.  1.
          1   -1    0    0  501    0  0.00000000000E+00 -0.00000000000E+00 -0.26403634634E+04  0.26403634634E+04  0.00000000000E+00 0. -1.
         23    2    1    2    0    0  0.12419548315E+02 -0.93689915785E+02 -0.20580090500E+04  0.20621783633E+04  0.90809177946E+02 0.  0.
        254    2    1    2    0    0 -0.12419548315E+02  0.93689915785E+02 -0.23179670245E+03  0.92874281093E+03  0.89437209934E+03 0.  0.
        -24    2    4    4    0    0 -0.36917282660E+03  0.24449443636E+03 -0.28035409960E+03  0.53018673308E+03  0.80208761744E+02 0.  0.
         24    2    4    4    0    0  0.35675327829E+03 -0.15080452058E+03  0.48557397151E+02  0.39855607785E+03  0.80462546400E+02 0.  0.
         11    1    3    3    0    0  0.12656613260E+02  0.14843853472E+02 -0.18454383604E+03  0.18557197327E+03  0.00000000000E+00 0.  1.
        -11    1    3    3    0    0 -0.23706494588E+00 -0.10853376926E+03 -0.18734652140E+04  0.18766063901E+04  0.00000000000E+00 0. -1.
          4    1    6    6  502    0  0.34960202008E+03 -0.13813076527E+03  0.59190940961E+02  0.38053284779E+03  0.00000000000E+00 0. -1.
          3    1    5    5  503    0 -0.32751778821E+03  0.18161373624E+03 -0.23685920251E+03  0.44311819259E+03  0.00000000000E+00 0. -1.
         -4    1    5    5    0  503 -0.41655038389E+02  0.62880700126E+02 -0.43494897091E+02  0.87068540498E+02  0.00000000000E+00 0.  1.
         -3    1    6    6    0  502  0.71512582104E+01 -0.12673755309E+02 -0.10633543810E+02  0.18023230054E+02  0.00000000000E+00 0.  1.
<mgrwt>
<rscale>  0 0.19241619E+04</rscale>
<asrwt>0</asrwt>
<pdfrwt beam="1">  1        1 0.40620975E+00 0.19241619E+04</pdfrwt>
<pdfrwt beam="2">  1       -1 0.53931958E-01 0.19241619E+04</pdfrwt>
<totfact> 0.35067725E+00</totfact>
</mgrwt>
</event>
<event>
12    1  0.1541840E-007  0.2824682E+04  0.7818608E-02  0.8295646E-01
         -1   -1    0    0    0  501 -0.00000000000E+00  0.00000000000E+00  0.11954713356E+04  0.11954713356E+04  0.00000000000E+00 0.  1.
          1   -1    0    0  501    0  0.00000000000E+00 -0.00000000000E+00 -0.16685524607E+04  0.16685524607E+04  0.00000000000E+00 0. -1.
         23    2    1    2    0    0  0.14136386040E+03 -0.11887892193E+04  0.21633635972E+03  0.12199849274E+04  0.91423485152E+02 0.  0.
        254    2    1    2    0    0 -0.14136386040E+03  0.11887892193E+04 -0.68941748485E+03  0.16440388689E+04  0.89127088199E+03 0.  0.
        -24    2    4    4    0    0  0.25450788276E+03  0.67010625683E+02 -0.17892131856E+02  0.27557373866E+03  0.79724969224E+02 0.  0.
         24    2    4    4    0    0 -0.39587174316E+03  0.11217785936E+04 -0.67152535299E+03  0.13684651303E+04  0.81540559407E+02 0.  0.
         13    1    3    3    0    0  0.65198478155E+02 -0.54306330881E+03  0.14516580009E+03  0.56589902673E+03  0.00000000000E+00 0. -1.
        -13    1    3    3    0    0  0.76165382248E+02 -0.64572591051E+03  0.71170559636E+02  0.65408590072E+03  0.00000000000E+00 0.  1.
          2    1    6    6  502    0 -0.18213648783E+03  0.51876610527E+03 -0.35713694117E+03  0.65562090183E+03  0.00000000000E+00 0. -1.
          1    1    5    5  503    0  0.18008020403E+03  0.77230975009E+02  0.80138683261E+01  0.19610641363E+03  0.00000000000E+00 0. -1.
         -2    1    5    5    0  503  0.74427678731E+02 -0.10220349326E+02 -0.25906000182E+02  0.79467325027E+02  0.00000000000E+00 0.  1.
         -1    1    6    6    0  502 -0.21373525533E+03  0.60301248838E+03 -0.31438841183E+03  0.71284422843E+03  0.00000000000E+00 0.  1.
<mgrwt>
<rscale>  0 0.28246817E+04</rscale>
<asrwt>0</asrwt>
<pdfrwt beam="1">  1        1 0.25670038E+00 0.28246817E+04</pdfrwt>
<pdfrwt beam="2">  1       -1 0.18391867E+00 0.28246817E+04</pdfrwt>
<totfact> 0.84407308E-01</totfact>
</mgrwt>
</event>
<event>
12    1  0.1541840E-007  0.1760702E+04  0.7818608E-02  0.8727481E-01
          2   -1    0    0  501    0  0.00000000000E+00  0.00000000000E+00  0.28338205738E+04  0.28338205738E+04  0.00000000000E+00 0. -1.
         -2   -1    0    0    0  501 -0.00000000000E+00 -0.00000000000E+00 -0.27348872823E+03  0.27348872823E+03  0.00000000000E+00 0.  1.
         23    2    1    2    0    0  0.27322563975E+03  0.31254158965E+03  0.75524273996E+02  0.43183813576E+03  0.91900838171E+02 0.  0.
        254    2    1    2    0    0 -0.27322563975E+03 -0.31254158965E+03  0.24848075715E+04  0.26754711662E+04  0.90085670240E+03 0.  0.
        -24    2    4    4    0    0 -0.13857973573E+03  0.87634020836E+02  0.32569831495E+02  0.18581649033E+03  0.81135130434E+02 0.  0.
         24    2    4    4    0    0 -0.13464590402E+03 -0.40017561049E+03  0.24522377400E+04  0.24896546759E+04  0.81488851021E+02 0.  0.
         11    1    3    3    0    0  0.12000684911E+03  0.11706850015E+03 -0.13033001791E+02  0.16815628652E+03  0.00000000000E+00 0.  1.
        -11    1    3    3    0    0  0.15321879065E+03  0.19547308950E+03  0.88557275787E+02  0.26368184924E+03  0.00000000000E+00 0. -1.
          4    1    6    6  502    0 -0.21534019595E+02 -0.61260354770E+02  0.23468098067E+03  0.24349888656E+03  0.00000000000E+00 0. -1.
          3    1    5    5  503    0 -0.64683121274E+02  0.62909748594E+02  0.53801098324E+02  0.10505284778E+03  0.00000000000E+00 0. -1.
         -2    1    5    5    0  503 -0.73896614458E+02  0.24724272242E+02 -0.21231266829E+02  0.80763642547E+02  0.00000000000E+00 0.  1.
         -3    1    6    6    0  502 -0.11311188443E+03 -0.33891525571E+03  0.22175567594E+04  0.22461557893E+04  0.00000000000E+00 0.  1.
<mgrwt>
<rscale>  0 0.17607021E+04</rscale>
<asrwt>0</asrwt>
<pdfrwt beam="1">  1        2 0.43597237E+00 0.17607021E+04</pdfrwt>
<pdfrwt beam="2">  1       -2 0.42075191E-01 0.17607021E+04</pdfrwt>
<totfact> 0.11216764E+01</totfact>
</mgrwt>
</event>
<event>
12    1  0.1541840E-007  0.1213415E+04  0.7818608E-02  0.9101195E-01
          1   -1    0    0  501    0  0.00000000000E+00  0.00000000000E+00  0.57830485140E+03  0.57830485140E+03  0.00000000000E+00 0. -1.
         -1   -1    0    0    0  501 -0.00000000000E+00 -0.00000000000E+00 -0.63650517843E+03  0.63650517843E+03  0.00000000000E+00 0.  1.
         23    2    1    2    0    0  0.20175461635E+03 -0.15452683223E+03  0.83579506004E+02  0.27791602453E+03  0.75288218027E+02 0.  0.
        254    2    1    2    0    0 -0.20175461635E+03  0.15452683223E+03 -0.14177983303E+03  0.93689400530E+03  0.89055341727E+03 0.  0.
        -24    2    4    4    0    0 -0.13044479529E+03 -0.17371420147E+03 -0.42923258564E+03  0.48696739393E+03  0.75525901294E+02 0.  0.
         24    2    4    4    0    0 -0.71309821061E+02  0.32824103370E+03  0.28745275261E+03  0.44992661136E+03  0.83532052791E+02 0.  0.
         11    1    3    3    0    0  0.19019541587E+02 -0.50388455233E+02  0.26261579785E+02  0.59920029671E+02  0.00000000000E+00 0.  1.
        -11    1    3    3    0    0  0.18273507476E+03 -0.10413837699E+03  0.57317926218E+02  0.21799599486E+03  0.00000000000E+00 0. -1.
          2    1    6    6  502    0  0.13371171772E+02  0.12246096558E+03  0.11310396581E+03  0.16723631008E+03  0.00000000000E+00 0. -1.
          1    1    5    5  503    0 -0.47568950251E+02 -0.18555099449E+02 -0.13272032775E+03  0.14220331270E+03  0.00000000000E+00 0. -1.
         -2    1    5    5    0  503 -0.82875845034E+02 -0.15515910202E+03 -0.29651225789E+03  0.34476408124E+03  0.00000000000E+00 0.  1.
         -1    1    6    6    0  502 -0.84680992833E+02  0.20578006812E+03  0.17434878680E+03  0.28269030128E+03  0.00000000000E+00 0.  1.
<mgrwt>
<rscale>  0 0.12134151E+04</rscale>
<asrwt>0</asrwt>
<pdfrwt beam="1">  1        1 0.88969978E-01 0.12134151E+04</pdfrwt>
<pdfrwt beam="2">  1       -1 0.97923873E-01 0.12134151E+04</pdfrwt>
<totfact> 0.35723747E+01</totfact>
</mgrwt>
</event>
<event>
12    1  0.1541840E-007  0.1748333E+04  0.7818608E-02  0.8734268E-01
         -2   -1    0    0    0  501 -0.00000000000E+00  0.00000000000E+00  0.17478002231E+03  0.17478002231E+03  0.00000000000E+00 0.  1.
          2   -1    0    0  501    0  0.00000000000E+00 -0.00000000000E+00 -0.43721644521E+04  0.43721644521E+04  0.00000000000E+00 0. -1.
         23    2    1    2    0    0 -0.51815834231E+03  0.35914860482E+03 -0.12812097881E+04  0.14305063891E+04  0.85873278426E+02 0.  0.
        254    2    1    2    0    0  0.51815834231E+03 -0.35914860482E+03 -0.29161746417E+04  0.31164380854E+04  0.90035327014E+03 0.  0.
        -24    2    4    4    0    0  0.12344524287E+03 -0.60710737543E+03 -0.17338388177E+04  0.18429339657E+04  0.79940370815E+02 0.  0.
         24    2    4    4    0    0  0.39471309945E+03  0.24795877062E+03 -0.11823358239E+04  0.12735041196E+04  0.81318874251E+02 0.  0.
         13    1    3    3    0    0 -0.15880686646E+03  0.96233683752E+02 -0.29712787232E+03  0.35037910216E+03  0.00000000000E+00 0.  1.
        -13    1    3    3    0    0 -0.35935147585E+03  0.26291492106E+03 -0.98408191582E+03  0.10801272869E+04  0.00000000000E+00 0. -1.
          2    1    6    6  502    0  0.28002900702E+03  0.18588956560E+03 -0.74868407921E+03  0.82066986410E+03  0.00000000000E+00 0. -1.
          3    1    5    5  503    0  0.10928668397E+03 -0.51060260439E+03 -0.15365552353E+04  0.16228556899E+04  0.00000000000E+00 0. -1.
         -4    1    5    5    0  503  0.14158558898E+02 -0.96504771045E+02 -0.19728358240E+03  0.22007827587E+03  0.00000000000E+00 0.  1.
         -1    1    6    6    0  502  0.11468409243E+03  0.62069205023E+02 -0.43365174473E+03  0.45283425552E+03  0.00000000000E+00 0.  1.
<mgrwt>
<rscale>  0 0.17483329E+04</rscale>
<asrwt>0</asrwt>
<pdfrwt beam="1">  1        2 0.67264067E+00 0.17483329E+04</pdfrwt>
<pdfrwt beam="2">  1       -2 0.26889235E-01 0.17483329E+04</pdfrwt>
<totfact> 0.19833170E+00</totfact>
</mgrwt>
</event>
<event>
12    1  0.1541840E-007  0.3572013E+04  0.7818608E-02  0.8096933E-01
          2   -1    0    0  501    0  0.00000000000E+00  0.00000000000E+00  0.19318268365E+04  0.19318268365E+04  0.00000000000E+00 0. -1.
         -2   -1    0    0    0  501 -0.00000000000E+00 -0.00000000000E+00 -0.16511927561E+04  0.16511927561E+04  0.00000000000E+00 0.  1.
         23    2    1    2    0    0 -0.11288981948E+04 -0.10459687651E+04 -0.52523335170E+03  0.16287376711E+04  0.91948549289E+02 0.  0.
        254    2    1    2    0    0  0.11288981948E+04  0.10459687651E+04  0.80586743206E+03  0.19542819215E+04  0.89517245213E+03 0.  0.
        -24    2    4    4    0    0  0.55685279797E+03  0.67249215844E+03  0.90441599424E+03  0.12595994181E+04  0.79319995671E+02 0.  0.
         24    2    4    4    0    0  0.57204539678E+03  0.37347660670E+03 -0.98548562180E+02  0.69468250343E+03  0.78429903277E+02 0.  0.
         13    1    3    3    0    0 -0.10900098341E+04 -0.98349702121E+03 -0.49866059477E+03  0.15504999897E+04  0.00000000000E+00 0. -1.
        -13    1    3    3    0    0 -0.38888360654E+02 -0.62471743936E+02 -0.26572756936E+02  0.78237681433E+02  0.00000000000E+00 0.  1.
          4    1    6    6  502    0  0.21549381650E+03  0.11182215689E+03 -0.60478928290E+01  0.24285459997E+03  0.00000000000E+00 0. -1.
          1    1    5    5  503    0  0.17888026117E+03  0.19067089319E+03  0.22503491725E+03  0.34495543383E+03  0.00000000000E+00 0. -1.
         -2    1    5    5    0  503  0.37797253680E+03  0.48182126525E+03  0.67938107699E+03  0.91464398429E+03  0.00000000000E+00 0.  1.
         -3    1    6    6    0  502  0.35655158028E+03  0.26165444982E+03 -0.92500669351E+02  0.45182790345E+03  0.00000000000E+00 0.  1.
<mgrwt>
<rscale>  0 0.35720126E+04</rscale>
<asrwt>0</asrwt>
<pdfrwt beam="1">  1        2 0.29720413E+00 0.35720126E+04</pdfrwt>
<pdfrwt beam="2">  1       -2 0.25402965E+00 0.35720126E+04</pdfrwt>
<totfact> 0.36152192E-01</totfact>
</mgrwt>
</event>
<event>
12    1  0.1541840E-007  0.1307606E+04  0.7818608E-02  0.9023556E-01
         -2   -1    0    0    0  501 -0.00000000000E+00  0.00000000000E+00  0.33576227332E+03  0.33576227332E+03  0.00000000000E+00 0.  1.
          2   -1    0    0  501    0  0.00000000000E+00 -0.00000000000E+00 -0.12730974063E+04  0.12730974063E+04  0.00000000000E+00 0. -1.
         23    2    1    2    0    0  0.13320920831E+03 -0.29843904269E+03 -0.18516336173E+03  0.38732585718E+03  0.94473772730E+02 0.  0.
        254    2    1    2    0    0 -0.13320920831E+03  0.29843904269E+03 -0.75217177123E+03  0.12215338224E+04  0.90530213217E+03 0.  0.
        -24    2    4    4    0    0  0.49076035839E+01  0.61529230079E+02 -0.89592467475E+03  0.90166692589E+03  0.80698771378E+02 0.  0.
         24    2    4    4    0    0 -0.13811681190E+03  0.23690981261E+03  0.14375290352E+03  0.31986689653E+03  0.80295835450E+02 0.  0.
         13    1    3    3    0    0  0.55600598774E+02 -0.48441111366E+02 -0.68825137095E+02  0.10087054749E+03  0.00000000000E+00 0. -1.
        -13    1    3    3    0    0  0.77608609538E+02 -0.24999793132E+03 -0.11633822463E+03  0.28645530969E+03  0.00000000000E+00 0.  1.
          2    1    6    6  502    0 -0.51791268778E+02  0.13800247650E+03  0.40549266352E+02  0.15287662360E+03  0.00000000000E+00 0. -1.
          3    1    5    5  503    0  0.12345068338E+02  0.58718612118E+02 -0.31363756037E+03  0.31932553202E+03  0.00000000000E+00 0. -1.
         -4    1    5    5    0  503 -0.74374647544E+01  0.28106179609E+01 -0.58228711437E+03  0.58234139387E+03  0.00000000000E+00 0.  1.
         -1    1    6    6    0  502 -0.86325543117E+02  0.98907336110E+02  0.10320363717E+03  0.16699027294E+03  0.00000000000E+00 0.  1.
<mgrwt>
<rscale>  0 0.13076056E+04</rscale>
<asrwt>0</asrwt>
<pdfrwt beam="1">  1        2 0.19586114E+00 0.13076056E+04</pdfrwt>
<pdfrwt beam="2">  1       -2 0.51655734E-01 0.13076056E+04</pdfrwt>
<totfact> 0.59433018E+01</totfact>
</mgrwt>
</event>
<event>
12    1  0.1541840E-007  0.3134014E+04  0.7818608E-02  0.8206465E-01
          2   -1    0    0  501    0  0.00000000000E+00  0.00000000000E+00  0.26374771340E+04  0.26374771340E+04  0.00000000000E+00 0. -1.
         -2   -1    0    0    0  501 -0.00000000000E+00 -0.00000000000E+00 -0.93100732516E+03  0.93100732516E+03  0.00000000000E+00 0.  1.
         23    2    1    2    0    0 -0.33491131089E+03  0.13279591902E+04  0.12715224213E+04  0.18708134073E+04  0.86789053495E+02 0.  0.
        254    2    1    2    0    0  0.33491131089E+03 -0.13279591902E+04  0.43494738749E+03  0.16976710519E+04  0.90402797154E+03 0.  0.
        -24    2    4    4    0    0  0.52252203331E+03 -0.11551947280E+04  0.10748998214E+03  0.12749417880E+04  0.80114491620E+02 0.  0.
         24    2    4    4    0    0 -0.18761072241E+03 -0.17276446227E+03  0.32745740535E+03  0.42272926383E+03  0.80164428500E+02 0.  0.
         13    1    3    3    0    0 -0.23880195086E+03  0.82149267156E+03  0.83233523596E+03  0.11935906024E+04  0.00000000000E+00 0. -1.
        -13    1    3    3    0    0 -0.96109360034E+02  0.50646651869E+03  0.43918718535E+03  0.67722280485E+03  0.00000000000E+00 0.  1.
          2    1    6    6  502    0 -0.34439992949E+02 -0.82674465748E+02  0.10487504572E+03  0.13791285515E+03  0.00000000000E+00 0. -1.
          3    1    5    5  503    0  0.41422917061E+02 -0.52262094862E+02  0.13007868261E+02  0.67944015585E+02  0.00000000000E+00 0. -1.
         -4    1    5    5    0  503  0.48109911625E+03 -0.11029326331E+04  0.94482113883E+02  0.12069977724E+04  0.00000000000E+00 0.  1.
         -1    1    6    6    0  502 -0.15317072946E+03 -0.90089996524E+02  0.22258235963E+03  0.28481640869E+03  0.00000000000E+00 0.  1.
<mgrwt>
<rscale>  0 0.31340137E+04</rscale>
<asrwt>0</asrwt>
<pdfrwt beam="1">  1        2 0.40576571E+00 0.31340137E+04</pdfrwt>
<pdfrwt beam="2">  1       -2 0.14323190E+00 0.31340137E+04</pdfrwt>
<totfact> 0.82839539E-01</totfact>
</mgrwt>
</event>
<event>
12    1  0.1541840E-007  0.2449147E+04  0.7818608E-02  0.8421330E-01
          2   -1    0    0  501    0  0.00000000000E+00  0.00000000000E+00  0.23375163968E+04  0.23375163968E+04  0.00000000000E+00 0. -1.
         -2   -1    0    0    0  501 -0.00000000000E+00 -0.00000000000E+00 -0.64152692441E+03  0.64152692441E+03  0.00000000000E+00 0.  1.
         23    2    1    2    0    0 -0.29114024099E+03 -0.54741432111E+03 -0.27932249024E+03  0.68612161877E+03  0.91196180357E+02 0.  0.
        254    2    1    2    0    0  0.29114024099E+03  0.54741432111E+03  0.19753119626E+04  0.22929217024E+04  0.98549860726E+03 0.  0.
        -24    2    4    4    0    0  0.42089782645E+03  0.77760280696E+03  0.14788212528E+04  0.17248619650E+04  0.80096159428E+02 0.  0.
         24    2    4    4    0    0 -0.12975758546E+03 -0.23018848586E+03  0.49649070979E+03  0.56805973743E+03  0.79781391180E+02 0.  0.
         13    1    3    3    0    0 -0.26574790103E+03 -0.45303081650E+03 -0.26168622659E+03  0.58680367141E+03  0.00000000000E+00 0.  1.
        -13    1    3    3    0    0 -0.25392339960E+02 -0.94383504611E+02 -0.17636263646E+02  0.99317947354E+02  0.00000000000E+00 0. -1.
          4    1    6    6  502    0 -0.76303818619E+01 -0.20205172988E+02  0.10600171462E+03  0.10817964340E+03  0.00000000000E+00 0. -1.
          1    1    5    5  503    0  0.52364516124E+02  0.12146654691E+03  0.17385796524E+03  0.21845538823E+03  0.00000000000E+00 0. -1.
         -2    1    5    5    0  503  0.36853331032E+03  0.65613626005E+03  0.13049632876E+04  0.15064065767E+04  0.00000000000E+00 0.  1.
         -3    1    6    6    0  502 -0.12212720360E+03 -0.20998331287E+03  0.39048899516E+03  0.45988009403E+03  0.00000000000E+00 0.  1.
<mgrwt>
<rscale>  0 0.24491465E+04</rscale>
<asrwt>0</asrwt>
<pdfrwt beam="1">  1        2 0.35961790E+00 0.24491465E+04</pdfrwt>
<pdfrwt beam="2">  1       -2 0.98696451E-01 0.24491465E+04</pdfrwt>
<totfact> 0.32932380E+00</totfact>
</mgrwt>
</event>
<event>
12    1  0.1541840E-007  0.2593530E+04  0.7818608E-02  0.8370402E-01
         -1   -1    0    0    0  501 -0.00000000000E+00  0.00000000000E+00  0.51974968620E+03  0.51974968620E+03  0.00000000000E+00 0.  1.
          1   -1    0    0  501    0  0.00000000000E+00 -0.00000000000E+00 -0.32354035719E+04  0.32354035719E+04  0.00000000000E+00 0. -1.
         23    2    1    2    0    0  0.76263412771E+03 -0.81779417492E+03 -0.84182199469E+03  0.14044824187E+04  0.11622593721E+03 0.  0.
        254    2    1    2    0    0 -0.76263412771E+03  0.81779417492E+03 -0.18738318910E+04  0.23506708394E+04  0.87407626332E+03 0.  0.
        -24    2    4    4    0    0  0.81772644056E+02  0.50006819169E+03 -0.70809280344E+03  0.87438126168E+03  0.79951302917E+02 0.  0.
         24    2    4    4    0    0 -0.84440677176E+03  0.31772598322E+03 -0.11657390876E+04  0.14762895777E+04  0.80688910866E+02 0.  0.
         11    1    3    3    0    0  0.25600455609E+03 -0.23942382143E+03 -0.32532156564E+03  0.47822193600E+03  0.00000000000E+00 0. -1.
        -11    1    3    3    0    0  0.50662957162E+03 -0.57837035349E+03 -0.51650042905E+03  0.92626048272E+03  0.00000000000E+00 0.  1.
          4    1    6    6  502    0 -0.27212410061E+03  0.10024561331E+03 -0.31498815690E+03  0.42815680318E+03  0.00000000000E+00 0. -1.
          1    1    5    5  503    0  0.28739045439E+02  0.29259792899E+03 -0.46778060218E+03  0.55250173987E+03  0.00000000000E+00 0. -1.
         -2    1    5    5    0  503  0.53033598617E+02  0.20747026270E+03 -0.24031220126E+03  0.32187952182E+03  0.00000000000E+00 0.  1.
         -3    1    6    6    0  502 -0.57228267116E+03  0.21748036991E+03 -0.85075093071E+03  0.10481327746E+04  0.00000000000E+00 0.  1.
<mgrwt>
<rscale>  0 0.25935304E+04</rscale>
<asrwt>0</asrwt>
<pdfrwt beam="1">  1        1 0.49775440E+00 0.25935304E+04</pdfrwt>
<pdfrwt beam="2">  1       -1 0.79961490E-01 0.25935304E+04</pdfrwt>
<totfact> 0.55011782E-01</totfact>
</mgrwt>
</event>
<event>
12    1  0.1541840E-007  0.2363163E+04  0.7818608E-02  0.8453425E-01
         -1   -1    0    0    0  501 -0.00000000000E+00  0.00000000000E+00  0.18790078886E+04  0.18790078886E+04  0.00000000000E+00 0.  1.
          1   -1    0    0  501    0  0.00000000000E+00 -0.00000000000E+00 -0.74301682045E+03  0.74301682045E+03  0.00000000000E+00 0. -1.
         23    2    1    2    0    0 -0.78431021490E+03  0.55962708600E+02  0.11831859155E+04  0.14236411292E+04  0.92470623261E+02 0.  0.
        254    2    1    2    0    0  0.78431021490E+03 -0.55962708600E+02 -0.47194847290E+02  0.11983835799E+04  0.90311766288E+03 0.  0.
        -24    2    4    4    0    0  0.30093463553E+03 -0.45015749048E+03 -0.13608222466E+03  0.56330863202E+03  0.74798542402E+02 0.  0.
         24    2    4    4    0    0  0.48337557938E+03  0.39419478188E+03  0.88887377373E+02  0.63507494788E+03  0.79860796207E+02 0.  0.
         11    1    3    3    0    0 -0.66515630065E+03  0.76571304125E+02  0.97205470181E+03  0.11803331785E+04  0.00000000000E+00 0.  1.
        -11    1    3    3    0    0 -0.11915391425E+03 -0.20608595525E+02  0.21113121365E+03  0.24330795069E+03  0.00000000000E+00 0. -1.
          2    1    6    6  502    0  0.42175397604E+03  0.32134378630E+03  0.98065468570E+02  0.53921710046E+03  0.00000000000E+00 0. -1.
          3    1    5    5  503    0  0.75379961173E+02 -0.10949593737E+03 -0.67283226171E+02  0.14899171578E+03  0.00000000000E+00 0. -1.
         -4    1    5    5    0  503  0.22555467435E+03 -0.34066155311E+03 -0.68798998492E+02  0.41431691624E+03  0.00000000000E+00 0.  1.
         -1    1    6    6    0  502  0.61621603332E+02  0.72850995577E+02 -0.91780911969E+01  0.95857847418E+02  0.00000000000E+00 0.  1.
<mgrwt>
<rscale>  0 0.23631627E+04</rscale>
<asrwt>0</asrwt>
<pdfrwt beam="1">  1        1 0.11431028E+00 0.23631627E+04</pdfrwt>
<pdfrwt beam="2">  1       -1 0.28907813E+00 0.23631627E+04</pdfrwt>
<totfact> 0.86857813E-01</totfact>
</mgrwt>
</event>
<event>
12    1  0.1541840E-007  0.1218918E+04  0.7818608E-02  0.9096457E-01
          1   -1    0    0  501    0  0.00000000000E+00  0.00000000000E+00  0.61088550576E+03  0.61088550576E+03  0.00000000000E+00 0. -1.
         -1   -1    0    0    0  501 -0.00000000000E+00 -0.00000000000E+00 -0.60803622131E+03  0.60803622131E+03  0.00000000000E+00 0.  1.
         23    2    1    2    0    0  0.18403886032E+02 -0.26228335012E+03  0.12806938965E+03  0.30653055528E+03  0.91803888722E+02 0.  0.
        254    2    1    2    0    0 -0.18403886032E+02  0.26228335012E+03 -0.12522010520E+03  0.91239117178E+03  0.86466543636E+03 0.  0.
        -24    2    4    4    0    0  0.33840167829E+03  0.30046259611E+03 -0.25100449985E+03  0.52340088698E+03  0.78433169114E+02 0.  0.
         24    2    4    4    0    0 -0.35680556432E+03 -0.38179245990E+02  0.12578439465E+03  0.38899028480E+03  0.81999159618E+02 0.  0.
         13    1    3    3    0    0 -0.92420274950E+01  0.40198892152E+01  0.86877171277E+00  0.10115796845E+02  0.00000000000E+00 0.  1.
        -13    1    3    3    0    0  0.27645913527E+02 -0.26630323934E+03  0.12720061794E+03  0.29641475844E+03  0.00000000000E+00 0. -1.
          4    1    6    6  502    0 -0.19317431482E+03 -0.58056688982E+02  0.51437737461E+02  0.20816516489E+03  0.00000000000E+00 0. -1.
          1    1    5    5  503    0  0.15379694600E+03  0.14766249752E+03 -0.74780186764E+02  0.22594200606E+03  0.00000000000E+00 0. -1.
         -2    1    5    5    0  503  0.18460473229E+03  0.15280009859E+03 -0.17622431309E+03  0.29745888092E+03  0.00000000000E+00 0.  1.
         -3    1    6    6    0  502 -0.16363124950E+03  0.19877442992E+02  0.74346657192E+02  0.18082511991E+03  0.00000000000E+00 0.  1.
<mgrwt>
<rscale>  0 0.12189184E+04</rscale>
<asrwt>0</asrwt>
<pdfrwt beam="1">  1        1 0.93982386E-01 0.12189184E+04</pdfrwt>
<pdfrwt beam="2">  1       -1 0.93544034E-01 0.12189184E+04</pdfrwt>
<totfact> 0.36577235E+01</totfact>
</mgrwt>
</event>
<event>
12    1  0.1541840E-007  0.1592454E+04  0.7818608E-02  0.8825197E-01
         -2   -1    0    0    0  501 -0.00000000000E+00  0.00000000000E+00  0.95723684470E+03  0.95723684470E+03  0.00000000000E+00 0.  1.
          2   -1    0    0  501    0  0.00000000000E+00 -0.00000000000E+00 -0.66229946870E+03  0.66229946870E+03  0.00000000000E+00 0. -1.
         23    2    1    2    0    0  0.23732543049E+03  0.30641512459E+03 -0.28436637150E+03  0.48988556894E+03  0.94393055265E+02 0.  0.
        254    2    1    2    0    0 -0.23732543049E+03 -0.30641512459E+03  0.57930374750E+03  0.11296507445E+04  0.88899065466E+03 0.  0.
        -24    2    4    4    0    0  0.11923357027E+03  0.22779556404E+03  0.13789393018E+02  0.26959699233E+03  0.79905742188E+02 0.  0.
         24    2    4    4    0    0 -0.35655900076E+03 -0.53421068863E+03  0.56551435448E+03  0.86005375214E+03  0.85852143615E+02 0.  0.
         11    1    3    3    0    0  0.24105090821E+02  0.52010371800E+02 -0.85480913542E+02  0.10292288744E+03  0.00000000000E+00 0.  1.
        -11    1    3    3    0    0  0.21322033967E+03  0.25440475279E+03 -0.19888545796E+03  0.38696268150E+03  0.00000000000E+00 0. -1.
          2    1    6    6  502    0 -0.49362700802E+02 -0.37188268473E+02  0.74825095188E+02  0.97048639415E+02  0.00000000000E+00 0. -1.
          1    1    5    5  503    0  0.50748738217E+02  0.29794110898E+02  0.12100279817E+02  0.60079449451E+02  0.00000000000E+00 0. -1.
         -2    1    5    5    0  503  0.68484832057E+02  0.19800145315E+03  0.16891132014E+01  0.20951754288E+03  0.00000000000E+00 0.  1.
         -1    1    6    6    0  502 -0.30719629996E+03 -0.49702242016E+03  0.49068925930E+03  0.76300511272E+03  0.00000000000E+00 0.  1.
<mgrwt>
<rscale>  0 0.15924540E+04</rscale>
<asrwt>0</asrwt>
<pdfrwt beam="1">  1        2 0.10189223E+00 0.15924540E+04</pdfrwt>
<pdfrwt beam="2">  1       -2 0.14726721E+00 0.15924540E+04</pdfrwt>
<totfact> 0.13249934E+01</totfact>
</mgrwt>
</event>
<event>
12    1  0.1541840E-007  0.1686014E+04  0.7818608E-02  0.8769381E-01
         -2   -1    0    0    0  501 -0.00000000000E+00  0.00000000000E+00  0.79783833736E+03  0.79783833736E+03  0.00000000000E+00 0.  1.
          2   -1    0    0  501    0  0.00000000000E+00 -0.00000000000E+00 -0.89073332919E+03  0.89073332919E+03  0.00000000000E+00 0. -1.
         23    2    1    2    0    0 -0.29808175774E+03  0.11024633956E+03  0.47558892602E+03  0.57921686982E+03  0.91106344698E+02 0.  0.
        254    2    1    2    0    0  0.29808175774E+03 -0.11024633956E+03 -0.56848391786E+03  0.11093547967E+04  0.89804627413E+03 0.  0.
        -24    2    4    4    0    0  0.46690569442E+03  0.24828467061E+03 -0.41382013426E+03  0.67626660891E+03  0.80269655896E+02 0.  0.
         24    2    4    4    0    0 -0.16882393667E+03 -0.35853101017E+03 -0.15466378359E+03  0.43308818783E+03  0.81231063228E+02 0.  0.
         11    1    3    3    0    0 -0.27236491313E+03  0.12597261083E+03  0.43980218843E+03  0.53242624798E+03  0.00000000000E+00 0.  1.
        -11    1    3    3    0    0 -0.25716844614E+02 -0.15726271277E+02  0.35786737587E+02  0.46790621841E+02  0.00000000000E+00 0. -1.
          2    1    6    6  502    0 -0.36467712672E+02 -0.15831898209E+03 -0.83999357507E+02  0.18289528758E+03  0.00000000000E+00 0. -1.
          1    1    5    5  503    0  0.12020693001E+03  0.87893442742E+02 -0.80449928523E+02  0.16925470244E+03  0.00000000000E+00 0. -1.
         -2    1    5    5    0  503  0.34669876441E+03  0.16039122787E+03 -0.33337020574E+03  0.50701190647E+03  0.00000000000E+00 0.  1.
         -1    1    6    6    0  502 -0.13235622400E+03 -0.20021202808E+03 -0.70664426084E+02  0.25019290025E+03  0.00000000000E+00 0.  1.
<mgrwt>
<rscale>  0 0.16860145E+04</rscale>
<asrwt>0</asrwt>
<pdfrwt beam="1">  1        2 0.13703590E+00 0.16860145E+04</pdfrwt>
<pdfrwt beam="2">  1       -2 0.12274436E+00 0.16860145E+04</pdfrwt>
<totfact> 0.14222447E+01</totfact>
</mgrwt>
</event>
<event>
12    1  0.1541840E-007  0.2670938E+04  0.7818608E-02  0.8344497E-01
         -1   -1    0    0    0  501 -0.00000000000E+00  0.00000000000E+00  0.10947352877E+04  0.10947352877E+04  0.00000000000E+00 0.  1.
          1   -1    0    0  501    0  0.00000000000E+00 -0.00000000000E+00 -0.16291403885E+04  0.16291403885E+04  0.00000000000E+00 0. -1.
         23    2    1    2    0    0 -0.90982679971E+03  0.69603617577E+03 -0.51792437740E+03  0.12604527981E+04  0.90798855006E+02 0.  0.
        254    2    1    2    0    0  0.90982679971E+03 -0.69603617577E+03 -0.16480723406E+02  0.14634228780E+04  0.91054035731E+03 0.  0.
        -24    2    4    4    0    0  0.61301904389E+03 -0.31679603427E+02 -0.28797148323E+03  0.68277933739E+03  0.80399645329E+02 0.  0.
         24    2    4    4    0    0  0.29680775582E+03 -0.66435657234E+03  0.27149075982E+03  0.78064354065E+03  0.78946854048E+02 0.  0.
         11    1    3    3    0    0 -0.65890416022E+03  0.50971182898E+03 -0.42002224780E+03  0.93294133235E+03  0.00000000000E+00 0. -1.
        -11    1    3    3    0    0 -0.25092263950E+03  0.18632434679E+03 -0.97902129603E+02  0.32751146575E+03  0.00000000000E+00 0.  1.
          2    1    6    6  502    0  0.68395053575E+02 -0.22602178915E+03  0.11128389250E+03  0.26105140730E+03  0.00000000000E+00 0. -1.
          3    1    5    5  503    0  0.20207341928E+03 -0.39128603789E+02 -0.69061359548E+02  0.21710408978E+03  0.00000000000E+00 0. -1.
         -4    1    5    5    0  503  0.41094562461E+03  0.74490003627E+01 -0.21891012368E+03  0.46567524762E+03  0.00000000000E+00 0.  1.
         -1    1    6    6    0  502  0.22841270224E+03 -0.43833478319E+03  0.16020686732E+03  0.51959213335E+03  0.00000000000E+00 0.  1.
<mgrwt>
<rscale>  0 0.26709380E+04</rscale>
<asrwt>0</asrwt>
<pdfrwt beam="1">  1        1 0.25063698E+00 0.26709380E+04</pdfrwt>
<pdfrwt beam="2">  1       -1 0.16842081E+00 0.26709380E+04</pdfrwt>
<totfact> 0.11790304E+00</totfact>
</mgrwt>
</event>
<event>
12    1  0.1541840E-007  0.3010788E+04  0.7818608E-02  0.8240657E-01
         -2   -1    0    0    0  501 -0.00000000000E+00  0.00000000000E+00  0.87811471051E+03  0.87811471051E+03  0.00000000000E+00 0.  1.
          2   -1    0    0  501    0  0.00000000000E+00 -0.00000000000E+00 -0.25807693811E+04  0.25807693811E+04  0.00000000000E+00 0. -1.
         23    2    1    2    0    0 -0.10007264036E+03 -0.10878652732E+04 -0.17237386037E+04  0.20426377824E+04  0.87343862207E+02 0.  0.
        254    2    1    2    0    0  0.10007264036E+03  0.10878652732E+04  0.21083933077E+02  0.14162463092E+04  0.90102369011E+03 0.  0.
        -24    2    4    4    0    0  0.24134258124E+03  0.10804428285E+04 -0.21348037233E+03  0.11302978505E+04  0.79977585780E+02 0.  0.
         24    2    4    4    0    0 -0.14126994088E+03  0.74224447115E+01  0.23456430540E+03  0.28594845875E+03  0.82059848957E+02 0.  0.
         11    1    3    3    0    0  0.92316700178E+01 -0.92675937196E+02 -0.18007227458E+03  0.20273153958E+03  0.00000000000E+00 0.  1.
        -11    1    3    3    0    0 -0.10930431038E+03 -0.99518933602E+03 -0.15436663291E+04  0.18399062428E+04  0.00000000000E+00 0. -1.
          2    1    6    6  502    0 -0.54368687374E+02  0.11823884780E+02  0.16627801296E+03  0.17534005820E+03  0.00000000000E+00 0. -1.
          3    1    5    5  503    0  0.71301890732E+02  0.27463005387E+03 -0.89127141426E+02  0.29740422567E+03  0.00000000000E+00 0. -1.
         -4    1    5    5    0  503  0.17004069051E+03  0.80581277463E+03 -0.12435323090E+03  0.83289362480E+03  0.00000000000E+00 0.  1.
         -3    1    6    6    0  502 -0.86901253505E+02 -0.44014400684E+01  0.68286292447E+02  0.11060840055E+03  0.00000000000E+00 0.  1.
<mgrwt>
<rscale>  0 0.30107883E+04</rscale>
<asrwt>0</asrwt>
<pdfrwt beam="1">  1        2 0.39704145E+00 0.30107883E+04</pdfrwt>
<pdfrwt beam="2">  1       -2 0.13509457E+00 0.30107883E+04</pdfrwt>
<totfact> 0.10516862E+00</totfact>
</mgrwt>
</event>
<event>
12    1  0.1541840E-007  0.2836965E+04  0.7818608E-02  0.8291883E-01
         -2   -1    0    0    0  501 -0.00000000000E+00  0.00000000000E+00  0.78588298753E+03  0.78588298753E+03  0.00000000000E+00 0.  1.
          2   -1    0    0  501    0  0.00000000000E+00 -0.00000000000E+00 -0.25602951363E+04  0.25602951363E+04  0.00000000000E+00 0. -1.
         23    2    1    2    0    0  0.12465018101E+04 -0.19805874165E+03 -0.99404625065E+03  0.16089975300E+04  0.88040191802E+02 0.  0.
        254    2    1    2    0    0 -0.12465018101E+04  0.19805874165E+03 -0.78036589812E+03  0.17371805938E+04  0.90323388596E+03 0.  0.
        -24    2    4    4    0    0 -0.12472572112E+04 -0.78314612155E+02 -0.54590355591E+03  0.13661381368E+04  0.80864003592E+02 0.  0.
         24    2    4    4    0    0  0.75540104508E+00  0.27637335380E+03 -0.23446234221E+03  0.37104245704E+03  0.79480272298E+02 0.  0.
         13    1    3    3    0    0  0.10817636862E+04 -0.16257849674E+03 -0.82342577457E+03  0.13691875133E+04  0.00000000000E+00 0.  1.
        -13    1    3    3    0    0  0.16473812393E+03 -0.35480244906E+02 -0.17062047608E+03  0.23981001670E+03  0.00000000000E+00 0. -1.
          4    1    6    6  502    0 -0.22044378934E+02  0.37353746309E+02 -0.60938385796E+02  0.74798020491E+02  0.00000000000E+00 0. -1.
          3    1    5    5  503    0 -0.39842917997E+03 -0.62076790935E+02 -0.16744295103E+03  0.43661937803E+03  0.00000000000E+00 0. -1.
         -4    1    5    5    0  503 -0.84882803121E+03 -0.16237821220E+02 -0.37846060488E+03  0.92951875874E+03  0.00000000000E+00 0.  1.
         -3    1    6    6    0  502  0.22799779979E+02  0.23901960749E+03 -0.17352395642E+03  0.29624443655E+03  0.00000000000E+00 0.  1.
<mgrwt>
<rscale>  0 0.28369649E+04</rscale>
<asrwt>0</asrwt>
<pdfrwt beam="1">  1        2 0.39389156E+00 0.28369649E+04</pdfrwt>
<pdfrwt beam="2">  1       -2 0.12090508E+00 0.28369649E+04</pdfrwt>
<totfact> 0.14512660E+00</totfact>
</mgrwt>
</event>
<event>
12    1  0.1541840E-007  0.2064729E+04  0.7818608E-02  0.8576942E-01
          2   -1    0    0  501    0  0.00000000000E+00  0.00000000000E+00  0.14634469800E+04  0.14634469800E+04  0.00000000000E+00 0. -1.
         -2   -1    0    0    0  501 -0.00000000000E+00 -0.00000000000E+00 -0.72826440664E+03  0.72826440664E+03  0.00000000000E+00 0.  1.
         23    2    1    2    0    0 -0.75794937383E+03  0.19822338804E+03  0.28915104520E+01  0.78879872074E+03  0.91734923330E+02 0.  0.
        254    2    1    2    0    0  0.75794937383E+03 -0.19822338804E+03  0.73229106292E+03  0.14029126659E+04  0.90450759117E+03 0.  0.
        -24    2    4    4    0    0  0.60911976580E+03 -0.42226089154E+03  0.81986387141E+03  0.11080683725E+04  0.79420405658E+02 0.  0.
         24    2    4    4    0    0  0.14882960803E+03  0.22403750350E+03 -0.87572808489E+02  0.29484429343E+03  0.83193181084E+02 0.  0.
         13    1    3    3    0    0 -0.48431009167E+03  0.12650290147E+03 -0.42244378420E+02  0.50233836851E+03  0.00000000000E+00 0.  1.
        -13    1    3    3    0    0 -0.27363928216E+03  0.71720486565E+02  0.45135888872E+02  0.28646035223E+03  0.00000000000E+00 0. -1.
          4    1    6    6  502    0 -0.57148222432E+01 -0.27610766392E+01  0.10698939273E+01  0.64364128593E+01  0.00000000000E+00 0. -1.
          3    1    5    5  503    0  0.28025091493E+03 -0.14854639105E+03  0.36598468427E+03  0.48430506371E+03  0.00000000000E+00 0. -1.
         -4    1    5    5    0  503  0.32886885086E+03 -0.27371450049E+03  0.45387918715E+03  0.62376330877E+03  0.00000000000E+00 0.  1.
         -3    1    6    6    0  502  0.15454443028E+03  0.22679858014E+03 -0.88642702417E+02  0.28840788057E+03  0.00000000000E+00 0.  1.
<mgrwt>
<rscale>  0 0.20647289E+04</rscale>
<asrwt>0</asrwt>
<pdfrwt beam="1">  1        2 0.22514569E+00 0.20647289E+04</pdfrwt>
<pdfrwt beam="2">  1       -2 0.11204068E+00 0.20647289E+04</pdfrwt>
<totfact> 0.77326661E+00</totfact>
</mgrwt>
</event>
<event>
12    1  0.1541840E-007  0.1572639E+04  0.7818608E-02  0.8837535E-01
         -2   -1    0    0    0  501 -0.00000000000E+00  0.00000000000E+00  0.68893917953E+03  0.68893917953E+03  0.00000000000E+00 0.  1.
          2   -1    0    0  501    0  0.00000000000E+00 -0.00000000000E+00 -0.89746454182E+03  0.89746454182E+03  0.00000000000E+00 0. -1.
         23    2    1    2    0    0  0.13390040458E+03 -0.10353912053E+03 -0.55202811181E+03  0.58451604697E+03  0.90963207463E+02 0.  0.
        254    2    1    2    0    0 -0.13390040458E+03  0.10353912053E+03  0.34350274952E+03  0.10018876744E+04  0.92581591330E+03 0.  0.
        -24    2    4    4    0    0  0.16589076689E+03  0.43315247801E+03  0.27232982808E+03  0.54362467517E+03  0.78888759951E+02 0.  0.
         24    2    4    4    0    0 -0.29979117147E+03 -0.32961335749E+03  0.71172921441E+02  0.45826299920E+03  0.80122904157E+02 0.  0.
         11    1    3    3    0    0  0.75559920097E+01  0.15947931572E+02 -0.38724838398E+02  0.42556346714E+02  0.00000000000E+00 0.  1.
        -11    1    3    3    0    0  0.12634441257E+03 -0.11948705210E+03 -0.51330327341E+03  0.54195970025E+03  0.00000000000E+00 0. -1.
          4    1    6    6  502    0 -0.38550656559E+02 -0.17988879678E+02 -0.97609879028E+01  0.43646647042E+02  0.00000000000E+00 0. -1.
          3    1    5    5  503    0  0.13841099176E+03  0.25770039718E+03  0.18004659861E+03  0.34348780912E+03  0.00000000000E+00 0. -1.
         -4    1    5    5    0  503  0.27479775131E+02  0.17545208084E+03  0.92283229470E+02  0.20013686605E+03  0.00000000000E+00 0.  1.
         -3    1    6    6    0  502 -0.26124051491E+03 -0.31162447781E+03  0.80933909344E+02  0.41461635216E+03  0.00000000000E+00 0.  1.
<mgrwt>
<rscale>  0 0.15726392E+04</rscale>
<asrwt>0</asrwt>
<pdfrwt beam="1">  1        2 0.13807147E+00 0.15726392E+04</pdfrwt>
<pdfrwt beam="2">  1       -2 0.10599064E+00 0.15726392E+04</pdfrwt>
<totfact> 0.20332638E+01</totfact>
</mgrwt>
</event>
<event>
12    1  0.1541840E-007  0.2494688E+04  0.7818608E-02  0.8404880E-01
         -1   -1    0    0    0  501 -0.00000000000E+00  0.00000000000E+00  0.13438684141E+04  0.13438684141E+04  0.00000000000E+00 0.  1.
          1   -1    0    0  501    0  0.00000000000E+00 -0.00000000000E+00 -0.11577524344E+04  0.11577524344E+04  0.00000000000E+00 0. -1.
         23    2    1    2    0    0 -0.84532153381E+03 -0.38399652304E+03  0.63142540738E+03  0.11262977664E+04  0.88469137279E+02 0.  0.
        254    2    1    2    0    0  0.84532153381E+03  0.38399652304E+03 -0.44530942769E+03  0.13753230822E+04  0.91169691718E+03 0.  0.
        -24    2    4    4    0    0 -0.17716599280E+03  0.16086638059E+03 -0.59881698727E+02  0.25717233604E+03  0.72704959767E+02 0.  0.
         24    2    4    4    0    0  0.10224875266E+04  0.22313014245E+03 -0.38542772897E+03  0.11181507462E+04  0.80241848953E+02 0.  0.
         13    1    3    3    0    0 -0.12607328609E+03 -0.28746519159E+02  0.68853584637E+02  0.14649795885E+03  0.00000000000E+00 0.  1.
        -13    1    3    3    0    0 -0.71924824772E+03 -0.35525000388E+03  0.56257182275E+03  0.97979980754E+03  0.00000000000E+00 0. -1.
          2    1    6    6  502    0  0.31648057772E+03  0.75470901231E+02 -0.15924357890E+03  0.36223518662E+03  0.00000000000E+00 0. -1.
          3    1    5    5  503    0 -0.12328944083E+03  0.10419489576E+03 -0.47402029205E+01  0.16149096584E+03  0.00000000000E+00 0. -1.
         -4    1    5    5    0  503 -0.53876551965E+02  0.56671484831E+02 -0.55141495806E+02  0.95681370205E+02  0.00000000000E+00 0.  1.
         -1    1    6    6    0  502  0.70600694889E+03  0.14765924122E+03 -0.22618415006E+03  0.75591555953E+03  0.00000000000E+00 0.  1.
<mgrwt>
<rscale>  0 0.24946879E+04</rscale>
<asrwt>0</asrwt>
<pdfrwt beam="1">  1        1 0.17811576E+00 0.24946879E+04</pdfrwt>
<pdfrwt beam="2">  1       -1 0.20674899E+00 0.24946879E+04</pdfrwt>
<totfact> 0.13802548E+00</totfact>
</mgrwt>
</event>
<event>
12    1  0.1541840E-007  0.3257777E+04  0.7818608E-02  0.8173723E-01
         -1   -1    0    0    0  501 -0.00000000000E+00  0.00000000000E+00  0.12343747563E+04  0.12343747563E+04  0.00000000000E+00 0.  1.
          1   -1    0    0  501    0  0.00000000000E+00 -0.00000000000E+00 -0.21494915014E+04  0.21494915014E+04  0.00000000000E+00 0. -1.
         23    2    1    2    0    0 -0.14964990501E+04 -0.40239655395E+02 -0.55120882737E+03  0.15978489598E+04  0.90340966635E+02 0.  0.
        254    2    1    2    0    0  0.14964990501E+04  0.40239655395E+02 -0.36390791765E+03  0.17860172979E+04  0.90349331984E+03 0.  0.
        -24    2    4    4    0    0  0.39804469446E+03 -0.37377227110E+03 -0.24392832732E+03  0.60335262590E+03  0.79925420761E+02 0.  0.
         24    2    4    4    0    0  0.10984543556E+04  0.41401192649E+03 -0.11997959033E+03  0.11826646720E+04  0.79327029174E+02 0.  0.
         11    1    3    3    0    0 -0.50103764278E+03 -0.32792800223E+02 -0.22558793363E+03  0.55045799388E+03  0.00000000000E+00 0. -1.
        -11    1    3    3    0    0 -0.99546140732E+03 -0.74468551717E+01 -0.32562089374E+03  0.10473909660E+04  0.00000000000E+00 0.  1.
          2    1    6    6  502    0  0.10190957155E+04  0.38363407675E+03 -0.13184667267E+03  0.10968658657E+04  0.00000000000E+00 0. -1.
          1    1    5    5  503    0  0.35626317611E+03 -0.36311793850E+03 -0.22638500200E+03  0.55680181128E+03  0.00000000000E+00 0. -1.
         -2    1    5    5    0  503  0.41781518343E+02 -0.10654332592E+02 -0.17543325324E+02  0.46550814617E+02  0.00000000000E+00 0.  1.
         -1    1    6    6    0  502  0.79358640122E+02  0.30377849738E+02  0.11867082346E+02  0.85798806286E+02  0.00000000000E+00 0.  1.
<mgrwt>
<rscale>  0 0.32577772E+04</rscale>
<asrwt>0</asrwt>
<pdfrwt beam="1">  1        1 0.33069100E+00 0.32577772E+04</pdfrwt>
<pdfrwt beam="2">  1       -1 0.18990381E+00 0.32577772E+04</pdfrwt>
<totfact> 0.34746952E-01</totfact>
</mgrwt>
</event>
<event>
12    1  0.1541840E-007  0.2900757E+04  0.7818608E-02  0.8272652E-01
         -2   -1    0    0    0  501 -0.00000000000E+00  0.00000000000E+00  0.91107771153E+03  0.91107771153E+03  0.00000000000E+00 0.  1.
          2   -1    0    0  501    0  0.00000000000E+00 -0.00000000000E+00 -0.23089116687E+04  0.23089116687E+04  0.00000000000E+00 0. -1.
         23    2    1    2    0    0  0.53908142283E+03 -0.16235491875E+03  0.67776483201E+03  0.88808371983E+03  0.11117385408E+03 0.  0.
        254    2    1    2    0    0 -0.53908142283E+03  0.16235491875E+03 -0.20755987892E+04  0.23319056604E+04  0.90150195522E+03 0.  0.
        -24    2    4    4    0    0  0.50563192580E+02 -0.26661654498E+03 -0.30683888336E+03  0.41715930069E+03  0.78935184226E+02 0.  0.
         24    2    4    4    0    0 -0.58964461541E+03  0.42897146373E+03 -0.17687599058E+04  0.19147463597E+04  0.77747851498E+02 0.  0.
         13    1    3    3    0    0  0.36387871814E+03 -0.13115804769E+03  0.38681266742E+03  0.54702302937E+03  0.00000000000E+00 0.  1.
        -13    1    3    3    0    0  0.17520270470E+03 -0.31196871069E+02  0.29095216459E+03  0.34106069046E+03  0.00000000000E+00 0. -1.
          2    1    6    6  502    0 -0.47297464505E+03  0.36213904868E+03 -0.15072633933E+04  0.16207074512E+04  0.00000000000E+00 0. -1.
          3    1    5    5  503    0 -0.16856523633E+02 -0.10093789004E+03 -0.92052825576E+02  0.13764564189E+03  0.00000000000E+00 0. -1.
         -4    1    5    5    0  503  0.67419716213E+02 -0.16567865494E+03 -0.21478605779E+03  0.27951365880E+03  0.00000000000E+00 0.  1.
         -1    1    6    6    0  502 -0.11666997036E+03  0.66832415046E+02 -0.26149651250E+03  0.29403890854E+03  0.00000000000E+00 0.  1.
<mgrwt>
<rscale>  0 0.29007571E+04</rscale>
<asrwt>0</asrwt>
<pdfrwt beam="1">  1        2 0.35521718E+00 0.29007571E+04</pdfrwt>
<pdfrwt beam="2">  1       -2 0.14016580E+00 0.29007571E+04</pdfrwt>
<totfact> 0.13845440E+00</totfact>
</mgrwt>
</event>
<event>
12    1  0.1541840E-007  0.2808068E+04  0.7818608E-02  0.8300768E-01
          2   -1    0    0  501    0  0.00000000000E+00  0.00000000000E+00  0.12691841536E+04  0.12691841536E+04  0.00000000000E+00 0. -1.
         -2   -1    0    0    0  501 -0.00000000000E+00 -0.00000000000E+00 -0.15532111707E+04  0.15532111707E+04  0.00000000000E+00 0.  1.
         23    2    1    2    0    0  0.95803828481E+03 -0.27362688208E+03 -0.89632289112E+03  0.13432187757E+04  0.90182749831E+02 0.  0.
        254    2    1    2    0    0 -0.95803828481E+03  0.27362688208E+03  0.61229587398E+03  0.14791765487E+04  0.90573064383E+03 0.  0.
        -24    2    4    4    0    0 -0.10419124832E+04  0.27401066722E+03  0.26353530708E+03  0.11120234272E+04  0.80509477655E+02 0.  0.
         24    2    4    4    0    0  0.83874198438E+02 -0.38378513735E+00  0.34876056690E+03  0.36715312153E+03  0.78309981306E+02 0.  0.
         13    1    3    3    0    0  0.73281876485E+03 -0.24009240036E+03 -0.72282044025E+03  0.10569470619E+04  0.00000000000E+00 0.  1.
        -13    1    3    3    0    0  0.22521951996E+03 -0.33534481720E+02 -0.17350245087E+03  0.28627171375E+03  0.00000000000E+00 0. -1.
          4    1    6    6  502    0  0.11688181549E+02 -0.14999705194E+02  0.20254374231E+03  0.20343444225E+03  0.00000000000E+00 0. -1.
          3    1    5    5  503    0 -0.10110938358E+04  0.27014899113E+03  0.24185031615E+03  0.10741428199E+04  0.00000000000E+00 0. -1.
         -4    1    5    5    0  503 -0.30818647485E+02  0.38616760849E+01  0.21684990930E+02  0.37880607263E+02  0.00000000000E+00 0.  1.
         -3    1    6    6    0  502  0.72186016889E+02  0.14615920057E+02  0.14621682458E+03  0.16371867928E+03  0.00000000000E+00 0.  1.
<mgrwt>
<rscale>  0 0.28080677E+04</rscale>
<asrwt>0</asrwt>
<pdfrwt beam="1">  1        2 0.19525910E+00 0.28080677E+04</pdfrwt>
<pdfrwt beam="2">  1       -2 0.23895556E+00 0.28080677E+04</pdfrwt>
<totfact> 0.11267459E+00</totfact>
</mgrwt>
</event>
<event>
12    1  0.1541840E-007  0.1377222E+04  0.7818608E-02  0.8970473E-01
          2   -1    0    0  501    0  0.00000000000E+00  0.00000000000E+00  0.12505940989E+04  0.12505940989E+04  0.00000000000E+00 0. -1.
         -2   -1    0    0    0  501 -0.00000000000E+00 -0.00000000000E+00 -0.37916786151E+03  0.37916786151E+03  0.00000000000E+00 0.  1.
         23    2    1    2    0    0  0.19670195326E+03 -0.18517312002E+03  0.59725572926E+03  0.66166652444E+03  0.90041327352E+02 0.  0.
        254    2    1    2    0    0 -0.19670195326E+03  0.18517312002E+03  0.27417050809E+03  0.96809543593E+03  0.88828968403E+03 0.  0.
        -24    2    4    4    0    0  0.33423607384E+03  0.16336560853E+03  0.37257231468E+02  0.38070167024E+03  0.71718793354E+02 0.  0.
         24    2    4    4    0    0 -0.53093802710E+03  0.21807511495E+02  0.23691327662E+03  0.58739376569E+03  0.80825609504E+02 0.  0.
         11    1    3    3    0    0  0.19027405499E+02 -0.54669163612E+02  0.18934447789E+03  0.19799517903E+03  0.00000000000E+00 0.  1.
        -11    1    3    3    0    0  0.17767454776E+03 -0.13050395641E+03  0.40791125137E+03  0.46367134541E+03  0.00000000000E+00 0. -1.
          2    1    6    6  502    0 -0.26756703644E+03 -0.28580752983E+02  0.10952150284E+03  0.29052355845E+03  0.00000000000E+00 0. -1.
          3    1    5    5  503    0  0.23646542743E+03  0.14974774255E+03  0.21262695795E+02  0.28069981653E+03  0.00000000000E+00 0. -1.
         -4    1    5    5    0  503  0.97770646412E+02  0.13617865975E+02  0.15994535673E+02  0.10000185371E+03  0.00000000000E+00 0.  1.
         -1    1    6    6    0  502 -0.26337099066E+03  0.50388264478E+02  0.12739177378E+03  0.29687020724E+03  0.00000000000E+00 0.  1.
<mgrwt>
<rscale>  0 0.13772220E+04</rscale>
<asrwt>0</asrwt>
<pdfrwt beam="1">  1        2 0.19239909E+00 0.13772220E+04</pdfrwt>
<pdfrwt beam="2">  1       -2 0.58333518E-01 0.13772220E+04</pdfrwt>
<totfact> 0.47354953E+01</totfact>
</mgrwt>
</event>
<event>
12    1  0.1955841E-007  0.1408175E+04  0.7818608E-02  0.8947922E-01
         -1   -1    0    0    0  501 -0.00000000000E+00  0.00000000000E+00  0.46885477811E+03  0.46885477811E+03  0.00000000000E+00 0.  1.
          1   -1    0    0  501    0  0.00000000000E+00 -0.00000000000E+00 -0.10573402068E+04  0.10573402068E+04  0.00000000000E+00 0. -1.
         23    2    1    2    0    0  0.29226932276E+02 -0.73616851224E+02 -0.61150682192E+03  0.62328601411E+03  0.90946180632E+02 0.  0.
        254    2    1    2    0    0 -0.29226932276E+02  0.73616851224E+02  0.23021393250E+02  0.90290897079E+03  0.89913345541E+03 0.  0.
        -24    2    4    4    0    0  0.42744280316E+03  0.16995577125E+02  0.26850479909E+02  0.43583538897E+03  0.78964158878E+02 0.  0.
         24    2    4    4    0    0 -0.45666973544E+03  0.56621274098E+02 -0.38290866593E+01  0.46707358183E+03  0.79936556043E+02 0.  0.
         13    1    3    3    0    0  0.29652674183E+02 -0.81366441463E+02 -0.60900483568E+03  0.61513142398E+03  0.00000000000E+00 0. -1.
        -13    1    3    3    0    0 -0.42574190717E+00  0.77495902389E+01 -0.25019862410E+01  0.81545901303E+01  0.00000000000E+00 0.  1.
          2    1    6    6  502    0 -0.37397154688E+03  0.47940108032E+02  0.27924203368E+02  0.37806445610E+03  0.00000000000E+00 0. -1.
          3    1    5    5  503    0  0.37102318734E+03 -0.12196260852E+02  0.17594627220E+02  0.37164031702E+03  0.00000000000E+00 0. -1.
         -4    1    5    5    0  503  0.56419615818E+02  0.29191837978E+02  0.92558526885E+01  0.64195071949E+02  0.00000000000E+00 0.  1.
         -1    1    6    6    0  502 -0.82698188554E+02  0.86811660664E+01 -0.31753290027E+02  0.89009125723E+02  0.00000000000E+00 0.  1.
<mgrwt>
<rscale>  0 0.14081747E+04</rscale>
<asrwt>0</asrwt>
<pdfrwt beam="1">  1        1 0.16266772E+00 0.14081747E+04</pdfrwt>
<pdfrwt beam="2">  1       -1 0.72131505E-01 0.14081747E+04</pdfrwt>
<totfact> 0.25819430E+01</totfact>
</mgrwt>
</event>
<event>
12    1  0.1541840E-007  0.1971324E+04  0.7818608E-02  0.8620146E-01
         -1   -1    0    0    0  501 -0.00000000000E+00  0.00000000000E+00  0.10342476435E+04  0.10342476435E+04  0.00000000000E+00 0.  1.
          1   -1    0    0  501    0  0.00000000000E+00 -0.00000000000E+00 -0.93935887585E+03  0.93935887585E+03  0.00000000000E+00 0. -1.
         23    2    1    2    0    0  0.57150324838E+03 -0.40618638788E+03 -0.28592731569E+03  0.76262544732E+03  0.90773335516E+02 0.  0.
        254    2    1    2    0    0 -0.57150324838E+03  0.40618638788E+03  0.38081608332E+03  0.12109810720E+04  0.91096153752E+03 0.  0.
        -24    2    4    4    0    0 -0.22409062411E+03 -0.13699414598E+03 -0.19942770599E+03  0.33971026233E+03  0.81533113343E+02 0.  0.
         24    2    4    4    0    0 -0.34741262427E+03  0.54318053386E+03  0.58024378931E+03  0.87127080967E+03  0.81788415408E+02 0.  0.
         11    1    3    3    0    0  0.48961314593E+03 -0.37158055887E+03 -0.27389567362E+03  0.67291305859E+03  0.00000000000E+00 0. -1.
        -11    1    3    3    0    0  0.81890102448E+02 -0.34605829007E+02 -0.12031642068E+02  0.89712388727E+02  0.00000000000E+00 0.  1.
          4    1    6    6  502    0 -0.28063761791E+03  0.45956648610E+03  0.51951035850E+03  0.74823114098E+03  0.00000000000E+00 0. -1.
          3    1    5    5  503    0 -0.18479654938E+03 -0.13211508055E+03 -0.13548386931E+03  0.26449959927E+03  0.00000000000E+00 0. -1.
         -4    1    5    5    0  503 -0.39294074730E+02 -0.48790654223E+01 -0.63943836681E+02  0.75210663059E+02  0.00000000000E+00 0.  1.
         -3    1    6    6    0  502 -0.66775006352E+02  0.83614047756E+02  0.60733430811E+02  0.12303966870E+03  0.00000000000E+00 0.  1.
<mgrwt>
<rscale>  0 0.19713241E+04</rscale>
<asrwt>0</asrwt>
<pdfrwt beam="1">  1        1 0.14451675E+00 0.19713241E+04</pdfrwt>
<pdfrwt beam="2">  1       -1 0.15911502E+00 0.19713241E+04</pdfrwt>
<totfact> 0.46657897E+00</totfact>
</mgrwt>
</event>
<event>
12    1  0.1541840E-007  0.2555581E+04  0.7818608E-02  0.8383448E-01
         -3   -1    0    0    0  501 -0.00000000000E+00  0.00000000000E+00  0.14774661400E+04  0.14774661400E+04  0.00000000000E+00 0.  1.
          3   -1    0    0  501    0  0.00000000000E+00 -0.00000000000E+00 -0.11051003824E+04  0.11051003824E+04  0.00000000000E+00 0. -1.
         23    2    1    2    0    0 -0.39716773429E+03  0.22044160242E+03 -0.86682826785E+03  0.98271917341E+03  0.89493120392E+02 0.  0.
        254    2    1    2    0    0  0.39716773429E+03 -0.22044160242E+03  0.12391940255E+04  0.15998473490E+04  0.90419743305E+03 0.  0.
        -24    2    4    4    0    0  0.50838281858E+02  0.27432211504E+03  0.79328732158E+03  0.84452902030E+03  0.78021393556E+02 0.  0.
         24    2    4    4    0    0  0.34632945244E+03 -0.49476371747E+03  0.44590670390E+03  0.75531832865E+03  0.83293236622E+02 0.  0.
         13    1    3    3    0    0 -0.11876391964E+03  0.48028581325E+02 -0.32873670703E+03  0.35281643355E+03  0.00000000000E+00 0.  1.
        -13    1    3    3    0    0 -0.27840381466E+03  0.17241302110E+03 -0.53809156082E+03  0.62990273986E+03  0.00000000000E+00 0. -1.
          2    1    6    6  502    0  0.22698160772E+03 -0.25326083948E+03  0.23980355960E+03  0.41613393308E+03  0.00000000000E+00 0. -1.
          1    1    5    5  503    0  0.28526937479E+02  0.25813849109E+03  0.67921959483E+03  0.72717846829E+03  0.00000000000E+00 0. -1.
         -2    1    5    5    0  503  0.22311344379E+02  0.16183623957E+02  0.11406772675E+03  0.11735055202E+03  0.00000000000E+00 0.  1.
         -1    1    6    6    0  502  0.11934784472E+03 -0.24150287798E+03  0.20610314430E+03  0.33918439558E+03  0.00000000000E+00 0.  1.
<mgrwt>
<rscale>  0 0.25555809E+04</rscale>
<asrwt>0</asrwt>
<pdfrwt beam="1">  1        3 0.17001544E+00 0.25555809E+04</pdfrwt>
<pdfrwt beam="2">  1       -3 0.22730248E+00 0.25555809E+04</pdfrwt>
<totfact> 0.53379159E-02</totfact>
</mgrwt>
</event>
<event>
12    1  0.1541840E-007  0.2144383E+04  0.7818608E-02  0.8541940E-01
         -1   -1    0    0    0  501 -0.00000000000E+00  0.00000000000E+00  0.12554557056E+04  0.12554557056E+04  0.00000000000E+00 0.  1.
          1   -1    0    0  501    0  0.00000000000E+00 -0.00000000000E+00 -0.91567940011E+03  0.91567940011E+03  0.00000000000E+00 0. -1.
         23    2    1    2    0    0  0.17020913077E+03  0.81363474428E+03 -0.13906232403E+03  0.84742768973E+03  0.88446108223E+02 0.  0.
        254    2    1    2    0    0 -0.17020913077E+03 -0.81363474428E+03  0.47883862951E+03  0.13237074160E+04  0.91210868031E+03 0.  0.
        -24    2    4    4    0    0  0.92034731685E+02 -0.34036678752E+03 -0.23023399772E+03  0.42826874609E+03  0.78015916924E+02 0.  0.
         24    2    4    4    0    0 -0.26224386245E+03 -0.47326795676E+03  0.70907262722E+03  0.89543866988E+03  0.79196076568E+02 0.  0.
         11    1    3    3    0    0  0.65264575052E+02  0.35162139642E+03 -0.10354844580E+03  0.37231619868E+03  0.00000000000E+00 0.  1.
        -11    1    3    3    0    0  0.10494455571E+03  0.46201334786E+03 -0.35513878238E+02  0.47511149105E+03  0.00000000000E+00 0. -1.
          4    1    6    6  502    0 -0.79452083913E+02 -0.99781240959E+02  0.21158275226E+03  0.24705503585E+03  0.00000000000E+00 0. -1.
          3    1    5    5  503    0 -0.10565115832E+02 -0.55176058232E+02 -0.20994871750E+02  0.59973358372E+02  0.00000000000E+00 0. -1.
         -4    1    5    5    0  503  0.10259984752E+03 -0.28519072929E+03 -0.20923912597E+03  0.36829538772E+03  0.00000000000E+00 0.  1.
         -3    1    6    6    0  502 -0.18279177854E+03 -0.37348671580E+03  0.49748987496E+03  0.64838363402E+03  0.00000000000E+00 0.  1.
<mgrwt>
<rscale>  0 0.21443833E+04</rscale>
<asrwt>0</asrwt>
<pdfrwt beam="1">  1        1 0.14087375E+00 0.21443833E+04</pdfrwt>
<pdfrwt beam="2">  1       -1 0.19314703E+00 0.21443833E+04</pdfrwt>
<totfact> 0.27182139E+00</totfact>
</mgrwt>
</event>
<event>
12    1  0.1541840E-007  0.1148846E+04  0.7818608E-02  0.9158849E-01
         -1   -1    0    0    0  501 -0.00000000000E+00  0.00000000000E+00  0.48172832348E+03  0.48172832348E+03  0.00000000000E+00 0.  1.
          1   -1    0    0  501    0  0.00000000000E+00 -0.00000000000E+00 -0.68495391771E+03  0.68495391771E+03  0.00000000000E+00 0. -1.
         23    2    1    2    0    0  0.17756739209E+03  0.56504378921E+02 -0.12138034783E+03  0.24098077126E+03  0.92820362568E+02 0.  0.
        254    2    1    2    0    0 -0.17756739209E+03 -0.56504378921E+02 -0.81845246401E+02  0.92570146993E+03  0.90305129616E+03 0.  0.
        -24    2    4    4    0    0 -0.33598883005E+03 -0.34955009821E+03 -0.24105386559E+03  0.54797634982E+03  0.84245764071E+02 0.  0.
         24    2    4    4    0    0  0.15842143796E+03  0.29304571929E+03  0.15920861919E+03  0.37772512011E+03  0.79722872074E+02 0.  0.
         11    1    3    3    0    0  0.10194761585E+03  0.23325340514E+02 -0.11892147073E+03  0.15836572889E+03  0.00000000000E+00 0. -1.
        -11    1    3    3    0    0  0.75619776246E+02  0.33179038407E+02 -0.24588770969E+01  0.82615042369E+02  0.00000000000E+00 0.  1.
          4    1    6    6  502    0  0.97365609376E+01  0.47629231178E+02  0.52581364271E+02  0.71611061647E+02  0.00000000000E+00 0. -1.
          3    1    5    5  503    0 -0.25013239796E+03 -0.30785397081E+03 -0.19373798356E+03  0.44144613502E+03  0.00000000000E+00 0. -1.
         -2    1    5    5    0  503 -0.85856432094E+02 -0.41696127402E+02 -0.47315882033E+02  0.10653021480E+03  0.00000000000E+00 0.  1.
         -3    1    6    6    0  502  0.14868487703E+03  0.24541648811E+03  0.10662725492E+03  0.30611405846E+03  0.00000000000E+00 0.  1.
<mgrwt>
<rscale>  0 0.11488459E+04</rscale>
<asrwt>0</asrwt>
<pdfrwt beam="1">  1        1 0.10537753E+00 0.11488459E+04</pdfrwt>
<pdfrwt beam="2">  1       -1 0.74112049E-01 0.11488459E+04</pdfrwt>
<totfact> 0.51286886E+01</totfact>
</mgrwt>
</event>
<event>
12    1  0.1541840E-007  0.1446334E+04  0.7818608E-02  0.8920946E-01
         -1   -1    0    0    0  501 -0.00000000000E+00  0.00000000000E+00  0.67468757768E+03  0.67468757768E+03  0.00000000000E+00 0.  1.
          1   -1    0    0  501    0  0.00000000000E+00 -0.00000000000E+00 -0.77512947668E+03  0.77512947668E+03  0.00000000000E+00 0. -1.
         23    2    1    2    0    0  0.22145464929E+03 -0.32272390734E+03 -0.22640326300E+03  0.46119563308E+03  0.90830019335E+02 0.  0.
        254    2    1    2    0    0 -0.22145464929E+03  0.32272390734E+03  0.12596136400E+03  0.98862142129E+03  0.89906238235E+03 0.  0.
        -24    2    4    4    0    0 -0.28673345601E+03  0.27801681744E+03  0.47247843996E+03  0.62388129980E+03  0.80514436231E+02 0.  0.
         24    2    4    4    0    0  0.65278806723E+02  0.44707089902E+02 -0.34651707597E+03  0.36474012148E+03  0.81861015079E+02 0.  0.
         13    1    3    3    0    0  0.17545962767E+03 -0.26205112513E+03 -0.22054629739E+03  0.38483443507E+03  0.00000000000E+00 0. -1.
        -13    1    3    3    0    0  0.45995021621E+02 -0.60672782206E+02 -0.58569656092E+01  0.76361198004E+02  0.00000000000E+00 0.  1.
          4    1    6    6  502    0  0.74253661406E+02  0.48029162746E+02 -0.34350753616E+03  0.35470809704E+03  0.00000000000E+00 0. -1.
          3    1    5    5  503    0 -0.25627895088E+03  0.20475946994E+03  0.37643358508E+03  0.49930710507E+03  0.00000000000E+00 0. -1.
         -4    1    5    5    0  503 -0.30454505131E+02  0.73257347492E+02  0.96044854880E+02  0.12457419473E+03  0.00000000000E+00 0.  1.
         -3    1    6    6    0  502 -0.89748546836E+01 -0.33220728436E+01 -0.30095398014E+01  0.10032024441E+02  0.00000000000E+00 0.  1.
<mgrwt>
<rscale>  0 0.14463336E+04</rscale>
<asrwt>0</asrwt>
<pdfrwt beam="1">  1        1 0.11925069E+00 0.14463336E+04</pdfrwt>
<pdfrwt beam="2">  1       -1 0.10379809E+00 0.14463336E+04</pdfrwt>
<totfact> 0.19763846E+01</totfact>
</mgrwt>
</event>
<event>
12    1  0.1541840E-007  0.1276736E+04  0.7818608E-02  0.9048220E-01
          2   -1    0    0  501    0  0.00000000000E+00  0.00000000000E+00  0.15109265084E+04  0.15109265084E+04  0.00000000000E+00 0.  1.
         -2   -1    0    0    0  501 -0.00000000000E+00 -0.00000000000E+00 -0.26971125890E+03  0.26971125890E+03  0.00000000000E+00 0. -1.
         23    2    1    2    0    0 -0.12362082925E+03  0.14695120533E+03 -0.25379581539E+02  0.21393478519E+03  0.90814112229E+02 0.  0.
        254    2    1    2    0    0  0.12362082925E+03 -0.14695120533E+03  0.12665948311E+04  0.15667029822E+04  0.90189744540E+03 0.  0.
        -24    2    4    4    0    0 -0.29545603772E+03  0.64736201299E+02  0.93728012299E+03  0.98804233803E+03  0.79048003214E+02 0.  0.
         24    2    4    4    0    0  0.41907686697E+03 -0.21168740663E+03  0.32931470809E+03  0.57866064413E+03  0.77220369999E+02 0.  0.
         13    1    3    3    0    0 -0.13782491356E+02  0.66589441365E+02  0.19307715373E+02  0.70688744806E+02  0.00000000000E+00 0.  1.
        -13    1    3    3    0    0 -0.10983833789E+03  0.80361763970E+02 -0.44687296912E+02  0.14324604038E+03  0.00000000000E+00 0. -1.
          4    1    6    6  502    0  0.19850167358E+03 -0.58241875790E+02  0.15251166264E+03  0.25701135725E+03  0.00000000000E+00 0. -1.
          3    1    5    5  503    0 -0.22566743427E+03  0.13973427284E+02  0.69487092216E+03  0.73073021425E+03  0.00000000000E+00 0. -1.
         -4    1    5    5    0  503 -0.69788603448E+02  0.50762774015E+02  0.24240920083E+03  0.25731212378E+03  0.00000000000E+00 0.  1.
         -3    1    6    6    0  502  0.22057519338E+03 -0.15344553084E+03  0.17680304545E+03  0.32164928688E+03  0.00000000000E+00 0.  1.
<mgrwt>
<rscale>  0 0.12767363E+04</rscale>
<asrwt>0</asrwt>
<pdfrwt beam="1">  1        2 0.23245023E+00 0.12767363E+04</pdfrwt>
<pdfrwt beam="2">  1       -2 0.41494041E-01 0.12767363E+04</pdfrwt>
<totfact> 0.67578103E+01</totfact>
</mgrwt>
</event>
<event>
12    1  0.1541840E-007  0.1363734E+04  0.7818608E-02  0.8980496E-01
          2   -1    0    0  501    0  0.00000000000E+00  0.00000000000E+00  0.51713442061E+03  0.51713442061E+03  0.00000000000E+00 0. -1.
         -2   -1    0    0    0  501 -0.00000000000E+00 -0.00000000000E+00 -0.89907481554E+03  0.89907481554E+03  0.00000000000E+00 0.  1.
         23    2    1    2    0    0  0.34038825142E+03 -0.11608730484E+03 -0.21280666353E+03  0.42848965208E+03  0.94743241705E+02 0.  0.
        254    2    1    2    0    0 -0.34038825142E+03  0.11608730484E+03 -0.16913373139E+03  0.98771958407E+03  0.90423632619E+03 0.  0.
        -24    2    4    4    0    0 -0.37140886106E+02 -0.14173025836E+03 -0.45909790517E+03  0.48778596795E+03  0.75480808484E+02 0.  0.
         24    2    4    4    0    0 -0.30324736531E+03  0.25781756320E+03  0.28996417378E+03  0.49993361611E+03  0.86171561346E+02 0.  0.
         13    1    3    3    0    0  0.49173094119E+02  0.14136070960E+01 -0.64730204165E+02  0.81301849927E+02  0.00000000000E+00 0.  1.
        -13    1    3    3    0    0  0.29121515730E+03 -0.11750091194E+03 -0.14807645937E+03  0.34718780216E+03  0.00000000000E+00 0. -1.
          2    1    6    6  502    0 -0.98550991893E+02  0.13003930903E+03  0.88720207748E+02  0.18572505259E+03  0.00000000000E+00 0. -1.
          1    1    5    5  503    0 -0.49581958050E+02 -0.14332608682E+03 -0.43385314690E+03  0.45959687858E+03  0.00000000000E+00 0. -1.
         -2    1    5    5    0  503  0.12441071945E+02  0.15958284646E+01 -0.25244758263E+02  0.28189089367E+02  0.00000000000E+00 0.  1.
         -1    1    6    6    0  502 -0.20469637342E+03  0.12777825416E+03  0.20124396603E+03  0.31420856352E+03  0.00000000000E+00 0.  1.
<mgrwt>
<rscale>  0 0.13637339E+04</rscale>
<asrwt>0</asrwt>
<pdfrwt beam="1">  1        2 0.79559142E-01 0.13637339E+04</pdfrwt>
<pdfrwt beam="2">  1       -2 0.13831920E+00 0.13637339E+04</pdfrwt>
<totfact> 0.21395516E+01</totfact>
</mgrwt>
</event>
<event>
12    1  0.1541840E-007  0.2281991E+04  0.7818608E-02  0.8485056E-01
          1   -1    0    0  501    0  0.00000000000E+00  0.00000000000E+00  0.39123367103E+04  0.39123367103E+04  0.00000000000E+00 0. -1.
         -1   -1    0    0    0  501 -0.00000000000E+00 -0.00000000000E+00 -0.33276051500E+03  0.33276051500E+03  0.00000000000E+00 0.  1.
         23    2    1    2    0    0 -0.46666848166E+02 -0.27569923092E+03 -0.19055821281E+03  0.35856807789E+03  0.11862029070E+03 0.  0.
        254    2    1    2    0    0  0.46666848166E+02  0.27569923092E+03  0.37701344081E+04  0.38865291474E+04  0.90166928403E+03 0.  0.
        -24    2    4    4    0    0  0.37202385122E+03  0.42747087896E+03  0.24638832274E+04  0.25295452365E+04  0.82130672648E+02 0.  0.
         24    2    4    4    0    0 -0.32535700305E+03 -0.15177164804E+03  0.13062511808E+04  0.13569839109E+04  0.78875690543E+02 0.  0.
         13    1    3    3    0    0 -0.14999587364E+02 -0.18842276859E+03 -0.18664795123E+03  0.26564183602E+03  0.00000000000E+00 0.  1.
        -13    1    3    3    0    0 -0.31667260802E+02 -0.87276462329E+02 -0.39102615798E+01  0.92926241875E+02  0.00000000000E+00 0. -1.
          4    1    6    6  502    0 -0.23784384207E+02 -0.14033355223E+02  0.44250471814E+02  0.52160677207E+02  0.00000000000E+00 0. -1.
          3    1    5    5  503    0  0.82479829632E+00 -0.16682575000E+00 -0.47327150514E+00  0.96545791107E+00  0.00000000000E+00 0. -1.
         -4    1    5    5    0  503  0.37119905292E+03  0.42763770471E+03  0.24643564989E+04  0.25285797786E+04  0.00000000000E+00 0.  1.
         -1    1    6    6    0  502 -0.30157261884E+03 -0.13773829282E+03  0.12620007090E+04  0.13048232337E+04  0.00000000000E+00 0.  1.
<mgrwt>
<rscale>  0 0.22819914E+04</rscale>
<asrwt>0</asrwt>
<pdfrwt beam="1">  1        1 0.60189792E+00 0.22819914E+04</pdfrwt>
<pdfrwt beam="2">  1       -1 0.51193928E-01 0.22819914E+04</pdfrwt>
<totfact> 0.39899686E-01</totfact>
</mgrwt>
</event>
<event>
12    1  0.1541840E-007  0.3285757E+04  0.7818608E-02  0.8166529E-01
         -2   -1    0    0    0  501 -0.00000000000E+00  0.00000000000E+00  0.98142866628E+03  0.98142866628E+03  0.00000000000E+00 0.  1.
          2   -1    0    0  501    0  0.00000000000E+00 -0.00000000000E+00 -0.27501233051E+04  0.27501233051E+04  0.00000000000E+00 0. -1.
         23    2    1    2    0    0 -0.56682667925E+03 -0.33102671852E+03  0.73576948820E+03  0.99037435056E+03  0.92808629935E+02 0.  0.
        254    2    1    2    0    0  0.56682667925E+03  0.33102671852E+03 -0.25044641271E+04  0.27411776209E+04  0.90046821859E+03 0.  0.
        -24    2    4    4    0    0 -0.12944537618E+03 -0.18815205755E+03 -0.50683412557E+03  0.56153866394E+03  0.79293997769E+02 0.  0.
         24    2    4    4    0    0  0.69627205543E+03  0.51917877607E+03 -0.19976300015E+04  0.21796389569E+04  0.77194449084E+02 0.  0.
         13    1    3    3    0    0 -0.39295877646E+03 -0.22639904205E+03  0.44152490649E+03  0.63294341713E+03  0.00000000000E+00 0. -1.
        -13    1    3    3    0    0 -0.17386790280E+03 -0.10462767647E+03  0.29424458171E+03  0.35743093343E+03  0.00000000000E+00 0.  1.
          2    1    6    6  502    0  0.52482483006E+03  0.41659804287E+03 -0.14727401410E+04  0.16180106781E+04  0.00000000000E+00 0. -1.
          3    1    5    5  503    0 -0.49270905128E+02 -0.99636834506E+02 -0.32946423830E+03  0.34770936887E+03  0.00000000000E+00 0. -1.
         -4    1    5    5    0  503 -0.80174471054E+02 -0.88515223045E+02 -0.17736988727E+03  0.21382929507E+03  0.00000000000E+00 0.  1.
         -1    1    6    6    0  502  0.17144722538E+03  0.10258073320E+03 -0.52488986046E+03  0.56162827878E+03  0.00000000000E+00 0.  1.
<mgrwt>
<rscale>  0 0.32857570E+04</rscale>
<asrwt>0</asrwt>
<pdfrwt beam="1">  1        2 0.42309589E+00 0.32857570E+04</pdfrwt>
<pdfrwt beam="2">  1       -2 0.15098903E+00 0.32857570E+04</pdfrwt>
<totfact> 0.60989007E-01</totfact>
</mgrwt>
</event>
<event>
12    1  0.1541840E-007  0.2135167E+04  0.7818608E-02  0.8545908E-01
          1   -1    0    0  501    0  0.00000000000E+00  0.00000000000E+00  0.20587225387E+04  0.20587225387E+04  0.00000000000E+00 0. -1.
         -1   -1    0    0    0  501 -0.00000000000E+00 -0.00000000000E+00 -0.55361260392E+03  0.55361260392E+03  0.00000000000E+00 0.  1.
         23    2    1    2    0    0  0.27630363989E+03 -0.74706382099E+03  0.10319595145E+04  0.13067299227E+04  0.90302808587E+02 0.  0.
        254    2    1    2    0    0 -0.27630363989E+03  0.74706382099E+03  0.47315042028E+03  0.13056052199E+04  0.91993783270E+03 0.  0.
        -24    2    4    4    0    0 -0.50972704782E+03  0.54158887298E+03  0.17783382638E+02  0.74813942235E+03  0.79095992103E+02 0.  0.
         24    2    4    4    0    0  0.23342340793E+03  0.20547494802E+03  0.45536703764E+03  0.55746579757E+03  0.81869010368E+02 0.  0.
         13    1    3    3    0    0  0.25477666032E+03 -0.58480254618E+03  0.81526237994E+03  0.10351608149E+04  0.00000000000E+00 0. -1.
        -13    1    3    3    0    0  0.21526979569E+02 -0.16226127482E+03  0.21669713452E+03  0.27156910772E+03  0.00000000000E+00 0.  1.
          4    1    6    6  502    0  0.25065929957E+02  0.37869389396E+02  0.28048908526E+02  0.53377268265E+02  0.00000000000E+00 0. -1.
          1    1    5    5  503    0 -0.61268948598E+02  0.32177810979E+02  0.38199015191E+01  0.69310080287E+02  0.00000000000E+00 0. -1.
         -2    1    5    5    0  503 -0.44845809922E+03  0.50941106200E+03  0.13963481119E+02  0.67882934206E+03  0.00000000000E+00 0.  1.
         -3    1    6    6    0  502  0.20835747797E+03  0.16760555862E+03  0.42731812912E+03  0.50408852931E+03  0.00000000000E+00 0.  1.
<mgrwt>
<rscale>  0 0.21351672E+04</rscale>
<asrwt>0</asrwt>
<pdfrwt beam="1">  1        1 0.31672654E+00 0.21351672E+04</pdfrwt>
<pdfrwt beam="2">  1       -1 0.85171171E-01 0.21351672E+04</pdfrwt>
<totfact> 0.33972005E+00</totfact>
</mgrwt>
</event>
<event>
12    1  0.1541840E-007  0.1315371E+04  0.7818608E-02  0.9017464E-01
          1   -1    0    0  501    0  0.00000000000E+00  0.00000000000E+00  0.10632243327E+04  0.10632243327E+04  0.00000000000E+00 0. -1.
         -1   -1    0    0    0  501 -0.00000000000E+00 -0.00000000000E+00 -0.40682882612E+03  0.40682882612E+03  0.00000000000E+00 0.  1.
         23    2    1    2    0    0  0.33716488904E+03 -0.40357839023E+02  0.10560981522E+03  0.36710961994E+03  0.91143416689E+02 0.  0.
        254    2    1    2    0    0 -0.33716488904E+03  0.40357839023E+02  0.55078569132E+03  0.11029435388E+04  0.89320247119E+03 0.  0.
        -24    2    4    4    0    0  0.12819231010E+03 -0.34690803941E+02  0.60276190148E+03  0.62220958577E+03  0.78652008872E+02 0.  0.
         24    2    4    4    0    0 -0.46535719914E+03  0.75048642963E+02 -0.51976210163E+02  0.48073395308E+03  0.78828837442E+02 0.  0.
         13    1    3    3    0    0  0.53188030330E+01  0.12787311060E+02  0.11781675375E+02  0.18182762839E+02  0.00000000000E+00 0.  1.
        -13    1    3    3    0    0  0.33184608601E+03 -0.53145150082E+02  0.93828139843E+02  0.34892685710E+03  0.00000000000E+00 0. -1.
          2    1    6    6  502    0  0.15909986387E+01 -0.31259466697E+01  0.22875786616E+01  0.41875810897E+01  0.00000000000E+00 0. -1.
          1    1    5    5  503    0  0.28765675732E+01 -0.26831072507E+02  0.74690583214E+02  0.79415768672E+02  0.00000000000E+00 0. -1.
         -2    1    5    5    0  503  0.12531574253E+03 -0.78597314337E+01  0.52807131827E+03  0.54279381710E+03  0.00000000000E+00 0.  1.
         -1    1    6    6    0  502 -0.46694819778E+03  0.78174589633E+02 -0.54263788824E+02  0.47654637199E+03  0.00000000000E+00 0.  1.
<mgrwt>
<rscale>  0 0.13153711E+04</rscale>
<asrwt>0</asrwt>
<pdfrwt beam="1">  1        1 0.16357297E+00 0.13153711E+04</pdfrwt>
<pdfrwt beam="2">  1       -1 0.62589050E-01 0.13153711E+04</pdfrwt>
<totfact> 0.34356480E+01</totfact>
</mgrwt>
</event>
<event>
12    1  0.1541840E-007  0.2493110E+04  0.7818608E-02  0.8405444E-01
          2   -1    0    0  501    0  0.00000000000E+00  0.00000000000E+00  0.12625154957E+04  0.12625154957E+04  0.00000000000E+00 0. -1.
         -2   -1    0    0    0  501 -0.00000000000E+00 -0.00000000000E+00 -0.12307962174E+04  0.12307962174E+04  0.00000000000E+00 0.  1.
         23    2    1    2    0    0 -0.19024492813E+03 -0.21242285023E+03  0.10609153343E+04  0.11023740748E+04  0.91491280360E+02 0.  0.
        254    2    1    2    0    0  0.19024492813E+03  0.21242285023E+03 -0.10291960560E+04  0.13909376383E+04  0.89114891690E+03 0.  0.
        -24    2    4    4    0    0 -0.19381494647E+03  0.10238013239E+03 -0.94701598881E+03  0.97537789807E+03  0.80478792278E+02 0.  0.
         24    2    4    4    0    0  0.38405987460E+03  0.11004271783E+03 -0.82180067191E+02  0.41555974027E+03  0.79529537054E+02 0.  0.
         13    1    3    3    0    0 -0.14478718061E+03 -0.19698295007E+03  0.78089246605E+03  0.81826563769E+03  0.00000000000E+00 0. -1.
        -13    1    3    3    0    0 -0.45457747520E+02 -0.15439900153E+02  0.28002286823E+03  0.28410843715E+03  0.00000000000E+00 0.  1.
          4    1    6    6  502    0  0.35651485791E+03  0.12268541178E+03 -0.75258530871E+02  0.38447158626E+03  0.00000000000E+00 0. -1.
          1    1    5    5  503    0 -0.14532550874E+03  0.11264851904E+03 -0.73648328968E+03  0.75908947319E+03  0.00000000000E+00 0. -1.
         -2    1    5    5    0  503 -0.48489437727E+02 -0.10268386644E+02 -0.21053269913E+03  0.21628842488E+03  0.00000000000E+00 0.  1.
         -3    1    6    6    0  502  0.27545016687E+02 -0.12642693945E+02 -0.69215363195E+01  0.31088154006E+02  0.00000000000E+00 0.  1.
<mgrwt>
<rscale>  0 0.24931099E+04</rscale>
<asrwt>0</asrwt>
<pdfrwt beam="1">  1        2 0.19423315E+00 0.24931099E+04</pdfrwt>
<pdfrwt beam="2">  1       -2 0.18935326E+00 0.24931099E+04</pdfrwt>
<totfact> 0.24296029E+00</totfact>
</mgrwt>
</event>
<event>
12    1  0.1541840E-007  0.1211330E+04  0.7818608E-02  0.9102997E-01
          2   -1    0    0  501    0  0.00000000000E+00  0.00000000000E+00  0.75946718197E+03  0.75946718197E+03  0.00000000000E+00 0.  1.
         -2   -1    0    0    0  501 -0.00000000000E+00 -0.00000000000E+00 -0.48300953395E+03  0.48300953395E+03  0.00000000000E+00 0. -1.
         23    2    1    2    0    0  0.24261640986E+03 -0.92402624073E+02  0.10368816873E+03  0.29445634895E+03  0.92478850737E+02 0.  0.
        254    2    1    2    0    0 -0.24261640986E+03  0.92402624073E+02  0.17276947929E+03  0.94802036697E+03  0.89526105464E+03 0.  0.
        -24    2    4    4    0    0 -0.28511148268E+03 -0.32625511714E+03 -0.84621525178E+02  0.44855251182E+03  0.79420364694E+02 0.  0.
         24    2    4    4    0    0  0.42495072814E+02  0.41865774121E+03  0.25739100446E+03  0.49946785515E+03  0.78344582835E+02 0.  0.
         13    1    3    3    0    0  0.39146386012E+02 -0.21085648847E+01  0.53393622930E+02  0.66240203451E+02  0.00000000000E+00 0.  1.
        -13    1    3    3    0    0  0.20347002385E+03 -0.90294059188E+02  0.50294545804E+02  0.22821614550E+03  0.00000000000E+00 0. -1.
          4    1    6    6  502    0  0.61251570889E+02  0.23887557021E+03  0.16234747865E+03  0.29524565502E+03  0.00000000000E+00 0. -1.
          1    1    5    5  503    0 -0.16234308310E+03 -0.13038761746E+03 -0.56030796270E+02  0.21562851747E+03  0.00000000000E+00 0. -1.
         -2    1    5    5    0  503 -0.12276839958E+03 -0.19586749968E+03 -0.28590728908E+02  0.23292399435E+03  0.00000000000E+00 0.  1.
         -3    1    6    6    0  502 -0.18756498075E+02  0.17978217100E+03  0.95043525810E+02  0.20422220013E+03  0.00000000000E+00 0.  1.
<mgrwt>
<rscale>  0 0.12113297E+04</rscale>
<asrwt>0</asrwt>
<pdfrwt beam="1">  1        2 0.11684110E+00 0.12113297E+04</pdfrwt>
<pdfrwt beam="2">  1       -2 0.74309159E-01 0.12113297E+04</pdfrwt>
<totfact> 0.59318931E+01</totfact>
</mgrwt>
</event>
<event>
12    1  0.1541840E-007  0.3150064E+04  0.7818608E-02  0.8202131E-01
         -2   -1    0    0    0  501 -0.00000000000E+00  0.00000000000E+00  0.14290025083E+04  0.14290025083E+04  0.00000000000E+00 0.  1.
          2   -1    0    0  501    0  0.00000000000E+00 -0.00000000000E+00 -0.17359845406E+04  0.17359845406E+04  0.00000000000E+00 0. -1.
         23    2    1    2    0    0 -0.38423503262E+03 -0.13747943227E+04 -0.34858948212E+03  0.14722803185E+04  0.91644526323E+02 0.  0.
        254    2    1    2    0    0  0.38423503262E+03  0.13747943227E+04  0.41607449768E+02  0.16927067304E+04  0.90875128885E+03 0.  0.
        -24    2    4    4    0    0  0.34242342893E+02  0.26362714767E+02 -0.25145954546E+03  0.26693753937E+03  0.78461558399E+02 0.  0.
         24    2    4    4    0    0  0.34999268973E+03  0.13484316080E+04  0.29306699523E+03  0.14257691910E+04  0.78529217584E+02 0.  0.
         11    1    3    3    0    0 -0.79326752672E+02 -0.17210497576E+03 -0.38458990099E+02  0.19336998291E+03  0.00000000000E+00 0.  1.
        -11    1    3    3    0    0 -0.30490827995E+03 -0.12026893470E+04 -0.31013049202E+03  0.12789103356E+04  0.00000000000E+00 0. -1.
          2    1    6    6  502    0  0.11039363928E+03  0.50614693913E+03  0.14177742154E+03  0.53709618956E+03  0.00000000000E+00 0. -1.
          3    1    5    5  503    0  0.49872923494E+02  0.39205453757E+02 -0.14062271965E+03  0.15426965153E+03  0.00000000000E+00 0. -1.
         -4    1    5    5    0  503 -0.15630580601E+02 -0.12842738990E+02 -0.11083682581E+03  0.11266788784E+03  0.00000000000E+00 0.  1.
         -1    1    6    6    0  502  0.23959905045E+03  0.84228466884E+03  0.15128957369E+03  0.88867300142E+03  0.00000000000E+00 0.  1.
<mgrwt>
<rscale>  0 0.31500643E+04</rscale>
<asrwt>0</asrwt>
<pdfrwt beam="1">  1        2 0.26707455E+00 0.31500643E+04</pdfrwt>
<pdfrwt beam="2">  1       -2 0.21984654E+00 0.31500643E+04</pdfrwt>
<totfact> 0.78444670E-01</totfact>
</mgrwt>
</event>
<event>
12    1  0.1541840E-007  0.1247261E+04  0.7818608E-02  0.9072466E-01
          1   -1    0    0  501    0  0.00000000000E+00  0.00000000000E+00  0.92424515251E+03  0.92424515251E+03  0.00000000000E+00 0. -1.
         -1   -1    0    0    0  501 -0.00000000000E+00 -0.00000000000E+00 -0.42079215957E+03  0.42079215957E+03  0.00000000000E+00 0.  1.
         23    2    1    2    0    0  0.22516207857E+03  0.11994448951E+03  0.27718071370E+03  0.38780412413E+03  0.92077404720E+02 0.  0.
        254    2    1    2    0    0 -0.22516207857E+03 -0.11994448951E+03  0.22627227923E+03  0.95723318795E+03  0.89443366974E+03 0.  0.
        -24    2    4    4    0    0  0.29832844624E+03  0.71900158365E+02 -0.65500766258E+02  0.32373963798E+03  0.79671250856E+02 0.  0.
         24    2    4    4    0    0 -0.52349052480E+03 -0.19184464787E+03  0.29177304549E+03  0.63349354996E+03  0.73047034821E+02 0.  0.
         11    1    3    3    0    0  0.22183078350E+03  0.11335381487E+03  0.22682196026E+03  0.33690679054E+03  0.00000000000E+00 0. -1.
        -11    1    3    3    0    0  0.33312950639E+01  0.65906746372E+01  0.50358753441E+02  0.50897333595E+02  0.00000000000E+00 0.  1.
          2    1    6    6  502    0 -0.11213699409E+03 -0.64558008133E+02  0.43833049645E+02  0.13661543873E+03  0.00000000000E+00 0. -1.
          1    1    5    5  503    0  0.16723725073E+03  0.71369509063E+02 -0.12239788658E+02  0.18224082221E+03  0.00000000000E+00 0. -1.
         -2    1    5    5    0  503  0.13109119551E+03  0.53064930274E+00 -0.53260977601E+02  0.14149881577E+03  0.00000000000E+00 0.  1.
         -1    1    6    6    0  502 -0.41135353071E+03 -0.12728663974E+03  0.24793999585E+03  0.49687811124E+03  0.00000000000E+00 0.  1.
<mgrwt>
<rscale>  0 0.12472612E+04</rscale>
<asrwt>0</asrwt>
<pdfrwt beam="1">  1        1 0.14219156E+00 0.12472612E+04</pdfrwt>
<pdfrwt beam="2">  1       -1 0.64737255E-01 0.12472612E+04</pdfrwt>
<totfact> 0.41495515E+01</totfact>
</mgrwt>
</event>
<event>
12    1  0.1541840E-007  0.2296919E+04  0.7818608E-02  0.8479137E-01
         -1   -1    0    0    0  501 -0.00000000000E+00  0.00000000000E+00  0.90040191399E+03  0.90040191399E+03  0.00000000000E+00 0.  1.
          1   -1    0    0  501    0  0.00000000000E+00 -0.00000000000E+00 -0.14648562215E+04  0.14648562215E+04  0.00000000000E+00 0. -1.
         23    2    1    2    0    0 -0.57728875727E+03  0.77533033825E+03 -0.30398667321E+03  0.10166551925E+04  0.82343428739E+02 0.  0.
        254    2    1    2    0    0  0.57728875727E+03 -0.77533033825E+03 -0.26046763431E+03  0.13486029430E+04  0.90359673896E+03 0.  0.
        -24    2    4    4    0    0  0.72565243112E+03 -0.84740909510E+03 -0.13495096830E+03  0.11265552212E+04  0.79001754753E+02 0.  0.
         24    2    4    4    0    0 -0.14836367385E+03  0.72078756848E+02 -0.12551666601E+03  0.22204772183E+03  0.79646910905E+02 0.  0.
         11    1    3    3    0    0 -0.28554388352E+03  0.41718520346E+03 -0.12121287133E+03  0.51987629641E+03  0.00000000000E+00 0.  1.
        -11    1    3    3    0    0 -0.29174487375E+03  0.35814513480E+03 -0.18277380189E+03  0.49677889608E+03  0.00000000000E+00 0. -1.
          2    1    6    6  502    0 -0.14442529635E+03  0.76947753856E+02 -0.13399674731E+03  0.21150591325E+03  0.00000000000E+00 0. -1.
          3    1    5    5  503    0  0.55877319728E+03 -0.61410208040E+03 -0.12419062465E+03  0.83950709491E+03  0.00000000000E+00 0. -1.
         -4    1    5    5    0  503  0.16687923384E+03 -0.23330701470E+03 -0.10760343645E+02  0.28704812626E+03  0.00000000000E+00 0.  1.
         -1    1    6    6    0  502 -0.39383774946E+01 -0.48689970083E+01  0.84800813031E+01  0.10541808577E+02  0.00000000000E+00 0.  1.
<mgrwt>
<rscale>  0 0.22969191E+04</rscale>
<asrwt>0</asrwt>
<pdfrwt beam="1">  1        1 0.22536249E+00 0.22969191E+04</pdfrwt>
<pdfrwt beam="2">  1       -1 0.13852337E+00 0.22969191E+04</pdfrwt>
<totfact> 0.26964093E+00</totfact>
</mgrwt>
</event>
<event>
12    1  0.1541840E-007  0.1359019E+04  0.7818608E-02  0.8984029E-01
         -2   -1    0    0    0  501 -0.00000000000E+00  0.00000000000E+00  0.39356646826E+03  0.39356646826E+03  0.00000000000E+00 0.  1.
          2   -1    0    0  501    0  0.00000000000E+00 -0.00000000000E+00 -0.11732028259E+04  0.11732028259E+04  0.00000000000E+00 0. -1.
         23    2    1    2    0    0  0.20410318261E+03  0.48863595447E+02  0.13750201465E+03  0.26636697212E+03  0.89436008923E+02 0.  0.
        254    2    1    2    0    0 -0.20410318261E+03 -0.48863595447E+02 -0.91713837226E+03  0.13004023220E+04  0.89769574194E+03 0.  0.
        -24    2    4    4    0    0 -0.52880940413E+03 -0.13151807081E+03 -0.40683233261E+03  0.68469604741E+03  0.79747988233E+02 0.  0.
         24    2    4    4    0    0  0.32470622152E+03  0.82654475362E+02 -0.51030603964E+03  0.61570627460E+03  0.80100373832E+02 0.  0.
         13    1    3    3    0    0  0.12870899455E+01  0.15477015217E+02 -0.49311546745E+01  0.16294504809E+02  0.00000000000E+00 0. -1.
        -13    1    3    3    0    0  0.20281609267E+03  0.33386580230E+02  0.14243316932E+03  0.25007246731E+03  0.00000000000E+00 0.  1.
          2    1    6    6  502    0  0.25460460333E+03  0.63208740213E+02 -0.45142728486E+03  0.52211631117E+03  0.00000000000E+00 0. -1.
          1    1    5    5  503    0 -0.50309329537E+03 -0.10631975802E+03 -0.37254194845E+03  0.63497579335E+03  0.00000000000E+00 0. -1.
         -2    1    5    5    0  503 -0.25716108769E+02 -0.25198312786E+02 -0.34290384160E+02  0.49720254055E+02  0.00000000000E+00 0.  1.
         -1    1    6    6    0  502  0.70101618195E+02  0.19445735149E+02 -0.58878754782E+02  0.93589963425E+02  0.00000000000E+00 0.  1.
<mgrwt>
<rscale>  0 0.13590192E+04</rscale>
<asrwt>0</asrwt>
<pdfrwt beam="1">  1        2 0.18049274E+00 0.13590192E+04</pdfrwt>
<pdfrwt beam="2">  1       -2 0.60548688E-01 0.13590192E+04</pdfrwt>
<totfact> 0.48745677E+01</totfact>
</mgrwt>
</event>
<event>
12    1  0.1541840E-007  0.1497763E+04  0.7818608E-02  0.8885942E-01
         -2   -1    0    0    0  501 -0.00000000000E+00  0.00000000000E+00  0.18003831112E+04  0.18003831112E+04  0.00000000000E+00 0.  1.
          2   -1    0    0  501    0  0.00000000000E+00 -0.00000000000E+00 -0.31150228302E+03  0.31150228302E+03  0.00000000000E+00 0. -1.
         23    2    1    2    0    0  0.88349221388E+02  0.25222927693E+03  0.10151297001E+04  0.10538303881E+04  0.92978416292E+02 0.  0.
        254    2    1    2    0    0 -0.88349221388E+02 -0.25222927693E+03  0.47375112811E+03  0.10580550061E+04  0.90753240797E+03 0.  0.
        -24    2    4    4    0    0 -0.19391004033E+03 -0.46345777186E+03 -0.15847973907E+02  0.50868202431E+03  0.78179495647E+02 0.  0.
         24    2    4    4    0    0  0.10556081894E+03  0.21122849494E+03  0.48959910202E+03  0.54937298180E+03  0.79641878842E+02 0.  0.
         13    1    3    3    0    0  0.10514762304E+03  0.22004439314E+03  0.92635004643E+03  0.95791438349E+03  0.00000000000E+00 0.  1.
        -13    1    3    3    0    0 -0.16798401653E+02  0.32184883787E+02  0.88779653641E+02  0.95916004624E+02  0.00000000000E+00 0. -1.
          4    1    6    6  502    0  0.63818350072E+02  0.19352206647E+03  0.40605815110E+03  0.45432014493E+03  0.00000000000E+00 0. -1.
          3    1    5    5  503    0 -0.19711712724E+03 -0.45835871191E+03 -0.22819797441E+02  0.49946833112E+03  0.00000000000E+00 0. -1.
         -4    1    5    5    0  503  0.32070869108E+01 -0.50990599541E+01  0.69718235344E+01  0.92136931934E+01  0.00000000000E+00 0.  1.
         -1    1    6    6    0  502  0.41742468869E+02  0.17706428470E+02  0.83540950921E+02  0.95052836871E+02  0.00000000000E+00 0.  1.
<mgrwt>
<rscale>  0 0.14977629E+04</rscale>
<asrwt>0</asrwt>
<pdfrwt beam="1">  1        2 0.47923429E-01 0.14977629E+04</pdfrwt>
<pdfrwt beam="2">  1       -2 0.27698201E+00 0.14977629E+04</pdfrwt>
<totfact> 0.44795490E+00</totfact>
</mgrwt>
</event>
<event>
12    1  0.1541840E-007  0.3990432E+04  0.7818608E-02  0.8006480E-01
         -2   -1    0    0    0  501 -0.00000000000E+00  0.00000000000E+00  0.51963031120E+04  0.51963031120E+04  0.00000000000E+00 0.  1.
          2   -1    0    0  501    0  0.00000000000E+00 -0.00000000000E+00 -0.76609967784E+03  0.76609967784E+03  0.00000000000E+00 0. -1.
         23    2    1    2    0    0 -0.16486559395E+03 -0.18225882827E+04  0.13795050186E+04  0.22936886984E+04  0.94683875320E+02 0.  0.
        254    2    1    2    0    0  0.16486559395E+03  0.18225882827E+04  0.30506984156E+04  0.36687140915E+04  0.89648957055E+03 0.  0.
        -24    2    4    4    0    0  0.14996241462E+03  0.14999882577E+04  0.16824987567E+04  0.22605366382E+04  0.82281998091E+02 0.  0.
         24    2    4    4    0    0  0.14903179334E+02  0.32260002501E+03  0.13681996589E+04  0.14081774533E+04  0.81856903327E+02 0.  0.
         11    1    3    3    0    0 -0.13490593437E+03 -0.14044937063E+04  0.10137336720E+04  0.17373710427E+04  0.00000000000E+00 0.  1.
        -11    1    3    3    0    0 -0.29959659586E+02 -0.41809457641E+03  0.36577134659E+03  0.55631765568E+03  0.00000000000E+00 0. -1.
          4    1    6    6  502    0  0.25086906624E+02  0.24434565296E+03  0.11552929511E+04  0.11811164015E+04  0.00000000000E+00 0. -1.
          1    1    5    5  503    0  0.36653346251E+02  0.64384904780E+03  0.76430563207E+03  0.10000240814E+04  0.00000000000E+00 0. -1.
         -2    1    5    5    0  503  0.11330906837E+03  0.85613920990E+03  0.91819312461E+03  0.12605125568E+04  0.00000000000E+00 0.  1.
         -3    1    6    6    0  502 -0.10183727290E+02  0.78254372046E+02  0.21290670777E+03  0.22706105183E+03  0.00000000000E+00 0.  1.
<mgrwt>
<rscale>  0 0.39904316E+04</rscale>
<asrwt>0</asrwt>
<pdfrwt beam="1">  1        2 0.11786149E+00 0.39904316E+04</pdfrwt>
<pdfrwt beam="2">  1       -2 0.79943122E+00 0.39904316E+04</pdfrwt>
<totfact> 0.22728981E-03</totfact>
</mgrwt>
</event>
<event>
12    1  0.1541840E-007  0.1961403E+04  0.7818608E-02  0.8624881E-01
          2   -1    0    0  501    0  0.00000000000E+00  0.00000000000E+00  0.26390150717E+04  0.26390150717E+04  0.00000000000E+00 0. -1.
         -2   -1    0    0    0  501 -0.00000000000E+00 -0.00000000000E+00 -0.36444498520E+03  0.36444498520E+03  0.00000000000E+00 0.  1.
         23    2    1    2    0    0 -0.48788633509E+03  0.24580765927E-01 -0.14316891629E+02  0.49654099217E+03  0.91186111563E+02 0.  0.
        254    2    1    2    0    0  0.48788633509E+03 -0.24580765927E-01  0.22888869781E+04  0.25069190647E+04  0.89866930617E+03 0.  0.
        -24    2    4    4    0    0  0.33132862776E+03 -0.43435222979E+03  0.13354133840E+04  0.14445521959E+04  0.70438779087E+02 0.  0.
         24    2    4    4    0    0  0.15655770733E+03  0.43432764902E+03  0.95347359415E+03  0.10623668688E+04  0.79753662646E+02 0.  0.
         11    1    3    3    0    0 -0.44104561867E+01 -0.18522671956E+01 -0.12148745509E+02  0.13056608862E+02  0.00000000000E+00 0. -1.
        -11    1    3    3    0    0 -0.48347587891E+03  0.18768479615E+01 -0.21681461198E+01  0.48348438331E+03  0.00000000000E+00 0.  1.
          4    1    6    6  502    0  0.75241853881E+01  0.29449355832E+02  0.12072844940E+03  0.12449592933E+03  0.00000000000E+00 0. -1.
          1    1    5    5  503    0  0.12713436364E+03 -0.16038952177E+03  0.59185531091E+03  0.62624328673E+03  0.00000000000E+00 0. -1.
         -2    1    5    5    0  503  0.20419426412E+03 -0.27396270802E+03  0.74355807304E+03  0.81830890920E+03  0.00000000000E+00 0.  1.
         -3    1    6    6    0  502  0.14903352194E+03  0.40487829319E+03  0.83274514475E+03  0.93787093945E+03  0.00000000000E+00 0.  1.
<mgrwt>
<rscale>  0 0.19614034E+04</rscale>
<asrwt>0</asrwt>
<pdfrwt beam="1">  1        2 0.40600231E+00 0.19614034E+04</pdfrwt>
<pdfrwt beam="2">  1       -2 0.56068461E-01 0.19614034E+04</pdfrwt>
<totfact> 0.80426451E+00</totfact>
</mgrwt>
</event>
<event>
12    1  0.1541840E-007  0.1244423E+04  0.7818608E-02  0.9074838E-01
          1   -1    0    0  501    0  0.00000000000E+00  0.00000000000E+00  0.20941152682E+04  0.20941152682E+04  0.00000000000E+00 0. -1.
         -1   -1    0    0    0  501 -0.00000000000E+00 -0.00000000000E+00 -0.18487374306E+03  0.18487374306E+03  0.00000000000E+00 0.  1.
         23    2    1    2    0    0 -0.23183074184E+03  0.86528641301E+02  0.74068338576E+03  0.78570734750E+03  0.86553216882E+02 0.  0.
        254    2    1    2    0    0  0.23183074184E+03 -0.86528641301E+02  0.11685581394E+04  0.14932816638E+04  0.89617481755E+03 0.  0.
        -24    2    4    4    0    0 -0.20321974161E+03  0.12773758823E+03  0.32152283678E+02  0.25519787366E+03  0.80480000936E+02 0.  0.
         24    2    4    4    0    0  0.43505048345E+03 -0.21426622953E+03  0.11364058557E+04  0.12380837901E+04  0.79083893306E+02 0.  0.
         11    1    3    3    0    0 -0.15390782796E+03  0.98339533919E+02  0.49033421474E+03  0.52324556910E+03  0.00000000000E+00 0. -1.
        -11    1    3    3    0    0 -0.77922913877E+02 -0.11810892618E+02  0.25034917102E+03  0.26246177840E+03  0.00000000000E+00 0.  1.
          2    1    6    6  502    0  0.40022267169E+03 -0.17922755109E+03  0.97041762425E+03  0.10648995575E+04  0.00000000000E+00 0. -1.
          1    1    5    5  503    0 -0.92978319120E+02  0.27697967094E+02  0.42618159244E+02  0.10596439357E+03  0.00000000000E+00 0. -1.
         -2    1    5    5    0  503 -0.11024142249E+03  0.10003962114E+03 -0.10465875566E+02  0.14923348009E+03  0.00000000000E+00 0.  1.
         -1    1    6    6    0  502  0.34827811758E+02 -0.35038678442E+02  0.16598823149E+03  0.17318423269E+03  0.00000000000E+00 0.  1.
<mgrwt>
<rscale>  0 0.12444226E+04</rscale>
<asrwt>0</asrwt>
<pdfrwt beam="1">  1        1 0.32217156E+00 0.12444226E+04</pdfrwt>
<pdfrwt beam="2">  1       -1 0.28442116E-01 0.12444226E+04</pdfrwt>
<totfact> 0.28488909E+01</totfact>
</mgrwt>
</event>
<event>
12    1  0.1541840E-007  0.1837399E+04  0.7818608E-02  0.8686660E-01
          1   -1    0    0  501    0  0.00000000000E+00  0.00000000000E+00  0.20359750740E+04  0.20359750740E+04  0.00000000000E+00 0. -1.
         -1   -1    0    0    0  501 -0.00000000000E+00 -0.00000000000E+00 -0.41454776606E+03  0.41454776606E+03  0.00000000000E+00 0.  1.
         23    2    1    2    0    0  0.19820028577E+03 -0.65924514731E+03  0.51499852126E+03  0.86423974121E+03  0.88313848596E+02 0.  0.
        254    2    1    2    0    0 -0.19820028577E+03  0.65924514731E+03  0.11064287867E+04  0.15862830988E+04  0.90455618518E+03 0.  0.
        -24    2    4    4    0    0  0.22625504922E+03 -0.99560325152E+02  0.30794424844E+03  0.40313118151E+03  0.81126344143E+02 0.  0.
         24    2    4    4    0    0 -0.42445533499E+03  0.75880547246E+03  0.79848453823E+03  0.11831519173E+04  0.79516194811E+02 0.  0.
         13    1    3    3    0    0  0.16064485124E+03 -0.61064814774E+03  0.48307289697E+03  0.79502034713E+03  0.00000000000E+00 0.  1.
        -13    1    3    3    0    0  0.37555434529E+02 -0.48596999573E+02  0.31925624286E+02  0.69219394076E+02  0.00000000000E+00 0. -1.
          2    1    6    6  502    0 -0.40583143805E+03  0.68196778393E+03  0.71511894847E+03  0.10682576117E+04  0.00000000000E+00 0. -1.
          3    1    5    5  503    0  0.18737835602E+03 -0.45659101373E+02  0.24271686169E+03  0.31001109141E+03  0.00000000000E+00 0. -1.
         -4    1    5    5    0  503  0.38876693201E+02 -0.53901223779E+02  0.65227386745E+02  0.93120090103E+02  0.00000000000E+00 0.  1.
         -3    1    6    6    0  502 -0.18623896943E+02  0.76837688533E+02  0.83365589764E+02  0.11489430566E+03  0.00000000000E+00 0.  1.
<mgrwt>
<rscale>  0 0.18373992E+04</rscale>
<asrwt>0</asrwt>
<pdfrwt beam="1">  1        1 0.31322693E+00 0.18373992E+04</pdfrwt>
<pdfrwt beam="2">  1       -1 0.63776581E-01 0.18373992E+04</pdfrwt>
<totfact> 0.66072460E+00</totfact>
</mgrwt>
</event>
<event>
12    1  0.1541840E-007  0.2459539E+04  0.7818608E-02  0.8417543E-01
          1   -1    0    0  501    0  0.00000000000E+00  0.00000000000E+00  0.13236211296E+04  0.13236211296E+04  0.00000000000E+00 0. -1.
         -1   -1    0    0    0  501 -0.00000000000E+00 -0.00000000000E+00 -0.11425723793E+04  0.11425723793E+04  0.00000000000E+00 0.  1.
         23    2    1    2    0    0  0.25383289658E+03  0.61447996566E+02  0.11120374912E+04  0.11459930302E+04  0.92008954997E+02 0.  0.
        254    2    1    2    0    0 -0.25383289658E+03 -0.61447996566E+02 -0.93098874086E+03  0.13202004787E+04  0.89887834142E+03 0.  0.
        -24    2    4    4    0    0 -0.48671595702E+03  0.20246012310E+03 -0.35590033795E+03  0.64111826498E+03  0.80529838378E+02 0.  0.
         24    2    4    4    0    0  0.23288306044E+03 -0.26390811967E+03 -0.57508840290E+03  0.67908221372E+03  0.80894785770E+02 0.  0.
         11    1    3    3    0    0  0.20344335002E+02 -0.53693323327E+01  0.27666110299E+02  0.34758241547E+02  0.00000000000E+00 0.  1.
        -11    1    3    3    0    0  0.23348856158E+03  0.66817328898E+02  0.10843713809E+04  0.11112347887E+04  0.00000000000E+00 0. -1.
          4    1    6    6  502    0  0.20624922301E+03 -0.23847884471E+03 -0.45568651354E+03  0.55413094120E+03  0.00000000000E+00 0. -1.
          1    1    5    5  503    0 -0.30646404678E+03  0.15071435214E+03 -0.26741932581E+03  0.43376044510E+03  0.00000000000E+00 0. -1.
         -2    1    5    5    0  503 -0.18025191024E+03  0.51745770961E+02 -0.88481012137E+02  0.20735781988E+03  0.00000000000E+00 0.  1.
         -3    1    6    6    0  502  0.26633837428E+02 -0.25429274957E+02 -0.11940188936E+03  0.12495127252E+03  0.00000000000E+00 0.  1.
<mgrwt>
<rscale>  0 0.24595389E+04</rscale>
<asrwt>0</asrwt>
<pdfrwt beam="1">  1        1 0.20363402E+00 0.24595389E+04</pdfrwt>
<pdfrwt beam="2">  1       -1 0.17578036E+00 0.24595389E+04</pdfrwt>
<totfact> 0.17319032E+00</totfact>
</mgrwt>
</event>
<event>
12    1  0.1541840E-007  0.1954142E+04  0.7818608E-02  0.8628366E-01
          2   -1    0    0  501    0  0.00000000000E+00  0.00000000000E+00  0.70170591367E+03  0.70170591367E+03  0.00000000000E+00 0.  1.
         -2   -1    0    0    0  501 -0.00000000000E+00 -0.00000000000E+00 -0.13604957777E+04  0.13604957777E+04  0.00000000000E+00 0. -1.
         23    2    1    2    0    0  0.67375551730E+03 -0.36904312318E+03 -0.27986998127E+03  0.82246814621E+03  0.89371814623E+02 0.  0.
        254    2    1    2    0    0 -0.67375551730E+03  0.36904312318E+03 -0.37891988274E+03  0.12397335451E+04  0.89622522926E+03 0.  0.
        -24    2    4    4    0    0  0.22065405952E+02  0.67009330296E+02 -0.46048626545E+03  0.47243055961E+03  0.78523248155E+02 0.  0.
         24    2    4    4    0    0 -0.69582092325E+03  0.30203379289E+03  0.81566382710E+02  0.76730298554E+03  0.81912316208E+02 0.  0.
         13    1    3    3    0    0  0.57032664929E+03 -0.29220808392E+03 -0.26230085853E+03  0.69243035143E+03  0.00000000000E+00 0.  1.
        -13    1    3    3    0    0  0.10342886801E+03 -0.76835039263E+02 -0.17569122742E+02  0.13003779478E+03  0.00000000000E+00 0. -1.
          2    1    6    6  502    0 -0.32664009272E+02  0.79437282504E+01  0.20319744177E+02  0.39280177236E+02  0.00000000000E+00 0. -1.
          1    1    5    5  503    0 -0.83231046092E+01  0.18840516040E+02 -0.21532623607E+02  0.29797533361E+02  0.00000000000E+00 0. -1.
         -2    1    5    5    0  503  0.30388510561E+02  0.48168814256E+02 -0.43895364184E+03  0.44263302625E+03  0.00000000000E+00 0.  1.
         -1    1    6    6    0  502 -0.66315691398E+03  0.29409006464E+03  0.61246638533E+02  0.72802280830E+03  0.00000000000E+00 0.  1.
<mgrwt>
<rscale>  0 0.19541422E+04</rscale>
<asrwt>0</asrwt>
<pdfrwt beam="1">  1        2 0.10795476E+00 0.19541422E+04</pdfrwt>
<pdfrwt beam="2">  1       -2 0.20930704E+00 0.19541422E+04</pdfrwt>
<totfact> 0.44039283E+00</totfact>
</mgrwt>
</event>
<event>
12    1  0.1541840E-007  0.2724933E+04  0.7818608E-02  0.8326960E-01
          3   -1    0    0  501    0  0.00000000000E+00  0.00000000000E+00  0.38042939196E+04  0.38042939196E+04  0.00000000000E+00 0. -1.
         -3   -1    0    0    0  501 -0.00000000000E+00 -0.00000000000E+00 -0.48795239834E+03  0.48795239834E+03  0.00000000000E+00 0.  1.
         23    2    1    2    0    0  0.75093432628E+03  0.87857508648E+03  0.20962270675E+04  0.23954110239E+04  0.89607534885E+02 0.  0.
        254    2    1    2    0    0 -0.75093432628E+03 -0.87857508648E+03  0.12201144538E+04  0.18968352940E+04  0.87949321045E+03 0.  0.
        -24    2    4    4    0    0 -0.79578750585E+03 -0.78086982017E+03  0.13193596922E+04  0.17292420028E+04  0.80823736582E+02 0.  0.
         24    2    4    4    0    0  0.44853179569E+02 -0.97705266313E+02 -0.99245238374E+02  0.16759329120E+03  0.81729842365E+02 0.  0.
         11    1    3    3    0    0  0.53296123269E+03  0.61424862998E+03  0.13886998988E+04  0.16092968850E+04  0.00000000000E+00 0. -1.
        -11    1    3    3    0    0  0.21797309359E+03  0.26432645650E+03  0.70752716862E+03  0.78611413896E+03  0.00000000000E+00 0.  1.
          4    1    6    6  502    0  0.22772031268E+02 -0.78432661981E+02 -0.21422422733E+02  0.84434400983E+02  0.00000000000E+00 0. -1.
          1    1    5    5  503    0 -0.74498694894E+03 -0.73696292008E+03  0.12662817410E+04  0.16436512243E+04  0.00000000000E+00 0. -1.
         -2    1    5    5    0  503 -0.50800556907E+02 -0.43906900093E+02  0.53077951183E+02  0.85590778473E+02  0.00000000000E+00 0.  1.
         -3    1    6    6    0  502  0.22081148301E+02 -0.19272604332E+02 -0.77822815641E+02  0.83158890219E+02  0.00000000000E+00 0.  1.
<mgrwt>
<rscale>  0 0.27249325E+04</rscale>
<asrwt>0</asrwt>
<pdfrwt beam="1">  1        3 0.58527597E+00 0.27249325E+04</pdfrwt>
<pdfrwt beam="2">  1       -3 0.75069602E-01 0.27249325E+04</pdfrwt>
<totfact> 0.50769936E-03</totfact>
</mgrwt>
</event>
<event>
12    1  0.1541840E-007  0.2282792E+04  0.7818608E-02  0.8484737E-01
         -1   -1    0    0    0  501 -0.00000000000E+00  0.00000000000E+00  0.11592179422E+04  0.11592179422E+04  0.00000000000E+00 0.  1.
          1   -1    0    0  501    0  0.00000000000E+00 -0.00000000000E+00 -0.11238478772E+04  0.11238478772E+04  0.00000000000E+00 0. -1.
         23    2    1    2    0    0 -0.76382037439E+03  0.27074722479E+03 -0.47367945626E+03  0.94328552964E+03  0.93218770005E+02 0.  0.
        254    2    1    2    0    0  0.76382037439E+03 -0.27074722479E+03  0.50904952122E+03  0.13397802898E+04  0.93763222312E+03 0.  0.
        -24    2    4    4    0    0  0.34342096257E+03 -0.54357983669E+03  0.39999863932E+02  0.64895490344E+03  0.78265453409E+02 0.  0.
         24    2    4    4    0    0  0.42039941182E+03  0.27283261190E+03  0.46904965729E+03  0.69082538636E+03  0.77838511484E+02 0.  0.
         11    1    3    3    0    0 -0.59418097005E+03  0.17953628981E+03 -0.39161656009E+03  0.73392631420E+03  0.00000000000E+00 0. -1.
        -11    1    3    3    0    0 -0.16963940434E+03  0.91210934977E+02 -0.82062896163E+02  0.20935921544E+03  0.00000000000E+00 0.  1.
          4    1    6    6  502    0  0.29919363800E+03  0.15296070018E+03  0.32792449301E+03  0.46951920295E+03  0.00000000000E+00 0. -1.
          3    1    5    5  503    0  0.23876130870E+03 -0.43261768210E+03  0.14782237619E+02  0.49435163189E+03  0.00000000000E+00 0. -1.
         -4    1    5    5    0  503  0.10465965387E+03 -0.11096215459E+03  0.25217626312E+02  0.15460327156E+03  0.00000000000E+00 0.  1.
         -3    1    6    6    0  502  0.12120577381E+03  0.11987191172E+03  0.14112516428E+03  0.22130618341E+03  0.00000000000E+00 0.  1.
<mgrwt>
<rscale>  0 0.22827918E+04</rscale>
<asrwt>0</asrwt>
<pdfrwt beam="1">  1        1 0.17289967E+00 0.22827918E+04</pdfrwt>
<pdfrwt beam="2">  1       -1 0.17834122E+00 0.22827918E+04</pdfrwt>
<totfact> 0.23560394E+00</totfact>
</mgrwt>
</event>
<event>
12    1  0.1541840E-007  0.1203525E+04  0.7818608E-02  0.9109777E-01
         -1   -1    0    0    0  501 -0.00000000000E+00  0.00000000000E+00  0.31497030556E+03  0.31497030556E+03  0.00000000000E+00 0.  1.
          1   -1    0    0  501    0  0.00000000000E+00 -0.00000000000E+00 -0.11496895384E+04  0.11496895384E+04  0.00000000000E+00 0. -1.
         23    2    1    2    0    0  0.20434643950E+03  0.13753606849E+03 -0.16330355708E+03  0.30998466064E+03  0.93535023431E+02 0.  0.
        254    2    1    2    0    0 -0.20434643950E+03 -0.13753606849E+03 -0.67141567580E+03  0.11546751834E+04  0.90653302857E+03 0.  0.
        -24    2    4    4    0    0 -0.31254767335E+03  0.19578444517E+03  0.17325695055E+02  0.37776956195E+03  0.79950391729E+02 0.  0.
         24    2    4    4    0    0  0.10820123386E+03 -0.33332051365E+03 -0.68874137085E+03  0.77690562141E+03  0.80047466064E+02 0.  0.
         13    1    3    3    0    0  0.89695361911E+02  0.15076799316E+02 -0.86380057121E+02  0.12543556949E+03  0.00000000000E+00 0. -1.
        -13    1    3    3    0    0  0.11465107759E+03  0.12245926917E+03 -0.76923499956E+02  0.18454909115E+03  0.00000000000E+00 0.  1.
          2    1    6    6  502    0  0.90864776238E+02 -0.30834775705E+03 -0.57063703929E+03  0.65495143136E+03  0.00000000000E+00 0. -1.
          3    1    5    5  503    0 -0.18190410783E+03  0.15214388484E+03 -0.99643116654E+01  0.23735238285E+03  0.00000000000E+00 0. -1.
         -4    1    5    5    0  503 -0.13064356552E+03  0.43640560330E+02  0.27290006721E+02  0.14041717910E+03  0.00000000000E+00 0.  1.
         -1    1    6    6    0  502  0.17336457618E+02 -0.24972756601E+02 -0.11810433156E+03  0.12195419004E+03  0.00000000000E+00 0.  1.
<mgrwt>
<rscale>  0 0.12035249E+04</rscale>
<asrwt>0</asrwt>
<pdfrwt beam="1">  1        1 0.17687531E+00 0.12035249E+04</pdfrwt>
<pdfrwt beam="2">  1       -1 0.48456970E-01 0.12035249E+04</pdfrwt>
<totfact> 0.49046119E+01</totfact>
</mgrwt>
</event>
<event>
12    1  0.1541840E-007  0.4100041E+04  0.7818608E-02  0.7984664E-01
          2   -1    0    0  501    0  0.00000000000E+00  0.00000000000E+00  0.11802231603E+04  0.11802231603E+04  0.00000000000E+00 0. -1.
         -2   -1    0    0    0  501 -0.00000000000E+00 -0.00000000000E+00 -0.35608391829E+04  0.35608391829E+04  0.00000000000E+00 0.  1.
         23    2    1    2    0    0  0.17536177698E+04 -0.79887753012E+03 -0.14318008152E+04  0.24027149446E+04  0.98004795999E+02 0.  0.
        254    2    1    2    0    0 -0.17536177698E+04  0.79887753012E+03 -0.94881520737E+03  0.23383473986E+04  0.92424978675E+03 0.  0.
        -24    2    4    4    0    0 -0.44910696489E+03 -0.13149156728E+03 -0.46018988784E+03  0.66132081383E+03  0.81138078340E+02 0.  0.
         24    2    4    4    0    0 -0.13045108049E+04  0.93036909739E+03 -0.48862531953E+03  0.16770265848E+04  0.79551026122E+02 0.  0.
         13    1    3    3    0    0  0.13215942297E+04 -0.60545468241E+03 -0.11315818304E+04  0.18421900335E+04  0.00000000000E+00 0. -1.
        -13    1    3    3    0    0  0.43202354009E+03 -0.19342284771E+03 -0.30021898472E+03  0.56052491112E+03  0.00000000000E+00 0.  1.
          2    1    6    6  502    0 -0.31219025658E+03  0.24197353831E+03 -0.88810567855E+02  0.40484721379E+03  0.00000000000E+00 0. -1.
          1    1    5    5  503    0 -0.13728302026E+02  0.92079715927E+01 -0.24220323394E+02  0.29323660799E+02  0.00000000000E+00 0. -1.
         -2    1    5    5    0  503 -0.43537866287E+03 -0.14069953887E+03 -0.43596956445E+03  0.63199715303E+03  0.00000000000E+00 0.  1.
         -1    1    6    6    0  502 -0.99232054829E+03  0.68839555908E+03 -0.39981475168E+03  0.12721793710E+04  0.00000000000E+00 0.  1.
<mgrwt>
<rscale>  0 0.41000414E+04</rscale>
<asrwt>0</asrwt>
<pdfrwt beam="1">  1        2 0.18157280E+00 0.41000414E+04</pdfrwt>
<pdfrwt beam="2">  1       -2 0.54782141E+00 0.41000414E+04</pdfrwt>
<totfact> 0.13370791E-02</totfact>
</mgrwt>
</event>
<event>
12    1  0.1541840E-007  0.2580043E+04  0.7818608E-02  0.8375012E-01
         -2   -1    0    0    0  501 -0.00000000000E+00  0.00000000000E+00  0.26724935610E+04  0.26724935610E+04  0.00000000000E+00 0.  1.
          2   -1    0    0  501    0  0.00000000000E+00 -0.00000000000E+00 -0.62269788749E+03  0.62269788749E+03  0.00000000000E+00 0. -1.
         23    2    1    2    0    0 -0.22338189492E+03  0.10841546991E+04  0.11851499969E+04  0.16243165011E+04  0.92372604359E+02 0.  0.
        254    2    1    2    0    0  0.22338189492E+03 -0.10841546991E+04  0.86464567665E+03  0.16708749474E+04  0.90494202096E+03 0.  0.
        -24    2    4    4    0    0 -0.71736389110E+02 -0.30982821693E+01 -0.13140734782E+03  0.16943369765E+03  0.79272807217E+02 0.  0.
         24    2    4    4    0    0  0.29511828403E+03 -0.10810564169E+04  0.99605302447E+03  0.15014412498E+04  0.80164960591E+02 0.  0.
         13    1    3    3    0    0 -0.77922763474E+02  0.21910185957E+03  0.22046830719E+03  0.32044321870E+03  0.00000000000E+00 0.  1.
        -13    1    3    3    0    0 -0.14545913144E+03  0.86505283951E+03  0.96468168968E+03  0.13038732824E+04  0.00000000000E+00 0. -1.
          2    1    6    6  502    0  0.10993987180E+03 -0.52851156673E+03  0.50910206325E+03  0.74202167245E+03  0.00000000000E+00 0. -1.
          1    1    5    5  503    0 -0.75304186370E+02  0.15130118649E+01 -0.14004380433E+03  0.15901344856E+03  0.00000000000E+00 0. -1.
         -2    1    5    5    0  503  0.35677972601E+01 -0.46112940343E+01  0.86364565178E+01  0.10420249092E+02  0.00000000000E+00 0.  1.
         -1    1    6    6    0  502  0.18517841223E+03 -0.55254485018E+03  0.48695096122E+03  0.75941957734E+03  0.00000000000E+00 0.  1.
<mgrwt>
<rscale>  0 0.25800435E+04</rscale>
<asrwt>0</asrwt>
<pdfrwt beam="1">  1        2 0.95799676E-01 0.25800435E+04</pdfrwt>
<pdfrwt beam="2">  1       -2 0.41115285E+00 0.25800435E+04</pdfrwt>
<totfact> 0.26337293E-01</totfact>
</mgrwt>
</event>
<event>
12    1  0.1541840E-007  0.1852788E+04  0.7818608E-02  0.8678721E-01
         -2   -1    0    0    0  501 -0.00000000000E+00  0.00000000000E+00  0.87643994966E+03  0.87643994966E+03  0.00000000000E+00 0. -1.
          2   -1    0    0  501    0  0.00000000000E+00 -0.00000000000E+00 -0.97919489082E+03  0.97919489082E+03  0.00000000000E+00 0.  1.
         23    2    1    2    0    0 -0.19504006172E+03  0.28312148892E+03 -0.65700399505E+03  0.74705415357E+03  0.90759328448E+02 0.  0.
        254    2    1    2    0    0  0.19504006172E+03 -0.28312148892E+03  0.55424905390E+03  0.11085806869E+04  0.89641548540E+03 0.  0.
        -24    2    4    4    0    0 -0.29787029511E+03  0.53069863088E+01  0.41177475532E+03  0.51442473996E+03  0.79495202068E+02 0.  0.
         24    2    4    4    0    0  0.49291035683E+03 -0.28842847523E+03  0.14247429858E+03  0.59415594695E+03  0.81060214333E+02 0.  0.
         13    1    3    3    0    0 -0.52638911222E+02  0.29019745603E+02 -0.74020856006E+02  0.95352439577E+02  0.00000000000E+00 0. -1.
        -13    1    3    3    0    0 -0.14240115050E+03  0.25410174332E+03 -0.58298313904E+03  0.65170171400E+03  0.00000000000E+00 0.  1.
          2    1    6    6  502    0  0.20984538030E+03 -0.95704032551E+02  0.24397208253E+02  0.23192578393E+03  0.00000000000E+00 0. -1.
          3    1    5    5  503    0 -0.14842792703E+02 -0.18256533102E+02  0.22470381961E+02  0.32535020541E+02  0.00000000000E+00 0. -1.
         -4    1    5    5    0  503 -0.28302750241E+03  0.23563519411E+02  0.38930437336E+03  0.48188971942E+03  0.00000000000E+00 0.  1.
         -1    1    6    6    0  502  0.28306497652E+03 -0.19272444268E+03  0.11807709032E+03  0.36223016302E+03  0.00000000000E+00 0.  1.
<mgrwt>
<rscale>  0 0.18527877E+04</rscale>
<asrwt>0</asrwt>
<pdfrwt beam="1">  1        2 0.15064537E+00 0.18527877E+04</pdfrwt>
<pdfrwt beam="2">  1       -2 0.13483691E+00 0.18527877E+04</pdfrwt>
<totfact> 0.96653244E+00</totfact>
</mgrwt>
</event>
<event>
12    1  0.1541840E-007  0.1903795E+04  0.7818608E-02  0.8652970E-01
         -1   -1    0    0    0  501 -0.00000000000E+00  0.00000000000E+00  0.63100709513E+03  0.63100709513E+03  0.00000000000E+00 0.  1.
          1   -1    0    0  501    0  0.00000000000E+00 -0.00000000000E+00 -0.14359725449E+04  0.14359725449E+04  0.00000000000E+00 0. -1.
         23    2    1    2    0    0 -0.39656927930E+03  0.58694786045E+03 -0.52510906838E+03  0.88637057726E+03  0.90212429016E+02 0.  0.
        254    2    1    2    0    0  0.39656927930E+03 -0.58694786045E+03 -0.27985638138E+03  0.11806090628E+04  0.90207714787E+03 0.  0.
        -24    2    4    4    0    0 -0.22973333166E+02 -0.55378899644E+02  0.28118821544E+03  0.29758813000E+03  0.76793789135E+02 0.  0.
         24    2    4    4    0    0  0.41954261247E+03 -0.53156896081E+03 -0.56104459682E+03  0.88302093277E+03  0.79833353392E+02 0.  0.
         11    1    3    3    0    0 -0.88849278398E+01  0.50978226957E+02 -0.27379052074E+02  0.58543437368E+02  0.00000000000E+00 0.  1.
        -11    1    3    3    0    0 -0.38768435146E+03  0.53596963350E+03 -0.49773001631E+03  0.82782713989E+03  0.00000000000E+00 0. -1.
          2    1    6    6  502    0  0.76510380790E+02 -0.10911680828E+03 -0.15263680571E+03  0.20262850410E+03  0.00000000000E+00 0. -1.
          1    1    5    5  503    0  0.26351064480E+02 -0.32292383138E+02  0.98498213788E+02  0.10695361017E+03  0.00000000000E+00 0. -1.
         -2    1    5    5    0  503 -0.49324397646E+02 -0.23086516506E+02  0.18269000165E+03  0.19063451983E+03  0.00000000000E+00 0.  1.
         -1    1    6    6    0  502  0.34303223168E+03 -0.42245215252E+03 -0.40840779111E+03  0.68039242867E+03  0.00000000000E+00 0.  1.
<mgrwt>
<rscale>  0 0.19037950E+04</rscale>
<asrwt>0</asrwt>
<pdfrwt beam="1">  1        1 0.22091885E+00 0.19037950E+04</pdfrwt>
<pdfrwt beam="2">  1       -1 0.97078016E-01 0.19037950E+04</pdfrwt>
<totfact> 0.69139192E+00</totfact>
</mgrwt>
</event>
<event>
12    1  0.1541840E-007  0.1459464E+04  0.7818608E-02  0.8911866E-01
          1   -1    0    0  501    0  0.00000000000E+00  0.00000000000E+00  0.19731781159E+04  0.19731781159E+04  0.00000000000E+00 0. -1.
         -1   -1    0    0    0  501 -0.00000000000E+00 -0.00000000000E+00 -0.26987350592E+03  0.26987350592E+03  0.00000000000E+00 0.  1.
         23    2    1    2    0    0  0.42037886215E+03  0.13496080067E+03  0.63631983983E+03  0.77985195067E+03  0.91287025065E+02 0.  0.
        254    2    1    2    0    0 -0.42037886215E+03 -0.13496080067E+03  0.10669847702E+04  0.14631996712E+04  0.89864563232E+03 0.  0.
        -24    2    4    4    0    0  0.89696611939E+02  0.30119912873E+03  0.31395762952E+03  0.45136459688E+03  0.79963797051E+02 0.  0.
         24    2    4    4    0    0 -0.51007547408E+03 -0.43615992941E+03  0.75302714066E+03  0.10118350743E+04  0.79673519643E+02 0.  0.
         11    1    3    3    0    0  0.36429580564E+02  0.69073383025E+01  0.10884828635E+03  0.11499032614E+03  0.00000000000E+00 0. -1.
        -11    1    3    3    0    0  0.38394928158E+03  0.12805346237E+03  0.52747155347E+03  0.66486162453E+03  0.00000000000E+00 0.  1.
          2    1    6    6  502    0 -0.27077120238E+03 -0.18314334183E+03  0.34178159534E+03  0.47294099696E+03  0.00000000000E+00 0. -1.
          1    1    5    5  503    0  0.71966760218E+02  0.10888668720E+03  0.14059904203E+03  0.19184268515E+03  0.00000000000E+00 0. -1.
         -2    1    5    5    0  503  0.17729851721E+02  0.19231244154E+03  0.17335858749E+03  0.25952191173E+03  0.00000000000E+00 0.  1.
         -1    1    6    6    0  502 -0.23930427171E+03 -0.25301658758E+03  0.41124554531E+03  0.53889407734E+03  0.00000000000E+00 0.  1.
<mgrwt>
<rscale>  0 0.14594636E+04</rscale>
<asrwt>0</asrwt>
<pdfrwt beam="1">  1        1 0.30356585E+00 0.14594636E+04</pdfrwt>
<pdfrwt beam="2">  1       -1 0.41519002E-01 0.14594636E+04</pdfrwt>
<totfact> 0.17164053E+01</totfact>
</mgrwt>
</event>
<event>
12    1  0.1541840E-007  0.1835098E+04  0.7818608E-02  0.8687854E-01
          1   -1    0    0  501    0  0.00000000000E+00  0.00000000000E+00  0.10109786749E+04  0.10109786749E+04  0.00000000000E+00 0. -1.
         -1   -1    0    0    0  501 -0.00000000000E+00 -0.00000000000E+00 -0.83275360587E+03  0.83275360587E+03  0.00000000000E+00 0.  1.
         23    2    1    2    0    0  0.59516228410E+03 -0.33330309465E+03 -0.50392894036E+02  0.69024352610E+03  0.92669219436E+02 0.  0.
        254    2    1    2    0    0 -0.59516228410E+03  0.33330309465E+03  0.22861796306E+03  0.11534887547E+04  0.90164351980E+03 0.  0.
        -24    2    4    4    0    0 -0.45332228543E+03 -0.17338281047E+02  0.50092127729E+03  0.68044818005E+03  0.79283600073E+02 0.  0.
         24    2    4    4    0    0 -0.14183999867E+03  0.35064137570E+03 -0.27230331422E+03  0.47304057462E+03  0.80934113489E+02 0.  0.
         13    1    3    3    0    0  0.45207038515E+03 -0.22139986849E+03 -0.67387420698E+01  0.50341925424E+03  0.00000000000E+00 0. -1.
        -13    1    3    3    0    0  0.14309189895E+03 -0.11190322616E+03 -0.43654151966E+02  0.18682427185E+03  0.00000000000E+00 0.  1.
          4    1    6    6  502    0 -0.90761530284E+02  0.11935066889E+03 -0.10509300703E+03  0.18310318859E+03  0.00000000000E+00 0. -1.
          1    1    5    5  503    0 -0.12015965803E+03 -0.28605829530E+01  0.84345132960E+02  0.14683537655E+03  0.00000000000E+00 0. -1.
         -2    1    5    5    0  503 -0.33316262740E+03 -0.14477698094E+02  0.41657614433E+03  0.53361280350E+03  0.00000000000E+00 0.  1.
         -3    1    6    6    0  502 -0.51078468384E+02  0.23129070681E+03 -0.16721030719E+03  0.28993738603E+03  0.00000000000E+00 0.  1.
<mgrwt>
<rscale>  0 0.18350980E+04</rscale>
<asrwt>0</asrwt>
<pdfrwt beam="1">  1        1 0.15553518E+00 0.18350980E+04</pdfrwt>
<pdfrwt beam="2">  1       -1 0.12811594E+00 0.18350980E+04</pdfrwt>
<totfact> 0.73446901E+00</totfact>
</mgrwt>
</event>
<event>
12    1  0.1541840E-007  0.2741295E+04  0.7818608E-02  0.8321729E-01
         -2   -1    0    0    0  501 -0.00000000000E+00  0.00000000000E+00  0.10160561847E+04  0.10160561847E+04  0.00000000000E+00 0.  1.
          2   -1    0    0  501    0  0.00000000000E+00 -0.00000000000E+00 -0.18489874469E+04  0.18489874469E+04  0.00000000000E+00 0. -1.
         23    2    1    2    0    0 -0.11763191415E+03 -0.66042637705E+03 -0.14463553531E+04  0.15968537649E+04  0.89430825467E+02 0.  0.
        254    2    1    2    0    0  0.11763191415E+03  0.66042637705E+03  0.61342409088E+03  0.12681898666E+04  0.88431677339E+03 0.  0.
        -24    2    4    4    0    0 -0.10293192769E+03  0.42078662713E+03  0.77842599905E+03  0.89439364057E+03  0.79602644307E+02 0.  0.
         24    2    4    4    0    0  0.22056384184E+03  0.23963974991E+03 -0.16500190817E+03  0.37379622601E+03  0.80139695593E+02 0.  0.
         13    1    3    3    0    0 -0.89694997553E+02 -0.50558682780E+03 -0.10106979873E+04  0.11336549980E+04  0.00000000000E+00 0. -1.
        -13    1    3    3    0    0 -0.27936916595E+02 -0.15483954924E+03 -0.43565736580E+03  0.46319876694E+03  0.00000000000E+00 0.  1.
          2    1    6    6  502    0 -0.44670196130E+01  0.17381542562E+02 -0.16512341677E+02  0.24387080878E+02  0.00000000000E+00 0. -1.
          3    1    5    5  503    0  0.55043294092E+01  0.12071316001E+03  0.19444276737E+03  0.22893220487E+03  0.00000000000E+00 0. -1.
         -4    1    5    5    0  503 -0.10843625710E+03  0.30007346712E+03  0.58398323168E+03  0.66546143571E+03  0.00000000000E+00 0.  1.
         -1    1    6    6    0  502  0.22503086145E+03  0.22225820735E+03 -0.14848956650E+03  0.34940914513E+03  0.00000000000E+00 0.  1.
<mgrwt>
<rscale>  0 0.27412954E+04</rscale>
<asrwt>0</asrwt>
<pdfrwt beam="1">  1        2 0.28445961E+00 0.27412954E+04</pdfrwt>
<pdfrwt beam="2">  1       -2 0.15631634E+00 0.27412954E+04</pdfrwt>
<totfact> 0.19018117E+00</totfact>
</mgrwt>
</event>
<event>
12    1  0.1541840E-007  0.1162817E+04  0.7818608E-02  0.9146040E-01
          2   -1    0    0  501    0  0.00000000000E+00  0.00000000000E+00  0.62229661684E+03  0.62229661684E+03  0.00000000000E+00 0. -1.
         -2   -1    0    0    0  501 -0.00000000000E+00 -0.00000000000E+00 -0.54320721003E+03  0.54320721003E+03  0.00000000000E+00 0.  1.
         23    2    1    2    0    0  0.21080088721E+03 -0.14536583706E+02  0.85090337858E+02  0.24419429847E+03  0.87989564699E+02 0.  0.
        254    2    1    2    0    0 -0.21080088721E+03  0.14536583706E+02 -0.60009310510E+01  0.92130952840E+03  0.89673123601E+03 0.  0.
        -24    2    4    4    0    0  0.77096823629E+02  0.38167836887E+03  0.14929051102E+03  0.42319354027E+03  0.71991793749E+02 0.  0.
         24    2    4    4    0    0 -0.28789771084E+03 -0.36714178517E+03 -0.15529144207E+03  0.49811598813E+03  0.79535673310E+02 0.  0.
         13    1    3    3    0    0  0.17028965711E+03  0.19552965723E+02  0.84822433779E+02  0.19124782628E+03  0.00000000000E+00 0. -1.
        -13    1    3    3    0    0  0.40511230101E+02 -0.34089549429E+02  0.26790407905E+00  0.52946472188E+02  0.00000000000E+00 0.  1.
          4    1    6    6  502    0 -0.19538363204E+03 -0.27933844444E+03 -0.80523010797E+02  0.35026944697E+03  0.00000000000E+00 0. -1.
          1    1    5    5  503    0  0.89822031656E+02  0.35741146003E+03  0.14080810810E+03  0.39450966077E+03  0.00000000000E+00 0. -1.
         -2    1    5    5    0  503 -0.12725208027E+02  0.24266908843E+02  0.84824029183E+01  0.28683879504E+02  0.00000000000E+00 0.  1.
         -3    1    6    6    0  502 -0.92514078791E+02 -0.87803340727E+02 -0.74768431272E+02  0.14784654116E+03  0.00000000000E+00 0.  1.
<mgrwt>
<rscale>  0 0.11628173E+04</rscale>
<asrwt>0</asrwt>
<pdfrwt beam="1">  1        2 0.95737941E-01 0.11628173E+04</pdfrwt>
<pdfrwt beam="2">  1       -2 0.83570340E-01 0.11628173E+04</pdfrwt>
<totfact> 0.58792914E+01</totfact>
</mgrwt>
</event>
<event>
12    1  0.1541840E-007  0.1450920E+04  0.7818608E-02  0.8917763E-01
         -2   -1    0    0    0  501 -0.00000000000E+00  0.00000000000E+00  0.90860679950E+03  0.90860679950E+03  0.00000000000E+00 0.  1.
          2   -1    0    0  501    0  0.00000000000E+00 -0.00000000000E+00 -0.57922951601E+03  0.57922951601E+03  0.00000000000E+00 0. -1.
         23    2    1    2    0    0 -0.36709057358E+03 -0.10515895447E+03  0.32710204136E+03  0.51068957991E+03  0.89410327435E+02 0.  0.
        254    2    1    2    0    0  0.36709057358E+03  0.10515895447E+03  0.22752421324E+01  0.97714673560E+03  0.89944242242E+03 0.  0.
        -24    2    4    4    0    0 -0.17377119919E+03  0.73141199123E+02  0.29095202194E+03  0.35820183373E+03  0.90052262257E+02 0.  0.
         24    2    4    4    0    0  0.54086177277E+03  0.32017755345E+02 -0.28867677981E+03  0.61894490186E+03  0.78752234473E+02 0.  0.
         13    1    3    3    0    0 -0.36017429355E+03 -0.10452189024E+03  0.33303101279E+03  0.50155757671E+03  0.00000000000E+00 0.  1.
        -13    1    3    3    0    0 -0.69162800303E+01 -0.63706422285E+00 -0.59289714293E+01  0.91320032025E+01  0.00000000000E+00 0. -1.
          2    1    6    6  502    0  0.21607552689E+03  0.51351405062E+02 -0.12110733241E+03  0.25296755935E+03  0.00000000000E+00 0. -1.
          3    1    5    5  503    0 -0.30726948941E+02  0.49077756006E+01  0.53490786594E+01  0.31572841099E+02  0.00000000000E+00 0. -1.
         -4    1    5    5    0  503 -0.14304425025E+03  0.68233423522E+02  0.28560294328E+03  0.32662899263E+03  0.00000000000E+00 0.  1.
         -1    1    6    6    0  502  0.32478624589E+03 -0.19333649716E+02 -0.16756944740E+03  0.36597734251E+03  0.00000000000E+00 0.  1.
<mgrwt>
<rscale>  0 0.14509195E+04</rscale>
<asrwt>0</asrwt>
<pdfrwt beam="1">  1        2 0.89112233E-01 0.14509195E+04</pdfrwt>
<pdfrwt beam="2">  1       -2 0.13978566E+00 0.14509195E+04</pdfrwt>
<totfact> 0.18084566E+01</totfact>
</mgrwt>
</event>
<event>
12    1  0.2283360E-007  0.2283149E+04  0.7818608E-02  0.8484595E-01
          3   -1    0    0  501    0  0.00000000000E+00  0.00000000000E+00  0.99102302038E+03  0.99102302038E+03  0.00000000000E+00 0. -1.
         -3   -1    0    0    0  501 -0.00000000000E+00 -0.00000000000E+00 -0.13149964972E+04  0.13149964972E+04  0.00000000000E+00 0.  1.
         23    2    1    2    0    0  0.36374775338E+02  0.31252223355E+03  0.78155151629E+03  0.84749523968E+03  0.91826673235E+02 0.  0.
        254    2    1    2    0    0 -0.36374775338E+02 -0.31252223355E+03 -0.11055249931E+04  0.14585242779E+04  0.89783867599E+03 0.  0.
        -24    2    4    4    0    0  0.31267503661E+03 -0.43279657654E+03 -0.45393420155E+03  0.70546842782E+03  0.80937557025E+02 0.  0.
         24    2    4    4    0    0 -0.34904981195E+03  0.12027434298E+03 -0.65159079158E+03  0.75305585010E+03  0.78872459647E+02 0.  0.
         13    1    3    3    0    0  0.44614066453E+02  0.31436510043E+03  0.77201018840E+03  0.83475479172E+03  0.00000000000E+00 0. -1.
        -13    1    3    3    0    0 -0.82392911151E+01 -0.18428668820E+01  0.95413278889E+01  0.12740447963E+02  0.00000000000E+00 0.  1.
          2    1    6    6  502    0 -0.31705211864E+03  0.84147449758E+02 -0.54602627774E+03  0.63698315144E+03  0.00000000000E+00 0. -1.
          1    1    5    5  503    0  0.31706536207E+03 -0.43068536556E+03 -0.44711769366E+03  0.69709006586E+03  0.00000000000E+00 0. -1.
         -2    1    5    5    0  503 -0.43903254589E+01 -0.21112109744E+01 -0.68165078883E+01  0.83783619643E+01  0.00000000000E+00 0.  1.
         -1    1    6    6    0  502 -0.31997693308E+02  0.36126893225E+02 -0.10556451384E+03  0.11607269866E+03  0.00000000000E+00 0.  1.
<mgrwt>
<rscale>  0 0.22831485E+04</rscale>
<asrwt>0</asrwt>
<pdfrwt beam="1">  1        3 0.15246508E+00 0.22831485E+04</pdfrwt>
<pdfrwt beam="2">  1       -3 0.20230715E+00 0.22831485E+04</pdfrwt>
<totfact> 0.10397774E-01</totfact>
</mgrwt>
</event>
<event>
12    1  0.1541840E-007  0.2228076E+04  0.7818608E-02  0.8506832E-01
         -1   -1    0    0    0  501 -0.00000000000E+00  0.00000000000E+00  0.71374464731E+03  0.71374464731E+03  0.00000000000E+00 0.  1.
          1   -1    0    0  501    0  0.00000000000E+00 -0.00000000000E+00 -0.17388294494E+04  0.17388294494E+04  0.00000000000E+00 0. -1.
         23    2    1    2    0    0  0.35907260552E+02  0.83919626056E+03  0.99454027330E+01  0.84486063609E+03  0.90282270108E+02 0.  0.
        254    2    1    2    0    0 -0.35907260552E+02 -0.83919626056E+03 -0.10350302048E+04  0.16077134606E+04  0.89884111582E+03 0.  0.
        -24    2    4    4    0    0  0.33876612141E+03 -0.24301684447E+03 -0.10301389686E+03  0.43688131998E+03  0.80210679386E+02 0.  0.
         24    2    4    4    0    0 -0.37467338196E+03 -0.59617941609E+03 -0.93201630798E+03  0.11708321407E+04  0.79896582773E+02 0.  0.
         13    1    3    3    0    0  0.18485919807E+02  0.26164330977E+03  0.44363598288E+02  0.26602082556E+03  0.00000000000E+00 0. -1.
        -13    1    3    3    0    0  0.17421340745E+02  0.57755295079E+03 -0.34418195555E+02  0.57883981054E+03  0.00000000000E+00 0.  1.
          4    1    6    6  502    0 -0.29812801057E+03 -0.43118750358E+03 -0.64681409576E+03  0.83256918535E+03  0.00000000000E+00 0. -1.
          1    1    5    5  503    0  0.11138953347E+02 -0.16466527942E+02 -0.23348670197E+02  0.30665668493E+02  0.00000000000E+00 0. -1.
         -2    1    5    5    0  503  0.32762716806E+03 -0.22655031653E+03 -0.79665226666E+02  0.40621565149E+03  0.00000000000E+00 0.  1.
         -3    1    6    6    0  502 -0.76545371394E+02 -0.16499191251E+03 -0.28520221222E+03  0.33826295530E+03  0.00000000000E+00 0.  1.
<mgrwt>
<rscale>  0 0.22280756E+04</rscale>
<asrwt>0</asrwt>
<pdfrwt beam="1">  1        1 0.26751222E+00 0.22280756E+04</pdfrwt>
<pdfrwt beam="2">  1       -1 0.10980687E+00 0.22280756E+04</pdfrwt>
<totfact> 0.31250312E+00</totfact>
</mgrwt>
</event>
<event>
12    1  0.1541840E-007  0.1670728E+04  0.7818608E-02  0.8778237E-01
          1   -1    0    0  501    0  0.00000000000E+00  0.00000000000E+00  0.75607491024E+03  0.75607491024E+03  0.00000000000E+00 0. -1.
         -1   -1    0    0    0  501 -0.00000000000E+00 -0.00000000000E+00 -0.92296862830E+03  0.92296862830E+03  0.00000000000E+00 0.  1.
         23    2    1    2    0    0 -0.92766125888E+02 -0.23047788584E+03  0.47247760137E+03  0.54149761131E+03  0.90878871463E+02 0.  0.
        254    2    1    2    0    0  0.92766125888E+02  0.23047788584E+03 -0.63937131943E+03  0.11375459272E+04  0.90746319071E+03 0.  0.
        -24    2    4    4    0    0 -0.27653623030E+03  0.21134790384E+03  0.40094019948E+02  0.35947105855E+03  0.80446804584E+02 0.  0.
         24    2    4    4    0    0  0.36930235619E+03  0.19129981998E+02 -0.67946533938E+03  0.77807486869E+03  0.83529440135E+02 0.  0.
         13    1    3    3    0    0 -0.68862357348E+02 -0.17458885318E+03  0.26109921904E+03  0.32155263037E+03  0.00000000000E+00 0. -1.
        -13    1    3    3    0    0 -0.23903768540E+02 -0.55889032662E+02  0.21137838233E+03  0.21994498094E+03  0.00000000000E+00 0.  1.
          4    1    6    6  502    0  0.11574701359E+03  0.26242150105E+02 -0.15252504906E+03  0.19326125372E+03  0.00000000000E+00 0. -1.
          3    1    5    5  503    0 -0.91679039082E+02  0.12005347009E+03  0.16724368917E+02  0.15197890117E+03  0.00000000000E+00 0. -1.
         -4    1    5    5    0  503 -0.18485719122E+03  0.91294433757E+02  0.23369651031E+02  0.20749215737E+03  0.00000000000E+00 0.  1.
         -3    1    6    6    0  502  0.25355534260E+03 -0.71121681079E+01 -0.52694029032E+03  0.58481361497E+03  0.00000000000E+00 0.  1.
<mgrwt>
<rscale>  0 0.16707285E+04</rscale>
<asrwt>0</asrwt>
<pdfrwt beam="1">  1        1 0.11631922E+00 0.16707285E+04</pdfrwt>
<pdfrwt beam="2">  1       -1 0.14199517E+00 0.16707285E+04</pdfrwt>
<totfact> 0.93187548E+00</totfact>
</mgrwt>
</event>
<event>
12    1  0.1541840E-007  0.1620468E+04  0.7818608E-02  0.8808072E-01
          2   -1    0    0  501    0  0.00000000000E+00  0.00000000000E+00  0.43080217601E+04  0.43080217601E+04  0.00000000000E+00 0.  1.
         -2   -1    0    0    0  501 -0.00000000000E+00 -0.00000000000E+00 -0.15238520398E+03  0.15238520398E+03  0.00000000000E+00 0. -1.
         23    2    1    2    0    0  0.19212438855E+03  0.41038571750E+03  0.54395195257E+03  0.71367310481E+03  0.90096370722E+02 0.  0.
        254    2    1    2    0    0 -0.19212438855E+03 -0.41038571750E+03  0.36116846035E+04  0.37467338592E+04  0.88793058224E+03 0.  0.
        -24    2    4    4    0    0 -0.21761351048E+03 -0.55728722396E+03  0.13511460695E+04  0.14798801958E+04  0.80777490270E+02 0.  0.
         24    2    4    4    0    0  0.25489121928E+02  0.14690150646E+03  0.22605385340E+04  0.22668536634E+04  0.79757881244E+02 0.  0.
         13    1    3    3    0    0  0.43081367514E+02  0.64172992400E+02  0.48922979725E+02  0.91474778631E+02  0.00000000000E+00 0. -1.
        -13    1    3    3    0    0  0.14904302104E+03  0.34621272510E+03  0.49502897285E+03  0.62219832618E+03  0.00000000000E+00 0.  1.
          2    1    6    6  502    0  0.41484329165E+01  0.13142519177E+03  0.21045130583E+04  0.21086168460E+04  0.00000000000E+00 0. -1.
          1    1    5    5  503    0 -0.20783606927E+03 -0.54649872369E+03  0.13383666588E+04  0.14605074461E+04  0.00000000000E+00 0. -1.
         -2    1    5    5    0  503 -0.97774412049E+01 -0.10788500277E+02  0.12779410709E+02  0.19372749749E+02  0.00000000000E+00 0.  1.
         -1    1    6    6    0  502  0.21340689011E+02  0.15476314689E+02  0.15602547568E+03  0.15823681741E+03  0.00000000000E+00 0.  1.
<mgrwt>
<rscale>  0 0.16204676E+04</rscale>
<asrwt>0</asrwt>
<pdfrwt beam="1">  1        2 0.66277248E+00 0.16204676E+04</pdfrwt>
<pdfrwt beam="2">  1       -2 0.23443881E-01 0.16204676E+04</pdfrwt>
<totfact> 0.29523080E+00</totfact>
</mgrwt>
</event>
<event>
12    1  0.1541840E-007  0.1429554E+04  0.7818608E-02  0.8932699E-01
          1   -1    0    0  501    0  0.00000000000E+00  0.00000000000E+00  0.12892591213E+04  0.12892591213E+04  0.00000000000E+00 0. -1.
         -1   -1    0    0    0  501 -0.00000000000E+00 -0.00000000000E+00 -0.39627905617E+03  0.39627905617E+03  0.00000000000E+00 0.  1.
         23    2    1    2    0    0 -0.31516275369E+02 -0.45491376389E+02 -0.24137965489E+03  0.26318839255E+03  0.89113698361E+02 0.  0.
        254    2    1    2    0    0  0.31516275369E+02  0.45491376389E+02  0.11343597200E+04  0.14223497849E+04  0.85629679160E+03 0.  0.
        -24    2    4    4    0    0 -0.34374455124E+03 -0.18734354173E+03  0.64327215406E+03  0.75719547127E+03  0.79296900228E+02 0.  0.
         24    2    4    4    0    0  0.37526082661E+03  0.23283491812E+03  0.49108756592E+03  0.66515431361E+03  0.78933367033E+02 0.  0.
         11    1    3    3    0    0 -0.70967108595E+01 -0.27146023024E+02 -0.22820797075E+03  0.22992639646E+03  0.00000000000E+00 0.  1.
        -11    1    3    3    0    0 -0.24419564510E+02 -0.18345353365E+02 -0.13171684140E+02  0.33261996092E+02  0.00000000000E+00 0. -1.
          4    1    6    6  502    0  0.12772380077E+03  0.93406826599E+02  0.23086658152E+03  0.27988851888E+03  0.00000000000E+00 0. -1.
          1    1    5    5  503    0 -0.30020834869E+02  0.24237548899E+01  0.28953264077E+02  0.41778183478E+02  0.00000000000E+00 0. -1.
         -2    1    5    5    0  503 -0.31372371637E+03 -0.18976729662E+03  0.61431888998E+03  0.71541728779E+03  0.00000000000E+00 0.  1.
         -3    1    6    6    0  502  0.24753702584E+03  0.13942809152E+03  0.26022098439E+03  0.38526579473E+03  0.00000000000E+00 0.  1.
<mgrwt>
<rscale>  0 0.14295543E+04</rscale>
<asrwt>0</asrwt>
<pdfrwt beam="1">  1        1 0.19834756E+00 0.14295543E+04</pdfrwt>
<pdfrwt beam="2">  1       -1 0.60966009E-01 0.14295543E+04</pdfrwt>
<totfact> 0.24438638E+01</totfact>
</mgrwt>
</event>
<event>
12    1  0.1541840E-007  0.1662745E+04  0.7818608E-02  0.8782902E-01
         -2   -1    0    0    0  501 -0.00000000000E+00  0.00000000000E+00  0.79528805106E+03  0.79528805106E+03  0.00000000000E+00 0.  1.
          2   -1    0    0  501    0  0.00000000000E+00 -0.00000000000E+00 -0.86909415215E+03  0.86909415215E+03  0.00000000000E+00 0. -1.
         23    2    1    2    0    0 -0.35718899807E+03 -0.19608710603E+03  0.39183499735E+03  0.57235925824E+03  0.89589741906E+02 0.  0.
        254    2    1    2    0    0  0.35718899807E+03  0.19608710603E+03 -0.46564109844E+03  0.10920229450E+04  0.89981017236E+03 0.  0.
        -24    2    4    4    0    0  0.59325330370E+03  0.10854553235E+03 -0.66441351009E+02  0.61289276885E+03  0.86553324872E+02 0.  0.
         24    2    4    4    0    0 -0.23606430563E+03  0.87541573676E+02 -0.39919974743E+03  0.47913017611E+03  0.82555458912E+02 0.  0.
         11    1    3    3    0    0 -0.35238184994E+02 -0.59290783047E+01  0.71739521637E+02  0.80146382426E+02  0.00000000000E+00 0. -1.
        -11    1    3    3    0    0 -0.32195081307E+03 -0.19015802772E+03  0.32009547571E+03  0.49221287582E+03  0.00000000000E+00 0.  1.
          2    1    6    6  502    0 -0.95539803994E+02  0.46549868464E+02 -0.24211808326E+03  0.26441616941E+03  0.00000000000E+00 0. -1.
          3    1    5    5  503    0  0.57779535235E+03  0.89734702283E+02 -0.66933022465E+02  0.58854041109E+03  0.00000000000E+00 0. -1.
         -4    1    5    5    0  503  0.15457951349E+02  0.18810830069E+02  0.49167145591E+00  0.24352357763E+02  0.00000000000E+00 0.  1.
         -1    1    6    6    0  502 -0.14052450164E+03  0.40991705213E+02 -0.15708166417E+03  0.21471400670E+03  0.00000000000E+00 0.  1.
<mgrwt>
<rscale>  0 0.16627450E+04</rscale>
<asrwt>0</asrwt>
<pdfrwt beam="1">  1        2 0.13370679E+00 0.16627450E+04</pdfrwt>
<pdfrwt beam="2">  1       -2 0.12235201E+00 0.16627450E+04</pdfrwt>
<totfact> 0.14861857E+01</totfact>
</mgrwt>
</event>
<event>
12    1  0.1541840E-007  0.1586267E+04  0.7818608E-02  0.8829029E-01
          2   -1    0    0  501    0  0.00000000000E+00  0.00000000000E+00  0.25425325817E+04  0.25425325817E+04  0.00000000000E+00 0. -1.
         -2   -1    0    0    0  501 -0.00000000000E+00 -0.00000000000E+00 -0.24741498979E+03  0.24741498979E+03  0.00000000000E+00 0.  1.
         23    2    1    2    0    0  0.29484023557E+03 -0.17067260508E+03  0.15088274618E+04  0.15493159547E+04  0.88089246989E+02 0.  0.
        254    2    1    2    0    0 -0.29484023557E+03  0.17067260508E+03  0.78629013013E+03  0.12406316168E+04  0.89713696681E+03 0.  0.
        -24    2    4    4    0    0  0.20098506970E+03 -0.85008065767E+00 -0.75090799577E+02  0.22878259485E+03  0.79417420280E+02 0.  0.
         24    2    4    4    0    0 -0.49582530527E+03  0.17152268574E+03  0.86138092971E+03  0.10118490219E+04  0.81231595283E+02 0.  0.
         11    1    3    3    0    0  0.29501107788E+03 -0.17388328176E+03  0.14302970046E+04  0.14707197058E+04  0.00000000000E+00 0. -1.
        -11    1    3    3    0    0 -0.17084231355E+00  0.32106766811E+01  0.78530457144E+02  0.78596248836E+02  0.00000000000E+00 0.  1.
          2    1    6    6  502    0 -0.27802630247E+03  0.95448861718E+02  0.55824529797E+03  0.63090959953E+03  0.00000000000E+00 0. -1.
          1    1    5    5  503    0  0.17650425154E+03 -0.28172621038E+02 -0.69001771005E+02  0.19159512465E+03  0.00000000000E+00 0. -1.
         -2    1    5    5    0  503  0.24480818160E+02  0.27322540380E+02 -0.60890285713E+01  0.37187470195E+02  0.00000000000E+00 0.  1.
         -1    1    6    6    0  502 -0.21779900280E+03  0.76073824019E+02  0.30313563174E+03  0.38093942241E+03  0.00000000000E+00 0.  1.
<mgrwt>
<rscale>  0 0.15862669E+04</rscale>
<asrwt>0</asrwt>
<pdfrwt beam="1">  1        2 0.39115884E+00 0.15862669E+04</pdfrwt>
<pdfrwt beam="2">  1       -2 0.38063846E-01 0.15862669E+04</pdfrwt>
<totfact> 0.20618603E+01</totfact>
</mgrwt>
</event>
<event>
12    1  0.2223187E-007  0.2238174E+04  0.7818608E-02  0.8502705E-01
         -1   -1    0    0    0  501 -0.00000000000E+00  0.00000000000E+00  0.11034204696E+04  0.11034204696E+04  0.00000000000E+00 0.  1.
          1   -1    0    0  501    0  0.00000000000E+00 -0.00000000000E+00 -0.11349755072E+04  0.11349755072E+04  0.00000000000E+00 0. -1.
         23    2    1    2    0    0  0.79294596274E+03  0.49412227970E+03  0.43413410507E+02  0.93975155188E+03  0.91258577278E+02 0.  0.
        254    2    1    2    0    0 -0.79294596274E+03 -0.49412227970E+03 -0.74968448088E+02  0.12986444249E+04  0.89885312871E+03 0.  0.
        -24    2    4    4    0    0 -0.77037989840E+02  0.23864201152E+03 -0.63354006044E+02  0.27090589834E+03  0.80569312575E+02 0.  0.
         24    2    4    4    0    0 -0.71590797290E+03 -0.73276429123E+03 -0.11614442045E+02  0.10277385266E+04  0.81509824923E+02 0.  0.
         11    1    3    3    0    0  0.72116837369E+03  0.43390323068E+03  0.14734691443E+02  0.84176775178E+03  0.00000000000E+00 0. -1.
        -11    1    3    3    0    0  0.71777589051E+02  0.60219049023E+02  0.28678719065E+02  0.97983800102E+02  0.00000000000E+00 0.  1.
          2    1    6    6  502    0 -0.65301576155E+03 -0.69781279868E+03 -0.93311701464E+01  0.95575067752E+03  0.00000000000E+00 0. -1.
          3    1    5    5  503    0 -0.78296679488E+02  0.18557984974E+03 -0.77758612313E+02  0.21590889846E+03  0.00000000000E+00 0. -1.
         -4    1    5    5    0  503  0.12586896478E+01  0.53062161788E+02  0.14404606269E+02  0.54996999873E+02  0.00000000000E+00 0.  1.
         -1    1    6    6    0  502 -0.62892211353E+02 -0.34951492543E+02 -0.22832718982E+01  0.71987849047E+02  0.00000000000E+00 0.  1.
<mgrwt>
<rscale>  0 0.22381735E+04</rscale>
<asrwt>0</asrwt>
<pdfrwt beam="1">  1        1 0.17461162E+00 0.22381735E+04</pdfrwt>
<pdfrwt beam="2">  1       -1 0.16975700E+00 0.22381735E+04</pdfrwt>
<totfact> 0.26799977E+00</totfact>
</mgrwt>
</event>
<event>
12    1  0.1541840E-007  0.1131429E+04  0.7818608E-02  0.9175089E-01
          2   -1    0    0  501    0  0.00000000000E+00  0.00000000000E+00  0.27498295064E+04  0.27498295064E+04  0.00000000000E+00 0. -1.
         -2   -1    0    0    0  501 -0.00000000000E+00 -0.00000000000E+00 -0.11638275785E+03  0.11638275785E+03  0.00000000000E+00 0.  1.
         23    2    1    2    0    0 -0.18599078299E+03 -0.68729031253E+02  0.58566002364E+03  0.62466069824E+03  0.88809197428E+02 0.  0.
        254    2    1    2    0    0  0.18599078299E+03  0.68729031253E+02  0.20477867249E+04  0.22415515660E+04  0.88983521017E+03 0.  0.
        -24    2    4    4    0    0  0.54833895413E+02  0.46718131014E+03  0.94875703005E+03  0.10618623705E+04  0.78400633227E+02 0.  0.
         24    2    4    4    0    0  0.13115688757E+03 -0.39845227889E+03  0.10990296948E+04  0.11796891954E+04  0.88509773366E+02 0.  0.
         11    1    3    3    0    0 -0.12981677076E+03 -0.56738165703E+02  0.28168430825E+03  0.31530566587E+03  0.00000000000E+00 0.  1.
        -11    1    3    3    0    0 -0.56174012229E+02 -0.11990865551E+02  0.30397571539E+03  0.30935503237E+03  0.00000000000E+00 0. -1.
          4    1    6    6  502    0  0.13524615696E+03 -0.40081236926E+03  0.10756903429E+04  0.11558770662E+04  0.00000000000E+00 0. -1.
          3    1    5    5  503    0  0.41423788623E+02  0.35430676095E+03  0.78796533371E+03  0.86495004378E+03  0.00000000000E+00 0. -1.
         -4    1    5    5    0  503  0.13410106791E+02  0.11287454919E+03  0.16079169634E+03  0.19691232676E+03  0.00000000000E+00 0.  1.
         -3    1    6    6    0  502 -0.40892693881E+01  0.23600903671E+01  0.23339351907E+02  0.23812129223E+02  0.00000000000E+00 0.  1.
<mgrwt>
<rscale>  0 0.11314287E+04</rscale>
<asrwt>0</asrwt>
<pdfrwt beam="1">  1        2 0.42305065E+00 0.11314287E+04</pdfrwt>
<pdfrwt beam="2">  1       -2 0.17905042E-01 0.11314287E+04</pdfrwt>
<totfact> 0.64491947E+01</totfact>
</mgrwt>
</event>
<event>
12    1  0.1541840E-007  0.1221646E+04  0.7818608E-02  0.9094118E-01
          2   -1    0    0  501    0  0.00000000000E+00  0.00000000000E+00  0.16635868965E+04  0.16635868965E+04  0.00000000000E+00 0. -1.
         -2   -1    0    0    0  501 -0.00000000000E+00 -0.00000000000E+00 -0.22427724621E+03  0.22427724621E+03  0.00000000000E+00 0.  1.
         23    2    1    2    0    0  0.12630941669E+03 -0.21049951981E+03  0.16154425593E+03  0.30818613297E+03  0.92833341795E+02 0.  0.
        254    2    1    2    0    0 -0.12630941669E+03  0.21049951981E+03  0.12777653943E+04  0.15796780097E+04  0.89578685792E+03 0.  0.
        -24    2    4    4    0    0 -0.38944890092E+03  0.31943447368E+03  0.11479329512E+04  0.12558122730E+04  0.74870388683E+02 0.  0.
         24    2    4    4    0    0  0.26313948423E+03 -0.10893495387E+03  0.12983244314E+03  0.32386573674E+03  0.83206609159E+02 0.  0.
         13    1    3    3    0    0  0.19829220432E+02 -0.83932741236E+02  0.99146661346E+02  0.13140762341E+03  0.00000000000E+00 0. -1.
        -13    1    3    3    0    0  0.10648019626E+03 -0.12656677857E+03  0.62397594582E+02  0.17677850956E+03  0.00000000000E+00 0.  1.
          4    1    6    6  502    0  0.11503886371E+03 -0.52174589928E+02  0.13224243890E+02  0.12700790772E+03  0.00000000000E+00 0. -1.
          3    1    5    5  503    0 -0.37994042792E+03  0.32335229305E+03  0.11226002902E+04  0.12284717521E+04  0.00000000000E+00 0. -1.
         -4    1    5    5    0  503 -0.95084729939E+01 -0.39178193755E+01  0.25332661029E+02  0.27340520883E+02  0.00000000000E+00 0.  1.
         -3    1    6    6    0  502  0.14810062052E+03 -0.56760363944E+02  0.11660819925E+03  0.19685782902E+03  0.00000000000E+00 0.  1.
<mgrwt>
<rscale>  0 0.12216459E+04</rscale>
<asrwt>0</asrwt>
<pdfrwt beam="1">  1        2 0.25593644E+00 0.12216459E+04</pdfrwt>
<pdfrwt beam="2">  1       -2 0.34504193E-01 0.12216459E+04</pdfrwt>
<totfact> 0.79694787E+01</totfact>
</mgrwt>
</event>
<event>
12    1  0.1541840E-007  0.1124747E+04  0.7818608E-02  0.9181402E-01
          1   -1    0    0  501    0  0.00000000000E+00  0.00000000000E+00  0.39662369649E+03  0.39662369649E+03  0.00000000000E+00 0. -1.
         -1   -1    0    0    0  501 -0.00000000000E+00 -0.00000000000E+00 -0.79739018396E+03  0.79739018396E+03  0.00000000000E+00 0.  1.
         23    2    1    2    0    0  0.84527289148E+02  0.18271065785E+02 -0.20913156682E+03  0.24427038147E+03  0.91941897770E+02 0.  0.
        254    2    1    2    0    0 -0.84527289148E+02 -0.18271065785E+02 -0.19163492065E+03  0.94974349898E+03  0.92618036936E+03 0.  0.
        -24    2    4    4    0    0  0.89587905917E+01 -0.14412650919E+03 -0.53720115565E+03  0.56182900303E+03  0.78829159798E+02 0.  0.
         24    2    4    4    0    0 -0.93486079739E+02  0.12585544341E+03  0.34556623500E+03  0.38791449595E+03  0.80513313542E+02 0.  0.
         13    1    3    3    0    0  0.84410569015E+02  0.45314939614E+02 -0.13648759313E+03  0.16675566255E+03  0.00000000000E+00 0.  1.
        -13    1    3    3    0    0  0.11672013209E+00 -0.27043873830E+02 -0.72643973693E+02  0.77514718920E+02  0.00000000000E+00 0. -1.
          4    1    6    6  502    0 -0.95564482276E+01  0.38394896310E+02  0.29358320785E+02  0.49268699645E+02  0.00000000000E+00 0. -1.
          3    1    5    5  503    0  0.30676527866E+02 -0.53921015872E+02 -0.12800400325E+03  0.14224468413E+03  0.00000000000E+00 0. -1.
         -4    1    5    5    0  503 -0.21717737274E+02 -0.90205493319E+02 -0.40919715240E+03  0.41958431890E+03  0.00000000000E+00 0.  1.
         -3    1    6    6    0  502 -0.83929631512E+02  0.87460547096E+02  0.31620791422E+03  0.33864579631E+03  0.00000000000E+00 0.  1.
<mgrwt>
<rscale>  0 0.11247468E+04</rscale>
<asrwt>0</asrwt>
<pdfrwt beam="1">  1        1 0.61019031E-01 0.11247468E+04</pdfrwt>
<pdfrwt beam="2">  1       -1 0.12267541E+00 0.11247468E+04</pdfrwt>
<totfact> 0.35407964E+01</totfact>
</mgrwt>
</event>
<event>
12    1  0.1541840E-007  0.1233446E+04  0.7818608E-02  0.9084075E-01
         -1   -1    0    0    0  501 -0.00000000000E+00  0.00000000000E+00  0.15932783520E+03  0.15932783520E+03  0.00000000000E+00 0.  1.
          1   -1    0    0  501    0  0.00000000000E+00 -0.00000000000E+00 -0.23871995123E+04  0.23871995123E+04  0.00000000000E+00 0. -1.
         23    2    1    2    0    0 -0.18578127930E+02  0.56582254138E+02 -0.12715841669E+04  0.12762563449E+04  0.91418083592E+02 0.  0.
        254    2    1    2    0    0  0.18578127930E+02 -0.56582254138E+02 -0.95628751020E+03  0.12702710026E+04  0.83399995181E+03 0.  0.
        -24    2    4    4    0    0  0.30358374144E+03 -0.26123159192E+03 -0.75335064703E+03  0.85681303601E+03  0.78653344636E+02 0.  0.
         24    2    4    4    0    0 -0.28500561351E+03  0.20464933778E+03 -0.20293686318E+03  0.41345796661E+03  0.81575538820E+02 0.  0.
         11    1    3    3    0    0 -0.25353473895E+02  0.73454834244E+02 -0.68551904119E+03  0.68990924558E+03  0.00000000000E+00 0. -1.
        -11    1    3    3    0    0  0.67753459653E+01 -0.16872580106E+02 -0.58606512574E+03  0.58634709932E+03  0.00000000000E+00 0.  1.
          2    1    6    6  502    0 -0.19595336316E+03  0.14382658183E+03 -0.95282579196E+02  0.26107963550E+03  0.00000000000E+00 0. -1.
          3    1    5    5  503    0  0.18300378299E+03 -0.18231108574E+03 -0.54925738339E+03  0.60696901880E+03  0.00000000000E+00 0. -1.
         -4    1    5    5    0  503  0.12057995846E+03 -0.78920506183E+02 -0.20409326364E+03  0.24984401722E+03  0.00000000000E+00 0.  1.
         -1    1    6    6    0  502 -0.89052250355E+02  0.60822755951E+02 -0.10765428398E+03  0.15237833112E+03  0.00000000000E+00 0.  1.
<mgrwt>
<rscale>  0 0.12334461E+04</rscale>
<asrwt>0</asrwt>
<pdfrwt beam="1">  1        1 0.36726147E+00 0.12334461E+04</pdfrwt>
<pdfrwt beam="2">  1       -1 0.24511974E-01 0.12334461E+04</pdfrwt>
<totfact> 0.23300913E+01</totfact>
</mgrwt>
</event>
<event>
12    1  0.1541840E-007  0.1237258E+04  0.7818608E-02  0.9080855E-01
          1   -1    0    0  501    0  0.00000000000E+00  0.00000000000E+00  0.25768041463E+03  0.25768041463E+03  0.00000000000E+00 0. -1.
         -1   -1    0    0    0  501 -0.00000000000E+00 -0.00000000000E+00 -0.14851804773E+04  0.14851804773E+04  0.00000000000E+00 0.  1.
         23    2    1    2    0    0 -0.79106627005E+02  0.43717479349E+01 -0.65015874283E+03  0.66127608457E+03  0.91119144694E+02 0.  0.
        254    2    1    2    0    0  0.79106627005E+02 -0.43717479349E+01 -0.57734131987E+03  0.10815848074E+04  0.91116723236E+03 0.  0.
        -24    2    4    4    0    0 -0.17113547175E+03  0.25513998455E+03  0.80481288764E+02  0.32724851741E+03  0.78934104790E+02 0.  0.
         24    2    4    4    0    0  0.25024209875E+03 -0.25951173249E+03 -0.65782260863E+03  0.75433628998E+03  0.79531167880E+02 0.  0.
         13    1    3    3    0    0  0.71204357577E+01  0.19340604094E+02 -0.41269229264E+02  0.46129262472E+02  0.00000000000E+00 0. -1.
        -13    1    3    3    0    0 -0.86227062762E+02 -0.14968856159E+02 -0.60888951356E+03  0.61514682209E+03  0.00000000000E+00 0.  1.
          4    1    6    6  502    0  0.70124531452E+02 -0.37288132597E+02 -0.19083324439E+03  0.20670070611E+03  0.00000000000E+00 0. -1.
          3    1    5    5  503    0 -0.18724261942E+02  0.74957167774E-01  0.12273586418E+02  0.22388490959E+02  0.00000000000E+00 0. -1.
         -4    1    5    5    0  503 -0.15241120981E+03  0.25506502739E+03  0.68207702346E+02  0.30486002645E+03  0.00000000000E+00 0.  1.
         -3    1    6    6    0  502  0.18011756730E+03 -0.22222359989E+03 -0.46698936424E+03  0.54763558387E+03  0.00000000000E+00 0.  1.
<mgrwt>
<rscale>  0 0.12372581E+04</rscale>
<asrwt>0</asrwt>
<pdfrwt beam="1">  1        1 0.39643141E-01 0.12372581E+04</pdfrwt>
<pdfrwt beam="2">  1       -1 0.22848930E+00 0.12372581E+04</pdfrwt>
<totfact> 0.10204311E+01</totfact>
</mgrwt>
</event>
<event>
12    1  0.1541840E-007  0.1446836E+04  0.7818608E-02  0.8920597E-01
          2   -1    0    0  501    0  0.00000000000E+00  0.00000000000E+00  0.28212730235E+04  0.28212730235E+04  0.00000000000E+00 0. -1.
         -2   -1    0    0    0  501 -0.00000000000E+00 -0.00000000000E+00 -0.18549557485E+03  0.18549557485E+03  0.00000000000E+00 0.  1.
         23    2    1    2    0    0 -0.22793292198E+03 -0.25210249713E+03  0.13901873374E+04  0.14339847656E+04  0.90456558338E+02 0.  0.
        254    2    1    2    0    0  0.22793292198E+03  0.25210249713E+03  0.12455901112E+04  0.15727838327E+04  0.89813427355E+03 0.  0.
        -24    2    4    4    0    0  0.56025118300E+02 -0.20721094599E+03 -0.39273330728E+01  0.22813441422E+03  0.77166683136E+02 0.  0.
         24    2    4    4    0    0  0.17190780368E+03  0.45931344313E+03  0.12495174443E+04  0.13446494185E+04  0.79164910725E+02 0.  0.
         11    1    3    3    0    0 -0.71828515539E+02 -0.13267951306E+03  0.71646037596E+03  0.73217392685E+03  0.00000000000E+00 0.  1.
        -11    1    3    3    0    0 -0.15610440644E+03 -0.11942298407E+03  0.67372696144E+03  0.70181083876E+03  0.00000000000E+00 0. -1.
          4    1    6    6  502    0  0.15969441135E+03  0.39397472279E+03  0.10039516429E+04  0.10902464348E+04  0.00000000000E+00 0. -1.
          1    1    5    5  503    0  0.32321221508E+02 -0.19910264012E+03 -0.11283650337E+02  0.20202436345E+03  0.00000000000E+00 0. -1.
         -4    1    5    5    0  503  0.23703896792E+02 -0.81083058666E+01  0.73563172643E+01  0.26110050763E+02  0.00000000000E+00 0.  1.
         -3    1    6    6    0  502  0.12213392328E+02  0.65338720336E+02  0.24556580138E+03  0.25440298374E+03  0.00000000000E+00 0.  1.
<mgrwt>
<rscale>  0 0.14468361E+04</rscale>
<asrwt>0</asrwt>
<pdfrwt beam="1">  1        2 0.43404197E+00 0.14468361E+04</pdfrwt>
<pdfrwt beam="2">  1       -2 0.28537783E-01 0.14468361E+04</pdfrwt>
<totfact> 0.24655938E+01</totfact>
</mgrwt>
</event>
<event>
12    1  0.1541840E-007  0.2186147E+04  0.7818608E-02  0.8524216E-01
         -2   -1    0    0    0  501 -0.00000000000E+00  0.00000000000E+00  0.10129287240E+04  0.10129287240E+04  0.00000000000E+00 0.  1.
          2   -1    0    0  501    0  0.00000000000E+00 -0.00000000000E+00 -0.11795599685E+04  0.11795599685E+04  0.00000000000E+00 0. -1.
         23    2    1    2    0    0  0.43522438254E+03 -0.75090297458E+03  0.19230266504E+03  0.89383776270E+03  0.93220655787E+02 0.  0.
        254    2    1    2    0    0 -0.43522438254E+03  0.75090297458E+03 -0.35893390956E+03  0.12986509297E+04  0.89687521177E+03 0.  0.
        -24    2    4    4    0    0  0.16830007399E+03  0.25897633639E+02 -0.29642799463E+03  0.34994758474E+03  0.74820810813E+02 0.  0.
         24    2    4    4    0    0 -0.60352445653E+03  0.72500534094E+03 -0.62505914933E+02  0.94870334500E+03  0.79098251510E+02 0.  0.
         13    1    3    3    0    0  0.10479420537E+03 -0.21142438907E+03  0.13182394888E+02  0.23633847191E+03  0.00000000000E+00 0. -1.
        -13    1    3    3    0    0  0.33043017718E+03 -0.53947858551E+03  0.17912027015E+03  0.65749929079E+03  0.00000000000E+00 0.  1.
          2    1    6    6  502    0 -0.46524514753E+03  0.50376134450E+03 -0.46959550500E+02  0.68733815469E+03  0.00000000000E+00 0. -1.
          1    1    5    5  503    0  0.10331784703E+03  0.19260347003E+02 -0.24572880310E+03  0.26726051552E+03  0.00000000000E+00 0. -1.
         -2    1    5    5    0  503  0.64982226958E+02  0.66372866354E+01 -0.50699191528E+02  0.82687069218E+02  0.00000000000E+00 0.  1.
         -1    1    6    6    0  502 -0.13827930901E+03  0.22124399644E+03 -0.15546364434E+02  0.26136519031E+03  0.00000000000E+00 0.  1.
<mgrwt>
<rscale>  0 0.21861475E+04</rscale>
<asrwt>0</asrwt>
<pdfrwt beam="1">  1        2 0.18147076E+00 0.21861475E+04</pdfrwt>
<pdfrwt beam="2">  1       -2 0.15583519E+00 0.21861475E+04</pdfrwt>
<totfact> 0.48243651E+00</totfact>
</mgrwt>
</event>
<event>
12    1  0.1541840E-007  0.1558591E+04  0.7818608E-02  0.8846399E-01
          1   -1    0    0  501    0  0.00000000000E+00  0.00000000000E+00  0.19657156663E+04  0.19657156663E+04  0.00000000000E+00 0. -1.
         -1   -1    0    0    0  501 -0.00000000000E+00 -0.00000000000E+00 -0.30894687863E+03  0.30894687863E+03  0.00000000000E+00 0.  1.
         23    2    1    2    0    0  0.30822641954E+03  0.31307152348E+03  0.17778295093E+03  0.48285912263E+03  0.92351773963E+02 0.  0.
        254    2    1    2    0    0 -0.30822641954E+03 -0.31307152348E+03  0.14789858367E+04  0.17918034223E+04  0.91112188775E+03 0.  0.
        -24    2    4    4    0    0 -0.37520831647E+03 -0.45414041951E+03  0.44487838595E+03  0.74258206678E+03  0.80539097499E+02 0.  0.
         24    2    4    4    0    0  0.66981896937E+02  0.14106889604E+03  0.10341074508E+04  0.10492213555E+04  0.84262833701E+02 0.  0.
         11    1    3    3    0    0  0.21620092822E+03  0.24252540942E+03  0.16988362172E+03  0.36663586910E+03  0.00000000000E+00 0.  1.
        -11    1    3    3    0    0  0.92025491320E+02  0.70546114052E+02  0.78993292107E+01  0.11622325354E+03  0.00000000000E+00 0. -1.
          2    1    6    6  502    0  0.10102121479E+02  0.11310585815E+03  0.70090799700E+03  0.71004718735E+03  0.00000000000E+00 0. -1.
          1    1    5    5  503    0 -0.35689819392E+03 -0.40289529179E+03  0.38557313343E+03  0.66209333042E+03  0.00000000000E+00 0. -1.
         -4    1    5    5    0  503 -0.18310122559E+02 -0.51245127725E+02  0.59305252520E+02  0.80488736356E+02  0.00000000000E+00 0.  1.
         -1    1    6    6    0  502  0.56879775458E+02  0.27963037888E+02  0.33319945375E+03  0.33917416813E+03  0.00000000000E+00 0.  1.
<mgrwt>
<rscale>  0 0.15585913E+04</rscale>
<asrwt>0</asrwt>
<pdfrwt beam="1">  1        1 0.30241779E+00 0.15585913E+04</pdfrwt>
<pdfrwt beam="2">  1       -1 0.47530290E-01 0.15585913E+04</pdfrwt>
<totfact> 0.13381759E+01</totfact>
</mgrwt>
</event>
<event>
12    1  0.1541840E-007  0.1622576E+04  0.7818608E-02  0.8806797E-01
          2   -1    0    0  501    0  0.00000000000E+00  0.00000000000E+00  0.15034559942E+04  0.15034559942E+04  0.00000000000E+00 0.  1.
         -2   -1    0    0    0  501 -0.00000000000E+00 -0.00000000000E+00 -0.43778369117E+03  0.43778369117E+03  0.00000000000E+00 0. -1.
         23    2    1    2    0    0  0.24920123006E+03 -0.11640221987E+03  0.96467686588E+03  0.10072171505E+04  0.90742508358E+02 0.  0.
        254    2    1    2    0    0 -0.24920123006E+03  0.11640221987E+03  0.10099543715E+03  0.93402253489E+03  0.88687501233E+03 0.  0.
        -24    2    4    4    0    0 -0.54987848657E+03  0.43997565904E+02  0.21125875796E+03  0.59621816506E+03  0.80893150086E+02 0.  0.
         24    2    4    4    0    0  0.30067725651E+03  0.72404653966E+02 -0.11026332081E+03  0.33780436983E+03  0.79401170390E+02 0.  0.
         11    1    3    3    0    0  0.23189298609E+03 -0.12835373535E+03  0.92607247344E+03  0.96325451695E+03  0.00000000000E+00 0.  1.
        -11    1    3    3    0    0  0.17308243967E+02  0.11951515479E+02  0.38604392448E+02  0.43962633540E+02  0.00000000000E+00 0. -1.
          4    1    6    6  502    0  0.34961225292E+02  0.34884866423E+02 -0.29652366975E+02  0.57606458375E+02  0.00000000000E+00 0. -1.
          1    1    5    5  503    0  0.13000195449E+01  0.22938964951E+01 -0.24409341746E+01  0.35930727229E+01  0.00000000000E+00 0. -1.
         -2    1    5    5    0  503 -0.55117850612E+03  0.41703669409E+02  0.21369969213E+03  0.59262509233E+03  0.00000000000E+00 0.  1.
         -3    1    6    6    0  502  0.26571603122E+03  0.37519787543E+02 -0.80610953831E+02  0.28019791145E+03  0.00000000000E+00 0.  1.
<mgrwt>
<rscale>  0 0.16225764E+04</rscale>
<asrwt>0</asrwt>
<pdfrwt beam="1">  1        2 0.23130092E+00 0.16225764E+04</pdfrwt>
<pdfrwt beam="2">  1       -2 0.67351338E-01 0.16225764E+04</pdfrwt>
<totfact> 0.24455704E+01</totfact>
</mgrwt>
</event>
<event>
12    1  0.1541840E-007  0.1712165E+04  0.7818608E-02  0.8754457E-01
         -2   -1    0    0    0  501 -0.00000000000E+00  0.00000000000E+00  0.37233865972E+03  0.37233865972E+03  0.00000000000E+00 0.  1.
          2   -1    0    0  501    0  0.00000000000E+00 -0.00000000000E+00 -0.19683073299E+04  0.19683073299E+04  0.00000000000E+00 0. -1.
         23    2    1    2    0    0  0.26161679023E+03 -0.37040192120E+03 -0.38435754733E+01  0.46264273108E+03  0.91556514752E+02 0.  0.
        254    2    1    2    0    0 -0.26161679023E+03  0.37040192120E+03 -0.15921250948E+04  0.18780032586E+04  0.88678802076E+03 0.  0.
        -24    2    4    4    0    0 -0.34007204865E+02 -0.27493829325E+03 -0.64669302955E+03  0.70814630972E+03  0.80695516765E+02 0.  0.
         24    2    4    4    0    0 -0.22760958536E+03  0.64534021444E+03 -0.94543206520E+03  0.11698569489E+04  0.80332902151E+02 0.  0.
         13    1    3    3    0    0  0.26678675431E+03 -0.35763846323E+03 -0.12531744075E+02  0.44636026623E+03  0.00000000000E+00 0.  1.
        -13    1    3    3    0    0 -0.51699640878E+01 -0.12763457967E+02  0.86881686012E+01  0.16282464850E+02  0.00000000000E+00 0. -1.
          2    1    6    6  502    0 -0.33606285434E+02  0.51932935104E+02 -0.11898636239E+03  0.13410505809E+03  0.00000000000E+00 0. -1.
          3    1    5    5  503    0 -0.26014773976E+02 -0.32822645076E+02 -0.14666616136E+03  0.15252887393E+03  0.00000000000E+00 0. -1.
         -4    1    5    5    0  503 -0.79924308890E+01 -0.24211564817E+03 -0.50002686819E+03  0.55561743579E+03  0.00000000000E+00 0.  1.
         -1    1    6    6    0  502 -0.19400329993E+03  0.59340727934E+03 -0.82644570281E+03  0.10357518908E+04  0.00000000000E+00 0.  1.
<mgrwt>
<rscale>  0 0.17121646E+04</rscale>
<asrwt>0</asrwt>
<pdfrwt beam="1">  1        2 0.30281651E+00 0.17121646E+04</pdfrwt>
<pdfrwt beam="2">  1       -2 0.57282871E-01 0.17121646E+04</pdfrwt>
<totfact> 0.18889821E+01</totfact>
</mgrwt>
</event>
<event>
12    1  0.1541840E-007  0.1621036E+04  0.7818608E-02  0.8807728E-01
         -1   -1    0    0    0  501 -0.00000000000E+00  0.00000000000E+00  0.74359832817E+03  0.74359832817E+03  0.00000000000E+00 0. -1.
          1   -1    0    0  501    0  0.00000000000E+00 -0.00000000000E+00 -0.88345990966E+03  0.88345990966E+03  0.00000000000E+00 0.  1.
         23    2    1    2    0    0  0.59037675413E+02 -0.20233440472E+03 -0.43279865160E+03  0.49015510460E+03  0.92264268783E+02 0.  0.
        254    2    1    2    0    0 -0.59037675413E+02  0.20233440472E+03  0.29293707011E+03  0.11369031332E+04  0.10781057225E+04 0.  0.
        -24    2    4    4    0    0  0.50161476210E+03  0.59113070017E+02  0.94265066218E+02  0.51991496616E+03  0.79460334317E+02 0.  0.
         24    2    4    4    0    0 -0.56065243751E+03  0.14322133470E+03  0.19867200389E+03  0.61698816706E+03  0.79751656819E+02 0.  0.
         11    1    3    3    0    0  0.28158181173E+01 -0.19103877314E+02 -0.29782607164E+01  0.19538602739E+02  0.00000000000E+00 0. -1.
        -11    1    3    3    0    0  0.56221857295E+02 -0.18323052740E+03 -0.42982039088E+03  0.47061650186E+03  0.00000000000E+00 0.  1.
          2    1    6    6  502    0 -0.12942970781E+03  0.11301476959E+00  0.52958554819E+02  0.13984516639E+03  0.00000000000E+00 0. -1.
          1    1    5    5  503    0  0.13798270931E+03  0.42624648518E+02  0.51869071364E+02  0.15344865361E+03  0.00000000000E+00 0. -1.
         -2    1    5    5    0  503  0.36363205279E+03  0.16488421499E+02  0.42395994854E+02  0.36646631256E+03  0.00000000000E+00 0.  1.
         -1    1    6    6    0  502 -0.43122272971E+03  0.14310831993E+03  0.14571344907E+03  0.47714300067E+03  0.00000000000E+00 0.  1.
<mgrwt>
<rscale>  0 0.16210359E+04</rscale>
<asrwt>0</asrwt>
<pdfrwt beam="1">  1        1 0.13591691E+00 0.16210359E+04</pdfrwt>
<pdfrwt beam="2">  1       -1 0.11439974E+00 0.16210359E+04</pdfrwt>
<totfact> 0.12505314E+01</totfact>
</mgrwt>
</event>
<event>
12    1  0.1541840E-007  0.1309821E+04  0.7818608E-02  0.9021813E-01
         -1   -1    0    0    0  501 -0.00000000000E+00  0.00000000000E+00  0.57806471732E+03  0.57806471732E+03  0.00000000000E+00 0.  1.
          1   -1    0    0  501    0  0.00000000000E+00 -0.00000000000E+00 -0.74197212310E+03  0.74197212310E+03  0.00000000000E+00 0. -1.
         23    2    1    2    0    0  0.31468119222E+02 -0.22628574055E+03 -0.28562650588E+03  0.37732659601E+03  0.92722059364E+02 0.  0.
        254    2    1    2    0    0 -0.31468119222E+02  0.22628574055E+03  0.12171910010E+03  0.94271024441E+03  0.90647205510E+03 0.  0.
        -24    2    4    4    0    0 -0.43621081044E+02 -0.28348451807E+03 -0.17701207284E+03  0.34634727902E+03  0.79730126397E+02 0.  0.
         24    2    4    4    0    0  0.12152961822E+02  0.50977025862E+03  0.29873117294E+03  0.59636296539E+03  0.79969129957E+02 0.  0.
         11    1    3    3    0    0  0.28836566863E+02 -0.22893850839E+03 -0.24509920756E+03  0.33662740494E+03  0.00000000000E+00 0. -1.
        -11    1    3    3    0    0  0.26315523584E+01  0.26527678311E+01 -0.40527298318E+02  0.40699191072E+02  0.00000000000E+00 0.  1.
          2    1    6    6  502    0  0.37078353140E+02  0.12608418585E+03  0.83917105496E+02  0.15592981366E+03  0.00000000000E+00 0. -1.
          1    1    5    5  503    0 -0.17341714963E+02 -0.13537114941E+03 -0.13066425905E+03  0.18894240330E+03  0.00000000000E+00 0. -1.
         -2    1    5    5    0  503 -0.26279366081E+02 -0.14811336866E+03 -0.46347813790E+02  0.15740487572E+03  0.00000000000E+00 0.  1.
         -1    1    6    6    0  502 -0.24925391318E+02  0.38368607277E+03  0.21481406745E+03  0.44043315173E+03  0.00000000000E+00 0.  1.
<mgrwt>
<rscale>  0 0.13098212E+04</rscale>
<asrwt>0</asrwt>
<pdfrwt beam="1">  1        1 0.11414956E+00 0.13098212E+04</pdfrwt>
<pdfrwt beam="2">  1       -1 0.88933034E-01 0.13098212E+04</pdfrwt>
<totfact> 0.30341167E+01</totfact>
</mgrwt>
</event>
<event>
12    1  0.1541840E-007  0.1663716E+04  0.7818608E-02  0.8782333E-01
         -1   -1    0    0    0  501 -0.00000000000E+00  0.00000000000E+00  0.27480296169E+03  0.27480296169E+03  0.00000000000E+00 0.  1.
          1   -1    0    0  501    0  0.00000000000E+00 -0.00000000000E+00 -0.25181229513E+04  0.25181229513E+04  0.00000000000E+00 0. -1.
         23    2    1    2    0    0 -0.47147803314E+03 -0.34174593764E+03 -0.90715832776E+03  0.10820727884E+04  0.94145983574E+02 0.  0.
        254    2    1    2    0    0  0.47147803314E+03  0.34174593764E+03 -0.13361616619E+04  0.17108531246E+04  0.89588425905E+03 0.  0.
        -24    2    4    4    0    0  0.49608750218E+03  0.60145779130E+03 -0.87518728257E+03  0.11748070230E+04  0.79777673365E+02 0.  0.
         24    2    4    4    0    0 -0.24609469040E+02 -0.25971185366E+03 -0.46097437929E+03  0.53604610158E+03  0.82414633202E+02 0.  0.
         13    1    3    3    0    0 -0.17081651452E+03 -0.15954351172E+03 -0.42955797600E+03  0.48903217533E+03  0.00000000000E+00 0.  1.
        -13    1    3    3    0    0 -0.30066151862E+03 -0.18220242592E+03 -0.47760035176E+03  0.59304061311E+03  0.00000000000E+00 0. -1.
          2    1    6    6  502    0  0.28676471679E+02 -0.93109647168E+02 -0.18996380998E+03  0.21349003613E+03  0.00000000000E+00 0. -1.
          1    1    5    5  503    0  0.28378568043E+02  0.61611726921E+02 -0.98706381515E+02  0.11976768249E+03  0.00000000000E+00 0. -1.
         -2    1    5    5    0  503  0.46770893413E+03  0.53984606438E+03 -0.77648090106E+03  0.10550393405E+04  0.00000000000E+00 0.  1.
         -1    1    6    6    0  502 -0.53285940719E+02 -0.16660220649E+03 -0.27101056931E+03  0.32255606546E+03  0.00000000000E+00 0.  1.
<mgrwt>
<rscale>  0 0.16637159E+04</rscale>
<asrwt>0</asrwt>
<pdfrwt beam="1">  1        1 0.38740353E+00 0.16637159E+04</pdfrwt>
<pdfrwt beam="2">  1       -1 0.42277379E-01 0.16637159E+04</pdfrwt>
<totfact> 0.69214883E+00</totfact>
</mgrwt>
</event>
<event>
12    1  0.1541840E-007  0.2197917E+04  0.7818608E-02  0.8519295E-01
         -2   -1    0    0    0  501 -0.00000000000E+00  0.00000000000E+00  0.95676239337E+03  0.95676239337E+03  0.00000000000E+00 0.  1.
          2   -1    0    0  501    0  0.00000000000E+00 -0.00000000000E+00 -0.12622883701E+04  0.12622883701E+04  0.00000000000E+00 0. -1.
         23    2    1    2    0    0 -0.17436172353E+02 -0.82977245903E+03  0.26904132184E+03  0.87702251323E+03  0.89212678377E+02 0.  0.
        254    2    1    2    0    0  0.17436172353E+02  0.82977245903E+03 -0.57456729859E+03  0.13420282503E+04  0.88435620089E+03 0.  0.
        -24    2    4    4    0    0  0.39597608021E+03  0.66551520301E+03 -0.27401042890E+03  0.82551504753E+03  0.81766967785E+02 0.  0.
         24    2    4    4    0    0 -0.37853990786E+03  0.16425725602E+03 -0.30055686969E+03  0.51651320274E+03  0.78603744749E+02 0.  0.
         11    1    3    3    0    0  0.31523427284E+02 -0.17759721945E+03  0.47724156561E+02  0.18657999342E+03  0.00000000000E+00 0. -1.
        -11    1    3    3    0    0 -0.48959599637E+02 -0.65217523958E+03  0.22131716527E+03  0.69044251981E+03  0.00000000000E+00 0.  1.
          4    1    6    6  502    0 -0.12273593954E+03  0.63367666495E+02 -0.57892240355E+02  0.14977010217E+03  0.00000000000E+00 0. -1.
          1    1    5    5  503    0  0.84811842278E+02  0.13257659761E+03 -0.91113922518E+02  0.18185529880E+03  0.00000000000E+00 0. -1.
         -2    1    5    5    0  503  0.31116423793E+03  0.53293860540E+03 -0.18289650638E+03  0.64365974874E+03  0.00000000000E+00 0.  1.
         -3    1    6    6    0  502 -0.25580396832E+03  0.10088958953E+03 -0.24266462934E+03  0.36674310057E+03  0.00000000000E+00 0.  1.
<mgrwt>
<rscale>  0 0.21979172E+04</rscale>
<asrwt>0</asrwt>
<pdfrwt beam="1">  1        2 0.19419821E+00 0.21979172E+04</pdfrwt>
<pdfrwt beam="2">  1       -2 0.14719421E+00 0.21979172E+04</pdfrwt>
<totfact> 0.50094267E+00</totfact>
</mgrwt>
</event>
<event>
12    1  0.1541840E-007  0.1453514E+04  0.7818608E-02  0.8915968E-01
          1   -1    0    0  501    0  0.00000000000E+00  0.00000000000E+00  0.29786536797E+03  0.29786536797E+03  0.00000000000E+00 0. -1.
         -1   -1    0    0    0  501 -0.00000000000E+00 -0.00000000000E+00 -0.17732019504E+04  0.17732019504E+04  0.00000000000E+00 0.  1.
         23    2    1    2    0    0  0.36076530094E+03 -0.28955541029E+02 -0.81456737441E+03  0.89585942785E+03  0.89744533552E+02 0.  0.
        254    2    1    2    0    0 -0.36076530094E+03  0.28955541029E+02 -0.66076920807E+03  0.11752078906E+04  0.90194656937E+03 0.  0.
        -24    2    4    4    0    0  0.14046686178E+03  0.33786142740E+03 -0.21160808989E+03  0.43045955161E+03  0.81462620113E+02 0.  0.
         24    2    4    4    0    0 -0.50123216273E+03 -0.30890588638E+03 -0.44916111818E+03  0.74474833896E+03  0.79043347064E+02 0.  0.
         11    1    3    3    0    0  0.21761479269E+03  0.62845286881E+01 -0.39319466340E+03  0.44944158311E+03  0.00000000000E+00 0.  1.
        -11    1    3    3    0    0  0.14315050825E+03 -0.35240069717E+02 -0.42137271100E+03  0.44641784474E+03  0.00000000000E+00 0. -1.
          2    1    6    6  502    0 -0.34151028515E+03 -0.21901485977E+03 -0.35297546111E+03  0.53776245668E+03  0.00000000000E+00 0. -1.
          3    1    5    5  503    0  0.73700937601E+01  0.31389039412E+02  0.44725097850E+01  0.32551396606E+02  0.00000000000E+00 0. -1.
         -4    1    5    5    0  503  0.13309676802E+03  0.30647238799E+03 -0.21608059968E+03  0.39790815500E+03  0.00000000000E+00 0.  1.
         -1    1    6    6    0  502 -0.15972187757E+03 -0.89891026601E+02 -0.96185657068E+02  0.20698588228E+03  0.00000000000E+00 0.  1.
<mgrwt>
<rscale>  0 0.14535136E+04</rscale>
<asrwt>0</asrwt>
<pdfrwt beam="1">  1        1 0.45825441E-01 0.14535136E+04</pdfrwt>
<pdfrwt beam="2">  1       -1 0.27280030E+00 0.14535136E+04</pdfrwt>
<totfact> 0.42649874E+00</totfact>
</mgrwt>
</event>
<event>
12    1  0.1541840E-007  0.1681778E+04  0.7818608E-02  0.8771826E-01
         -1   -1    0    0    0  501 -0.00000000000E+00  0.00000000000E+00  0.22463614345E+03  0.22463614345E+03  0.00000000000E+00 0.  1.
          1   -1    0    0  501    0  0.00000000000E+00 -0.00000000000E+00 -0.31477312769E+04  0.31477312769E+04  0.00000000000E+00 0. -1.
         23    2    1    2    0    0 -0.27100334144E+03  0.47970917091E+03 -0.15039789407E+04  0.16043810973E+04  0.92316582217E+02 0.  0.
        254    2    1    2    0    0  0.27100334144E+03 -0.47970917091E+03 -0.14191161927E+04  0.17679863231E+04  0.89906683313E+03 0.  0.
        -24    2    4    4    0    0 -0.26905881228E+03  0.47695397298E+02 -0.28068133682E+03  0.39965223512E+03  0.79198489921E+02 0.  0.
         24    2    4    4    0    0  0.54006215373E+03 -0.52740456821E+03 -0.11384348559E+04  0.13683340879E+04  0.80508053559E+02 0.  0.
         13    1    3    3    0    0 -0.10726429068E+03  0.12211859166E+03 -0.51615387311E+03  0.54114083121E+03  0.00000000000E+00 0.  1.
        -13    1    3    3    0    0 -0.16373905076E+03  0.35759057925E+03 -0.98782506764E+03  0.10632402661E+04  0.00000000000E+00 0. -1.
          2    1    6    6  502    0  0.78145368562E+02 -0.73905231190E+02 -0.21769195178E+03  0.24281364809E+03  0.00000000000E+00 0. -1.
          1    1    5    5  503    0 -0.95893498740E+02 -0.12259461564E+02 -0.64321929086E+02  0.11611704466E+03  0.00000000000E+00 0. -1.
         -2    1    5    5    0  503 -0.17316531355E+03  0.59954858862E+02 -0.21635940773E+03  0.28353519046E+03  0.00000000000E+00 0.  1.
         -1    1    6    6    0  502  0.46191678517E+03 -0.45349933702E+03 -0.92074290410E+03  0.11255204399E+04  0.00000000000E+00 0.  1.
<mgrwt>
<rscale>  0 0.16817779E+04</rscale>
<asrwt>0</asrwt>
<pdfrwt beam="1">  1        1 0.48426631E+00 0.16817779E+04</pdfrwt>
<pdfrwt beam="2">  1       -1 0.34559409E-01 0.16817779E+04</pdfrwt>
<totfact> 0.35372407E+00</totfact>
</mgrwt>
</event>
<event>
12    1  0.1541840E-007  0.1232871E+04  0.7818608E-02  0.9084562E-01
         -2   -1    0    0    0  501 -0.00000000000E+00  0.00000000000E+00  0.25531611106E+03  0.25531611106E+03  0.00000000000E+00 0.  1.
          2   -1    0    0  501    0  0.00000000000E+00 -0.00000000000E+00 -0.14883215086E+04  0.14883215086E+04  0.00000000000E+00 0. -1.
         23    2    1    2    0    0  0.11794321059E+03 -0.23842032815E+03 -0.42101746395E+03  0.50571294112E+03  0.87948962823E+02 0.  0.
        254    2    1    2    0    0 -0.11794321059E+03  0.23842032815E+03 -0.81198793360E+03  0.12379246786E+04  0.89575568750E+03 0.  0.
        -24    2    4    4    0    0  0.23229135576E+03  0.79729283570E+02 -0.80473185469E+03  0.84520944694E+03  0.80433939444E+02 0.  0.
         24    2    4    4    0    0 -0.35023456635E+03  0.15869104458E+03 -0.72560789092E+01  0.39271523163E+03  0.79533033250E+02 0.  0.
         13    1    3    3    0    0  0.11711543255E+03 -0.16057944233E+03 -0.33646988843E+03  0.39078608939E+03  0.00000000000E+00 0. -1.
        -13    1    3    3    0    0  0.82777804347E+00 -0.77840885818E+02 -0.84547575522E+02  0.11492685173E+03  0.00000000000E+00 0.  1.
          4    1    6    6  502    0 -0.13027617333E+03  0.89636183307E+02 -0.30340878510E+02  0.16101892934E+03  0.00000000000E+00 0. -1.
          1    1    5    5  503    0  0.98231778197E+02 -0.47779464833E+01 -0.26354341077E+03  0.28129600136E+03  0.00000000000E+00 0. -1.
         -2    1    5    5    0  503  0.13405957756E+03  0.84507230053E+02 -0.54118844392E+03  0.56391344558E+03  0.00000000000E+00 0.  1.
         -3    1    6    6    0  502 -0.21995839302E+03  0.69054861271E+02  0.23084799600E+02  0.23169630229E+03  0.00000000000E+00 0.  1.
<mgrwt>
<rscale>  0 0.12328706E+04</rscale>
<asrwt>0</asrwt>
<pdfrwt beam="1">  1        2 0.22897254E+00 0.12328706E+04</pdfrwt>
<pdfrwt beam="2">  1       -2 0.39279402E-01 0.12328706E+04</pdfrwt>
<totfact> 0.77732208E+01</totfact>
</mgrwt>
</event>
<event>
12    1  0.1541840E-007  0.1771981E+04  0.7818608E-02  0.8721343E-01
         -2   -1    0    0    0  501 -0.00000000000E+00  0.00000000000E+00  0.46451098083E+03  0.46451098083E+03  0.00000000000E+00 0.  1.
          2   -1    0    0  501    0  0.00000000000E+00 -0.00000000000E+00 -0.16899053142E+04  0.16899053142E+04  0.00000000000E+00 0. -1.
         23    2    1    2    0    0 -0.46120250167E+03 -0.46241062895E+03 -0.62772705331E+03  0.91044377479E+03  0.91297734313E+02 0.  0.
        254    2    1    2    0    0  0.46120250167E+03  0.46241062895E+03 -0.59766728006E+03  0.12439725202E+04  0.87391653842E+03 0.  0.
        -24    2    4    4    0    0 -0.84131190231E+02  0.26012251732E+03  0.12633186439E+03  0.31159849203E+03  0.79950604066E+02 0.  0.
         24    2    4    4    0    0  0.54533369191E+03  0.20228811163E+03 -0.72399914445E+03  0.93237402820E+03  0.82687675406E+02 0.  0.
         11    1    3    3    0    0 -0.59195474453E+02 -0.44190813916E+02 -0.37418018241E+02  0.82807247988E+02  0.00000000000E+00 0. -1.
        -11    1    3    3    0    0 -0.40200702722E+03 -0.41821981503E+03 -0.59030903507E+03  0.82763652681E+03  0.00000000000E+00 0.  1.
          2    1    6    6  502    0  0.41270470594E+03  0.18761909867E+03 -0.57802457735E+03  0.73460092057E+03  0.00000000000E+00 0. -1.
          3    1    5    5  503    0 -0.53996756556E+02  0.24529835495E+03  0.11386895310E+03  0.27577721287E+03  0.00000000000E+00 0. -1.
         -4    1    5    5    0  503 -0.30134433675E+02  0.14824162371E+02  0.12462911289E+02  0.35821279161E+02  0.00000000000E+00 0.  1.
         -1    1    6    6    0  502  0.13262898596E+03  0.14669012960E+02 -0.14597456710E+03  0.19777310762E+03  0.00000000000E+00 0.  1.
<mgrwt>
<rscale>  0 0.17719815E+04</rscale>
<asrwt>0</asrwt>
<pdfrwt beam="1">  1        2 0.25998543E+00 0.17719815E+04</pdfrwt>
<pdfrwt beam="2">  1       -2 0.71463229E-01 0.17719815E+04</pdfrwt>
<totfact> 0.16697512E+01</totfact>
</mgrwt>
</event>
<event>
12    1  0.1541840E-007  0.1714641E+04  0.7818608E-02  0.8753058E-01
         -2   -1    0    0    0  501 -0.00000000000E+00  0.00000000000E+00  0.77740680915E+03  0.77740680915E+03  0.00000000000E+00 0.  1.
          2   -1    0    0  501    0  0.00000000000E+00 -0.00000000000E+00 -0.94544861095E+03  0.94544861095E+03  0.00000000000E+00 0. -1.
         23    2    1    2    0    0 -0.32012036505E+03  0.50493148417E+03  0.94360355415E+02  0.61204415193E+03  0.90891778572E+02 0.  0.
        254    2    1    2    0    0  0.32012036505E+03 -0.50493148417E+03 -0.26240215721E+03  0.11108112682E+04  0.89867342764E+03 0.  0.
        -24    2    4    4    0    0 -0.15249389660E+03 -0.45300612081E+03 -0.38033804618E+03  0.61597740217E+03  0.79386375529E+02 0.  0.
         24    2    4    4    0    0  0.47261426164E+03 -0.51925363362E+02  0.11793588897E+03  0.49483386600E+03  0.69937095759E+02 0.  0.
         13    1    3    3    0    0 -0.27440925797E+02  0.58451107580E+02 -0.16828246491E+02  0.66728751418E+02  0.00000000000E+00 0. -1.
        -13    1    3    3    0    0 -0.29267943925E+03  0.44648037659E+03  0.11118860191E+03  0.54531540051E+03  0.00000000000E+00 0.  1.
          4    1    6    6  502    0  0.23890175628E+03 -0.59277599335E+02  0.72834501042E+02  0.25669582677E+03  0.00000000000E+00 0. -1.
          3    1    5    5  503    0 -0.41835785824E+02 -0.51035842824E+02 -0.70227901768E+02  0.96368295694E+02  0.00000000000E+00 0. -1.
         -4    1    5    5    0  503 -0.11065811077E+03 -0.40197027799E+03 -0.31011014441E+03  0.51960910647E+03  0.00000000000E+00 0.  1.
         -3    1    6    6    0  502  0.23371250536E+03  0.73522359730E+01  0.45101387927E+02  0.23813803923E+03  0.00000000000E+00 0.  1.
<mgrwt>
<rscale>  0 0.17146407E+04</rscale>
<asrwt>0</asrwt>
<pdfrwt beam="1">  1        2 0.14545363E+00 0.17146407E+04</pdfrwt>
<pdfrwt beam="2">  1       -2 0.11960105E+00 0.17146407E+04</pdfrwt>
<totfact> 0.13912816E+01</totfact>
</mgrwt>
</event>
<event>
12    1  0.1541840E-007  0.3066773E+04  0.7818608E-02  0.8224916E-01
         -3   -1    0    0    0  501 -0.00000000000E+00  0.00000000000E+00  0.11898176532E+04  0.11898176532E+04  0.00000000000E+00 0.  1.
          3   -1    0    0  501    0  0.00000000000E+00 -0.00000000000E+00 -0.19761631082E+04  0.19761631082E+04  0.00000000000E+00 0. -1.
         23    2    1    2    0    0  0.27314940682E+02  0.39572147224E+03  0.10196312998E+04  0.10980688790E+04  0.93625241727E+02 0.  0.
        254    2    1    2    0    0 -0.27314940682E+02 -0.39572147224E+03 -0.18059767548E+04  0.20679118825E+04  0.92594056239E+03 0.  0.
        -24    2    4    4    0    0 -0.18368885359E+03 -0.96364007713E+02  0.66705839724E+01  0.22218055209E+03  0.79322658332E+02 0.  0.
         24    2    4    4    0    0  0.15637391290E+03 -0.29935746453E+03 -0.18126473388E+04  0.18457313304E+04  0.83463026740E+02 0.  0.
         11    1    3    3    0    0  0.58364131318E+02  0.31838061841E+03  0.83279947359E+03  0.89349177568E+03  0.00000000000E+00 0.  1.
        -11    1    3    3    0    0 -0.31049190636E+02  0.77340853830E+02  0.18683182623E+03  0.20457710332E+03  0.00000000000E+00 0. -1.
          4    1    6    6  502    0  0.14720950131E+02 -0.30761337174E+01 -0.16439619188E+03  0.16508263651E+03  0.00000000000E+00 0. -1.
          3    1    5    5  503    0 -0.86704591888E+02 -0.11815674311E+02 -0.22284497663E+02  0.90298921643E+02  0.00000000000E+00 0. -1.
         -4    1    5    5    0  503 -0.96984261697E+02 -0.84548333402E+02  0.28955081636E+02  0.13188163045E+03  0.00000000000E+00 0.  1.
         -3    1    6    6    0  502  0.14165296277E+03 -0.29628133081E+03 -0.16482511469E+04  0.16806486939E+04  0.00000000000E+00 0.  1.
<mgrwt>
<rscale>  0 0.30667727E+04</rscale>
<asrwt>0</asrwt>
<pdfrwt beam="1">  1        3 0.30402509E+00 0.30667727E+04</pdfrwt>
<pdfrwt beam="2">  1       -3 0.18304887E+00 0.30667727E+04</pdfrwt>
<totfact> 0.15301549E-02</totfact>
</mgrwt>
</event>
<event>
12    1  0.1541840E-007  0.2600623E+04  0.7818608E-02  0.8367990E-01
          4   -1    0    0  501    0  0.00000000000E+00  0.00000000000E+00  0.61848889850E+03  0.61848889850E+03  0.00000000000E+00 0. -1.
         -4   -1    0    0    0  501 -0.00000000000E+00 -0.00000000000E+00 -0.27337762042E+04  0.27337762042E+04  0.00000000000E+00 0.  1.
         23    2    1    2    0    0 -0.63197056148E+03 -0.79498914897E+03 -0.16087095099E+04  0.19052714361E+04  0.10352980398E+03 0.  0.
        254    2    1    2    0    0  0.63197056148E+03  0.79498914897E+03 -0.50657779573E+03  0.14469936666E+04  0.89764974817E+03 0.  0.
        -24    2    4    4    0    0  0.55424685064E+03  0.76486626825E+02 -0.44133885943E+03  0.71685701035E+03  0.77873030688E+02 0.  0.
         24    2    4    4    0    0  0.77723710836E+02  0.71850252215E+03 -0.65238936293E+02  0.73013665622E+03  0.80972639730E+02 0.  0.
         13    1    3    3    0    0 -0.17456814239E+03 -0.17242575845E+03 -0.32827924331E+03  0.40984379963E+03  0.00000000000E+00 0. -1.
        -13    1    3    3    0    0 -0.45740241909E+03 -0.62256339053E+03 -0.12804302666E+04  0.14954276365E+04  0.00000000000E+00 0.  1.
          2    1    6    6  502    0  0.72029526234E+02  0.69970242668E+03 -0.49815934967E+02  0.70516194305E+03  0.00000000000E+00 0. -1.
          1    1    5    5  503    0  0.40493759893E+03  0.22783973096E+02 -0.33236988268E+03  0.52436943787E+03  0.00000000000E+00 0. -1.
         -4    1    5    5    0  503  0.14930925171E+03  0.53702653730E+02 -0.10896897676E+03  0.19248757248E+03  0.00000000000E+00 0.  1.
         -1    1    6    6    0  502  0.56941846017E+01  0.18800095473E+02 -0.15423001326E+02  0.24974713171E+02  0.00000000000E+00 0.  1.
<mgrwt>
<rscale>  0 0.26006232E+04</rscale>
<asrwt>0</asrwt>
<pdfrwt beam="1">  1        4 0.95152137E-01 0.26006232E+04</pdfrwt>
<pdfrwt beam="2">  1       -4 0.42058096E+00 0.26006232E+04</pdfrwt>
<totfact> 0.79806415E-03</totfact>
</mgrwt>
</event>
<event>
12    1  0.1541840E-007  0.1998871E+04  0.7818608E-02  0.8607149E-01
          2   -1    0    0  501    0  0.00000000000E+00  0.00000000000E+00  0.10053978774E+04  0.10053978774E+04  0.00000000000E+00 0. -1.
         -2   -1    0    0    0  501 -0.00000000000E+00 -0.00000000000E+00 -0.99350819278E+03  0.99350819278E+03  0.00000000000E+00 0.  1.
         23    2    1    2    0    0 -0.14061141843E+03  0.67966183229E+03 -0.36273612956E+03  0.78834538018E+03  0.90549221423E+02 0.  0.
        254    2    1    2    0    0  0.14061141843E+03 -0.67966183229E+03  0.37462581422E+03  0.12105606900E+04  0.91836861136E+03 0.  0.
        -24    2    4    4    0    0  0.89732235134E+02 -0.27082311603E+03  0.64582984223E+03  0.71044617595E+03  0.78997149385E+02 0.  0.
         24    2    4    4    0    0  0.50879183292E+02 -0.40883871627E+03 -0.27120402801E+03  0.50011451409E+03  0.82614255334E+02 0.  0.
         11    1    3    3    0    0 -0.10775019347E+03  0.46384659951E+03 -0.29325789010E+03  0.55925303948E+03  0.00000000000E+00 0. -1.
        -11    1    3    3    0    0 -0.32861224956E+02  0.21581523278E+03 -0.69478239457E+02  0.22909234070E+03  0.00000000000E+00 0.  1.
          2    1    6    6  502    0  0.43641913724E+02 -0.35116622839E+03 -0.26410379576E+03  0.44155764236E+03  0.00000000000E+00 0. -1.
          1    1    5    5  503    0  0.13559521143E+02 -0.16112366318E+03  0.32769908942E+03  0.36541946945E+03  0.00000000000E+00 0. -1.
         -2    1    5    5    0  503  0.76172713991E+02 -0.10969945285E+03  0.31813075282E+03  0.34502670650E+03  0.00000000000E+00 0.  1.
         -1    1    6    6    0  502  0.72372695677E+01 -0.57672487873E+02 -0.71002322534E+01  0.58556871726E+02  0.00000000000E+00 0.  1.
<mgrwt>
<rscale>  0 0.19988707E+04</rscale>
<asrwt>0</asrwt>
<pdfrwt beam="1">  1        2 0.15467660E+00 0.19988707E+04</pdfrwt>
<pdfrwt beam="2">  1       -2 0.15284741E+00 0.19988707E+04</pdfrwt>
<totfact> 0.66160181E+00</totfact>
</mgrwt>
</event>
<event>
12    1  0.1541840E-007  0.1620427E+04  0.7818608E-02  0.8808096E-01
          2   -1    0    0  501    0  0.00000000000E+00  0.00000000000E+00  0.86816172346E+03  0.86816172346E+03  0.00000000000E+00 0.  1.
         -2   -1    0    0    0  501 -0.00000000000E+00 -0.00000000000E+00 -0.75613297158E+03  0.75613297158E+03  0.00000000000E+00 0. -1.
         23    2    1    2    0    0 -0.11372185836E+03  0.26290002000E+03  0.52146790713E+03  0.60326191474E+03  0.99735039124E+02 0.  0.
        254    2    1    2    0    0  0.11372185836E+03 -0.26290002000E+03 -0.40943915526E+03  0.10210327803E+04  0.89040352369E+03 0.  0.
        -24    2    4    4    0    0  0.43862128606E+03 -0.25400393058E+03 -0.45044388997E+03  0.68309936690E+03  0.82573710796E+02 0.  0.
         24    2    4    4    0    0 -0.32489942770E+03 -0.88960894183E+01  0.41004734709E+02  0.33793341340E+03  0.82938682765E+02 0.  0.
         13    1    3    3    0    0 -0.16429991161E+02 -0.47681063718E+01  0.45283820300E+02  0.48407683573E+02  0.00000000000E+00 0. -1.
        -13    1    3    3    0    0 -0.97291867196E+02  0.26766812637E+03  0.47618408683E+03  0.55485423117E+03  0.00000000000E+00 0.  1.
          2    1    6    6  502    0 -0.47365599293E+02 -0.28157764983E+02  0.21155760101E+02  0.59024790645E+02  0.00000000000E+00 0. -1.
          1    1    5    5  503    0  0.15816899731E+03 -0.10886123836E+03 -0.22099533008E+03  0.29275781261E+03  0.00000000000E+00 0. -1.
         -2    1    5    5    0  503  0.28045228875E+03 -0.14514269222E+03 -0.22944855988E+03  0.39034155428E+03  0.00000000000E+00 0.  1.
         -1    1    6    6    0  502 -0.27753382841E+03  0.19261675565E+02  0.19848974608E+02  0.27890862276E+03  0.00000000000E+00 0.  1.
<mgrwt>
<rscale>  0 0.16204267E+04</rscale>
<asrwt>0</asrwt>
<pdfrwt beam="1">  1        2 0.13356334E+00 0.16204267E+04</pdfrwt>
<pdfrwt beam="2">  1       -2 0.11632815E+00 0.16204267E+04</pdfrwt>
<totfact> 0.16923196E+01</totfact>
</mgrwt>
</event>
<event>
12    1  0.1541840E-007  0.1161633E+04  0.7818608E-02  0.9147118E-01
          2   -1    0    0  501    0  0.00000000000E+00  0.00000000000E+00  0.25812319595E+04  0.25812319595E+04  0.00000000000E+00 0.  1.
         -2   -1    0    0    0  501 -0.00000000000E+00 -0.00000000000E+00 -0.13069253236E+03  0.13069253236E+03  0.00000000000E+00 0. -1.
         23    2    1    2    0    0 -0.10198346807E+03 -0.11391855890E+03  0.85279211911E+03  0.87128127654E+03  0.92187844239E+02 0.  0.
        254    2    1    2    0    0  0.10198346807E+03  0.11391855890E+03  0.15977473081E+04  0.18406432153E+04  0.90099551606E+03 0.  0.
        -24    2    4    4    0    0 -0.33018253076E+02  0.28305377177E+03  0.82257537101E+02  0.30769033040E+03  0.81837609115E+02 0.  0.
         24    2    4    4    0    0  0.13500172114E+03 -0.16913521287E+03  0.15154897710E+04  0.15329528849E+04  0.80019476553E+02 0.  0.
         13    1    3    3    0    0 -0.12335318415E+02 -0.78068497292E+02  0.30674019457E+03  0.31675921031E+03  0.00000000000E+00 0.  1.
        -13    1    3    3    0    0 -0.89648149651E+02 -0.35850061608E+02  0.54605192454E+03  0.55452206624E+03  0.00000000000E+00 0. -1.
          2    1    6    6  502    0  0.45010292532E+02 -0.11836281291E+03  0.77180118619E+03  0.78212067670E+03  0.00000000000E+00 0. -1.
          1    1    5    5  503    0 -0.13169261623E+02  0.25998998646E+03  0.91424426668E+02  0.27591058026E+03  0.00000000000E+00 0. -1.
         -2    1    5    5    0  503 -0.19848991453E+02  0.23063785308E+02 -0.91668895677E+01  0.31779750137E+02  0.00000000000E+00 0.  1.
         -1    1    6    6    0  502  0.89991428610E+02 -0.50772399951E+02  0.74368858476E+03  0.75083220824E+03  0.00000000000E+00 0.  1.
<mgrwt>
<rscale>  0 0.11616329E+04</rscale>
<asrwt>0</asrwt>
<pdfrwt beam="1">  1        2 0.39711257E+00 0.11616329E+04</pdfrwt>
<pdfrwt beam="2">  1       -2 0.20106545E-01 0.11616329E+04</pdfrwt>
<totfact> 0.65936699E+01</totfact>
</mgrwt>
</event>
<event>
12    1  0.1541840E-007  0.1293126E+04  0.7818608E-02  0.9035034E-01
         -1   -1    0    0    0  501 -0.00000000000E+00  0.00000000000E+00  0.40491006245E+03  0.40491006245E+03  0.00000000000E+00 0.  1.
          1   -1    0    0  501    0  0.00000000000E+00 -0.00000000000E+00 -0.10324352635E+04  0.10324352635E+04  0.00000000000E+00 0. -1.
         23    2    1    2    0    0 -0.15425141898E+03  0.21664349033E+03  0.51274361488E+02  0.28524892308E+03  0.89498524073E+02 0.  0.
        254    2    1    2    0    0  0.15425141898E+03 -0.21664349033E+03 -0.67879956255E+03  0.11520964029E+04  0.89209269321E+03 0.  0.
        -24    2    4    4    0    0  0.13792219513E+03  0.21546064541E+03 -0.65802025011E+03  0.71048818853E+03  0.79730764825E+02 0.  0.
         24    2    4    4    0    0  0.16329223853E+02 -0.43210413574E+03 -0.20779312443E+02  0.44160821436E+03  0.87208987436E+02 0.  0.
         13    1    3    3    0    0 -0.49354195712E+02  0.11308736864E+03 -0.13730929439E+02  0.12414961942E+03  0.00000000000E+00 0. -1.
        -13    1    3    3    0    0 -0.10489722327E+03  0.10355612169E+03  0.65005290927E+02  0.16109930365E+03  0.00000000000E+00 0.  1.
          2    1    6    6  502    0  0.18699623590E+02 -0.43588994707E+03 -0.18726954815E+02  0.43669259292E+03  0.00000000000E+00 0. -1.
          3    1    5    5  503    0  0.12719904338E+03  0.21900714852E+03 -0.64657553124E+03  0.69440884596E+03  0.00000000000E+00 0. -1.
         -4    1    5    5    0  503  0.10723151743E+02 -0.35465031138E+01 -0.11444718863E+02  0.16079342570E+02  0.00000000000E+00 0.  1.
         -1    1    6    6    0  502 -0.23703997370E+01  0.37858113256E+01 -0.20523576271E+01  0.49156214394E+01  0.00000000000E+00 0.  1.
<mgrwt>
<rscale>  0 0.12931256E+04</rscale>
<asrwt>0</asrwt>
<pdfrwt beam="1">  1        1 0.15883619E+00 0.12931256E+04</pdfrwt>
<pdfrwt beam="2">  1       -1 0.62293856E-01 0.12931256E+04</pdfrwt>
<totfact> 0.36685549E+01</totfact>
</mgrwt>
</event>
<event>
12    1  0.1541840E-007  0.2344744E+04  0.7818608E-02  0.8460485E-01
         -2   -1    0    0    0  501 -0.00000000000E+00  0.00000000000E+00  0.21513404483E+04  0.21513404483E+04  0.00000000000E+00 0.  1.
          2   -1    0    0  501    0  0.00000000000E+00 -0.00000000000E+00 -0.63888383364E+03  0.63888383364E+03  0.00000000000E+00 0. -1.
         23    2    1    2    0    0  0.64540186580E+03 -0.19872581337E+03 -0.18207639634E+03  0.70390599982E+03  0.79349386897E+02 0.  0.
        254    2    1    2    0    0 -0.64540186580E+03  0.19872581337E+03  0.16945330110E+04  0.20863182821E+04  0.10125444838E+04 0.  0.
        -24    2    4    4    0    0 -0.76743713721E+03 -0.16578145640E+03  0.87851385538E+03  0.11808846427E+04  0.79111911130E+02 0.  0.
         24    2    4    4    0    0  0.12203527141E+03  0.36450726977E+03  0.81601915562E+03  0.90543363940E+03  0.78515322318E+02 0.  0.
         13    1    3    3    0    0  0.46499917643E+03 -0.10928821397E+03 -0.11122003321E+03  0.49044677956E+03  0.00000000000E+00 0. -1.
        -13    1    3    3    0    0  0.18040268937E+03 -0.89437599393E+02 -0.70856363133E+02  0.21345922026E+03  0.00000000000E+00 0.  1.
          2    1    6    6  502    0  0.78570272016E+02  0.14874053225E+03  0.41861182796E+03  0.45114620256E+03  0.00000000000E+00 0. -1.
          1    1    5    5  503    0 -0.53915566962E+03 -0.82747743192E+02  0.58402697071E+03  0.79913924169E+03  0.00000000000E+00 0. -1.
         -4    1    5    5    0  503 -0.22828146759E+03 -0.83033713208E+02  0.29448688467E+03  0.38174540104E+03  0.00000000000E+00 0.  1.
         -1    1    6    6    0  502  0.43464999398E+02  0.21576673752E+03  0.39740732766E+03  0.45428743684E+03  0.00000000000E+00 0.  1.
<mgrwt>
<rscale>  0 0.23447444E+04</rscale>
<asrwt>0</asrwt>
<pdfrwt beam="1">  1        2 0.98289822E-01 0.23447444E+04</pdfrwt>
<pdfrwt beam="2">  1       -2 0.33097545E+00 0.23447444E+04</pdfrwt>
<totfact> 0.84995247E-01</totfact>
</mgrwt>
</event>
<event>
12    1  0.1541840E-007  0.2503874E+04  0.7818608E-02  0.8401607E-01
         -2   -1    0    0    0  501 -0.00000000000E+00  0.00000000000E+00  0.67428237389E+03  0.67428237389E+03  0.00000000000E+00 0.  1.
          2   -1    0    0  501    0  0.00000000000E+00 -0.00000000000E+00 -0.23244657050E+04  0.23244657050E+04  0.00000000000E+00 0. -1.
         23    2    1    2    0    0 -0.82273838526E+03 -0.52878751075E+02 -0.15738664982E+04  0.17791623589E+04  0.93103877692E+02 0.  0.
        254    2    1    2    0    0  0.82273838526E+03  0.52878751075E+02 -0.76316832912E+02  0.12195857201E+04  0.89547219761E+03 0.  0.
        -24    2    4    4    0    0  0.28347110143E+03  0.41705553873E+03 -0.20821815107E+03  0.55124924758E+03  0.78928745056E+02 0.  0.
         24    2    4    4    0    0  0.53926728382E+03 -0.36417678765E+03  0.13190131816E+03  0.66833647247E+03  0.76431319768E+02 0.  0.
         11    1    3    3    0    0 -0.41613201587E+03 -0.58835496969E+02 -0.87224337202E+03  0.96821277123E+03  0.00000000000E+00 0. -1.
        -11    1    3    3    0    0 -0.40660636939E+03  0.59567458931E+01 -0.70162312622E+03  0.81094958764E+03  0.00000000000E+00 0.  1.
          4    1    6    6  502    0  0.25873923459E+03 -0.20530321394E+03  0.95923381661E+02  0.34394286782E+03  0.00000000000E+00 0. -1.
          1    1    5    5  503    0  0.22989056596E+03  0.32939380884E+03 -0.19849175206E+03  0.44805014145E+03  0.00000000000E+00 0. -1.
         -2    1    5    5    0  503  0.53580535479E+02  0.87661729884E+02 -0.97263990050E+01  0.10319910613E+03  0.00000000000E+00 0.  1.
         -3    1    6    6    0  502  0.28052804923E+03 -0.15887357371E+03  0.35977936496E+02  0.32439360465E+03  0.00000000000E+00 0.  1.
<mgrwt>
<rscale>  0 0.25038740E+04</rscale>
<asrwt>0</asrwt>
<pdfrwt beam="1">  1        2 0.35761011E+00 0.25038740E+04</pdfrwt>
<pdfrwt beam="2">  1       -2 0.10373575E+00 0.25038740E+04</pdfrwt>
<totfact> 0.29620724E+00</totfact>
</mgrwt>
</event>
<event>
12    1  0.1541840E-007  0.1563767E+04  0.7818608E-02  0.8843122E-01
          1   -1    0    0  501    0  0.00000000000E+00  0.00000000000E+00  0.12205682261E+04  0.12205682261E+04  0.00000000000E+00 0. -1.
         -1   -1    0    0    0  501 -0.00000000000E+00 -0.00000000000E+00 -0.50086678063E+03  0.50086678063E+03  0.00000000000E+00 0.  1.
         23    2    1    2    0    0  0.51024515419E+03 -0.72067680972E+02  0.15284823462E+03  0.54631701534E+03  0.97753927829E+02 0.  0.
        254    2    1    2    0    0 -0.51024515419E+03  0.72067680972E+02  0.56685321083E+03  0.11751179914E+04  0.89108689979E+03 0.  0.
        -24    2    4    4    0    0 -0.25133792737E+03  0.39495817389E+03  0.78102928449E+01  0.47496041734E+03  0.79772705299E+02 0.  0.
         24    2    4    4    0    0 -0.25890722683E+03 -0.32289049292E+03  0.55904291799E+03  0.70015757402E+03  0.80002636149E+02 0.  0.
         13    1    3    3    0    0  0.13599899419E+03 -0.28282283292E+02  0.86730135804E+02  0.16376119939E+03  0.00000000000E+00 0. -1.
        -13    1    3    3    0    0  0.37424616000E+03 -0.43785397680E+02  0.66118098813E+02  0.38255581595E+03  0.00000000000E+00 0.  1.
          4    1    6    6  502    0 -0.26016243535E+03 -0.32599118452E+03  0.55801074539E+03  0.69665682880E+03  0.00000000000E+00 0. -1.
          3    1    5    5  503    0 -0.20620743238E+03  0.35245588843E+03 -0.15726911863E+02  0.40864898655E+03  0.00000000000E+00 0. -1.
         -2    1    5    5    0  503 -0.45130494991E+02  0.42502285463E+02  0.23537204708E+02  0.66311430788E+02  0.00000000000E+00 0.  1.
         -3    1    6    6    0  502  0.12552085240E+01  0.31006915979E+01  0.10321725998E+01  0.35007452207E+01  0.00000000000E+00 0.  1.
<mgrwt>
<rscale>  0 0.15637673E+04</rscale>
<asrwt>0</asrwt>
<pdfrwt beam="1">  1        1 0.18777973E+00 0.15637673E+04</pdfrwt>
<pdfrwt beam="2">  1       -1 0.77056428E-01 0.15637673E+04</pdfrwt>
<totfact> 0.16780055E+01</totfact>
</mgrwt>
</event>
<event>
12    1  0.1541840E-007  0.1432942E+04  0.7818608E-02  0.8930312E-01
         -1   -1    0    0    0  501 -0.00000000000E+00  0.00000000000E+00  0.71971647139E+03  0.71971647139E+03  0.00000000000E+00 0.  1.
          1   -1    0    0  501    0  0.00000000000E+00 -0.00000000000E+00 -0.71324052809E+03  0.71324052809E+03  0.00000000000E+00 0. -1.
         23    2    1    2    0    0 -0.39669857732E+03  0.13807852939E+03  0.63942192550E+02  0.43463147367E+03  0.91544920042E+02 0.  0.
        254    2    1    2    0    0  0.39669857732E+03 -0.13807852939E+03 -0.57466249252E+02  0.99832552581E+03  0.90383407999E+03 0.  0.
        -24    2    4    4    0    0  0.49075013121E+03  0.24368151365E+03  0.10902128395E+03  0.56421867996E+03  0.78998146051E+02 0.  0.
         24    2    4    4    0    0 -0.94051553891E+02 -0.38176004304E+03 -0.16648753320E+03  0.43410684585E+03  0.78385136686E+02 0.  0.
         11    1    3    3    0    0 -0.35091622982E+03  0.11965853941E+03  0.85963982358E+02  0.38059187152E+03  0.00000000000E+00 0. -1.
        -11    1    3    3    0    0 -0.45782347498E+02  0.18419989983E+02 -0.22021789808E+02  0.54039602143E+02  0.00000000000E+00 0.  1.
          4    1    6    6  502    0 -0.79882504665E+02 -0.33269578118E+03 -0.11342747740E+03  0.36046288297E+03  0.00000000000E+00 0. -1.
          1    1    5    5  503    0  0.45542020884E+03  0.24608313513E+03  0.10796231780E+03  0.52879139373E+03  0.00000000000E+00 0. -1.
         -2    1    5    5    0  503  0.35329922372E+02 -0.24016214760E+01  0.10589661556E+01  0.35427286234E+02  0.00000000000E+00 0.  1.
         -3    1    6    6    0  502 -0.14169049226E+02 -0.49064261860E+02 -0.53060055806E+02  0.73643962889E+02  0.00000000000E+00 0.  1.
<mgrwt>
<rscale>  0 0.14329424E+04</rscale>
<asrwt>0</asrwt>
<pdfrwt beam="1">  1        1 0.10972931E+00 0.14329424E+04</pdfrwt>
<pdfrwt beam="2">  1       -1 0.11072561E+00 0.14329424E+04</pdfrwt>
<totfact> 0.19354102E+01</totfact>
</mgrwt>
</event>
<event>
12    1  0.1541840E-007  0.1253531E+04  0.7818608E-02  0.9067250E-01
         -2   -1    0    0    0  501 -0.00000000000E+00  0.00000000000E+00  0.40430988115E+03  0.40430988115E+03  0.00000000000E+00 0.  1.
          2   -1    0    0  501    0  0.00000000000E+00 -0.00000000000E+00 -0.97161786426E+03  0.97161786426E+03  0.00000000000E+00 0. -1.
         23    2    1    2    0    0  0.24484284892E+03 -0.21577027563E+03 -0.13148706444E+03  0.36366701198E+03  0.91978339689E+02 0.  0.
        254    2    1    2    0    0 -0.24484284892E+03  0.21577027563E+03 -0.43582091867E+03  0.10122607334E+04  0.85336222484E+03 0.  0.
        -24    2    4    4    0    0  0.24268077976E+03  0.30993331921E+03 -0.12160902347E+03  0.41914507291E+03  0.77079273025E+02 0.  0.
         24    2    4    4    0    0 -0.48752362868E+03 -0.94163043577E+02 -0.31421189520E+03  0.59311566053E+03  0.80691414564E+02 0.  0.
         13    1    3    3    0    0  0.76580362212E+02 -0.40732295460E+02  0.16656737541E+01  0.86755093447E+02  0.00000000000E+00 0. -1.
        -13    1    3    3    0    0  0.16826248671E+03 -0.17503798017E+03 -0.13315273819E+03  0.27691191853E+03  0.00000000000E+00 0.  1.
          2    1    6    6  502    0 -0.13145606121E+03 -0.28727259976E+02 -0.12922752161E+03  0.18656286832E+03  0.00000000000E+00 0. -1.
          3    1    5    5  503    0  0.11458889512E+02  0.34814027989E+01  0.74871681224E+01  0.14123880515E+02  0.00000000000E+00 0. -1.
         -4    1    5    5    0  503  0.23122189025E+03  0.30645191641E+03 -0.12909619160E+03  0.40502119239E+03  0.00000000000E+00 0.  1.
         -1    1    6    6    0  502 -0.35606756747E+03 -0.65435783601E+02 -0.18498437358E+03  0.40655279221E+03  0.00000000000E+00 0.  1.
<mgrwt>
<rscale>  0 0.12535305E+04</rscale>
<asrwt>0</asrwt>
<pdfrwt beam="1">  1        2 0.14947967E+00 0.12535305E+04</pdfrwt>
<pdfrwt beam="2">  1       -2 0.62201521E-01 0.12535305E+04</pdfrwt>
<totfact> 0.61997934E+01</totfact>
</mgrwt>
</event>
<event>
12    1  0.1541840E-007  0.1482860E+04  0.7818608E-02  0.8895931E-01
         -1   -1    0    0    0  501 -0.00000000000E+00  0.00000000000E+00  0.39856529094E+03  0.39856529094E+03  0.00000000000E+00 0.  1.
          1   -1    0    0  501    0  0.00000000000E+00 -0.00000000000E+00 -0.13792438186E+04  0.13792438186E+04  0.00000000000E+00 0. -1.
         23    2    1    2    0    0 -0.18613394639E+03 -0.39910766589E+03 -0.15024854408E+03  0.47438174012E+03  0.92361438823E+02 0.  0.
        254    2    1    2    0    0  0.18613394639E+03  0.39910766589E+03 -0.83042998359E+03  0.13034273694E+04  0.90298182417E+03 0.  0.
        -24    2    4    4    0    0  0.27122289578E+03 -0.10153819971E+03 -0.71653307197E+03  0.77705122026E+03  0.80728498593E+02 0.  0.
         24    2    4    4    0    0 -0.85088949389E+02  0.50064586560E+03 -0.11389691162E+03  0.52637614918E+03  0.78822153597E+02 0.  0.
         11    1    3    3    0    0  0.56906765437E+00 -0.38249750451E+02  0.66796199605E+01  0.38832777010E+02  0.00000000000E+00 0. -1.
        -11    1    3    3    0    0 -0.18670301405E+03 -0.36085791544E+03 -0.15692816404E+03  0.43554896311E+03  0.00000000000E+00 0.  1.
          2    1    6    6  502    0 -0.50919466322E+01  0.91161060043E+02 -0.50568459635E+02  0.10437162401E+03  0.00000000000E+00 0. -1.
          3    1    5    5  503    0  0.38873892444E+02  0.26724899618E+00 -0.17186892255E+03  0.17621060546E+03  0.00000000000E+00 0. -1.
         -4    1    5    5    0  503  0.23234900334E+03 -0.10180544870E+03 -0.54466414942E+03  0.60084061480E+03  0.00000000000E+00 0.  1.
         -1    1    6    6    0  502 -0.79997002756E+02  0.40948480556E+03 -0.63328451983E+02  0.42200452517E+03  0.00000000000E+00 0.  1.
<mgrwt>
<rscale>  0 0.14828604E+04</rscale>
<asrwt>0</asrwt>
<pdfrwt beam="1">  1        1 0.21219136E+00 0.14828604E+04</pdfrwt>
<pdfrwt beam="2">  1       -1 0.61317736E-01 0.14828604E+04</pdfrwt>
<totfact> 0.20761766E+01</totfact>
</mgrwt>
</event>
<event>
12    1  0.1541840E-007  0.1639156E+04  0.7818608E-02  0.8796848E-01
         -1   -1    0    0    0  501 -0.00000000000E+00  0.00000000000E+00  0.20485879758E+03  0.20485879758E+03  0.00000000000E+00 0.  1.
          1   -1    0    0  501    0  0.00000000000E+00 -0.00000000000E+00 -0.32788837363E+04  0.32788837363E+04  0.00000000000E+00 0. -1.
         23    2    1    2    0    0  0.34326419488E+03  0.39779092208E+03 -0.15625896433E+04  0.16510081242E+04  0.89852700787E+02 0.  0.
        254    2    1    2    0    0 -0.34326419488E+03 -0.39779092208E+03 -0.15114352954E+04  0.18327344096E+04  0.89353838127E+03 0.  0.
        -24    2    4    4    0    0  0.78586176052E+02  0.12262579604E+03 -0.92122939776E+03  0.93604711030E+03  0.79421133717E+02 0.  0.
         24    2    4    4    0    0 -0.42185037093E+03 -0.52041671812E+03 -0.59020589764E+03  0.89668729931E+03  0.83149354671E+02 0.  0.
         13    1    3    3    0    0  0.33645001232E+02  0.85224923587E+02 -0.22581923740E+03  0.24369981881E+03  0.00000000000E+00 0.  1.
        -13    1    3    3    0    0  0.30961919365E+03  0.31256599849E+03 -0.13367704059E+04  0.14073083054E+04  0.00000000000E+00 0. -1.
          4    1    6    6  502    0 -0.40454603406E+03 -0.47793746285E+03 -0.52597560765E+03  0.81776038783E+03  0.00000000000E+00 0. -1.
          1    1    5    5  503    0  0.49916033854E+02  0.11486410463E+03 -0.84508034019E+03  0.85431033843E+03  0.00000000000E+00 0. -1.
         -2    1    5    5    0  503  0.28670142198E+02  0.77616914128E+01 -0.76149057569E+02  0.81736771871E+02  0.00000000000E+00 0.  1.
         -3    1    6    6    0  502 -0.17304336871E+02 -0.42479255270E+02 -0.64230289992E+02  0.78926911477E+02  0.00000000000E+00 0.  1.
<mgrwt>
<rscale>  0 0.16391561E+04</rscale>
<asrwt>0</asrwt>
<pdfrwt beam="1">  1        1 0.50444365E+00 0.16391561E+04</pdfrwt>
<pdfrwt beam="2">  1       -1 0.31516738E-01 0.16391561E+04</pdfrwt>
<totfact> 0.33381370E+00</totfact>
</mgrwt>
</event>
<event>
12    1  0.1541840E-007  0.1746948E+04  0.7818608E-02  0.8735032E-01
          3   -1    0    0  501    0  0.00000000000E+00  0.00000000000E+00  0.82586008838E+03  0.82586008838E+03  0.00000000000E+00 0. -1.
         -3   -1    0    0    0  501 -0.00000000000E+00 -0.00000000000E+00 -0.92383314869E+03  0.92383314869E+03  0.00000000000E+00 0.  1.
         23    2    1    2    0    0 -0.56180747268E+03 -0.29781465471E+03 -0.59202743358E+02  0.65110001688E+03  0.12690572186E+03 0.  0.
        254    2    1    2    0    0  0.56180747268E+03  0.29781465471E+03 -0.38770316958E+02  0.10985932202E+04  0.89503224581E+03 0.  0.
        -24    2    4    4    0    0  0.17309985135E+03  0.56693392907E+03  0.83224333721E+02  0.60413141841E+03  0.81675225850E+02 0.  0.
         24    2    4    4    0    0  0.38870762133E+03 -0.26911927436E+03 -0.12199465068E+03  0.49446180178E+03  0.78044730197E+02 0.  0.
         11    1    3    3    0    0 -0.26844853049E+03 -0.19908638652E+03  0.82145740464E+01  0.33431643999E+03  0.00000000000E+00 0. -1.
        -11    1    3    3    0    0 -0.29335894219E+03 -0.98728268191E+02 -0.67417317404E+02  0.31678357690E+03  0.00000000000E+00 0.  1.
          2    1    6    6  502    0  0.35592181000E+03 -0.21476264663E+03 -0.10620706044E+03  0.42904926163E+03  0.00000000000E+00 0. -1.
          3    1    5    5  503    0  0.14462671845E+03  0.52303810503E+03  0.57131976304E+02  0.54566455788E+03  0.00000000000E+00 0. -1.
         -4    1    5    5    0  503  0.28473132895E+02  0.43895824036E+02  0.26092357418E+02  0.58466860530E+02  0.00000000000E+00 0.  1.
         -1    1    6    6    0  502  0.32785811335E+02 -0.54356627731E+02 -0.15787590242E+02  0.65412540149E+02  0.00000000000E+00 0.  1.
<mgrwt>
<rscale>  0 0.17469481E+04</rscale>
<asrwt>0</asrwt>
<pdfrwt beam="1">  1        3 0.12705540E+00 0.17469481E+04</pdfrwt>
<pdfrwt beam="2">  1       -3 0.14212818E+00 0.17469481E+04</pdfrwt>
<totfact> 0.45255144E-01</totfact>
</mgrwt>
</event>
<event>
12    1  0.1541840E-007  0.2592323E+04  0.7818608E-02  0.8370814E-01
          1   -1    0    0  501    0  0.00000000000E+00  0.00000000000E+00  0.29627486037E+04  0.29627486037E+04  0.00000000000E+00 0. -1.
         -1   -1    0    0    0  501 -0.00000000000E+00 -0.00000000000E+00 -0.56705270011E+03  0.56705270011E+03  0.00000000000E+00 0.  1.
         23    2    1    2    0    0 -0.47615471597E+03  0.84580120524E+03  0.25193787278E+03  0.10067385556E+04  0.89145023748E+02 0.  0.
        254    2    1    2    0    0  0.47615471597E+03 -0.84580120524E+03  0.21437580308E+04  0.25230627482E+04  0.90996930961E+03 0.  0.
        -24    2    4    4    0    0  0.11121488180E+02 -0.40216583257E+03  0.16724797345E+03  0.44316740230E+03  0.81021092632E+02 0.  0.
         24    2    4    4    0    0  0.46503322779E+03 -0.44363537267E+03  0.19765100573E+04  0.20798953459E+04  0.79400228613E+02 0.  0.
         11    1    3    3    0    0 -0.14947593751E+03  0.27012360922E+03  0.12335969713E+03  0.33245666639E+03  0.00000000000E+00 0. -1.
        -11    1    3    3    0    0 -0.32667877846E+03  0.57567759602E+03  0.12857817565E+03  0.67428188920E+03  0.00000000000E+00 0.  1.
          4    1    6    6  502    0  0.62243458216E+02 -0.95613193143E+02  0.39923759777E+03  0.41521896665E+03  0.00000000000E+00 0. -1.
          3    1    5    5  503    0 -0.73925154234E+01 -0.30832623946E+02  0.38131071815E+02  0.49591114340E+02  0.00000000000E+00 0. -1.
         -4    1    5    5    0  503  0.18514003604E+02 -0.37133320862E+03  0.12911690164E+03  0.39357628796E+03  0.00000000000E+00 0.  1.
         -3    1    6    6    0  502  0.40278976957E+03 -0.34802217953E+03  0.15772724596E+04  0.16646763792E+04  0.00000000000E+00 0.  1.
<mgrwt>
<rscale>  0 0.25923230E+04</rscale>
<asrwt>0</asrwt>
<pdfrwt beam="1">  1        1 0.45580747E+00 0.25923230E+04</pdfrwt>
<pdfrwt beam="2">  1       -1 0.87238879E-01 0.25923230E+04</pdfrwt>
<totfact> 0.72525356E-01</totfact>
</mgrwt>
</event>
<event>
12    1  0.2450090E-007  0.1429055E+04  0.7818608E-02  0.8933052E-01
         -1   -1    0    0    0  501 -0.00000000000E+00  0.00000000000E+00  0.33847630321E+03  0.33847630321E+03  0.00000000000E+00 0.  1.
          1   -1    0    0  501    0  0.00000000000E+00 -0.00000000000E+00 -0.15083755057E+04  0.15083755057E+04  0.00000000000E+00 0. -1.
         23    2    1    2    0    0  0.17605181766E+03 -0.31414722736E+03 -0.65259676636E+03  0.75103503320E+03  0.92132288983E+02 0.  0.
        254    2    1    2    0    0 -0.17605181766E+03  0.31414722736E+03 -0.51730243611E+03  0.10958167757E+04  0.89639827785E+03 0.  0.
        -24    2    4    4    0    0  0.27492332210E+03 -0.11762638202E+03 -0.54869204683E+02  0.31497202688E+03  0.82328302032E+02 0.  0.
         24    2    4    4    0    0 -0.45097513976E+03  0.43177360938E+03 -0.46243323143E+03  0.78084474881E+03  0.77890960890E+02 0.  0.
         11    1    3    3    0    0  0.17189544181E+03 -0.30451954046E+03 -0.57683395741E+03  0.67454992984E+03  0.00000000000E+00 0. -1.
        -11    1    3    3    0    0  0.41563758571E+01 -0.96276869031E+01 -0.75762808955E+02  0.76485103361E+02  0.00000000000E+00 0.  1.
          2    1    6    6  502    0 -0.42335186372E+03  0.42522257878E+03 -0.43301084037E+03  0.73995907313E+03  0.00000000000E+00 0. -1.
          3    1    5    5  503    0  0.25212593729E+03 -0.12023736575E+03 -0.29684733541E+02  0.28090157668E+03  0.00000000000E+00 0. -1.
         -4    1    5    5    0  503  0.22797384803E+02  0.26109837301E+01 -0.25184471142E+02  0.34070450196E+02  0.00000000000E+00 0.  1.
         -1    1    6    6    0  502 -0.27623276037E+02  0.65510305910E+01 -0.29422391060E+02  0.40885675689E+02  0.00000000000E+00 0.  1.
<mgrwt>
<rscale>  0 0.14290547E+04</rscale>
<asrwt>0</asrwt>
<pdfrwt beam="1">  1        1 0.23205777E+00 0.14290547E+04</pdfrwt>
<pdfrwt beam="2">  1       -1 0.52073278E-01 0.14290547E+04</pdfrwt>
<totfact> 0.23317249E+01</totfact>
</mgrwt>
</event>
<event>
12    1  0.1541840E-007  0.1163018E+04  0.7818608E-02  0.9145857E-01
          1   -1    0    0  501    0  0.00000000000E+00  0.00000000000E+00  0.12049792909E+04  0.12049792909E+04  0.00000000000E+00 0. -1.
         -1   -1    0    0    0  501 -0.00000000000E+00 -0.00000000000E+00 -0.28062957918E+03  0.28062957918E+03  0.00000000000E+00 0.  1.
         23    2    1    2    0    0  0.11005829571E+03  0.12449978281E+03  0.39130455932E+03  0.43569098702E+03  0.95364320643E+02 0.  0.
        254    2    1    2    0    0 -0.11005829571E+03 -0.12449978281E+03  0.53304515238E+03  0.10499178830E+04  0.88914419656E+03 0.  0.
        -24    2    4    4    0    0  0.71325984208E+02  0.94667930234E+01  0.73130921865E+03  0.73912093157E+03  0.79432751473E+02 0.  0.
         24    2    4    4    0    0 -0.18138427992E+03 -0.13396657583E+03 -0.19826406627E+03  0.31079695147E+03  0.80242162414E+02 0.  0.
         13    1    3    3    0    0  0.84701656135E+02  0.33418582889E+02  0.13815922734E+03  0.16546644473E+03  0.00000000000E+00 0. -1.
        -13    1    3    3    0    0  0.25356639578E+02  0.91081199920E+02  0.25314533198E+03  0.27022454229E+03  0.00000000000E+00 0.  1.
          4    1    6    6  502    0 -0.59250542778E+02 -0.24853892474E+01 -0.58904024652E+02  0.83585214598E+02  0.00000000000E+00 0. -1.
          3    1    5    5  503    0  0.47439816079E+02 -0.19373809766E+02  0.61035666226E+03  0.61250398841E+03  0.00000000000E+00 0. -1.
         -4    1    5    5    0  503  0.23886168129E+02  0.28840602790E+02  0.12095255639E+03  0.12661694315E+03  0.00000000000E+00 0.  1.
         -3    1    6    6    0  502 -0.12213373714E+03 -0.13148118659E+03 -0.13936004162E+03  0.22721173688E+03  0.00000000000E+00 0.  1.
<mgrwt>
<rscale>  0 0.11630182E+04</rscale>
<asrwt>0</asrwt>
<pdfrwt beam="1">  1        1 0.18538143E+00 0.11630182E+04</pdfrwt>
<pdfrwt beam="2">  1       -1 0.43173782E-01 0.11630182E+04</pdfrwt>
<totfact> 0.55599937E+01</totfact>
</mgrwt>
</event>
<event>
12    1  0.1541840E-007  0.1703571E+04  0.7818608E-02  0.8759330E-01
          1   -1    0    0  501    0  0.00000000000E+00  0.00000000000E+00  0.68116951495E+03  0.68116951495E+03  0.00000000000E+00 0. -1.
         -1   -1    0    0    0  501 -0.00000000000E+00 -0.00000000000E+00 -0.10651365376E+04  0.10651365376E+04  0.00000000000E+00 0.  1.
         23    2    1    2    0    0  0.36371757161E+03 -0.44124854655E+03 -0.35733834416E+03  0.68071353117E+03  0.93217313792E+02 0.  0.
        254    2    1    2    0    0 -0.36371757161E+03  0.44124854655E+03 -0.26628678495E+02  0.10655925214E+04  0.89877003920E+03 0.  0.
        -24    2    4    4    0    0 -0.61647204999E+03  0.18724716586E+03 -0.17024735151E+03  0.67113121268E+03  0.79584259675E+02 0.  0.
         24    2    4    4    0    0  0.25275447838E+03  0.25400138068E+03  0.14361867302E+03  0.39446130870E+03  0.81067090073E+02 0.  0.
         13    1    3    3    0    0  0.23254612248E+03 -0.32431974756E+03 -0.28641959646E+03  0.49122009627E+03  0.00000000000E+00 0.  1.
        -13    1    3    3    0    0  0.13117144913E+03 -0.11692879898E+03 -0.70918747702E+02  0.18949343491E+03  0.00000000000E+00 0. -1.
          2    1    6    6  502    0  0.29441646450E+02  0.12205009476E+02 -0.67823293421E+01  0.32584855275E+02  0.00000000000E+00 0. -1.
          3    1    5    5  503    0 -0.19362464307E+03  0.27636704557E+02 -0.29802145480E+02  0.19784452916E+03  0.00000000000E+00 0. -1.
         -4    1    5    5    0  503 -0.42284740692E+03  0.15961046131E+03 -0.14044520603E+03  0.47328668352E+03  0.00000000000E+00 0.  1.
         -1    1    6    6    0  502  0.22331283193E+03  0.24179637121E+03  0.15040100236E+03  0.36187645343E+03  0.00000000000E+00 0.  1.
<mgrwt>
<rscale>  0 0.17035710E+04</rscale>
<asrwt>0</asrwt>
<pdfrwt beam="1">  1        1 0.10479531E+00 0.17035710E+04</pdfrwt>
<pdfrwt beam="2">  1       -1 0.16386716E+00 0.17035710E+04</pdfrwt>
<totfact> 0.73813664E+00</totfact>
</mgrwt>
</event>
<event>
12    1  0.1541840E-007  0.1370294E+04  0.7818608E-02  0.8975606E-01
         -2   -1    0    0    0  501 -0.00000000000E+00  0.00000000000E+00  0.53474916071E+03  0.53474916071E+03  0.00000000000E+00 0.  1.
          2   -1    0    0  501    0  0.00000000000E+00 -0.00000000000E+00 -0.87784405536E+03  0.87784405536E+03  0.00000000000E+00 0. -1.
         23    2    1    2    0    0 -0.10210711093E+02  0.27428561069E+03 -0.33792411837E+03  0.44643772027E+03  0.98879084989E+02 0.  0.
        254    2    1    2    0    0  0.10210711093E+02 -0.27428561069E+03 -0.51707762840E+01  0.96615549580E+03  0.92633301263E+03 0.  0.
        -24    2    4    4    0    0  0.15624643042E+03 -0.21031809258E+03  0.42178606035E+03  0.50331148445E+03  0.82294122397E+02 0.  0.
         24    2    4    4    0    0 -0.14603571933E+03 -0.63967518112E+02 -0.42695683664E+03  0.46284401136E+03  0.80710369875E+02 0.  0.
         11    1    3    3    0    0  0.23868133487E+02  0.24587591634E+03 -0.27840446144E+03  0.37220115285E+03  0.00000000000E+00 0. -1.
        -11    1    3    3    0    0 -0.34078844580E+02  0.28409694349E+02 -0.59519656929E+02  0.74236567417E+02  0.00000000000E+00 0.  1.
          2    1    6    6  502    0 -0.96077412549E+02 -0.30698347926E+02 -0.35545851197E+03  0.36949155808E+03  0.00000000000E+00 0. -1.
          3    1    5    5  503    0  0.14386525581E+02 -0.74905153397E+02  0.90774944562E+02  0.11856578210E+03  0.00000000000E+00 0. -1.
         -4    1    5    5    0  503  0.14185990484E+03 -0.13541293918E+03  0.33101111579E+03  0.38474570235E+03  0.00000000000E+00 0.  1.
         -1    1    6    6    0  502 -0.49958306781E+02 -0.33269170186E+02 -0.71498324673E+02  0.93352453274E+02  0.00000000000E+00 0.  1.
<mgrwt>
<rscale>  0 0.13702939E+04</rscale>
<asrwt>0</asrwt>
<pdfrwt beam="1">  1        2 0.13505293E+00 0.13702939E+04</pdfrwt>
<pdfrwt beam="2">  1       -2 0.82269103E-01 0.13702939E+04</pdfrwt>
<totfact> 0.38440997E+01</totfact>
</mgrwt>
</event>
<event>
12    1  0.1541840E-007  0.1898280E+04  0.7818608E-02  0.8655713E-01
         -1   -1    0    0    0  501 -0.00000000000E+00  0.00000000000E+00  0.76870066403E+03  0.76870066403E+03  0.00000000000E+00 0.  1.
          1   -1    0    0  501    0  0.00000000000E+00 -0.00000000000E+00 -0.11719348291E+04  0.11719348291E+04  0.00000000000E+00 0. -1.
         23    2    1    2    0    0 -0.27702025586E+03  0.60174166134E+03  0.17373074315E+03  0.69100800114E+03  0.92067569585E+02 0.  0.
        254    2    1    2    0    0  0.27702025586E+03 -0.60174166134E+03 -0.57696490825E+03  0.12496274920E+04  0.88873343264E+03 0.  0.
        -24    2    4    4    0    0 -0.13226196272E+03  0.15758501375E+03 -0.23915337004E+02  0.22180787882E+03  0.79375868010E+02 0.  0.
         24    2    4    4    0    0  0.40928221857E+03 -0.75932667509E+03 -0.55304957125E+03  0.10278196132E+04  0.80376582809E+02 0.  0.
         13    1    3    3    0    0 -0.17159436158E+03  0.26912925956E+03  0.67077868312E+02  0.32615122826E+03  0.00000000000E+00 0. -1.
        -13    1    3    3    0    0 -0.10542589428E+03  0.33261240179E+03  0.10665287484E+03  0.36485677288E+03  0.00000000000E+00 0.  1.
          4    1    6    6  502    0  0.14602089135E+02 -0.66057505791E+02 -0.30812631173E+02  0.74338639470E+02  0.00000000000E+00 0. -1.
          1    1    5    5  503    0  0.52428550573E+01  0.11309168435E+01  0.94449025872E+01  0.10861523233E+02  0.00000000000E+00 0. -1.
         -2    1    5    5    0  503 -0.13750481777E+03  0.15645409691E+03 -0.33360239591E+02  0.21094635559E+03  0.00000000000E+00 0.  1.
         -3    1    6    6    0  502  0.39468012944E+03 -0.69326916930E+03 -0.52223694008E+03  0.95348097373E+03  0.00000000000E+00 0.  1.
<mgrwt>
<rscale>  0 0.18982804E+04</rscale>
<asrwt>0</asrwt>
<pdfrwt beam="1">  1        1 0.18029767E+00 0.18982804E+04</pdfrwt>
<pdfrwt beam="2">  1       -1 0.11826164E+00 0.18982804E+04</pdfrwt>
<totfact> 0.67281205E+00</totfact>
</mgrwt>
</event>
<event>
12    1  0.1541840E-007  0.1916051E+04  0.7818608E-02  0.8646908E-01
         -1   -1    0    0    0  501 -0.00000000000E+00  0.00000000000E+00  0.41292288785E+03  0.41292288785E+03  0.00000000000E+00 0.  1.
          1   -1    0    0  501    0  0.00000000000E+00 -0.00000000000E+00 -0.22227215017E+04  0.22227215017E+04  0.00000000000E+00 0. -1.
         23    2    1    2    0    0 -0.11190985926E+03  0.53398597728E+03 -0.33921259196E+01  0.55250991012E+03  0.87125505664E+02 0.  0.
        254    2    1    2    0    0  0.11190985926E+03 -0.53398597728E+03 -0.18064064879E+04  0.20831344794E+04  0.88242847825E+03 0.  0.
        -24    2    4    4    0    0  0.40250720454E+03 -0.50133226996E+03 -0.15665526492E+04  0.16953073371E+04  0.81447344322E+02 0.  0.
         24    2    4    4    0    0 -0.29059734528E+03 -0.32653707319E+02 -0.23985383875E+03  0.38782714235E+03  0.85830919235E+02 0.  0.
         13    1    3    3    0    0 -0.10501565006E+03  0.53254973201E+03 -0.99366849539E+01  0.54289616091E+03  0.00000000000E+00 0.  1.
        -13    1    3    3    0    0 -0.68942091990E+01  0.14362452643E+01  0.65445590343E+01  0.96137492110E+01  0.00000000000E+00 0. -1.
          4    1    6    6  502    0 -0.62842278002E+02 -0.38118455907E+02 -0.34824957945E+02  0.81332320028E+02  0.00000000000E+00 0. -1.
          1    1    5    5  503    0  0.27724541610E+02 -0.73620285385E+02 -0.16573515372E+03  0.18345772758E+03  0.00000000000E+00 0. -1.
         -2    1    5    5    0  503  0.37478266293E+03 -0.42771198457E+03 -0.14008174954E+04  0.15118496095E+04  0.00000000000E+00 0.  1.
         -3    1    6    6    0  502 -0.22775506727E+03  0.54647485880E+01 -0.20502888080E+03  0.30649482232E+03  0.00000000000E+00 0.  1.
<mgrwt>
<rscale>  0 0.19160507E+04</rscale>
<asrwt>0</asrwt>
<pdfrwt beam="1">  1        1 0.34195715E+00 0.19160507E+04</pdfrwt>
<pdfrwt beam="2">  1       -1 0.63526599E-01 0.19160507E+04</pdfrwt>
<totfact> 0.49370174E+00</totfact>
</mgrwt>
</event>
<event>
12    1  0.1541840E-007  0.1469339E+04  0.7818608E-02  0.8905102E-01
          2   -1    0    0  501    0  0.00000000000E+00  0.00000000000E+00  0.10685998976E+04  0.10685998976E+04  0.00000000000E+00 0.  1.
         -2   -1    0    0    0  501 -0.00000000000E+00 -0.00000000000E+00 -0.50509045555E+03  0.50509045555E+03  0.00000000000E+00 0. -1.
         23    2    1    2    0    0  0.20446080535E+03 -0.34512432083E+03 -0.47725318687E+02  0.41338279237E+03  0.87707520949E+02 0.  0.
        254    2    1    2    0    0 -0.20446080535E+03  0.34512432083E+03  0.61123476075E+03  0.11603075608E+04  0.90099427585E+03 0.  0.
        -24    2    4    4    0    0 -0.17486375096E+03  0.21813575099E+03 -0.18848943850E+03  0.34617317406E+03  0.78403193500E+02 0.  0.
         24    2    4    4    0    0 -0.29597054385E+02  0.12698856984E+03  0.79972419926E+03  0.81413438673E+03  0.79081744286E+02 0.  0.
         11    1    3    3    0    0  0.85638443852E+02 -0.11218994158E+03  0.21784929734E+02  0.14281144639E+03  0.00000000000E+00 0.  1.
        -11    1    3    3    0    0  0.11882236149E+03 -0.23293437925E+03 -0.69510248421E+02  0.27057134598E+03  0.00000000000E+00 0. -1.
          4    1    6    6  502    0 -0.56267843414E+02  0.87671826598E+02  0.58666605954E+03  0.59584350697E+03  0.00000000000E+00 0. -1.
          1    1    5    5  503    0 -0.12797487464E+03  0.17960691430E+03 -0.18045318349E+03  0.28495537131E+03  0.00000000000E+00 0. -1.
         -2    1    5    5    0  503 -0.46888876324E+02  0.38528836692E+02 -0.80362550121E+01  0.61217802757E+02  0.00000000000E+00 0.  1.
         -3    1    6    6    0  502  0.26670789029E+02  0.39316743240E+02  0.21305813971E+03  0.21829087975E+03  0.00000000000E+00 0.  1.
<mgrwt>
<rscale>  0 0.14693395E+04</rscale>
<asrwt>0</asrwt>
<pdfrwt beam="1">  1        2 0.16439998E+00 0.14693395E+04</pdfrwt>
<pdfrwt beam="2">  1       -2 0.77706224E-01 0.14693395E+04</pdfrwt>
<totfact> 0.32568227E+01</totfact>
</mgrwt>
</event>
<event>
12    1  0.1541840E-007  0.2603948E+04  0.7818608E-02  0.8366862E-01
         -2   -1    0    0    0  501 -0.00000000000E+00  0.00000000000E+00  0.12199341664E+04  0.12199341664E+04  0.00000000000E+00 0.  1.
          2   -1    0    0  501    0  0.00000000000E+00 -0.00000000000E+00 -0.13895306273E+04  0.13895306273E+04  0.00000000000E+00 0. -1.
         23    2    1    2    0    0  0.43832553968E+03 -0.29578355062E+03  0.94158096945E+03  0.10847121588E+04  0.10202233992E+03 0.  0.
        254    2    1    2    0    0 -0.43832553968E+03  0.29578355062E+03 -0.11111774304E+04  0.15247526348E+04  0.90029891046E+03 0.  0.
        -24    2    4    4    0    0 -0.41174192504E+03  0.41615385859E+02 -0.43960628978E+02  0.42400751276E+03  0.81157752591E+02 0.  0.
         24    2    4    4    0    0 -0.26583614645E+02  0.25416816476E+03 -0.10672168014E+04  0.11007451221E+04  0.85906798876E+02 0.  0.
         13    1    3    3    0    0  0.35184997123E+02 -0.37282775519E+02  0.16068581033E+03  0.16866510906E+03  0.00000000000E+00 0. -1.
        -13    1    3    3    0    0  0.40314054256E+03 -0.25850077510E+03  0.78089515912E+03  0.91604704973E+03  0.00000000000E+00 0.  1.
          2    1    6    6  502    0 -0.36545456079E+02  0.22569718567E+03 -0.10150892939E+04  0.10405196128E+04  0.00000000000E+00 0. -1.
          3    1    5    5  503    0 -0.31781725598E+03  0.13013225182E+02 -0.62297564411E+02  0.32412673256E+03  0.00000000000E+00 0. -1.
         -4    1    5    5    0  503 -0.93924669062E+02  0.28602160677E+02  0.18336935433E+02  0.99880780208E+02  0.00000000000E+00 0.  1.
         -1    1    6    6    0  502  0.99618414338E+01  0.28470979084E+02 -0.52127507464E+02  0.60225509289E+02  0.00000000000E+00 0.  1.
<mgrwt>
<rscale>  0 0.26039477E+04</rscale>
<asrwt>0</asrwt>
<pdfrwt beam="1">  1        2 0.21377394E+00 0.26039477E+04</pdfrwt>
<pdfrwt beam="2">  1       -2 0.18768218E+00 0.26039477E+04</pdfrwt>
<totfact> 0.20848334E+00</totfact>
</mgrwt>
</event>
<event>
12    1  0.1541840E-007  0.1638352E+04  0.7818608E-02  0.8797328E-01
          2   -1    0    0  501    0  0.00000000000E+00  0.00000000000E+00  0.17216645778E+04  0.17216645778E+04  0.00000000000E+00 0. -1.
         -2   -1    0    0    0  501 -0.00000000000E+00 -0.00000000000E+00 -0.38976752712E+03  0.38976752712E+03  0.00000000000E+00 0.  1.
         23    2    1    2    0    0  0.10331774323E+02 -0.92485701688E+02 -0.25582639061E+03  0.28780352891E+03  0.93399028584E+02 0.  0.
        254    2    1    2    0    0 -0.10331774323E+02  0.92485701688E+02  0.15877234413E+04  0.18236285760E+04  0.89224161897E+03 0.  0.
        -24    2    4    4    0    0  0.37581837059E+03 -0.17014460762E+03  0.81371755758E+03  0.91576451572E+03  0.79370961761E+02 0.  0.
         24    2    4    4    0    0 -0.38615014491E+03  0.26263030931E+03  0.77400588370E+03  0.90786406028E+03  0.83937060653E+02 0.  0.
         11    1    3    3    0    0  0.17583865891E+02 -0.22341778228E+02 -0.18739840235E+03  0.18954289382E+03  0.00000000000E+00 0.  1.
        -11    1    3    3    0    0 -0.72520915677E+01 -0.70143923460E+02 -0.68427988265E+02  0.98260635090E+02  0.00000000000E+00 0. -1.
          2    1    6    6  502    0 -0.33885019045E+03  0.20920651478E+03  0.60371088187E+03  0.72322447849E+03  0.00000000000E+00 0. -1.
          1    1    5    5  503    0  0.37352554994E+03 -0.16217956188E+03  0.81016371959E+03  0.90674627063E+03  0.00000000000E+00 0. -1.
         -2    1    5    5    0  503  0.22928206490E+01 -0.79650457433E+01  0.35538379874E+01  0.90182450988E+01  0.00000000000E+00 0.  1.
         -1    1    6    6    0  502 -0.47299954459E+02  0.53423794527E+02  0.17029500183E+03  0.18463958178E+03  0.00000000000E+00 0.  1.
<mgrwt>
<rscale>  0 0.16383515E+04</rscale>
<asrwt>0</asrwt>
<pdfrwt beam="1">  1        2 0.26487147E+00 0.16383515E+04</pdfrwt>
<pdfrwt beam="2">  1       -2 0.59964236E-01 0.16383515E+04</pdfrwt>
<totfact> 0.23647068E+01</totfact>
</mgrwt>
</event>
<event>
12    1  0.1541840E-007  0.4159051E+04  0.7818608E-02  0.7973208E-01
         -2   -1    0    0    0  501 -0.00000000000E+00  0.00000000000E+00  0.20923941258E+04  0.20923941258E+04  0.00000000000E+00 0.  1.
          2   -1    0    0  501    0  0.00000000000E+00 -0.00000000000E+00 -0.20667358249E+04  0.20667358249E+04  0.00000000000E+00 0. -1.
         23    2    1    2    0    0 -0.77143364891E+03 -0.10844689114E+04 -0.14561177338E+04  0.19749007431E+04  0.93655731095E+02 0.  0.
        254    2    1    2    0    0  0.77143364891E+03  0.10844689114E+04  0.14817760347E+04  0.21842292076E+04  0.89666845584E+03 0.  0.
        -24    2    4    4    0    0  0.50220157949E+03  0.22702606329E+03  0.10393674668E+04  0.11793173844E+04  0.82204028086E+02 0.  0.
         24    2    4    4    0    0  0.26923206942E+03  0.85744284808E+03  0.44240856788E+03  0.10049118231E+04  0.80176595196E+02 0.  0.
         13    1    3    3    0    0 -0.30499439971E+03 -0.42576683388E+03 -0.64147768693E+03  0.82812595873E+03  0.00000000000E+00 0.  1.
        -13    1    3    3    0    0 -0.46643924920E+03 -0.65870207749E+03 -0.81464004686E+03  0.11467747844E+04  0.00000000000E+00 0. -1.
          2    1    6    6  502    0  0.21182169143E+02  0.35772249650E+02  0.58872963430E+01  0.41988074412E+02  0.00000000000E+00 0. -1.
          3    1    5    5  503    0  0.39573267626E+01 -0.41844076267E+01  0.26304454818E+02  0.26927570361E+02  0.00000000000E+00 0. -1.
         -4    1    5    5    0  503  0.49824425273E+03  0.23121047092E+03  0.10130630120E+04  0.11523898141E+04  0.00000000000E+00 0.  1.
         -1    1    6    6    0  502  0.24804990027E+03  0.82167059843E+03  0.43652127153E+03  0.96292374872E+03  0.00000000000E+00 0.  1.
<mgrwt>
<rscale>  0 0.41590508E+04</rscale>
<asrwt>0</asrwt>
<pdfrwt beam="1">  1        2 0.31795936E+00 0.41590508E+04</pdfrwt>
<pdfrwt beam="2">  1       -2 0.32190679E+00 0.41590508E+04</pdfrwt>
<totfact> 0.11129964E-01</totfact>
</mgrwt>
</event>
<event>
12    1  0.1541840E-007  0.1333128E+04  0.7818608E-02  0.9003699E-01
          2   -1    0    0  501    0  0.00000000000E+00  0.00000000000E+00  0.15723571223E+04  0.15723571223E+04  0.00000000000E+00 0. -1.
         -2   -1    0    0    0  501 -0.00000000000E+00 -0.00000000000E+00 -0.28257411503E+03  0.28257411503E+03  0.00000000000E+00 0.  1.
         23    2    1    2    0    0 -0.13694902261E+03  0.90693412545E+01 -0.10489799109E+03  0.19716652004E+03  0.95046095904E+02 0.  0.
        254    2    1    2    0    0  0.13694902261E+03 -0.90693412545E+01  0.13946809983E+04  0.16577647173E+04  0.88555715962E+03 0.  0.
        -24    2    4    4    0    0  0.45558202067E+03 -0.10944967977E+03  0.11249424385E+04  0.12212594859E+04  0.80280957553E+02 0.  0.
         24    2    4    4    0    0 -0.31863299806E+03  0.10038033852E+03  0.26973855988E+03  0.43650523135E+03  0.78579427926E+02 0.  0.
         11    1    3    3    0    0 -0.49687240883E+02  0.18881375169E+02  0.84102110135E+01  0.53815052580E+02  0.00000000000E+00 0. -1.
        -11    1    3    3    0    0 -0.87261781722E+02 -0.98120339141E+01 -0.11330820211E+03  0.14335146746E+03  0.00000000000E+00 0.  1.
          2    1    6    6  502    0 -0.27982178886E+03  0.11380578461E+03  0.23524736179E+03  0.38287505973E+03  0.00000000000E+00 0. -1.
          1    1    5    5  503    0  0.15300168501E+03 -0.72103099497E+02  0.44649711616E+03  0.47745999551E+03  0.00000000000E+00 0. -1.
         -2    1    5    5    0  503  0.30258033566E+03 -0.37346580275E+02  0.67844532229E+03  0.74379949040E+03  0.00000000000E+00 0.  1.
         -1    1    6    6    0  502 -0.38811209208E+02 -0.13425446092E+02  0.34491198087E+02  0.53630171624E+02  0.00000000000E+00 0.  1.
<mgrwt>
<rscale>  0 0.13331278E+04</rscale>
<asrwt>0</asrwt>
<pdfrwt beam="1">  1        2 0.24190109E+00 0.13331278E+04</pdfrwt>
<pdfrwt beam="2">  1       -2 0.43472942E-01 0.13331278E+04</pdfrwt>
<totfact> 0.56689535E+01</totfact>
</mgrwt>
</event>
<event>
12    1  0.1541840E-007  0.1417841E+04  0.7818608E-02  0.8941005E-01
         -1   -1    0    0    0  501 -0.00000000000E+00  0.00000000000E+00  0.10829864385E+04  0.10829864385E+04  0.00000000000E+00 0.  1.
          1   -1    0    0  501    0  0.00000000000E+00 -0.00000000000E+00 -0.46405752686E+03  0.46405752686E+03  0.00000000000E+00 0. -1.
         23    2    1    2    0    0  0.38547786874E+03  0.90257471948E+02  0.35268288495E+02  0.40775086519E+03  0.90979763487E+02 0.  0.
        254    2    1    2    0    0 -0.38547786874E+03 -0.90257471948E+02  0.58366062315E+03  0.11392931002E+04  0.89475664098E+03 0.  0.
        -24    2    4    4    0    0 -0.43317671554E+02 -0.10014745659E+03 -0.22226215982E+03  0.25991341349E+03  0.79047967036E+02 0.  0.
         24    2    4    4    0    0 -0.34216019718E+03  0.98899846420E+01  0.80592278298E+03  0.87937968669E+03  0.81398334824E+02 0.  0.
         13    1    3    3    0    0  0.11396574300E+03  0.42861024312E+02  0.50262425244E+02  0.13172535585E+03  0.00000000000E+00 0.  1.
        -13    1    3    3    0    0  0.27151212574E+03  0.47396447636E+02 -0.14994136750E+02  0.27602550934E+03  0.00000000000E+00 0. -1.
          2    1    6    6  502    0 -0.10173443767E+03 -0.37858109442E+01  0.15602867058E+03  0.18630398336E+03  0.00000000000E+00 0. -1.
          3    1    5    5  503    0  0.22374658498E+02 -0.14368073380E+02 -0.48059323407E+02  0.54925089366E+02  0.00000000000E+00 0. -1.
         -4    1    5    5    0  503 -0.65692330052E+02 -0.85779383211E+02 -0.17420283642E+03  0.20498832412E+03  0.00000000000E+00 0.  1.
         -1    1    6    6    0  502 -0.24042575951E+03  0.13675795586E+02  0.64989411239E+03  0.69307570333E+03  0.00000000000E+00 0.  1.
<mgrwt>
<rscale>  0 0.14178406E+04</rscale>
<asrwt>0</asrwt>
<pdfrwt beam="1">  1        1 0.71393466E-01 0.14178406E+04</pdfrwt>
<pdfrwt beam="2">  1       -1 0.16661330E+00 0.14178406E+04</pdfrwt>
<totfact> 0.12462846E+01</totfact>
</mgrwt>
</event>
<event>
12    1  0.1541840E-007  0.1356785E+04  0.7818608E-02  0.8985708E-01
          2   -1    0    0  501    0  0.00000000000E+00  0.00000000000E+00  0.10144613467E+04  0.10144613467E+04  0.00000000000E+00 0. -1.
         -2   -1    0    0    0  501 -0.00000000000E+00 -0.00000000000E+00 -0.45365615445E+03  0.45365615445E+03  0.00000000000E+00 0.  1.
         23    2    1    2    0    0  0.42797652607E+03 -0.66182020747E+02  0.35195643100E+02  0.44385086811E+03  0.90669140797E+02 0.  0.
        254    2    1    2    0    0 -0.42797652607E+03  0.66182020747E+02  0.52560954916E+03  0.10242666330E+04  0.76505736429E+03 0.  0.
        -24    2    4    4    0    0 -0.33165577129E+03  0.36141889596E+02  0.71678728930E+03  0.79431437998E+03  0.76482215768E+02 0.  0.
         24    2    4    4    0    0 -0.96320754786E+02  0.30040131151E+02 -0.19117774014E+03  0.22995225306E+03  0.78415643077E+02 0.  0.
         13    1    3    3    0    0  0.34499535023E+02  0.19255152737E+02 -0.14896469657E+01  0.39537297224E+02  0.00000000000E+00 0. -1.
        -13    1    3    3    0    0  0.39347699105E+03 -0.85437173484E+02  0.36685290065E+02  0.40431357089E+03  0.00000000000E+00 0.  1.
          2    1    6    6  502    0  0.12760644063E+02  0.37780807225E+01 -0.92430258268E+01  0.16203131095E+02  0.00000000000E+00 0. -1.
          3    1    5    5  503    0 -0.19532250941E+03 -0.15690295444E+02  0.39023581173E+03  0.43667042127E+03  0.00000000000E+00 0. -1.
         -4    1    5    5    0  503 -0.13633326187E+03  0.51832185040E+02  0.32655147757E+03  0.35764395871E+03  0.00000000000E+00 0.  1.
         -1    1    6    6    0  502 -0.10908139885E+03  0.26262050429E+02 -0.18193471432E+03  0.21374912196E+03  0.00000000000E+00 0.  1.
<mgrwt>
<rscale>  0 0.13567854E+04</rscale>
<asrwt>0</asrwt>
<pdfrwt beam="1">  1        2 0.15607098E+00 0.13567854E+04</pdfrwt>
<pdfrwt beam="2">  1       -2 0.69793255E-01 0.13567854E+04</pdfrwt>
<totfact> 0.45048193E+01</totfact>
</mgrwt>
</event>
<event>
12    1  0.1541840E-007  0.2493275E+04  0.7818608E-02  0.8405385E-01
          1   -1    0    0  501    0  0.00000000000E+00  0.00000000000E+00  0.12382679786E+04  0.12382679786E+04  0.00000000000E+00 0. -1.
         -1   -1    0    0    0  501 -0.00000000000E+00 -0.00000000000E+00 -0.12550635718E+04  0.12550635718E+04  0.00000000000E+00 0.  1.
         23    2    1    2    0    0 -0.11581849779E+03  0.20909518628E+03  0.10442758836E+04  0.10751667734E+04  0.91305794528E+02 0.  0.
        254    2    1    2    0    0  0.11581849779E+03 -0.20909518628E+03 -0.10610714769E+04  0.14181647770E+04  0.91004611653E+03 0.  0.
        -24    2    4    4    0    0 -0.33528631487E+02  0.33920529746E+03 -0.27944277408E+03  0.44839587121E+03  0.82378336830E+02 0.  0.
         24    2    4    4    0    0  0.14934712928E+03 -0.54830048373E+03 -0.78162870284E+03  0.96976890579E+03  0.81057486023E+02 0.  0.
         11    1    3    3    0    0 -0.37928136815E+02  0.15692911117E+03  0.69772196584E+03  0.71615726703E+03  0.00000000000E+00 0. -1.
        -11    1    3    3    0    0 -0.77890360978E+02  0.52166075102E+02  0.34655391779E+03  0.35900950637E+03  0.00000000000E+00 0.  1.
          4    1    6    6  502    0  0.44052191179E+02 -0.31328197043E+03 -0.42036257489E+03  0.52610919296E+03  0.00000000000E+00 0. -1.
          3    1    5    5  503    0 -0.38203168441E+02  0.29623366135E+03 -0.27307891597E+03  0.40470477949E+03  0.00000000000E+00 0. -1.
         -4    1    5    5    0  503  0.46745369532E+01  0.42971636103E+02 -0.63638581090E+01  0.43691091714E+02  0.00000000000E+00 0.  1.
         -3    1    6    6    0  502  0.10529493810E+03 -0.23501851330E+03 -0.36126612795E+03  0.44365971283E+03  0.00000000000E+00 0.  1.
<mgrwt>
<rscale>  0 0.24932750E+04</rscale>
<asrwt>0</asrwt>
<pdfrwt beam="1">  1        1 0.19050276E+00 0.24932750E+04</pdfrwt>
<pdfrwt beam="2">  1       -1 0.19308670E+00 0.24932750E+04</pdfrwt>
<totfact> 0.14975774E+00</totfact>
</mgrwt>
</event>
<event>
12    1  0.1541840E-007  0.3186605E+04  0.7818608E-02  0.8192364E-01
          1   -1    0    0  501    0  0.00000000000E+00  0.00000000000E+00  0.11402304735E+04  0.11402304735E+04  0.00000000000E+00 0. -1.
         -1   -1    0    0    0  501 -0.00000000000E+00 -0.00000000000E+00 -0.22264029783E+04  0.22264029783E+04  0.00000000000E+00 0.  1.
         23    2    1    2    0    0  0.13432124114E+04 -0.17863326583E+03 -0.10819463804E+04  0.17363720073E+04  0.90831447450E+02 0.  0.
        254    2    1    2    0    0 -0.13432124114E+04  0.17863326583E+03 -0.42261244683E+01  0.16302614445E+04  0.90642434392E+03 0.  0.
        -24    2    4    4    0    0 -0.26206153528E+03  0.27810249420E+03  0.30883869681E+03  0.49752336701E+03  0.78300156545E+02 0.  0.
         24    2    4    4    0    0 -0.10811508762E+04 -0.99469228367E+02 -0.31306482128E+03  0.11327380775E+04  0.79401671094E+02 0.  0.
         11    1    3    3    0    0  0.27417885271E+03 -0.67797208140E+02 -0.20020134280E+03  0.34619515069E+03  0.00000000000E+00 0. -1.
        -11    1    3    3    0    0  0.10690335587E+04 -0.11083605769E+03 -0.88174503761E+03  0.13901768566E+04  0.00000000000E+00 0.  1.
          2    1    6    6  502    0 -0.18088137950E+03 -0.36277552716E+02 -0.76867170477E+02  0.19985668910E+03  0.00000000000E+00 0. -1.
          3    1    5    5  503    0 -0.22883631535E+03  0.19534116380E+03  0.23690841658E+03  0.38294885736E+03  0.00000000000E+00 0. -1.
         -4    1    5    5    0  503 -0.33225219923E+02  0.82761330394E+02  0.71930280232E+02  0.11457450965E+03  0.00000000000E+00 0.  1.
         -1    1    6    6    0  502 -0.90026949667E+03 -0.63191675652E+02 -0.23619765081E+03  0.93288138836E+03  0.00000000000E+00 0.  1.
<mgrwt>
<rscale>  0 0.31866048E+04</rscale>
<asrwt>0</asrwt>
<pdfrwt beam="1">  1        1 0.17542007E+00 0.31866048E+04</pdfrwt>
<pdfrwt beam="2">  1       -1 0.34252353E+00 0.31866048E+04</pdfrwt>
<totfact> 0.17246215E-01</totfact>
</mgrwt>
</event>
<event>
12    1  0.1541840E-007  0.2167516E+04  0.7818608E-02  0.8532072E-01
          2   -1    0    0  501    0  0.00000000000E+00  0.00000000000E+00  0.77707782076E+03  0.77707782076E+03  0.00000000000E+00 0. -1.
         -2   -1    0    0    0  501 -0.00000000000E+00 -0.00000000000E+00 -0.15114722772E+04  0.15114722772E+04  0.00000000000E+00 0.  1.
         23    2    1    2    0    0  0.19165587327E+03  0.88641987639E+03 -0.31710767157E+03  0.96767267905E+03  0.11558965093E+03 0.  0.
        254    2    1    2    0    0 -0.19165587327E+03 -0.88641987639E+03 -0.41728678484E+03  0.13208774189E+04  0.86493741038E+03 0.  0.
        -24    2    4    4    0    0  0.26018724931E+03 -0.26706585096E+03  0.97981652342E+02  0.39360571634E+03  0.79394472659E+02 0.  0.
         24    2    4    4    0    0 -0.45184312258E+03 -0.61935402543E+03 -0.51526843718E+03  0.92727170253E+03  0.81053264750E+02 0.  0.
         11    1    3    3    0    0  0.77211777756E+02  0.47219843316E+03 -0.22234503212E+03  0.52760812371E+03  0.00000000000E+00 0. -1.
        -11    1    3    3    0    0  0.11444409551E+03  0.41422144323E+03 -0.94762639448E+02  0.44006455534E+03  0.00000000000E+00 0.  1.
          4    1    6    6  502    0 -0.11741571442E+03 -0.12181200810E+03 -0.84886112092E+02  0.18928884630E+03  0.00000000000E+00 0. -1.
          1    1    5    5  503    0  0.15753450684E+03 -0.19201018356E+03  0.96439826426E+02  0.26643136369E+03  0.00000000000E+00 0. -1.
         -2    1    5    5    0  503  0.10265274247E+03 -0.75055667399E+02  0.15418259166E+01  0.12717435265E+03  0.00000000000E+00 0.  1.
         -3    1    6    6    0  502 -0.33442740816E+03 -0.49754201733E+03 -0.43038232509E+03  0.73798285623E+03  0.00000000000E+00 0.  1.
<mgrwt>
<rscale>  0 0.21675162E+04</rscale>
<asrwt>0</asrwt>
<pdfrwt beam="1">  1        2 0.11955043E+00 0.21675162E+04</pdfrwt>
<pdfrwt beam="2">  1       -2 0.23253420E+00 0.21675162E+04</pdfrwt>
<totfact> 0.27036972E+00</totfact>
</mgrwt>
</event>
<event>
12    1  0.1541840E-007  0.1402901E+04  0.7818608E-02  0.8951721E-01
         -2   -1    0    0    0  501 -0.00000000000E+00  0.00000000000E+00  0.17109331666E+03  0.17109331666E+03  0.00000000000E+00 0.  1.
          2   -1    0    0  501    0  0.00000000000E+00 -0.00000000000E+00 -0.28758163414E+04  0.28758163414E+04  0.00000000000E+00 0. -1.
         23    2    1    2    0    0  0.70102017400E+02  0.39300341859E+03 -0.95955684660E+03  0.10433703603E+04  0.92230076738E+02 0.  0.
        254    2    1    2    0    0 -0.70102017400E+02 -0.39300341859E+03 -0.17451661781E+04  0.20035392977E+04  0.89955475011E+03 0.  0.
        -24    2    4    4    0    0  0.27956218968E+03 -0.33514209887E+03 -0.35911709458E+03  0.57067459868E+03  0.78925063359E+02 0.  0.
         24    2    4    4    0    0 -0.34966420708E+03 -0.57861319721E+02 -0.13860490836E+04  0.14328646991E+04  0.79725741031E+02 0.  0.
         11    1    3    3    0    0  0.84546158464E+02  0.25170611233E+03 -0.57258119648E+03  0.63115231637E+03  0.00000000000E+00 0. -1.
        -11    1    3    3    0    0 -0.14444141064E+02  0.14129730627E+03 -0.38697565012E+03  0.41221804394E+03  0.00000000000E+00 0.  1.
          4    1    6    6  502    0 -0.33918359216E+03 -0.42269049230E+02 -0.13444569801E+04  0.13872262804E+04  0.00000000000E+00 0. -1.
          3    1    5    5  503    0  0.20078875765E+03 -0.26491511547E+03 -0.30899779901E+03  0.45384555015E+03  0.00000000000E+00 0. -1.
         -4    1    5    5    0  503  0.78773432026E+02 -0.70226983403E+02 -0.50119295574E+02  0.11682904853E+03  0.00000000000E+00 0.  1.
         -3    1    6    6    0  502 -0.10480614917E+02 -0.15592270491E+02 -0.41592103460E+02  0.45638418666E+02  0.00000000000E+00 0.  1.
<mgrwt>
<rscale>  0 0.14029012E+04</rscale>
<asrwt>0</asrwt>
<pdfrwt beam="1">  1        2 0.44243324E+00 0.14029012E+04</pdfrwt>
<pdfrwt beam="2">  1       -2 0.26322051E-01 0.14029012E+04</pdfrwt>
<totfact> 0.26620928E+01</totfact>
</mgrwt>
</event>
<event>
12    1  0.1541840E-007  0.2014561E+04  0.7818608E-02  0.8599843E-01
         -2   -1    0    0    0  501 -0.00000000000E+00  0.00000000000E+00  0.10913162702E+04  0.10913162702E+04  0.00000000000E+00 0.  1.
          2   -1    0    0  501    0  0.00000000000E+00 -0.00000000000E+00 -0.92971548479E+03  0.92971548479E+03  0.00000000000E+00 0. -1.
         23    2    1    2    0    0  0.35860934666E+03 -0.65949581905E+03 -0.21069528235E+03  0.78508535744E+03  0.91821117455E+02 0.  0.
        254    2    1    2    0    0 -0.35860934666E+03  0.65949581905E+03  0.37229606777E+03  0.12359463976E+04  0.90852833566E+03 0.  0.
        -24    2    4    4    0    0  0.24660574049E+03  0.44402822674E+03  0.26838203789E+03  0.57992380345E+03  0.79418147517E+02 0.  0.
         24    2    4    4    0    0 -0.60521508715E+03  0.21546759231E+03  0.10391402988E+03  0.65602259411E+03  0.82800563542E+02 0.  0.
         11    1    3    3    0    0  0.33645585077E+03 -0.59709123624E+03 -0.21615629643E+03  0.71864040270E+03  0.00000000000E+00 0. -1.
        -11    1    3    3    0    0  0.22153495896E+02 -0.62404582806E+02  0.54610140770E+01  0.66444954739E+02  0.00000000000E+00 0.  1.
          4    1    6    6  502    0 -0.57616997371E+03  0.22284865971E+03  0.99755407825E+02  0.62576713331E+03  0.00000000000E+00 0. -1.
          1    1    5    5  503    0  0.20487893881E+03  0.40111622612E+03  0.21243926157E+03  0.49799603038E+03  0.00000000000E+00 0. -1.
         -2    1    5    5    0  503  0.41726801679E+02  0.42912000622E+02  0.55942776326E+02  0.81927773062E+02  0.00000000000E+00 0.  1.
         -3    1    6    6    0  502 -0.29045113443E+02 -0.73810673991E+01  0.41586220507E+01  0.30255460800E+02  0.00000000000E+00 0.  1.
<mgrwt>
<rscale>  0 0.20145606E+04</rscale>
<asrwt>0</asrwt>
<pdfrwt beam="1">  1        2 0.14303315E+00 0.20145606E+04</pdfrwt>
<pdfrwt beam="2">  1       -2 0.16789481E+00 0.20145606E+04</pdfrwt>
<totfact> 0.57322872E+00</totfact>
</mgrwt>
</event>
<event>
12    1  0.1541840E-007  0.2983283E+04  0.7818608E-02  0.8248521E-01
          1   -1    0    0  501    0  0.00000000000E+00  0.00000000000E+00  0.18163865217E+04  0.18163865217E+04  0.00000000000E+00 0. -1.
         -1   -1    0    0    0  501 -0.00000000000E+00 -0.00000000000E+00 -0.12249566095E+04  0.12249566095E+04  0.00000000000E+00 0.  1.
         23    2    1    2    0    0  0.96946905980E+02 -0.29282477818E+03 -0.10769022441E+04  0.11239235031E+04  0.91326580143E+02 0.  0.
        254    2    1    2    0    0 -0.96946905980E+02  0.29282477818E+03  0.16683321563E+04  0.19174196281E+04  0.89332009546E+03 0.  0.
        -24    2    4    4    0    0  0.15600775975E+03 -0.13798455954E+03  0.12238124366E+04  0.12440008080E+04  0.80268117249E+02 0.  0.
         24    2    4    4    0    0 -0.25295466573E+03  0.43080933772E+03  0.44451971979E+03  0.67341882009E+03  0.79450472503E+02 0.  0.
         11    1    3    3    0    0  0.13145558295E+02 -0.12992323234E+03 -0.57476791578E+03  0.58941582013E+03  0.00000000000E+00 0.  1.
        -11    1    3    3    0    0  0.83801347685E+02 -0.16290154584E+03 -0.50213432831E+03  0.53450768299E+03  0.00000000000E+00 0. -1.
          4    1    6    6  502    0 -0.23388504614E+03  0.34170647263E+03  0.37717162410E+03  0.56011066967E+03  0.00000000000E+00 0. -1.
          1    1    5    5  503    0  0.15456299911E+03 -0.97617514009E+02  0.10055936794E+04  0.10220751185E+04  0.00000000000E+00 0. -1.
         -2    1    5    5    0  503  0.14447606382E+01 -0.40367045533E+02  0.21821875714E+03  0.22192568951E+03  0.00000000000E+00 0.  1.
         -3    1    6    6    0  502 -0.19069619585E+02  0.89102865088E+02  0.67348095691E+02  0.11330815042E+03  0.00000000000E+00 0.  1.
<mgrwt>
<rscale>  0 0.29832832E+04</rscale>
<asrwt>0</asrwt>
<pdfrwt beam="1">  1        1 0.27944408E+00 0.29832832E+04</pdfrwt>
<pdfrwt beam="2">  1       -1 0.18845486E+00 0.29832832E+04</pdfrwt>
<totfact> 0.61318114E-01</totfact>
</mgrwt>
</event>
<event>
12    1  0.1541840E-007  0.2372361E+04  0.7818608E-02  0.8449924E-01
          1   -1    0    0  501    0  0.00000000000E+00  0.00000000000E+00  0.85276729139E+03  0.85276729139E+03  0.00000000000E+00 0. -1.
         -1   -1    0    0    0  501 -0.00000000000E+00 -0.00000000000E+00 -0.16499512483E+04  0.16499512483E+04  0.00000000000E+00 0.  1.
         23    2    1    2    0    0 -0.11957258880E+03  0.49152087789E+03  0.62059038692E+03  0.80527548550E+03  0.86289059584E+02 0.  0.
        254    2    1    2    0    0  0.11957258880E+03 -0.49152087789E+03 -0.14177743439E+04  0.16974430542E+04  0.78443511829E+03 0.  0.
        -24    2    4    4    0    0  0.11038040702E+03  0.15686264438E+03 -0.68367990168E+03  0.71461015312E+03  0.80372504810E+02 0.  0.
         24    2    4    4    0    0  0.91921817756E+01 -0.64838352227E+03 -0.73409444218E+03  0.98283290109E+03  0.81118267209E+02 0.  0.
         11    1    3    3    0    0 -0.10614709953E+03  0.42645677664E+03  0.57901093541E+03  0.72690181759E+03  0.00000000000E+00 0. -1.
        -11    1    3    3    0    0 -0.13425489269E+02  0.65064101253E+02  0.41579451509E+02  0.78373667911E+02  0.00000000000E+00 0.  1.
          2    1    6    6  502    0  0.61352425128E+01 -0.50242641556E+03 -0.61682082427E+03  0.79557392712E+03  0.00000000000E+00 0. -1.
          3    1    5    5  503    0  0.95193845647E+02  0.73203085954E+02 -0.34054344262E+03  0.36109610405E+03  0.00000000000E+00 0. -1.
         -4    1    5    5    0  503  0.15186561376E+02  0.83659558425E+02 -0.34313645905E+03  0.35351404907E+03  0.00000000000E+00 0.  1.
         -1    1    6    6    0  502  0.30569392628E+01 -0.14595710672E+03 -0.11727361790E+03  0.18725897398E+03  0.00000000000E+00 0.  1.
<mgrwt>
<rscale>  0 0.23723612E+04</rscale>
<asrwt>0</asrwt>
<pdfrwt beam="1">  1        1 0.13119497E+00 0.23723612E+04</pdfrwt>
<pdfrwt beam="2">  1       -1 0.25383865E+00 0.23723612E+04</pdfrwt>
<totfact> 0.11775172E+00</totfact>
</mgrwt>
</event>
<event>
12    1  0.1541840E-007  0.1516014E+04  0.7818608E-02  0.8873873E-01
          3   -1    0    0  501    0  0.00000000000E+00  0.00000000000E+00  0.81387136711E+03  0.81387136711E+03  0.00000000000E+00 0. -1.
         -3   -1    0    0    0  501 -0.00000000000E+00 -0.00000000000E+00 -0.70597694425E+03  0.70597694425E+03  0.00000000000E+00 0.  1.
         23    2    1    2    0    0  0.34049660136E+03  0.20426562987E+03  0.30198048587E+03  0.50700678237E+03  0.90560921170E+02 0.  0.
        254    2    1    2    0    0 -0.34049660136E+03 -0.20426562987E+03 -0.19408606301E+03  0.10128415290E+04  0.91132660441E+03 0.  0.
        -24    2    4    4    0    0  0.11981831283E+03 -0.14197292922E+03 -0.43772924524E+03  0.48241288123E+03  0.81256108182E+02 0.  0.
         24    2    4    4    0    0 -0.46031491419E+03 -0.62292700656E+02  0.24364318224E+03  0.53042864776E+03  0.78881869475E+02 0.  0.
         13    1    3    3    0    0  0.33510438718E+03  0.20549723871E+03  0.27567424077E+03  0.48012535077E+03  0.00000000000E+00 0. -1.
        -13    1    3    3    0    0  0.53922141758E+01 -0.12316088366E+01  0.26306245094E+02  0.26881431602E+02  0.00000000000E+00 0.  1.
          4    1    6    6  502    0 -0.43360527889E+03 -0.64374198663E+02  0.20631773878E+03  0.48448383324E+03  0.00000000000E+00 0. -1.
          1    1    5    5  503    0  0.93280363450E+02 -0.47643913520E+02 -0.23061631471E+03  0.25328847844E+03  0.00000000000E+00 0. -1.
         -2    1    5    5    0  503  0.26537949380E+02 -0.94329015698E+02 -0.20711293054E+03  0.22912440279E+03  0.00000000000E+00 0.  1.
         -3    1    6    6    0  502 -0.26709635297E+02  0.20814980074E+01  0.37325443460E+02  0.45944814519E+02  0.00000000000E+00 0.  1.
<mgrwt>
<rscale>  0 0.15160137E+04</rscale>
<asrwt>0</asrwt>
<pdfrwt beam="1">  1        3 0.12521098E+00 0.15160137E+04</pdfrwt>
<pdfrwt beam="2">  1       -3 0.10861184E+00 0.15160137E+04</pdfrwt>
<totfact> 0.92724043E-01</totfact>
</mgrwt>
</event>
<event>
12    1  0.1541840E-007  0.4067470E+04  0.7818608E-02  0.7991072E-01
         -2   -1    0    0    0  501 -0.00000000000E+00  0.00000000000E+00  0.32402552464E+04  0.32402552464E+04  0.00000000000E+00 0.  1.
          2   -1    0    0  501    0  0.00000000000E+00 -0.00000000000E+00 -0.12764668401E+04  0.12764668401E+04  0.00000000000E+00 0. -1.
         23    2    1    2    0    0 -0.29772790721E+03  0.90384286446E+03  0.27972876504E+04  0.29562165883E+04  0.93938743990E+02 0.  0.
        254    2    1    2    0    0  0.29772790721E+03 -0.90384286446E+03 -0.83349924410E+03  0.15605054983E+04  0.91371909786E+03 0.  0.
        -24    2    4    4    0    0  0.55002343825E+03 -0.38863773472E+03 -0.21137839214E+03  0.71044148632E+03  0.80505958405E+02 0.  0.
         24    2    4    4    0    0 -0.25229553105E+03 -0.51520512974E+03 -0.62212085196E+03  0.85006401194E+03  0.80530176054E+02 0.  0.
         13    1    3    3    0    0 -0.25519799218E+03  0.84755897850E+03  0.26157040508E+04  0.27614108566E+04  0.00000000000E+00 0.  1.
        -13    1    3    3    0    0 -0.42529915023E+02  0.56283885960E+02  0.18158359955E+03  0.19480573174E+03  0.00000000000E+00 0. -1.
          2    1    6    6  502    0 -0.21147882433E+03 -0.37082520886E+03 -0.49278113889E+03  0.65197229965E+03  0.00000000000E+00 0. -1.
          1    1    5    5  503    0  0.50219623682E+03 -0.37973166609E+03 -0.19750794011E+03  0.65985345715E+03  0.00000000000E+00 0. -1.
         -2    1    5    5    0  503  0.47827201430E+02 -0.89060686310E+01 -0.13870452035E+02  0.50588029164E+02  0.00000000000E+00 0.  1.
         -1    1    6    6    0  502 -0.40816706716E+02 -0.14437992088E+03 -0.12933971307E+03  0.19809171229E+03  0.00000000000E+00 0.  1.
<mgrwt>
<rscale>  0 0.40674702E+04</rscale>
<asrwt>0</asrwt>
<pdfrwt beam="1">  1        2 0.19637952E+00 0.40674702E+04</pdfrwt>
<pdfrwt beam="2">  1       -2 0.49850080E+00 0.40674702E+04</pdfrwt>
<totfact> 0.22598433E-02</totfact>
</mgrwt>
</event>
<event>
12    1  0.1541840E-007  0.1712572E+04  0.7818608E-02  0.8754226E-01
         -2   -1    0    0    0  501 -0.00000000000E+00  0.00000000000E+00  0.56532443828E+03  0.56532443828E+03  0.00000000000E+00 0.  1.
          2   -1    0    0  501    0  0.00000000000E+00 -0.00000000000E+00 -0.12970002507E+04  0.12970002507E+04  0.00000000000E+00 0. -1.
         23    2    1    2    0    0  0.22635395974E+03 -0.88631777221E+02 -0.88094505306E+03  0.91898351350E+03  0.96823574385E+02 0.  0.
        254    2    1    2    0    0 -0.22635395974E+03  0.88631777221E+02  0.14926924068E+03  0.94334117543E+03  0.89917715720E+03 0.  0.
        -24    2    4    4    0    0 -0.20936966504E+03  0.48101924372E+03  0.82749170047E+02  0.53690005554E+03  0.78734204991E+02 0.  0.
         24    2    4    4    0    0 -0.16984294700E+02 -0.39238746650E+03  0.66520070636E+02  0.40644111989E+03  0.80703618298E+02 0.  0.
         11    1    3    3    0    0  0.73831394108E+02 -0.73400494351E+02 -0.44025485024E+03  0.45239699434E+03  0.00000000000E+00 0. -1.
        -11    1    3    3    0    0  0.15252256563E+03 -0.15231282870E+02 -0.44069020282E+03  0.46658651916E+03  0.00000000000E+00 0.  1.
          2    1    6    6  502    0  0.25976171464E+02 -0.20452392617E+03  0.13705471532E+02  0.20662196836E+03  0.00000000000E+00 0. -1.
          3    1    5    5  503    0 -0.20094727617E+03  0.38680515301E+03  0.69083872856E+02  0.44132824030E+03  0.00000000000E+00 0. -1.
         -4    1    5    5    0  503 -0.84223888643E+01  0.94214090706E+02  0.13665297191E+02  0.95571815244E+02  0.00000000000E+00 0.  1.
         -1    1    6    6    0  502 -0.42960466164E+02 -0.18786354033E+03  0.52814599104E+02  0.19981915153E+03  0.00000000000E+00 0.  1.
<mgrwt>
<rscale>  0 0.17125723E+04</rscale>
<asrwt>0</asrwt>
<pdfrwt beam="1">  1        2 0.19953850E+00 0.17125723E+04</pdfrwt>
<pdfrwt beam="2">  1       -2 0.86972991E-01 0.17125723E+04</pdfrwt>
<totfact> 0.18042354E+01</totfact>
</mgrwt>
</event>
<event>
12    1  0.1541840E-007  0.1773026E+04  0.7818608E-02  0.8720777E-01
         -2   -1    0    0    0  501 -0.00000000000E+00  0.00000000000E+00  0.43481146003E+03  0.43481146003E+03  0.00000000000E+00 0.  1.
          2   -1    0    0  501    0  0.00000000000E+00 -0.00000000000E+00 -0.18074620162E+04  0.18074620162E+04  0.00000000000E+00 0. -1.
         23    2    1    2    0    0 -0.25446423238E+03  0.55560118182E+03 -0.44358493091E+03  0.76081428098E+03  0.92876586970E+02 0.  0.
        254    2    1    2    0    0  0.25446423238E+03 -0.55560118182E+03 -0.92906562529E+03  0.14814591953E+04  0.97883282148E+03 0.  0.
        -24    2    4    4    0    0 -0.89761544936E+02 -0.71791206890E+03 -0.77630046626E+03  0.10642716292E+04  0.81097552854E+02 0.  0.
         24    2    4    4    0    0  0.34422577731E+03  0.16231088708E+03 -0.15276515903E+03  0.41718756614E+03  0.76629378777E+02 0.  0.
         11    1    3    3    0    0 -0.10793023989E+03  0.24885033557E+03 -0.25381610623E+03  0.37148087701E+03  0.00000000000E+00 0.  1.
        -11    1    3    3    0    0 -0.14653399249E+03  0.30675084625E+03 -0.18976882468E+03  0.38933340397E+03  0.00000000000E+00 0. -1.
          4    1    6    6  502    0  0.24721597860E+03  0.85028775231E+02 -0.80037771765E+02  0.27340753026E+03  0.00000000000E+00 0. -1.
          3    1    5    5  503    0 -0.56730637117E+02 -0.38807102598E+03 -0.47817852747E+03  0.61844336081E+03  0.00000000000E+00 0. -1.
         -4    1    5    5    0  503 -0.33030907819E+02 -0.32984104293E+03 -0.29812193879E+03  0.44582826835E+03  0.00000000000E+00 0.  1.
         -3    1    6    6    0  502  0.97009798714E+02  0.77282111854E+02 -0.72727387263E+02  0.14378003588E+03  0.00000000000E+00 0.  1.
<mgrwt>
<rscale>  0 0.17730259E+04</rscale>
<asrwt>0</asrwt>
<pdfrwt beam="1">  1        2 0.27807108E+00 0.17730259E+04</pdfrwt>
<pdfrwt beam="2">  1       -2 0.66894071E-01 0.17730259E+04</pdfrwt>
<totfact> 0.16590120E+01</totfact>
</mgrwt>
</event>
<event>
12    1  0.1541840E-007  0.1115433E+04  0.7818608E-02  0.9190279E-01
          2   -1    0    0  501    0  0.00000000000E+00  0.00000000000E+00  0.11932469550E+04  0.11932469550E+04  0.00000000000E+00 0. -1.
         -2   -1    0    0    0  501 -0.00000000000E+00 -0.00000000000E+00 -0.26067337206E+03  0.26067337206E+03  0.00000000000E+00 0.  1.
         23    2    1    2    0    0 -0.48322393169E+02  0.16151108375E+03  0.41233108730E+02  0.19306901771E+03  0.84584824209E+02 0.  0.
        254    2    1    2    0    0  0.48322393169E+02 -0.16151108375E+03  0.89134047420E+03  0.12608513093E+04  0.87569246855E+03 0.  0.
        -24    2    4    4    0    0  0.53953578640E+02 -0.14471744246E+03 -0.14161394962E+03  0.22446189865E+03  0.80464317676E+02 0.  0.
         24    2    4    4    0    0 -0.56311854712E+01 -0.16793641293E+02  0.10329544238E+04  0.10363894107E+04  0.82428346175E+02 0.  0.
         11    1    3    3    0    0 -0.19443817378E+01  0.33195640855E+02  0.45746153698E+02  0.56554767883E+02  0.00000000000E+00 0. -1.
        -11    1    3    3    0    0 -0.46378011431E+02  0.12831544290E+03 -0.45130449676E+01  0.13651424983E+03  0.00000000000E+00 0.  1.
          4    1    6    6  502    0 -0.13736475918E+02  0.22672055181E+02  0.13767230014E+03  0.14020119501E+03  0.00000000000E+00 0. -1.
          1    1    5    5  503    0 -0.90368341898E+01  0.23924782440E+01 -0.24308214447E+02  0.26043763436E+02  0.00000000000E+00 0. -1.
         -2    1    5    5    0  503  0.62990412830E+02 -0.14710992070E+03 -0.11730573518E+03  0.19841813522E+03  0.00000000000E+00 0.  1.
         -3    1    6    6    0  502  0.81052904467E+01 -0.39465696474E+02  0.89528212369E+03  0.89618821568E+03  0.00000000000E+00 0.  1.
<mgrwt>
<rscale>  0 0.11154330E+04</rscale>
<asrwt>0</asrwt>
<pdfrwt beam="1">  1        2 0.18357645E+00 0.11154330E+04</pdfrwt>
<pdfrwt beam="2">  1       -2 0.40103596E-01 0.11154330E+04</pdfrwt>
<totfact> 0.11150716E+02</totfact>
</mgrwt>
</event>
<event>
12    1  0.1541840E-007  0.4498572E+04  0.7818608E-02  0.7910887E-01
          2   -1    0    0  501    0  0.00000000000E+00  0.00000000000E+00  0.26813965602E+04  0.26813965602E+04  0.00000000000E+00 0. -1.
         -2   -1    0    0    0  501 -0.00000000000E+00 -0.00000000000E+00 -0.18868110282E+04  0.18868110282E+04  0.00000000000E+00 0.  1.
         23    2    1    2    0    0  0.61458725983E+03 -0.15596148253E+04  0.17566689650E+04  0.24298540616E+04  0.90493120798E+02 0.  0.
        254    2    1    2    0    0 -0.61458725983E+03  0.15596148253E+04 -0.96208343297E+03  0.21383535268E+04  0.91478706285E+03 0.  0.
        -24    2    4    4    0    0  0.31141068404E+02 -0.97311471862E+02 -0.75435946432E+02  0.14961845339E+03  0.79093684225E+02 0.  0.
         24    2    4    4    0    0 -0.64572832824E+03  0.16569262972E+04 -0.88664748654E+03  0.19887350734E+04  0.80954300159E+02 0.  0.
         11    1    3    3    0    0  0.10116676293E+03 -0.35434353740E+03  0.40167325987E+03  0.54510133380E+03  0.00000000000E+00 0.  1.
        -11    1    3    3    0    0  0.51342049691E+03 -0.12052712879E+04  0.13549957051E+04  0.18847527278E+04  0.00000000000E+00 0. -1.
          2    1    6    6  502    0 -0.62881819087E+03  0.16383560475E+04 -0.87106088802E+03  0.19591758283E+04  0.00000000000E+00 0. -1.
          3    1    5    5  503    0  0.14374521784E+02 -0.10293773871E+03 -0.80224223168E+02  0.13129634767E+03  0.00000000000E+00 0. -1.
         -4    1    5    5    0  503  0.16766546619E+02  0.56262668478E+01  0.47882767366E+01  0.18322105728E+02  0.00000000000E+00 0.  1.
         -1    1    6    6    0  502 -0.16910137371E+02  0.18570249667E+02 -0.15586598517E+02  0.29559245118E+02  0.00000000000E+00 0.  1.
<mgrwt>
<rscale>  0 0.44985725E+04</rscale>
<asrwt>0</asrwt>
<pdfrwt beam="1">  1        2 0.41252255E+00 0.44985725E+04</pdfrwt>
<pdfrwt beam="2">  1       -2 0.29027862E+00 0.44985725E+04</pdfrwt>
<totfact> 0.75230055E-02</totfact>
</mgrwt>
</event>
<event>
12    1  0.1541840E-007  0.2039535E+04  0.7818608E-02  0.8588357E-01
          2   -1    0    0  501    0  0.00000000000E+00  0.00000000000E+00  0.29911739691E+04  0.29911739691E+04  0.00000000000E+00 0.  1.
         -2   -1    0    0    0  501 -0.00000000000E+00 -0.00000000000E+00 -0.34766467034E+03  0.34766467034E+03  0.00000000000E+00 0. -1.
         23    2    1    2    0    0 -0.49443045965E+03  0.26758481257E+03  0.94769204691E+02  0.57787615670E+03  0.94321466104E+02 0.  0.
        254    2    1    2    0    0  0.49443045965E+03 -0.26758481257E+03  0.25487400941E+04  0.27609624828E+04  0.90043025975E+03 0.  0.
        -24    2    4    4    0    0  0.57230037991E+03 -0.47140561891E+03  0.13706492761E+04  0.15604189789E+04  0.80479619347E+02 0.  0.
         24    2    4    4    0    0 -0.77869920260E+02  0.20382080634E+03  0.11780908180E+04  0.12005435039E+04  0.76158281006E+02 0.  0.
         11    1    3    3    0    0 -0.43747490943E+03  0.22861188845E+03  0.51187249138E+02  0.49625379232E+03  0.00000000000E+00 0. -1.
        -11    1    3    3    0    0 -0.56955550224E+02  0.38972924127E+02  0.43581955554E+02  0.81622364375E+02  0.00000000000E+00 0.  1.
          4    1    6    6  502    0 -0.28830612547E+02  0.15102947646E+03  0.91196547263E+03  0.92483627213E+03  0.00000000000E+00 0. -1.
          3    1    5    5  503    0  0.30930954286E+03 -0.22992234792E+03  0.63733398106E+03  0.74480284827E+03  0.00000000000E+00 0. -1.
         -2    1    5    5    0  503  0.26299083706E+03 -0.24148327099E+03  0.73331529507E+03  0.81561613062E+03  0.00000000000E+00 0.  1.
         -3    1    6    6    0  502 -0.49039307712E+02  0.52791329876E+02  0.26612534535E+03  0.27570723177E+03  0.00000000000E+00 0.  1.
<mgrwt>
<rscale>  0 0.20395348E+04</rscale>
<asrwt>0</asrwt>
<pdfrwt beam="1">  1        2 0.46018059E+00 0.20395348E+04</pdfrwt>
<pdfrwt beam="2">  1       -2 0.53486874E-01 0.20395348E+04</pdfrwt>
<totfact> 0.53914632E+00</totfact>
</mgrwt>
</event>
<event>
12    1  0.1541840E-007  0.1278030E+04  0.7818608E-02  0.9047171E-01
         -1   -1    0    0    0  501 -0.00000000000E+00  0.00000000000E+00  0.18446489132E+03  0.18446489132E+03  0.00000000000E+00 0.  1.
          1   -1    0    0  501    0  0.00000000000E+00 -0.00000000000E+00 -0.22136477647E+04  0.22136477647E+04  0.00000000000E+00 0. -1.
         23    2    1    2    0    0  0.25013630632E+03  0.16778957106E+03 -0.34397759938E+03  0.46732764352E+03  0.96711041941E+02 0.  0.
        254    2    1    2    0    0 -0.25013630632E+03 -0.16778957106E+03 -0.16852052740E+04  0.19307850125E+04  0.89291233448E+03 0.  0.
        -24    2    4    4    0    0 -0.24138059304E+03  0.32083916800E+03 -0.50062814577E+03  0.64679062657E+03  0.80667291101E+02 0.  0.
         24    2    4    4    0    0 -0.87557132816E+01 -0.48862873906E+03 -0.11845771282E+04  0.12839943859E+04  0.81141254774E+02 0.  0.
         11    1    3    3    0    0  0.23198576090E+03  0.14714205908E+03 -0.25729195159E+03  0.37638720377E+03  0.00000000000E+00 0.  1.
        -11    1    3    3    0    0  0.18150545420E+02  0.20647511975E+02 -0.86685647786E+02  0.90940439750E+02  0.00000000000E+00 0. -1.
          2    1    6    6  502    0  0.21043154668E+02 -0.63250646540E+02 -0.12153433154E+03  0.13861476253E+03  0.00000000000E+00 0. -1.
          1    1    5    5  503    0 -0.39386325052E+02  0.47588487993E+02 -0.37125008447E+02  0.72070889010E+02  0.00000000000E+00 0. -1.
         -2    1    5    5    0  503 -0.20199426799E+03  0.27325068001E+03 -0.46350313732E+03  0.57471973756E+03  0.00000000000E+00 0.  1.
         -1    1    6    6    0  502 -0.29798867949E+02 -0.42537809252E+03 -0.10630427967E+04  0.11453796234E+04  0.00000000000E+00 0.  1.
<mgrwt>
<rscale>  0 0.12780302E+04</rscale>
<asrwt>0</asrwt>
<pdfrwt beam="1">  1        1 0.34056121E+00 0.12780302E+04</pdfrwt>
<pdfrwt beam="2">  1       -1 0.28379213E-01 0.12780302E+04</pdfrwt>
<totfact> 0.23663281E+01</totfact>
</mgrwt>
</event>
<event>
12    1  0.1541840E-007  0.2131012E+04  0.7818608E-02  0.8547704E-01
          1   -1    0    0  501    0  0.00000000000E+00  0.00000000000E+00  0.91598796231E+03  0.91598796231E+03  0.00000000000E+00 0. -1.
         -1   -1    0    0    0  501 -0.00000000000E+00 -0.00000000000E+00 -0.12394299130E+04  0.12394299130E+04  0.00000000000E+00 0.  1.
         23    2    1    2    0    0 -0.19240560890E+03 -0.73266739843E+03  0.30957336513E+03  0.82323981365E+03  0.89814738859E+02 0.  0.
        254    2    1    2    0    0  0.19240560890E+03  0.73266739843E+03 -0.63301531577E+03  0.13321780616E+04  0.89452141550E+03 0.  0.
        -24    2    4    4    0    0 -0.70454643740E+02  0.77237188688E+03 -0.69897805437E+03  0.10472020827E+04  0.80868368897E+02 0.  0.
         24    2    4    4    0    0  0.26286025264E+03 -0.39704488443E+02  0.65962738596E+02  0.28497597890E+03  0.78665537874E+02 0.  0.
         11    1    3    3    0    0 -0.18340931153E+03 -0.73099576784E+03  0.30535212098E+03  0.81316277949E+03  0.00000000000E+00 0. -1.
        -11    1    3    3    0    0 -0.89962973744E+01 -0.16716305885E+01  0.42212441473E+01  0.10077034158E+02  0.00000000000E+00 0.  1.
          2    1    6    6  502    0  0.18172547861E+03 -0.46243753641E+02  0.77237326285E+02  0.20280098347E+03  0.00000000000E+00 0. -1.
          1    1    5    5  503    0 -0.56778789539E+02  0.65744459166E+03 -0.55341664016E+03  0.86123585600E+03  0.00000000000E+00 0. -1.
         -2    1    5    5    0  503 -0.13675854200E+02  0.11492729522E+03 -0.14556141420E+03  0.18596622672E+03  0.00000000000E+00 0.  1.
         -1    1    6    6    0  502  0.81134774032E+02  0.65392651979E+01 -0.11274587689E+02  0.82174995431E+02  0.00000000000E+00 0.  1.
<mgrwt>
<rscale>  0 0.21310119E+04</rscale>
<asrwt>0</asrwt>
<pdfrwt beam="1">  1        1 0.14092123E+00 0.21310119E+04</pdfrwt>
<pdfrwt beam="2">  1       -1 0.19068152E+00 0.21310119E+04</pdfrwt>
<totfact> 0.28301696E+00</totfact>
</mgrwt>
</event>
<event>
12    1  0.1541840E-007  0.1672483E+04  0.7818608E-02  0.8777216E-01
          1   -1    0    0  501    0  0.00000000000E+00  0.00000000000E+00  0.15667624695E+04  0.15667624695E+04  0.00000000000E+00 0. -1.
         -1   -1    0    0    0  501 -0.00000000000E+00 -0.00000000000E+00 -0.44633429399E+03  0.44633429399E+03  0.00000000000E+00 0.  1.
         23    2    1    2    0    0  0.33303193999E+03  0.21644331029E+03  0.10010362345E+04  0.10808932297E+04  0.92188131462E+02 0.  0.
        254    2    1    2    0    0 -0.33303193999E+03 -0.21644331029E+03  0.11939194102E+03  0.93220353381E+03  0.83485987642E+03 0.  0.
        -24    2    4    4    0    0 -0.58539378870E+03 -0.26873238242E+03  0.13142144121E+03  0.66222007025E+03  0.79754905953E+02 0.  0.
         24    2    4    4    0    0  0.25236184871E+03  0.52289072127E+02 -0.12029500191E+02  0.26998346356E+03  0.79534344596E+02 0.  0.
         13    1    3    3    0    0  0.16706231579E+03  0.13880358486E+03  0.64301316112E+03  0.67870625303E+03  0.00000000000E+00 0. -1.
        -13    1    3    3    0    0  0.16596962420E+03  0.77639725431E+02  0.35802307335E+03  0.40218697663E+03  0.00000000000E+00 0.  1.
          4    1    6    6  502    0  0.14601561672E+03  0.19398179012E+02  0.31202020673E+02  0.15056698101E+03  0.00000000000E+00 0. -1.
          1    1    5    5  503    0 -0.35341814102E+03 -0.18331843826E+03  0.46500704594E+02  0.40083955361E+03  0.00000000000E+00 0. -1.
         -2    1    5    5    0  503 -0.23197564768E+03 -0.85413944161E+02  0.84920736619E+02  0.26138051665E+03  0.00000000000E+00 0.  1.
         -3    1    6    6    0  502  0.10634623199E+03  0.32890893115E+02 -0.43231520864E+02  0.11941648255E+03  0.00000000000E+00 0.  1.
<mgrwt>
<rscale>  0 0.16724830E+04</rscale>
<asrwt>0</asrwt>
<pdfrwt beam="1">  1        1 0.24104038E+00 0.16724830E+04</pdfrwt>
<pdfrwt beam="2">  1       -1 0.68666815E-01 0.16724830E+04</pdfrwt>
<totfact> 0.12040543E+01</totfact>
</mgrwt>
</event>
<event>
12    1  0.1541840E-007  0.1615378E+04  0.7818608E-02  0.8811156E-01
          1   -1    0    0  501    0  0.00000000000E+00  0.00000000000E+00  0.35629448257E+03  0.35629448257E+03  0.00000000000E+00 0. -1.
         -1   -1    0    0    0  501 -0.00000000000E+00 -0.00000000000E+00 -0.18309607161E+04  0.18309607161E+04  0.00000000000E+00 0.  1.
         23    2    1    2    0    0 -0.24754460371E+03  0.18565383503E+03 -0.11286982569E+04  0.11738937975E+04  0.91220696617E+02 0.  0.
        254    2    1    2    0    0  0.24754460371E+03 -0.18565383503E+03 -0.34596797666E+03  0.10133614012E+04  0.90081175124E+03 0.  0.
        -24    2    4    4    0    0 -0.59537877201E+02  0.22210166943E+03  0.15945091475E+03  0.29079515856E+03  0.79141137493E+02 0.  0.
         24    2    4    4    0    0  0.30708248091E+03 -0.40775550446E+03 -0.50541889141E+03  0.72256624259E+03  0.78035361413E+02 0.  0.
         13    1    3    3    0    0 -0.11557484740E+03  0.76921649430E+02 -0.34763150865E+03  0.37432893464E+03  0.00000000000E+00 0. -1.
        -13    1    3    3    0    0 -0.13196975631E+03  0.10873218560E+03 -0.78106674824E+03  0.79956486289E+03  0.00000000000E+00 0.  1.
          4    1    6    6  502    0  0.13484129824E+03 -0.13782502868E+03 -0.23069339290E+03  0.30066153025E+03  0.00000000000E+00 0. -1.
          3    1    5    5  503    0 -0.40426037781E+02  0.21257825345E+03  0.16050310372E+03  0.26941608095E+03  0.00000000000E+00 0. -1.
         -4    1    5    5    0  503 -0.19111839420E+02  0.95234159767E+01 -0.10521889691E+01  0.21379077611E+02  0.00000000000E+00 0.  1.
         -3    1    6    6    0  502  0.17224118267E+03 -0.26993047579E+03 -0.27472549851E+03  0.42190471235E+03  0.00000000000E+00 0.  1.
<mgrwt>
<rscale>  0 0.16153776E+04</rscale>
<asrwt>0</asrwt>
<pdfrwt beam="1">  1        1 0.54814535E-01 0.16153776E+04</pdfrwt>
<pdfrwt beam="2">  1       -1 0.28168627E+00 0.16153776E+04</pdfrwt>
<totfact> 0.29132689E+00</totfact>
</mgrwt>
</event>
<event>
12    1  0.1541840E-007  0.1685586E+04  0.7818608E-02  0.8769628E-01
         -2   -1    0    0    0  501 -0.00000000000E+00  0.00000000000E+00  0.76612908156E+03  0.76612908156E+03  0.00000000000E+00 0.  1.
          2   -1    0    0  501    0  0.00000000000E+00 -0.00000000000E+00 -0.92712813649E+03  0.92712813649E+03  0.00000000000E+00 0. -1.
         23    2    1    2    0    0  0.19394838521E+03  0.21214173475E+03  0.46435084006E+03  0.55344508155E+03  0.89775630739E+02 0.  0.
        254    2    1    2    0    0 -0.19394838521E+03 -0.21214173475E+03 -0.62534989499E+03  0.11398121365E+04  0.90856432002E+03 0.  0.
        -24    2    4    4    0    0 -0.36451790433E+03 -0.16824915038E+03  0.72503139249E+02  0.41571863492E+03  0.79901182976E+02 0.  0.
         24    2    4    4    0    0  0.17056951912E+03 -0.43892584376E+02 -0.69785303424E+03  0.72409350159E+03  0.79322265602E+02 0.  0.
         13    1    3    3    0    0  0.19210851385E+03  0.16431161372E+03  0.40128750731E+03  0.47427381439E+03  0.00000000000E+00 0.  1.
        -13    1    3    3    0    0  0.18398713541E+01  0.47830121036E+02  0.63063332759E+02  0.79171267160E+02  0.00000000000E+00 0. -1.
          4    1    6    6  502    0  0.31842879621E+01  0.11486887070E+02 -0.16864276864E+02  0.20651685125E+02  0.00000000000E+00 0. -1.
          3    1    5    5  503    0 -0.80795975835E+02 -0.39446371446E+02 -0.17053199425E+02  0.91514029208E+02  0.00000000000E+00 0. -1.
         -4    1    5    5    0  503 -0.28372192849E+03 -0.12880277893E+03  0.89556338674E+02  0.32420460571E+03  0.00000000000E+00 0.  1.
         -3    1    6    6    0  502  0.16738523116E+03 -0.55379471447E+02 -0.68098875738E+03  0.70344181646E+03  0.00000000000E+00 0.  1.
<mgrwt>
<rscale>  0 0.16855857E+04</rscale>
<asrwt>0</asrwt>
<pdfrwt beam="1">  1        2 0.14263510E+00 0.16855857E+04</pdfrwt>
<pdfrwt beam="2">  1       -2 0.11786601E+00 0.16855857E+04</pdfrwt>
<totfact> 0.14868977E+01</totfact>
</mgrwt>
</event>
<event>
12    1  0.1541840E-007  0.1697681E+04  0.7818608E-02  0.8762688E-01
         -2   -1    0    0    0  501 -0.00000000000E+00  0.00000000000E+00  0.39753334596E+03  0.39753334596E+03  0.00000000000E+00 0.  1.
          2   -1    0    0  501    0  0.00000000000E+00 -0.00000000000E+00 -0.18125030408E+04  0.18125030408E+04  0.00000000000E+00 0. -1.
         23    2    1    2    0    0 -0.51271299672E+03  0.44357764387E+01 -0.88078896575E+03  0.10232876022E+04  0.91836929418E+02 0.  0.
        254    2    1    2    0    0  0.51271299672E+03 -0.44357764387E+01 -0.53418072911E+03  0.11867487845E+04  0.92743157868E+03 0.  0.
        -24    2    4    4    0    0  0.12725551038E+03 -0.29623172729E+03  0.13323381906E+03  0.35863322808E+03  0.83182573690E+02 0.  0.
         24    2    4    4    0    0  0.38545748635E+03  0.29179595085E+03 -0.66741454817E+03  0.82811555646E+03  0.81307103224E+02 0.  0.
         11    1    3    3    0    0 -0.33099422834E+03  0.45610209618E+02 -0.54497353740E+03  0.63924457517E+03  0.00000000000E+00 0. -1.
        -11    1    3    3    0    0 -0.18171876838E+03 -0.41174433179E+02 -0.33581542835E+03  0.38404302707E+03  0.00000000000E+00 0.  1.
          4    1    6    6  502    0  0.31819646396E+03  0.22578749311E+03 -0.58351880616E+03  0.70194243273E+03  0.00000000000E+00 0. -1.
          1    1    5    5  503    0  0.13770958763E+03 -0.27915756622E+03  0.13328821735E+03  0.33861279685E+03  0.00000000000E+00 0. -1.
         -2    1    5    5    0  503 -0.10454077255E+02 -0.17074161070E+02 -0.54398290715E-01  0.20020431232E+02  0.00000000000E+00 0.  1.
         -1    1    6    6    0  502  0.67261022387E+02  0.66008457739E+02 -0.83895742007E+02  0.12617312373E+03  0.00000000000E+00 0.  1.
<mgrwt>
<rscale>  0 0.16976812E+04</rscale>
<asrwt>0</asrwt>
<pdfrwt beam="1">  1        2 0.27884663E+00 0.16976812E+04</pdfrwt>
<pdfrwt beam="2">  1       -2 0.61158975E-01 0.16976812E+04</pdfrwt>
<totfact> 0.20097802E+01</totfact>
</mgrwt>
</event>
<event>
12    1  0.1541840E-007  0.1969380E+04  0.7818608E-02  0.8621072E-01
         -2   -1    0    0    0  501 -0.00000000000E+00  0.00000000000E+00  0.30690578454E+03  0.30690578454E+03  0.00000000000E+00 0.  1.
          2   -1    0    0  501    0  0.00000000000E+00 -0.00000000000E+00 -0.31593220042E+04  0.31593220042E+04  0.00000000000E+00 0. -1.
         23    2    1    2    0    0  0.36854211208E+03  0.25531485203E+03 -0.18125147611E+02  0.45805395448E+03  0.92064880340E+02 0.  0.
        254    2    1    2    0    0 -0.36854211208E+03 -0.25531485203E+03 -0.28342910720E+04  0.30081738342E+04  0.90271533386E+03 0.  0.
        -24    2    4    4    0    0 -0.65787264832E+02 -0.35248923470E+03 -0.25431575102E+04  0.25695062924E+04  0.78331604586E+02 0.  0.
         24    2    4    4    0    0 -0.30275484725E+03  0.97174382665E+02 -0.29113356182E+03  0.43866754182E+03  0.81037665629E+02 0.  0.
         13    1    3    3    0    0  0.56843382975E+02  0.67868262987E+02 -0.31827507206E+02  0.94075828584E+02  0.00000000000E+00 0. -1.
        -13    1    3    3    0    0  0.31169872910E+03  0.18744658905E+03  0.13702359594E+02  0.36397812589E+03  0.00000000000E+00 0.  1.
          2    1    6    6  502    0 -0.56858259623E+02  0.22340920272E+02 -0.10441963705E+03  0.12097701851E+03  0.00000000000E+00 0. -1.
          3    1    5    5  503    0 -0.31463614338E+02 -0.83405784795E+02 -0.44103460205E+03  0.44995333555E+03  0.00000000000E+00 0. -1.
         -4    1    5    5    0  503 -0.34323650493E+02 -0.26908344990E+03 -0.21021229081E+04  0.21195529569E+04  0.00000000000E+00 0.  1.
         -1    1    6    6    0  502 -0.24589658762E+03  0.74833462393E+02 -0.18671392478E+03  0.31769052332E+03  0.00000000000E+00 0.  1.
<mgrwt>
<rscale>  0 0.19693798E+04</rscale>
<asrwt>0</asrwt>
<pdfrwt beam="1">  1        2 0.48604956E+00 0.19693798E+04</pdfrwt>
<pdfrwt beam="2">  1       -2 0.47216273E-01 0.19693798E+04</pdfrwt>
<totfact> 0.54763444E+00</totfact>
</mgrwt>
</event>
<event>
12    1  0.1541840E-007  0.3585302E+04  0.7818608E-02  0.8093867E-01
          2   -1    0    0  501    0  0.00000000000E+00  0.00000000000E+00  0.11182463520E+04  0.11182463520E+04  0.00000000000E+00 0. -1.
         -2   -1    0    0    0  501 -0.00000000000E+00 -0.00000000000E+00 -0.28737834696E+04  0.28737834696E+04  0.00000000000E+00 0.  1.
         23    2    1    2    0    0  0.88124346122E+03  0.13501327627E+04 -0.38599145498E+03  0.16604826605E+04  0.93620230669E+02 0.  0.
        254    2    1    2    0    0 -0.88124346122E+03 -0.13501327627E+04 -0.13695456626E+04  0.23315471611E+04  0.98031032212E+03 0.  0.
        -24    2    4    4    0    0 -0.81041016097E+03 -0.12550760009E+04 -0.70796612424E+03  0.16550840612E+04  0.78146142166E+02 0.  0.
         24    2    4    4    0    0 -0.70833300250E+02 -0.95056761882E+02 -0.66157953833E+03  0.67646309994E+03  0.76561711294E+02 0.  0.
         11    1    3    3    0    0  0.79710136246E+01  0.33085301840E+02 -0.12155318153E+01  0.34053660210E+02  0.00000000000E+00 0. -1.
        -11    1    3    3    0    0  0.87327244760E+03  0.13170474609E+04 -0.38477592316E+03  0.16264290003E+04  0.00000000000E+00 0.  1.
          4    1    6    6  502    0 -0.60758445412E+02 -0.70421531332E+02 -0.30438188959E+03  0.31827521970E+03  0.00000000000E+00 0. -1.
          1    1    5    5  503    0 -0.11605729170E+03 -0.18971022359E+03 -0.13625901351E+03  0.26081752751E+03  0.00000000000E+00 0. -1.
         -2    1    5    5    0  503 -0.69435286927E+03 -0.10653657773E+04 -0.57170711072E+03  0.13942665337E+04  0.00000000000E+00 0.  1.
         -3    1    6    6    0  502 -0.10074854838E+02 -0.24635230550E+02 -0.35719764875E+03  0.35818788024E+03  0.00000000000E+00 0.  1.
<mgrwt>
<rscale>  0 0.35853022E+04</rscale>
<asrwt>0</asrwt>
<pdfrwt beam="1">  1        2 0.17203790E+00 0.35853022E+04</pdfrwt>
<pdfrwt beam="2">  1       -2 0.44212052E+00 0.35853022E+04</pdfrwt>
<totfact> 0.67733972E-02</totfact>
</mgrwt>
</event>
<event>
12    1  0.1541840E-007  0.2512906E+04  0.7818608E-02  0.8398402E-01
         -2   -1    0    0    0  501 -0.00000000000E+00  0.00000000000E+00  0.57478346900E+03  0.57478346900E+03  0.00000000000E+00 0.  1.
          2   -1    0    0  501    0  0.00000000000E+00 -0.00000000000E+00 -0.27465553093E+04  0.27465553093E+04  0.00000000000E+00 0. -1.
         23    2    1    2    0    0  0.19802314261E+03  0.18168469886E+03 -0.23421860474E+04  0.23593438763E+04  0.91899681212E+02 0.  0.
        254    2    1    2    0    0 -0.19802314261E+03 -0.18168469886E+03  0.17041420707E+03  0.96199490198E+03  0.90783847388E+03 0.  0.
        -24    2    4    4    0    0 -0.86855175174E+02  0.35043903546E+03  0.18281529369E+03  0.41228645681E+03  0.78786749110E+02 0.  0.
         24    2    4    4    0    0 -0.11116796744E+03 -0.53212373432E+03 -0.12401086612E+02  0.54970844517E+03  0.80694498789E+02 0.  0.
         11    1    3    3    0    0 -0.62501263777E+01  0.14075303042E+02 -0.61372041839E+02  0.63274842987E+02  0.00000000000E+00 0.  1.
        -11    1    3    3    0    0  0.20427326899E+03  0.16760939582E+03 -0.22808140055E+04  0.22960690333E+04  0.00000000000E+00 0. -1.
          2    1    6    6  502    0 -0.76278766303E+02 -0.46661316444E+03 -0.28848187480E+02  0.47368609156E+03  0.00000000000E+00 0. -1.
          1    1    5    5  503    0 -0.41615366668E+02  0.27495746802E+03  0.16208426524E+03  0.32187692834E+03  0.00000000000E+00 0. -1.
         -2    1    5    5    0  503 -0.45239808506E+02  0.75481567443E+02  0.20731028446E+02  0.90409528468E+02  0.00000000000E+00 0.  1.
         -1    1    6    6    0  502 -0.34889201135E+02 -0.65510569880E+02  0.16447100867E+02  0.76022353612E+02  0.00000000000E+00 0.  1.
<mgrwt>
<rscale>  0 0.25129064E+04</rscale>
<asrwt>0</asrwt>
<pdfrwt beam="1">  1        2 0.42254697E+00 0.25129064E+04</pdfrwt>
<pdfrwt beam="2">  1       -2 0.88428226E-01 0.25129064E+04</pdfrwt>
<totfact> 0.24418896E+00</totfact>
</mgrwt>
</event>
<event>
12    1  0.1541840E-007  0.1724013E+04  0.7818608E-02  0.8747786E-01
         -1   -1    0    0    0  501 -0.00000000000E+00  0.00000000000E+00  0.12933788631E+04  0.12933788631E+04  0.00000000000E+00 0.  1.
          1   -1    0    0  501    0  0.00000000000E+00 -0.00000000000E+00 -0.57450702473E+03  0.57450702473E+03  0.00000000000E+00 0. -1.
         23    2    1    2    0    0 -0.54636371235E+03 -0.31780436844E+03  0.27090165039E+03  0.69410423727E+03  0.94234098073E+02 0.  0.
        254    2    1    2    0    0  0.54636371235E+03  0.31780436844E+03  0.44797018799E+03  0.11737816506E+04  0.88180108364E+03 0.  0.
        -24    2    4    4    0    0  0.82033510255E+02  0.74152116275E+01 -0.25067165018E+03  0.27585509274E+03  0.80469086093E+02 0.  0.
         24    2    4    4    0    0  0.46433020210E+03  0.31038915682E+03  0.69864183817E+03  0.89792655783E+03  0.78915904345E+02 0.  0.
         13    1    3    3    0    0 -0.19029145369E+03 -0.13620232459E+03  0.57402423076E+02  0.24095009596E+03  0.00000000000E+00 0. -1.
        -13    1    3    3    0    0 -0.35607225867E+03 -0.18160204386E+03  0.21349922731E+03  0.45315414131E+03  0.00000000000E+00 0.  1.
          2    1    6    6  502    0  0.28430014985E+03  0.16681479902E+03  0.46403597737E+03  0.56919516923E+03  0.00000000000E+00 0. -1.
          3    1    5    5  503    0  0.49617494042E+02  0.27465469895E+02 -0.64784509709E+02  0.86100409115E+02  0.00000000000E+00 0. -1.
         -4    1    5    5    0  503  0.32416016213E+02 -0.20050258268E+02 -0.18588714047E+03  0.18975468362E+03  0.00000000000E+00 0.  1.
         -1    1    6    6    0  502  0.18003005225E+03  0.14357435780E+03  0.23460586080E+03  0.32873138860E+03  0.00000000000E+00 0.  1.
<mgrwt>
<rscale>  0 0.17240130E+04</rscale>
<asrwt>0</asrwt>
<pdfrwt beam="1">  1        1 0.88385696E-01 0.17240130E+04</pdfrwt>
<pdfrwt beam="2">  1       -1 0.19898136E+00 0.17240130E+04</pdfrwt>
<totfact> 0.52951869E+00</totfact>
</mgrwt>
</event>
<event>
12    1  0.2158804E-007  0.1634897E+04  0.7818608E-02  0.8799392E-01
         -2   -1    0    0    0  501 -0.00000000000E+00  0.00000000000E+00  0.39318421343E+03  0.39318421343E+03  0.00000000000E+00 0.  1.
          2   -1    0    0  501    0  0.00000000000E+00 -0.00000000000E+00 -0.16995136499E+04  0.16995136499E+04  0.00000000000E+00 0. -1.
         23    2    1    2    0    0  0.44523774263E+03  0.11491463648E+03 -0.85847754959E+03  0.97800707122E+03  0.89844905673E+02 0.  0.
        254    2    1    2    0    0 -0.44523774263E+03 -0.11491463648E+03 -0.44785188687E+03  0.11146907921E+04  0.91132992285E+03 0.  0.
        -24    2    4    4    0    0 -0.37972246607E+03 -0.49531354577E+02  0.21104190734E+03  0.44478660920E+03  0.81571654087E+02 0.  0.
         24    2    4    4    0    0 -0.65515276557E+02 -0.65383281901E+02 -0.65889379421E+03  0.66990418289E+03  0.77867561913E+02 0.  0.
         11    1    3    3    0    0  0.88188276641E+01  0.19986141446E+02 -0.36984823785E+02  0.42954566249E+02  0.00000000000E+00 0.  1.
        -11    1    3    3    0    0  0.43641891496E+03  0.94928495032E+02 -0.82149272580E+03  0.93505250497E+03  0.00000000000E+00 0. -1.
          2    1    6    6  502    0 -0.80852747993E+01  0.17623420647E+02 -0.83276510576E+02  0.85503998957E+02  0.00000000000E+00 0. -1.
          3    1    5    5  503    0 -0.79152310230E+02  0.19331365073E+02  0.27795718560E+02  0.86089441052E+02  0.00000000000E+00 0. -1.
         -4    1    5    5    0  503 -0.30057015584E+03 -0.68862719650E+02  0.18324618878E+03  0.35869716815E+03  0.00000000000E+00 0.  1.
         -1    1    6    6    0  502 -0.57430001758E+02 -0.83006702548E+02 -0.57561728363E+03  0.58440018394E+03  0.00000000000E+00 0.  1.
<mgrwt>
<rscale>  0 0.16348969E+04</rscale>
<asrwt>0</asrwt>
<pdfrwt beam="1">  1        2 0.26146364E+00 0.16348969E+04</pdfrwt>
<pdfrwt beam="2">  1       -2 0.60489879E-01 0.16348969E+04</pdfrwt>
<totfact> 0.23888348E+01</totfact>
</mgrwt>
</event>
<event>
12    1  0.1541840E-007  0.1719913E+04  0.7818608E-02  0.8750088E-01
         -2   -1    0    0    0  501 -0.00000000000E+00  0.00000000000E+00  0.57913466121E+03  0.57913466121E+03  0.00000000000E+00 0.  1.
          2   -1    0    0  501    0  0.00000000000E+00 -0.00000000000E+00 -0.12769483374E+04  0.12769483374E+04  0.00000000000E+00 0. -1.
         23    2    1    2    0    0  0.13768297893E+03  0.60342372776E+03 -0.25941573223E+03  0.67724145882E+03  0.91009194596E+02 0.  0.
        254    2    1    2    0    0 -0.13768297893E+03 -0.60342372776E+03 -0.43839794397E+03  0.11788415398E+04  0.90243992641E+03 0.  0.
        -24    2    4    4    0    0 -0.29863644871E+03 -0.49052105383E+02  0.15279132386E+03  0.34885278535E+03  0.82238918149E+02 0.  0.
         24    2    4    4    0    0  0.16095346978E+03 -0.55437162238E+03 -0.59118926783E+03  0.82998875445E+03  0.78375168166E+02 0.  0.
         13    1    3    3    0    0  0.10819209305E+03  0.57302952052E+03 -0.23904054369E+03  0.63024498563E+03  0.00000000000E+00 0.  1.
        -13    1    3    3    0    0  0.29490885880E+02  0.30394207237E+02 -0.20375188544E+02  0.46996473184E+02  0.00000000000E+00 0. -1.
          4    1    6    6  502    0  0.12312352670E+03 -0.49181182157E+03 -0.54025382522E+03  0.74088627085E+03  0.00000000000E+00 0. -1.
          3    1    5    5  503    0 -0.14199845267E+03  0.15026301893E+02  0.87430408687E+02  0.16743185680E+03  0.00000000000E+00 0. -1.
         -4    1    5    5    0  503 -0.15663799604E+03 -0.64078407276E+02  0.65360915177E+02  0.18142092855E+03  0.00000000000E+00 0.  1.
         -3    1    6    6    0  502  0.37829943080E+02 -0.62559800812E+02 -0.50935442606E+02  0.89102483605E+02  0.00000000000E+00 0.  1.
<mgrwt>
<rscale>  0 0.17199128E+04</rscale>
<asrwt>0</asrwt>
<pdfrwt beam="1">  1        2 0.19645359E+00 0.17199128E+04</pdfrwt>
<pdfrwt beam="2">  1       -2 0.89097642E-01 0.17199128E+04</pdfrwt>
<totfact> 0.17526987E+01</totfact>
</mgrwt>
</event>
<event>
12    1  0.1541840E-007  0.1444888E+04  0.7818608E-02  0.8921953E-01
          4   -1    0    0  501    0  0.00000000000E+00  0.00000000000E+00  0.51039642516E+03  0.51039642516E+03  0.00000000000E+00 0. -1.
         -4   -1    0    0    0  501 -0.00000000000E+00 -0.00000000000E+00 -0.10225874422E+04  0.10225874422E+04  0.00000000000E+00 0.  1.
         23    2    1    2    0    0 -0.74196246895E+01 -0.31402155365E+03  0.17211292973E+03  0.36851704108E+03  0.86702721978E+02 0.  0.
        254    2    1    2    0    0  0.74196246895E+01  0.31402155365E+03 -0.68430394675E+03  0.11644668262E+04  0.88828290027E+03 0.  0.
        -24    2    4    4    0    0 -0.20522215079E+03 -0.42044505031E+02 -0.70672891517E+03  0.74149651424E+03  0.80420454600E+02 0.  0.
         24    2    4    4    0    0  0.21264177548E+03  0.35606605869E+03  0.22424968427E+02  0.42297031201E+03  0.80009017007E+02 0.  0.
         13    1    3    3    0    0  0.37324027576E+01 -0.31214454919E+03  0.15639237848E+03  0.34915143773E+03  0.00000000000E+00 0. -1.
        -13    1    3    3    0    0 -0.11152027447E+02 -0.18770044674E+01  0.15720551246E+02  0.19365603358E+02  0.00000000000E+00 0.  1.
          2    1    6    6  502    0  0.18996911994E+03  0.28235554485E+03 -0.71157648736E+01  0.34038735927E+03  0.00000000000E+00 0. -1.
          1    1    5    5  503    0 -0.76972888885E+02 -0.54039942963E+02 -0.25625265810E+03  0.27296623572E+03  0.00000000000E+00 0. -1.
         -2    1    5    5    0  503 -0.12824926190E+03  0.11995437932E+02 -0.45047625707E+03  0.46853027853E+03  0.00000000000E+00 0.  1.
         -1    1    6    6    0  502  0.22672655535E+02  0.73710513834E+02  0.29540733301E+02  0.82582952737E+02  0.00000000000E+00 0.  1.
<mgrwt>
<rscale>  0 0.14448875E+04</rscale>
<asrwt>0</asrwt>
<pdfrwt beam="1">  1        4 0.78522528E-01 0.14448875E+04</pdfrwt>
<pdfrwt beam="2">  1       -4 0.15732114E+00 0.14448875E+04</pdfrwt>
<totfact> 0.73541946E-01</totfact>
</mgrwt>
</event>
<event>
12    1  0.1541840E-007  0.1908174E+04  0.7818608E-02  0.8650798E-01
         -2   -1    0    0    0  501 -0.00000000000E+00  0.00000000000E+00  0.93587598062E+03  0.93587598062E+03  0.00000000000E+00 0.  1.
          2   -1    0    0  501    0  0.00000000000E+00 -0.00000000000E+00 -0.97265239020E+03  0.97265239020E+03  0.00000000000E+00 0. -1.
         23    2    1    2    0    0  0.46740787995E+03  0.38455672720E+02 -0.58162680536E+03  0.75224471385E+03  0.87369352729E+02 0.  0.
        254    2    1    2    0    0 -0.46740787995E+03 -0.38455672720E+02  0.54485039578E+03  0.11562836570E+04  0.90563843591E+03 0.  0.
        -24    2    4    4    0    0 -0.80141576776E+02 -0.22697321257E+03 -0.17892278718E+03  0.31025439404E+03  0.79403486669E+02 0.  0.
         24    2    4    4    0    0 -0.38726630318E+03  0.18851753985E+03  0.72377318296E+03  0.84602926294E+03  0.80024002452E+02 0.  0.
         13    1    3    3    0    0  0.13205042650E+03 -0.67320264205E+01 -0.22240196352E+03  0.25873783777E+03  0.00000000000E+00 0.  1.
        -13    1    3    3    0    0  0.33535745345E+03  0.45187699141E+02 -0.35922484184E+03  0.49350687608E+03  0.00000000000E+00 0. -1.
          2    1    6    6  502    0 -0.33987605102E+03  0.14688752401E+03  0.56860989659E+03  0.67853436852E+03  0.00000000000E+00 0. -1.
          1    1    5    5  503    0 -0.28257269357E+01 -0.12110804506E+03 -0.10122827609E+03  0.15786800560E+03  0.00000000000E+00 0. -1.
         -2    1    5    5    0  503 -0.77315849840E+02 -0.10586516751E+03 -0.77694511082E+02  0.15238638844E+03  0.00000000000E+00 0.  1.
         -1    1    6    6    0  502 -0.47390252161E+02  0.41630015846E+02  0.15516328637E+03  0.16749489442E+03  0.00000000000E+00 0.  1.
<mgrwt>
<rscale>  0 0.19081740E+04</rscale>
<asrwt>0</asrwt>
<pdfrwt beam="1">  1        2 0.14963883E+00 0.19081740E+04</pdfrwt>
<pdfrwt beam="2">  1       -2 0.14398092E+00 0.19081740E+04</pdfrwt>
<totfact> 0.81961422E+00</totfact>
</mgrwt>
</event>
<event>
12    1  0.1541840E-007  0.1634959E+04  0.7818608E-02  0.8799354E-01
          1   -1    0    0  501    0  0.00000000000E+00  0.00000000000E+00  0.50457289087E+03  0.50457289087E+03  0.00000000000E+00 0. -1.
         -1   -1    0    0    0  501 -0.00000000000E+00 -0.00000000000E+00 -0.13244332137E+04  0.13244332137E+04  0.00000000000E+00 0.  1.
         23    2    1    2    0    0  0.41201562037E+02 -0.18321440960E+03 -0.87423605346E+03  0.90110959547E+03  0.11155598278E+03 0.  0.
        254    2    1    2    0    0 -0.41201562037E+02  0.18321440960E+03  0.54375730625E+02  0.92789650909E+03  0.90706676871E+03 0.  0.
        -24    2    4    4    0    0  0.25369017379E+03  0.11555428961E+03  0.37852648106E+03  0.47664483181E+03  0.78717855042E+02 0.  0.
         24    2    4    4    0    0 -0.29489173583E+03  0.67660119993E+02 -0.32415075043E+03  0.45125167729E+03  0.83757623840E+02 0.  0.
         13    1    3    3    0    0  0.27439714821E+02 -0.12726502028E+03 -0.34500884773E+03  0.36875524180E+03  0.00000000000E+00 0. -1.
        -13    1    3    3    0    0  0.13761847215E+02 -0.55949389318E+02 -0.52922720572E+03  0.53235435368E+03  0.00000000000E+00 0.  1.
          2    1    6    6  502    0 -0.42878610381E+02 -0.17080209746E+02 -0.31623328128E+02  0.55949474306E+02  0.00000000000E+00 0. -1.
          1    1    5    5  503    0  0.67344723801E+02  0.40649043334E+02  0.16899568853E+03  0.18640600658E+03  0.00000000000E+00 0. -1.
         -2    1    5    5    0  503  0.18634544999E+03  0.74905246274E+02  0.20953079252E+03  0.29023882522E+03  0.00000000000E+00 0.  1.
         -1    1    6    6    0  502 -0.25201312545E+03  0.84740329739E+02 -0.29252742230E+03  0.39530220298E+03  0.00000000000E+00 0.  1.
<mgrwt>
<rscale>  0 0.16349594E+04</rscale>
<asrwt>0</asrwt>
<pdfrwt beam="1">  1        1 0.77626600E-01 0.16349594E+04</pdfrwt>
<pdfrwt beam="2">  1       -1 0.20375895E+00 0.16349594E+04</pdfrwt>
<totfact> 0.59369036E+00</totfact>
</mgrwt>
</event>
<event>
12    1  0.1541840E-007  0.3862017E+04  0.7818608E-02  0.8032976E-01
         -2   -1    0    0    0  501 -0.00000000000E+00  0.00000000000E+00  0.13327694262E+04  0.13327694262E+04  0.00000000000E+00 0. -1.
          2   -1    0    0  501    0  0.00000000000E+00 -0.00000000000E+00 -0.27977783364E+04  0.27977783364E+04  0.00000000000E+00 0.  1.
         23    2    1    2    0    0  0.18007619203E+04  0.32291606097E+03 -0.68438631553E+03  0.19554310754E+04  0.91147055921E+02 0.  0.
        254    2    1    2    0    0 -0.18007619203E+04 -0.32291606097E+03 -0.78062259464E+03  0.21751166871E+04  0.88019468938E+03 0.  0.
        -24    2    4    4    0    0 -0.16798953398E+04 -0.37982936595E+03 -0.41021048316E+03  0.17723969481E+04  0.82459694954E+02 0.  0.
         24    2    4    4    0    0 -0.12086658053E+03  0.56913304981E+02 -0.37041211147E+03  0.40271973901E+03  0.84440519230E+02 0.  0.
         11    1    3    3    0    0  0.16984189894E+04  0.32393827128E+03 -0.65506918057E+03  0.18489669273E+04  0.00000000000E+00 0. -1.
        -11    1    3    3    0    0  0.10234293095E+03 -0.10222103024E+01 -0.29317134966E+02  0.10646414811E+03  0.00000000000E+00 0.  1.
          2    1    6    6  502    0 -0.70229007096E+02  0.27151396148E+02 -0.30777600304E+03  0.31685229966E+03  0.00000000000E+00 0. -1.
          3    1    5    5  503    0 -0.11937380118E+04 -0.25800818784E+03 -0.32728735899E+03  0.12643953816E+04  0.00000000000E+00 0. -1.
         -4    1    5    5    0  503 -0.48615732801E+03 -0.12182117811E+03 -0.82923124176E+02  0.50800156647E+03  0.00000000000E+00 0.  1.
         -1    1    6    6    0  502 -0.50637573437E+02  0.29761908834E+02 -0.62636108427E+02  0.85867439346E+02  0.00000000000E+00 0.  1.
<mgrwt>
<rscale>  0 0.38620168E+04</rscale>
<asrwt>0</asrwt>
<pdfrwt beam="1">  1        2 0.43042744E+00 0.38620168E+04</pdfrwt>
<pdfrwt beam="2">  1       -2 0.20504145E+00 0.38620168E+04</pdfrwt>
<totfact> 0.22805905E-01</totfact>
</mgrwt>
</event>
<event>
12    1  0.1919259E-007  0.2215796E+04  0.7818608E-02  0.8511882E-01
         -2   -1    0    0    0  501 -0.00000000000E+00  0.00000000000E+00  0.89204293932E+03  0.89204293932E+03  0.00000000000E+00 0.  1.
          2   -1    0    0  501    0  0.00000000000E+00 -0.00000000000E+00 -0.13759856427E+04  0.13759856427E+04  0.00000000000E+00 0. -1.
         23    2    1    2    0    0 -0.91145368237E+03 -0.86584017742E+02 -0.12959943271E+03  0.92952218562E+03  0.94714694561E+02 0.  0.
        254    2    1    2    0    0  0.91145368237E+03  0.86584017742E+02 -0.35434327062E+03  0.13385063964E+04  0.90983273870E+03 0.  0.
        -24    2    4    4    0    0  0.27383261080E+03  0.14195360234E+02 -0.58573787922E+03  0.65168778576E+03  0.80139253611E+02 0.  0.
         24    2    4    4    0    0  0.63762107157E+03  0.72388657508E+02  0.23139460860E+03  0.68681861059E+03  0.79847293767E+02 0.  0.
         13    1    3    3    0    0 -0.25794116170E+02  0.13001373029E+02  0.15262068766E+00  0.28885903529E+02  0.00000000000E+00 0. -1.
        -13    1    3    3    0    0 -0.88565956620E+03 -0.99585390771E+02 -0.12975205340E+03  0.90063628209E+03  0.00000000000E+00 0.  1.
          2    1    6    6  502    0  0.56987985725E+03  0.82552911540E+02  0.22422818547E+03  0.61794523549E+03  0.00000000000E+00 0. -1.
          1    1    5    5  503    0  0.21737225644E+03 -0.18024572408E+02 -0.48508514439E+03  0.53186763427E+03  0.00000000000E+00 0. -1.
         -4    1    5    5    0  503  0.56460354363E+02  0.32219932642E+02 -0.10065273483E+03  0.11982015149E+03  0.00000000000E+00 0.  1.
         -1    1    6    6    0  502  0.67741214320E+02 -0.10164254033E+02  0.71664231214E+01  0.68873375102E+02  0.00000000000E+00 0.  1.
<mgrwt>
<rscale>  0 0.22157963E+04</rscale>
<asrwt>0</asrwt>
<pdfrwt beam="1">  1        2 0.21169010E+00 0.22157963E+04</pdfrwt>
<pdfrwt beam="2">  1       -2 0.13723738E+00 0.22157963E+04</pdfrwt>
<totfact> 0.51581351E+00</totfact>
</mgrwt>
</event>
<event>
12    1  0.1541840E-007  0.1322470E+04  0.7818608E-02  0.9011934E-01
          4   -1    0    0  501    0  0.00000000000E+00  0.00000000000E+00  0.13658359858E+04  0.13658359858E+04  0.00000000000E+00 0. -1.
         -4   -1    0    0    0  501 -0.00000000000E+00 -0.00000000000E+00 -0.32012021245E+03  0.32012021245E+03  0.00000000000E+00 0.  1.
         23    2    1    2    0    0  0.11422125417E+03  0.29223382059E+03  0.48905730773E+03  0.58420961212E+03  0.60635961677E+02 0.  0.
        254    2    1    2    0    0 -0.11422125417E+03 -0.29223382059E+03  0.55665846565E+03  0.11017465862E+04  0.89751311519E+03 0.  0.
        -24    2    4    4    0    0 -0.53636539284E+02  0.38871872674E+01 -0.23136372545E+03  0.25342751713E+03  0.88342200614E+02 0.  0.
         24    2    4    4    0    0 -0.60584714890E+02 -0.29612100786E+03  0.78802219110E+03  0.84831906903E+03  0.85487485880E+02 0.  0.
         13    1    3    3    0    0  0.17098004879E+02  0.96982313084E+02  0.11674835519E+03  0.15273535695E+03  0.00000000000E+00 0.  1.
        -13    1    3    3    0    0  0.97123249294E+02  0.19525150751E+03  0.37230895254E+03  0.43147425518E+03  0.00000000000E+00 0. -1.
          2    1    6    6  502    0 -0.24932329365E+02 -0.18554535663E+03  0.58707926379E+03  0.61620675296E+03  0.00000000000E+00 0. -1.
          1    1    5    5  503    0 -0.14290842673E+02 -0.39696812954E+02 -0.70226283672E+02  0.81925551944E+02  0.00000000000E+00 0. -1.
         -2    1    5    5    0  503 -0.39345696611E+02  0.43584000221E+02 -0.16113744178E+03  0.17150196518E+03  0.00000000000E+00 0.  1.
         -1    1    6    6    0  502 -0.35652385525E+02 -0.11057565123E+03  0.20094292731E+03  0.23211231608E+03  0.00000000000E+00 0.  1.
<mgrwt>
<rscale>  0 0.13224700E+04</rscale>
<asrwt>0</asrwt>
<pdfrwt beam="1">  1        4 0.21012861E+00 0.13224700E+04</pdfrwt>
<pdfrwt beam="2">  1       -4 0.49249264E-01 0.13224700E+04</pdfrwt>
<totfact> 0.88050761E-01</totfact>
</mgrwt>
</event>
<event>
12    1  0.1541840E-007  0.2246937E+04  0.7818608E-02  0.8499142E-01
         -2   -1    0    0    0  501 -0.00000000000E+00  0.00000000000E+00  0.10970010386E+04  0.10970010386E+04  0.00000000000E+00 0.  1.
          2   -1    0    0  501    0  0.00000000000E+00 -0.00000000000E+00 -0.11505745933E+04  0.11505745933E+04  0.00000000000E+00 0. -1.
         23    2    1    2    0    0 -0.41690261925E+03 -0.32811032870E+03  0.76917200698E+03  0.93865205952E+03  0.89319263283E+02 0.  0.
        254    2    1    2    0    0  0.41690261925E+03  0.32811032870E+03 -0.82274556171E+03  0.13089235723E+04  0.86885354184E+03 0.  0.
        -24    2    4    4    0    0 -0.95035444500E+02  0.43168737467E+03 -0.56318371064E+03  0.72044303888E+03  0.80477047548E+02 0.  0.
         24    2    4    4    0    0  0.51193806375E+03 -0.10357704597E+03 -0.25956185108E+03  0.58848053346E+03  0.78282808796E+02 0.  0.
         13    1    3    3    0    0 -0.39292774125E+03 -0.28433904116E+03  0.72331362259E+03  0.87087513272E+03  0.00000000000E+00 0.  1.
        -13    1    3    3    0    0 -0.23974878000E+02 -0.43771287538E+02  0.45858384390E+02  0.67776926802E+02  0.00000000000E+00 0. -1.
          4    1    6    6  502    0  0.48046941295E+03 -0.85887068642E+02 -0.22141140882E+03  0.53595751445E+03  0.00000000000E+00 0. -1.
          1    1    5    5  503    0 -0.90511197525E+02  0.24111215351E+03 -0.34857076676E+03  0.43339234752E+03  0.00000000000E+00 0. -1.
         -2    1    5    5    0  503 -0.45242469746E+01  0.19057522117E+03 -0.21461294387E+03  0.28705069136E+03  0.00000000000E+00 0.  1.
         -3    1    6    6    0  502  0.31468650800E+02 -0.17689977330E+02 -0.38150442252E+02  0.52523019003E+02  0.00000000000E+00 0.  1.
<mgrwt>
<rscale>  0 0.22469370E+04</rscale>
<asrwt>0</asrwt>
<pdfrwt beam="1">  1        2 0.17701148E+00 0.22469370E+04</pdfrwt>
<pdfrwt beam="2">  1       -2 0.16876939E+00 0.22469370E+04</pdfrwt>
<totfact> 0.40172381E+00</totfact>
</mgrwt>
</event>
<event>
12    1  0.1541840E-007  0.1873327E+04  0.7818608E-02  0.8668248E-01
          1   -1    0    0  501    0  0.00000000000E+00  0.00000000000E+00  0.11666773551E+04  0.11666773551E+04  0.00000000000E+00 0. -1.
         -1   -1    0    0    0  501 -0.00000000000E+00 -0.00000000000E+00 -0.75199746099E+03  0.75199746099E+03  0.00000000000E+00 0.  1.
         23    2    1    2    0    0  0.64156180810E+03 -0.28367278835E+03  0.30833286839E+03  0.77144198591E+03  0.89340782535E+02 0.  0.
        254    2    1    2    0    0 -0.64156180810E+03  0.28367278835E+03  0.10634702570E+03  0.11472328302E+04  0.90153295684E+03 0.  0.
        -24    2    4    4    0    0 -0.27024805392E+03 -0.31546649649E+03 -0.34516753579E+02  0.42389759265E+03  0.77101502675E+02 0.  0.
         24    2    4    4    0    0 -0.37131375418E+03  0.59913928485E+03  0.14086377927E+03  0.72333523752E+03  0.80805165907E+02 0.  0.
         11    1    3    3    0    0  0.11749165859E+03 -0.29632893062E+02  0.24750360538E+02  0.12367286904E+03  0.00000000000E+00 0.  1.
        -11    1    3    3    0    0  0.52407014951E+03 -0.25403989529E+03  0.28358250786E+03  0.64776911687E+03  0.00000000000E+00 0. -1.
          4    1    6    6  502    0 -0.18763412078E+03  0.35930807146E+03  0.10782266738E+03  0.41944556393E+03  0.00000000000E+00 0. -1.
          3    1    5    5  503    0 -0.19256651715E+03 -0.18083938003E+03  0.22473559622E+01  0.26417758328E+03  0.00000000000E+00 0. -1.
         -4    1    5    5    0  503 -0.77681536770E+02 -0.13462711646E+03 -0.36764109541E+02  0.15972000937E+03  0.00000000000E+00 0.  1.
         -3    1    6    6    0  502 -0.18367963340E+03  0.23983121338E+03  0.33041111890E+02  0.30388967359E+03  0.00000000000E+00 0.  1.
<mgrwt>
<rscale>  0 0.18733269E+04</rscale>
<asrwt>0</asrwt>
<pdfrwt beam="1">  1        1 0.17948882E+00 0.18733269E+04</pdfrwt>
<pdfrwt beam="2">  1       -1 0.11569192E+00 0.18733269E+04</pdfrwt>
<totfact> 0.71739576E+00</totfact>
</mgrwt>
</event>
<event>
12    1  0.1541840E-007  0.1583329E+04  0.7818608E-02  0.8830855E-01
         -1   -1    0    0    0  501 -0.00000000000E+00  0.00000000000E+00  0.41744394313E+03  0.41744394313E+03  0.00000000000E+00 0.  1.
          1   -1    0    0  501    0  0.00000000000E+00 -0.00000000000E+00 -0.15013582948E+04  0.15013582948E+04  0.00000000000E+00 0. -1.
         23    2    1    2    0    0 -0.29978959361E+03 -0.23724318759E+03 -0.80960004918E+03  0.90001979874E+03  0.91789258593E+02 0.  0.
        254    2    1    2    0    0  0.29978959361E+03  0.23724318759E+03 -0.27431430252E+03  0.10187824392E+04  0.90361008814E+03 0.  0.
        -24    2    4    4    0    0  0.22300869646E+01 -0.24808705965E+03 -0.35292625220E+03  0.43862274271E+03  0.79251551902E+02 0.  0.
         24    2    4    4    0    0  0.29755950665E+03  0.48533024724E+03  0.78611949683E+02  0.58015969650E+03  0.79487898009E+02 0.  0.
         13    1    3    3    0    0 -0.27500245290E+03 -0.17679383856E+03 -0.69633160260E+03  0.76925945638E+03  0.00000000000E+00 0. -1.
        -13    1    3    3    0    0 -0.24787140716E+02 -0.60449349027E+02 -0.11326844658E+03  0.13076034236E+03  0.00000000000E+00 0.  1.
          4    1    6    6  502    0  0.16427277341E+03  0.32417369956E+03  0.25084142418E+02  0.36428470427E+03  0.00000000000E+00 0. -1.
          3    1    5    5  503    0  0.28480822404E+02 -0.22001344417E+03 -0.30617473578E+03  0.37810057087E+03  0.00000000000E+00 0. -1.
         -4    1    5    5    0  503 -0.26250735439E+02 -0.28073615480E+02 -0.46751516416E+02  0.60522171841E+02  0.00000000000E+00 0.  1.
         -3    1    6    6    0  502  0.13328673324E+03  0.16115654769E+03  0.53527807265E+02  0.21587499223E+03  0.00000000000E+00 0.  1.
<mgrwt>
<rscale>  0 0.15833293E+04</rscale>
<asrwt>0</asrwt>
<pdfrwt beam="1">  1        1 0.23097820E+00 0.15833293E+04</pdfrwt>
<pdfrwt beam="2">  1       -1 0.64222145E-01 0.15833293E+04</pdfrwt>
<totfact> 0.15419726E+01</totfact>
</mgrwt>
</event>
<event>
12    1  0.1541840E-007  0.1132071E+04  0.7818608E-02  0.9174485E-01
          2   -1    0    0  501    0  0.00000000000E+00  0.00000000000E+00  0.28596573799E+04  0.28596573799E+04  0.00000000000E+00 0. -1.
         -2   -1    0    0    0  501 -0.00000000000E+00 -0.00000000000E+00 -0.11204010543E+03  0.11204010543E+03  0.00000000000E+00 0.  1.
         23    2    1    2    0    0  0.85177018442E+02  0.14818344353E+02  0.62874650419E+02  0.13877936394E+03  0.88497358096E+02 0.  0.
        254    2    1    2    0    0 -0.85177018442E+02 -0.14818344353E+02  0.26847426241E+04  0.28329181214E+04  0.90005967428E+03 0.  0.
        -24    2    4    4    0    0 -0.24272869300E+03  0.75718040597E+02  0.26104939964E+04  0.26240939207E+04  0.80867541806E+02 0.  0.
         24    2    4    4    0    0  0.15755167456E+03 -0.90536384950E+02  0.74248627705E+02  0.20882420074E+03  0.71241286781E+02 0.  0.
         11    1    3    3    0    0  0.64785299093E+02 -0.31306790252E+02  0.46856838310E+02  0.85865088312E+02  0.00000000000E+00 0. -1.
        -11    1    3    3    0    0  0.20391719349E+02  0.46125134605E+02  0.16017812109E+02  0.52914275627E+02  0.00000000000E+00 0.  1.
          2    1    6    6  502    0  0.37615150507E+01  0.76522194488E+01 -0.50116733030E+01  0.98905170373E+01  0.00000000000E+00 0. -1.
          3    1    5    5  503    0 -0.91461257854E+02  0.70165310076E+02  0.10823624441E+04  0.10884837127E+04  0.00000000000E+00 0. -1.
         -4    1    5    5    0  503 -0.15126743515E+03  0.55527305211E+01  0.15281315523E+04  0.15356102080E+04  0.00000000000E+00 0.  1.
         -1    1    6    6    0  502  0.15379015951E+03 -0.98188604399E+02  0.79260301008E+02  0.19893368370E+03  0.00000000000E+00 0.  1.
<mgrwt>
<rscale>  0 0.11320712E+04</rscale>
<asrwt>0</asrwt>
<pdfrwt beam="1">  1        2 0.43994723E+00 0.11320712E+04</pdfrwt>
<pdfrwt beam="2">  1       -2 0.17236941E-01 0.11320712E+04</pdfrwt>
<totfact> 0.59206818E+01</totfact>
</mgrwt>
</event>
<event>
12    1  0.1541840E-007  0.2183310E+04  0.7818608E-02  0.8525407E-01
          2   -1    0    0  501    0  0.00000000000E+00  0.00000000000E+00  0.27071487777E+04  0.27071487777E+04  0.00000000000E+00 0. -1.
         -2   -1    0    0    0  501 -0.00000000000E+00 -0.00000000000E+00 -0.44020874215E+03  0.44020874215E+03  0.00000000000E+00 0.  1.
         23    2    1    2    0    0  0.68230557759E+03  0.52134064015E+03  0.13557774572E+04  0.16080000002E+04  0.10096793084E+03 0.  0.
        254    2    1    2    0    0 -0.68230557759E+03 -0.52134064015E+03  0.91116257838E+03  0.15393575196E+04  0.89558213733E+03 0.  0.
        -24    2    4    4    0    0 -0.59034194040E+03 -0.15446417341E+03  0.76683869354E+02  0.62032207445E+03  0.80970814233E+02 0.  0.
         24    2    4    4    0    0 -0.91963637188E+02 -0.36687646674E+03  0.83447870902E+03  0.91903544518E+03  0.72220366070E+02 0.  0.
         13    1    3    3    0    0  0.57686126582E+03  0.45001818619E+03  0.12143313224E+04  0.14177044292E+04  0.00000000000E+00 0. -1.
        -13    1    3    3    0    0  0.10544431177E+03  0.71322453958E+02  0.14144613479E+03  0.19029557107E+03  0.00000000000E+00 0.  1.
          2    1    6    6  502    0  0.81763313356E+01 -0.94443894551E+02  0.20814572068E+03  0.22871629292E+03  0.00000000000E+00 0. -1.
          1    1    5    5  503    0 -0.27888866963E+03 -0.81011926765E+02  0.76505055896E+02  0.30032456760E+03  0.00000000000E+00 0. -1.
         -2    1    5    5    0  503 -0.31145327078E+03 -0.73452246650E+02  0.17881345767E+00  0.31999750685E+03  0.00000000000E+00 0.  1.
         -1    1    6    6    0  502 -0.10013996852E+03 -0.27243257219E+03  0.62633298835E+03  0.69031915226E+03  0.00000000000E+00 0.  1.
<mgrwt>
<rscale>  0 0.21833099E+04</rscale>
<asrwt>0</asrwt>
<pdfrwt beam="1">  1        2 0.41648442E+00 0.21833099E+04</pdfrwt>
<pdfrwt beam="2">  1       -2 0.67724423E-01 0.21833099E+04</pdfrwt>
<totfact> 0.48105392E+00</totfact>
</mgrwt>
</event>
<event>
12    1  0.1541840E-007  0.2029317E+04  0.7818608E-02  0.8593035E-01
          2   -1    0    0  501    0  0.00000000000E+00  0.00000000000E+00  0.90118592545E+03  0.90118592545E+03  0.00000000000E+00 0. -1.
         -2   -1    0    0    0  501 -0.00000000000E+00 -0.00000000000E+00 -0.11424191009E+04  0.11424191009E+04  0.00000000000E+00 0.  1.
         23    2    1    2    0    0  0.30555579979E+03 -0.64467679370E+03 -0.48902127744E+03  0.86962547944E+03  0.90189520314E+02 0.  0.
        254    2    1    2    0    0 -0.30555579979E+03  0.64467679370E+03  0.24778810202E+03  0.11739795469E+04  0.89880838773E+03 0.  0.
        -24    2    4    4    0    0 -0.39501396517E+03  0.36646265848E+03 -0.24330060339E+03  0.59697567418E+03  0.82788037851E+02 0.  0.
         24    2    4    4    0    0  0.89458165383E+02  0.27821413522E+03  0.49108870541E+03  0.57700387270E+03  0.79746373849E+02 0.  0.
         13    1    3    3    0    0  0.93926844171E+01 -0.80239130623E+02 -0.41743717633E+02  0.90934474021E+02  0.00000000000E+00 0. -1.
        -13    1    3    3    0    0  0.29616311537E+03 -0.56443766308E+03 -0.44727755981E+03  0.77869100542E+03  0.00000000000E+00 0.  1.
          2    1    6    6  502    0  0.17825016177E+02  0.66881761238E+02  0.19019199932E+03  0.20239539963E+03  0.00000000000E+00 0. -1.
          3    1    5    5  503    0 -0.13332939902E+03  0.73506256201E+02 -0.63279221581E+02  0.16487619061E+03  0.00000000000E+00 0. -1.
         -4    1    5    5    0  503 -0.26168456614E+03  0.29295640228E+03 -0.18002138180E+03  0.43209948357E+03  0.00000000000E+00 0.  1.
         -1    1    6    6    0  502  0.71633149205E+02  0.21133237399E+03  0.30089670609E+03  0.37460847307E+03  0.00000000000E+00 0.  1.
<mgrwt>
<rscale>  0 0.20293171E+04</rscale>
<asrwt>0</asrwt>
<pdfrwt beam="1">  1        2 0.13864399E+00 0.20293171E+04</pdfrwt>
<pdfrwt beam="2">  1       -2 0.17575678E+00 0.20293171E+04</pdfrwt>
<totfact> 0.52632347E+00</totfact>
</mgrwt>
</event>
<event>
12    1  0.1639047E-007  0.2350871E+04  0.7818608E-02  0.8458129E-01
         -2   -1    0    0    0  501 -0.00000000000E+00  0.00000000000E+00  0.86274911066E+03  0.86274911066E+03  0.00000000000E+00 0.  1.
          2   -1    0    0  501    0  0.00000000000E+00 -0.00000000000E+00 -0.16014489719E+04  0.16014489719E+04  0.00000000000E+00 0. -1.
         23    2    1    2    0    0  0.17145563992E+03  0.23668385298E+03  0.64082402069E+03  0.71100088449E+03  0.97213936963E+02 0.  0.
        254    2    1    2    0    0 -0.17145563992E+03 -0.23668385298E+03 -0.13795238820E+04  0.17531971981E+04  0.10417283676E+04 0.  0.
        -24    2    4    4    0    0 -0.21199509119E+03 -0.40438083927E+03 -0.14708587470E+04  0.15421558671E+04  0.79708738642E+02 0.  0.
         24    2    4    4    0    0  0.40539451278E+02  0.16769698628E+03  0.91334865009E+02  0.21104133100E+03  0.80191392979E+02 0.  0.
         13    1    3    3    0    0  0.18247186987E+03  0.22604292161E+03  0.62364340652E+03  0.68798436334E+03  0.00000000000E+00 0.  1.
        -13    1    3    3    0    0 -0.11016229952E+02  0.10640931379E+02  0.17180614163E+02  0.23016521153E+02  0.00000000000E+00 0. -1.
          2    1    6    6  502    0  0.62340663360E+02  0.14768229510E+03  0.72286257622E+02  0.17584573249E+03  0.00000000000E+00 0. -1.
          1    1    5    5  503    0 -0.18610704820E+03 -0.28388532790E+03 -0.10380934181E+04  0.10921834358E+04  0.00000000000E+00 0. -1.
         -2    1    5    5    0  503 -0.25888042993E+02 -0.12049551136E+03 -0.43276532891E+03  0.44997243131E+03  0.00000000000E+00 0.  1.
         -1    1    6    6    0  502 -0.21801212081E+02  0.20014691179E+02  0.19048607386E+02  0.35195598511E+02  0.00000000000E+00 0.  1.
<mgrwt>
<rscale>  0 0.23508711E+04</rscale>
<asrwt>0</asrwt>
<pdfrwt beam="1">  1        2 0.24637676E+00 0.23508711E+04</pdfrwt>
<pdfrwt beam="2">  1       -2 0.13273063E+00 0.23508711E+04</pdfrwt>
<totfact> 0.41407584E+00</totfact>
</mgrwt>
</event>
<event>
12    1  0.1541840E-007  0.1540902E+04  0.7818608E-02  0.8857700E-01
          1   -1    0    0  501    0  0.00000000000E+00  0.00000000000E+00  0.13450710363E+04  0.13450710363E+04  0.00000000000E+00 0. -1.
         -1   -1    0    0    0  501 -0.00000000000E+00 -0.00000000000E+00 -0.44131114436E+03  0.44131114436E+03  0.00000000000E+00 0.  1.
         23    2    1    2    0    0  0.37593076703E+03  0.21276472037E+03  0.78757784095E+01  0.44160330232E+03  0.91425821849E+02 0.  0.
        254    2    1    2    0    0 -0.37593076703E+03 -0.21276472037E+03  0.89588411355E+03  0.13447788784E+04  0.90511276586E+03 0.  0.
        -24    2    4    4    0    0  0.80816704534E+02 -0.32486183239E+03  0.78183885164E+03  0.85427772985E+03  0.80323719445E+02 0.  0.
         24    2    4    4    0    0 -0.45674747156E+03  0.11209711201E+03  0.11404526191E+03  0.49050114851E+03  0.80006497401E+02 0.  0.
         11    1    3    3    0    0  0.38125448286E+02  0.59229544230E+02 -0.74594257903E+00  0.70443205116E+02  0.00000000000E+00 0. -1.
        -11    1    3    3    0    0  0.33780531874E+03  0.15353517614E+03  0.86217209885E+01  0.37116009720E+03  0.00000000000E+00 0.  1.
          2    1    6    6  502    0 -0.22162477165E+03  0.70773452321E+02  0.18570823558E+02  0.23339086625E+03  0.00000000000E+00 0. -1.
          3    1    5    5  503    0 -0.80616864393E+01 -0.11777215618E+03  0.24068789417E+03  0.26807822358E+03  0.00000000000E+00 0. -1.
         -2    1    5    5    0  503  0.88878390973E+02 -0.20708967621E+03  0.54115095748E+03  0.58619950627E+03  0.00000000000E+00 0.  1.
         -1    1    6    6    0  502 -0.23512269991E+03  0.41323659692E+02  0.95474438354E+02  0.25711028226E+03  0.00000000000E+00 0.  1.
<mgrwt>
<rscale>  0 0.15409021E+04</rscale>
<asrwt>0</asrwt>
<pdfrwt beam="1">  1        1 0.20693400E+00 0.15409021E+04</pdfrwt>
<pdfrwt beam="2">  1       -1 0.67894023E-01 0.15409021E+04</pdfrwt>
<totfact> 0.17790844E+01</totfact>
</mgrwt>
</event>
<event>
12    1  0.1541840E-007  0.2228603E+04  0.7818608E-02  0.8506616E-01
          1   -1    0    0  501    0  0.00000000000E+00  0.00000000000E+00  0.10559519765E+04  0.10559519765E+04  0.00000000000E+00 0. -1.
         -1   -1    0    0    0  501 -0.00000000000E+00 -0.00000000000E+00 -0.11758755206E+04  0.11758755206E+04  0.00000000000E+00 0.  1.
         23    2    1    2    0    0  0.15547297768E+03  0.45074156316E+03  0.74262858706E+03  0.88733307683E+03  0.92319918641E+02 0.  0.
        254    2    1    2    0    0 -0.15547297768E+03 -0.45074156316E+03 -0.86255213114E+03  0.13444944202E+04  0.91451039554E+03 0.  0.
        -24    2    4    4    0    0 -0.20244451701E+03 -0.71807275037E+03 -0.62867170326E+03  0.97891665650E+03  0.80233737207E+02 0.  0.
         24    2    4    4    0    0  0.46971539330E+02  0.26733118722E+03 -0.23388042788E+03  0.36557776373E+03  0.72627526646E+02 0.  0.
         13    1    3    3    0    0  0.82482833346E+02  0.35863714109E+03  0.57181949392E+03  0.68000113999E+03  0.00000000000E+00 0. -1.
        -13    1    3    3    0    0  0.72990144337E+02  0.92104422070E+02  0.17080909314E+03  0.20733193684E+03  0.00000000000E+00 0.  1.
          4    1    6    6  502    0  0.51017758492E+02  0.20925439755E+03 -0.14615100565E+03  0.26028893758E+03  0.00000000000E+00 0. -1.
          3    1    5    5  503    0 -0.10333547623E+03 -0.30974244187E+03 -0.32316786253E+03  0.45940838947E+03  0.00000000000E+00 0. -1.
         -4    1    5    5    0  503 -0.99109040780E+02 -0.40833030850E+03 -0.30550384074E+03  0.51950826703E+03  0.00000000000E+00 0.  1.
         -3    1    6    6    0  502 -0.40462191614E+01  0.58076789665E+02 -0.87729422232E+02  0.10528882615E+03  0.00000000000E+00 0.  1.
<mgrwt>
<rscale>  0 0.22286032E+04</rscale>
<asrwt>0</asrwt>
<pdfrwt beam="1">  1        1 0.16245415E+00 0.22286032E+04</pdfrwt>
<pdfrwt beam="2">  1       -1 0.18090393E+00 0.22286032E+04</pdfrwt>
<totfact> 0.25535433E+00</totfact>
</mgrwt>
</event>
<event>
12    1  0.1541840E-007  0.1363015E+04  0.7818608E-02  0.8981034E-01
         -2   -1    0    0    0  501 -0.00000000000E+00  0.00000000000E+00  0.80401343687E+03  0.80401343687E+03  0.00000000000E+00 0. -1.
          2   -1    0    0  501    0  0.00000000000E+00 -0.00000000000E+00 -0.57766755614E+03  0.57766755614E+03  0.00000000000E+00 0.  1.
         23    2    1    2    0    0 -0.17395648566E+03 -0.19065588563E+03 -0.21479084186E+03  0.34786533841E+03  0.90910188029E+02 0.  0.
        254    2    1    2    0    0  0.17395648566E+03  0.19065588563E+03  0.44113672260E+03  0.10338156546E+04  0.89864490988E+03 0.  0.
        -24    2    4    4    0    0  0.44522945750E+03 -0.16473289295E+03  0.23006843800E+03  0.53316861105E+03  0.77272801159E+02 0.  0.
         24    2    4    4    0    0 -0.27127297184E+03  0.35538877858E+03  0.21106828459E+03  0.50064704355E+03  0.78787259552E+02 0.  0.
         13    1    3    3    0    0 -0.11686447343E+03 -0.17110411495E+03 -0.19452172520E+03  0.28420525132E+03  0.00000000000E+00 0.  1.
        -13    1    3    3    0    0 -0.57092012233E+02 -0.19551770681E+02 -0.20269116660E+02  0.63660087085E+02  0.00000000000E+00 0. -1.
          2    1    6    6  502    0 -0.25883951358E+02  0.69336816938E+02  0.57308044914E+02  0.93604407657E+02  0.00000000000E+00 0. -1.
          1    1    5    5  503    0  0.19764877293E+02  0.48964576529E+01  0.22353533124E+02  0.30237495186E+02  0.00000000000E+00 0. -1.
         -2    1    5    5    0  503  0.42546458020E+03 -0.16962935060E+03  0.20771490488E+03  0.50293111586E+03  0.00000000000E+00 0.  1.
         -1    1    6    6    0  502 -0.24538902048E+03  0.28605196164E+03  0.15376023968E+03  0.40704263590E+03  0.00000000000E+00 0.  1.
<mgrwt>
<rscale>  0 0.13630150E+04</rscale>
<asrwt>0</asrwt>
<pdfrwt beam="1">  1        2 0.88871932E-01 0.13630150E+04</pdfrwt>
<pdfrwt beam="2">  1       -2 0.12369438E+00 0.13630150E+04</pdfrwt>
<totfact> 0.24934391E+01</totfact>
</mgrwt>
</event>
<event>
12    1  0.1541840E-007  0.1377092E+04  0.7818608E-02  0.8970569E-01
          3   -1    0    0  501    0  0.00000000000E+00  0.00000000000E+00  0.74670706303E+03  0.74670706303E+03  0.00000000000E+00 0. -1.
         -3   -1    0    0    0  501 -0.00000000000E+00 -0.00000000000E+00 -0.63491521518E+03  0.63491521518E+03  0.00000000000E+00 0.  1.
         23    2    1    2    0    0  0.15945434060E+03  0.33712850444E+03  0.43370504456E+02  0.38995201944E+03  0.10535777887E+03 0.  0.
        254    2    1    2    0    0 -0.15945434060E+03 -0.33712850444E+03  0.68421343394E+02  0.99167025876E+03  0.91632259966E+03 0.  0.
        -24    2    4    4    0    0 -0.41849662425E+03 -0.20441316385E+03 -0.26517115262E+03  0.54170113008E+03  0.78741400002E+02 0.  0.
         24    2    4    4    0    0  0.25904228365E+03 -0.13271534058E+03  0.33359249602E+03  0.44996912868E+03  0.80448722951E+02 0.  0.
         11    1    3    3    0    0  0.55682277535E+02  0.14103752669E+03  0.69051776474E+02  0.16661406843E+03  0.00000000000E+00 0.  1.
        -11    1    3    3    0    0  0.10377206307E+03  0.19609097775E+03 -0.25681272018E+02  0.22333795101E+03  0.00000000000E+00 0. -1.
          2    1    6    6  502    0  0.41414937689E+02  0.67329468072E+01  0.31977740369E+02  0.52755146816E+02  0.00000000000E+00 0. -1.
          3    1    5    5  503    0 -0.54860608570E+02 -0.33704859172E+00 -0.39144536210E+02  0.67395064281E+02  0.00000000000E+00 0. -1.
         -4    1    5    5    0  503 -0.36363601568E+03 -0.20407611526E+03 -0.22602661641E+03  0.47430606579E+03  0.00000000000E+00 0.  1.
         -1    1    6    6    0  502  0.21762734596E+03 -0.13944828739E+03  0.30161475565E+03  0.39721398187E+03  0.00000000000E+00 0.  1.
<mgrwt>
<rscale>  0 0.13770921E+04</rscale>
<asrwt>0</asrwt>
<pdfrwt beam="1">  1        3 0.11487801E+00 0.13770921E+04</pdfrwt>
<pdfrwt beam="2">  1       -3 0.97679264E-01 0.13770921E+04</pdfrwt>
<totfact> 0.14844176E+00</totfact>
</mgrwt>
</event>
<event>
12    1  0.1541840E-007  0.1142227E+04  0.7818608E-02  0.9164984E-01
         -4   -1    0    0    0  501 -0.00000000000E+00  0.00000000000E+00  0.98163599419E+03  0.98163599419E+03  0.00000000000E+00 0. -1.
          4   -1    0    0  501    0  0.00000000000E+00 -0.00000000000E+00 -0.33227262606E+03  0.33227262606E+03  0.00000000000E+00 0.  1.
         23    2    1    2    0    0  0.33238166630E+02 -0.20066078745E+03  0.10770045875E+03  0.24746065511E+03  0.90927771720E+02 0.  0.
        254    2    1    2    0    0 -0.33238166630E+02  0.20066078745E+03  0.54166290938E+03  0.10664479651E+04  0.89584765871E+03 0.  0.
        -24    2    4    4    0    0 -0.17467898946E+03  0.17042075515E+03  0.75395775350E+03  0.79664065799E+03  0.81412902843E+02 0.  0.
         24    2    4    4    0    0  0.14144082283E+03  0.30240032303E+02 -0.21229484412E+03  0.26980730715E+03  0.82504037689E+02 0.  0.
         11    1    3    3    0    0  0.12933582470E+02 -0.13085982875E+03  0.19135720535E+02  0.13288245985E+03  0.00000000000E+00 0.  1.
        -11    1    3    3    0    0  0.20304584160E+02 -0.69800958707E+02  0.88564738213E+02  0.11457819526E+03  0.00000000000E+00 0. -1.
          4    1    6    6  502    0  0.14174821633E+03  0.32983185589E+02 -0.15563064000E+03  0.21307591012E+03  0.00000000000E+00 0. -1.
          1    1    5    5  503    0 -0.17079663940E+03  0.14196758732E+03  0.71169950367E+03  0.74554843666E+03  0.00000000000E+00 0. -1.
         -2    1    5    5    0  503 -0.38823500602E+01  0.28453167830E+02  0.42258249834E+02  0.51092221331E+02  0.00000000000E+00 0.  1.
         -3    1    6    6    0  502 -0.30739350217E+00 -0.27431532858E+01 -0.56664204123E+02  0.56731397036E+02  0.00000000000E+00 0.  1.
<mgrwt>
<rscale>  0 0.11422272E+04</rscale>
<asrwt>0</asrwt>
<pdfrwt beam="1">  1        4 0.51118866E-01 0.11422272E+04</pdfrwt>
<pdfrwt beam="2">  1       -4 0.15102092E+00 0.11422272E+04</pdfrwt>
<totfact> 0.21273174E+00</totfact>
</mgrwt>
</event>
<event>
12    1  0.1541840E-007  0.2081086E+04  0.7818608E-02  0.8569621E-01
          1   -1    0    0  501    0  0.00000000000E+00  0.00000000000E+00  0.81555672508E+03  0.81555672508E+03  0.00000000000E+00 0. -1.
         -1   -1    0    0    0  501 -0.00000000000E+00 -0.00000000000E+00 -0.13275962428E+04  0.13275962428E+04  0.00000000000E+00 0.  1.
         23    2    1    2    0    0  0.84049157942E+03 -0.15357030220E+02 -0.14280829936E+03  0.85758703506E+03  0.91648125420E+02 0.  0.
        254    2    1    2    0    0 -0.84049157942E+03  0.15357030220E+02 -0.36923121839E+03  0.12855659329E+04  0.89982561735E+03 0.  0.
        -24    2    4    4    0    0 -0.70225696054E+03  0.40184251247E+03 -0.25371640541E+03  0.85164542688E+03  0.79282250794E+02 0.  0.
         24    2    4    4    0    0 -0.13823461888E+03 -0.38648548225E+03 -0.11551481299E+03  0.43392050598E+03  0.80395868357E+02 0.  0.
         13    1    3    3    0    0  0.98757790727E+02 -0.31440664439E+02 -0.14077436606E+02  0.10459345501E+03  0.00000000000E+00 0. -1.
        -13    1    3    3    0    0  0.74173378869E+03  0.16083634219E+02 -0.12873086275E+03  0.75299358005E+03  0.00000000000E+00 0.  1.
          4    1    6    6  502    0 -0.20383653090E+02 -0.10939100439E+03  0.37398904275E+00  0.11127454796E+03  0.00000000000E+00 0. -1.
          1    1    5    5  503    0 -0.26837368387E+03  0.14819554743E+03 -0.13641998267E+03  0.33555441607E+03  0.00000000000E+00 0. -1.
         -2    1    5    5    0  503 -0.43388327667E+03  0.25364696504E+03 -0.11729642273E+03  0.51609101080E+03  0.00000000000E+00 0.  1.
         -3    1    6    6    0  502 -0.11785096579E+03 -0.27709447786E+03 -0.11588880203E+03  0.32264595803E+03  0.00000000000E+00 0.  1.
<mgrwt>
<rscale>  0 0.20810863E+04</rscale>
<asrwt>0</asrwt>
<pdfrwt beam="1">  1        1 0.12547027E+00 0.20810863E+04</pdfrwt>
<pdfrwt beam="2">  1       -1 0.20424558E+00 0.20810863E+04</pdfrwt>
<totfact> 0.27778780E+00</totfact>
</mgrwt>
</event>
<event>
12    1  0.1541840E-007  0.1972502E+04  0.7818608E-02  0.8619586E-01
         -1   -1    0    0    0  501 -0.00000000000E+00  0.00000000000E+00  0.76512485883E+03  0.76512485883E+03  0.00000000000E+00 0.  1.
          1   -1    0    0  501    0  0.00000000000E+00 -0.00000000000E+00 -0.12712840788E+04  0.12712840788E+04  0.00000000000E+00 0. -1.
         23    2    1    2    0    0  0.28601214606E+03 -0.32446278181E+03 -0.87216054182E+03  0.97775790576E+03  0.90925612887E+02 0.  0.
        254    2    1    2    0    0 -0.28601214606E+03  0.32446278181E+03  0.36600132190E+03  0.10586510318E+04  0.89426282215E+03 0.  0.
        -24    2    4    4    0    0  0.22252548631E+03  0.27756143620E+03 -0.83307388393E+02  0.37393557467E+03  0.79559726750E+02 0.  0.
         24    2    4    4    0    0 -0.50853763237E+03  0.46901345611E+02  0.44930871029E+03  0.68471545716E+03  0.78400767664E+02 0.  0.
         11    1    3    3    0    0 -0.18165428710E+01 -0.75498910516E+01 -0.20515815364E+01  0.80317911884E+01  0.00000000000E+00 0.  1.
        -11    1    3    3    0    0  0.28782868893E+03 -0.31691289076E+03 -0.87010896029E+03  0.96972611457E+03  0.00000000000E+00 0. -1.
          2    1    6    6  502    0 -0.37466281851E+03  0.56155087812E+02  0.36599680997E+03  0.52676302677E+03  0.00000000000E+00 0. -1.
          3    1    5    5  503    0  0.14814946865E+03  0.22058241971E+03 -0.88587112016E+02  0.28009381529E+03  0.00000000000E+00 0. -1.
         -4    1    5    5    0  503  0.74376017655E+02  0.56979016491E+02  0.52797236227E+01  0.93841759382E+02  0.00000000000E+00 0.  1.
         -1    1    6    6    0  502 -0.13387481386E+03 -0.92537422006E+01  0.83311900319E+02  0.15795243039E+03  0.00000000000E+00 0.  1.
<mgrwt>
<rscale>  0 0.19725020E+04</rscale>
<asrwt>0</asrwt>
<pdfrwt beam="1">  1        1 0.19558216E+00 0.19725020E+04</pdfrwt>
<pdfrwt beam="2">  1       -1 0.11771152E+00 0.19725020E+04</pdfrwt>
<totfact> 0.57234061E+00</totfact>
</mgrwt>
</event>
<event>
12    1  0.1541840E-007  0.1847518E+04  0.7818608E-02  0.8681430E-01
          1   -1    0    0  501    0  0.00000000000E+00  0.00000000000E+00  0.25527010514E+04  0.25527010514E+04  0.00000000000E+00 0. -1.
         -1   -1    0    0    0  501 -0.00000000000E+00 -0.00000000000E+00 -0.33428552372E+03  0.33428552372E+03  0.00000000000E+00 0.  1.
         23    2    1    2    0    0 -0.68809564582E+03  0.14484451874E+03  0.75199657063E+03  0.10335302815E+04  0.90721817039E+02 0.  0.
        254    2    1    2    0    0  0.68809564582E+03 -0.14484451874E+03  0.14664189571E+04  0.18534562937E+04  0.88907824318E+03 0.  0.
        -24    2    4    4    0    0  0.78264881543E+03 -0.36347466999E+03  0.99640350897E+03  0.13203594359E+04  0.76655615444E+02 0.  0.
         24    2    4    4    0    0 -0.94553169613E+02  0.21863015125E+03  0.47001544811E+03  0.53309685774E+03  0.80859714003E+02 0.  0.
         13    1    3    3    0    0 -0.59551407168E+02 -0.11604926785E+02  0.52928673008E+02  0.80513904686E+02  0.00000000000E+00 0. -1.
        -13    1    3    3    0    0 -0.62854423865E+03  0.15644944553E+03  0.69906789763E+03  0.95301637679E+03  0.00000000000E+00 0.  1.
          2    1    6    6  502    0 -0.52330394056E+02  0.19270034712E+03  0.34497761416E+03  0.39859935800E+03  0.00000000000E+00 0. -1.
          3    1    5    5  503    0  0.75247606990E+03 -0.34484985250E+03  0.92944699625E+03  0.12445936587E+04  0.00000000000E+00 0. -1.
         -4    1    5    5    0  503  0.30172745531E+02 -0.18624817486E+02  0.66956512723E+02  0.75765777204E+02  0.00000000000E+00 0.  1.
         -1    1    6    6    0  502 -0.42222775556E+02  0.25929804125E+02  0.12503783395E+03  0.13449749974E+03  0.00000000000E+00 0.  1.
<mgrwt>
<rscale>  0 0.18475183E+04</rscale>
<asrwt>0</asrwt>
<pdfrwt beam="1">  1        1 0.39272323E+00 0.18475183E+04</pdfrwt>
<pdfrwt beam="2">  1       -1 0.51428544E-01 0.18475183E+04</pdfrwt>
<totfact> 0.44550350E+00</totfact>
</mgrwt>
</event>
<event>
12    1  0.1541840E-007  0.1628327E+04  0.7818608E-02  0.8803332E-01
         -2   -1    0    0    0  501 -0.00000000000E+00  0.00000000000E+00  0.17626889524E+03  0.17626889524E+03  0.00000000000E+00 0. -1.
          2   -1    0    0  501    0  0.00000000000E+00 -0.00000000000E+00 -0.37605194298E+04  0.37605194298E+04  0.00000000000E+00 0.  1.
         23    2    1    2    0    0 -0.12463890875E+03 -0.36913364752E+03 -0.22439253873E+04  0.22794276185E+04  0.93779618282E+02 0.  0.
        254    2    1    2    0    0  0.12463890875E+03  0.36913364752E+03 -0.13403251473E+04  0.16573607066E+04  0.89363219727E+03 0.  0.
        -24    2    4    4    0    0  0.34900728967E+03  0.48075753635E+03 -0.51276368917E+03  0.78908091959E+03  0.82390531819E+02 0.  0.
         24    2    4    4    0    0 -0.22436838093E+03 -0.11162388883E+03 -0.82756145816E+03  0.86827978703E+03  0.79061739260E+02 0.  0.
         13    1    3    3    0    0  0.10599663717E+02 -0.73634373058E+02 -0.34939695967E+03  0.35722907103E+03  0.00000000000E+00 0. -1.
        -13    1    3    3    0    0 -0.13523857247E+03 -0.29549927446E+03 -0.18945284276E+04  0.19221985474E+04  0.00000000000E+00 0.  1.
          2    1    6    6  502    0 -0.18916470399E+02 -0.17971601900E+02 -0.31955131886E+02  0.41254597090E+02  0.00000000000E+00 0. -1.
          1    1    5    5  503    0  0.95786680355E+02  0.12854256481E+03 -0.18874395048E+03  0.24763391921E+03  0.00000000000E+00 0. -1.
         -2    1    5    5    0  503  0.25322060932E+03  0.35221497155E+03 -0.32401973868E+03  0.54144700038E+03  0.00000000000E+00 0.  1.
         -3    1    6    6    0  502 -0.20545191053E+03 -0.93652286929E+02 -0.79560632627E+03  0.82702518994E+03  0.00000000000E+00 0.  1.
<mgrwt>
<rscale>  0 0.16283275E+04</rscale>
<asrwt>0</asrwt>
<pdfrwt beam="1">  1        2 0.57854137E+00 0.16283275E+04</pdfrwt>
<pdfrwt beam="2">  1       -2 0.27118295E-01 0.16283275E+04</pdfrwt>
<totfact> 0.63198530E+00</totfact>
</mgrwt>
</event>
<event>
12    1  0.1541840E-007  0.1296420E+04  0.7818608E-02  0.9032409E-01
          1   -1    0    0  501    0  0.00000000000E+00  0.00000000000E+00  0.19232331240E+04  0.19232331240E+04  0.00000000000E+00 0. -1.
         -1   -1    0    0    0  501 -0.00000000000E+00 -0.00000000000E+00 -0.21847400701E+03  0.21847400701E+03  0.00000000000E+00 0.  1.
         23    2    1    2    0    0 -0.15229444745E+03  0.19360064346E+03  0.78057413682E+03  0.82356753018E+03  0.91064185138E+02 0.  0.
        254    2    1    2    0    0  0.15229444745E+03 -0.19360064346E+03  0.92418498013E+03  0.13181396008E+04  0.90702774037E+03 0.  0.
        -24    2    4    4    0    0 -0.95379176768E+02 -0.44523093846E+03  0.18951968358E+03  0.49919403806E+03  0.77131065359E+02 0.  0.
         24    2    4    4    0    0  0.24767362422E+03  0.25163029500E+03  0.73466529655E+03  0.81894556273E+03  0.79238294154E+02 0.  0.
         13    1    3    3    0    0 -0.13648270341E+03  0.10412048886E+03  0.50030047766E+03  0.52893210574E+03  0.00000000000E+00 0. -1.
        -13    1    3    3    0    0 -0.15811744044E+02  0.89480154595E+02  0.28027365916E+03  0.29463542444E+03  0.00000000000E+00 0.  1.
          4    1    6    6  502    0  0.97630320385E+02  0.14006958192E+03  0.41277602674E+03  0.44669364836E+03  0.00000000000E+00 0. -1.
          1    1    5    5  503    0  0.13475652444E+02 -0.59571636120E+02  0.26432693250E+02  0.66551185648E+02  0.00000000000E+00 0. -1.
         -2    1    5    5    0  503 -0.10885482921E+03 -0.38565930234E+03  0.16308699033E+03  0.43264285241E+03  0.00000000000E+00 0.  1.
         -3    1    6    6    0  502  0.15004330384E+03  0.11156071309E+03  0.32188926982E+03  0.37225191437E+03  0.00000000000E+00 0.  1.
<mgrwt>
<rscale>  0 0.12964204E+04</rscale>
<asrwt>0</asrwt>
<pdfrwt beam="1">  1        1 0.29588201E+00 0.12964204E+04</pdfrwt>
<pdfrwt beam="2">  1       -1 0.33611387E-01 0.12964204E+04</pdfrwt>
<totfact> 0.27575314E+01</totfact>
</mgrwt>
</event>
<event>
12    1  0.1541840E-007  0.1210672E+04  0.7818608E-02  0.9103566E-01
          2   -1    0    0  501    0  0.00000000000E+00  0.00000000000E+00  0.54742919139E+03  0.54742919139E+03  0.00000000000E+00 0. -1.
         -2   -1    0    0    0  501 -0.00000000000E+00 -0.00000000000E+00 -0.66936842091E+03  0.66936842091E+03  0.00000000000E+00 0.  1.
         23    2    1    2    0    0  0.59560824990E+02 -0.11791418605E+03  0.14947805021E+03  0.21965531104E+03  0.91943031426E+02 0.  0.
        254    2    1    2    0    0 -0.59560824990E+02  0.11791418605E+03 -0.27141727973E+03  0.99714230126E+03  0.95035476644E+03 0.  0.
        -24    2    4    4    0    0  0.17338243260E+03  0.16720310548E+03  0.28804275630E+03  0.38391839130E+03  0.80039710811E+02 0.  0.
         24    2    4    4    0    0 -0.23294325759E+03 -0.49288919438E+02 -0.55946003603E+03  0.61322390996E+03  0.79724983577E+02 0.  0.
         13    1    3    3    0    0  0.11002174146E+01  0.34936871779E+01 -0.10130066077E+02  0.10771934236E+02  0.00000000000E+00 0.  1.
        -13    1    3    3    0    0  0.58460607575E+02 -0.12140787322E+03  0.15960811629E+03  0.20888337680E+03  0.00000000000E+00 0. -1.
          2    1    6    6  502    0 -0.88569215316E+02 -0.58598104423E+02 -0.24960694682E+03  0.27125978626E+03  0.00000000000E+00 0. -1.
          3    1    5    5  503    0 -0.48844140601E+01  0.20860990379E+02  0.38887031020E+02  0.44398644145E+02  0.00000000000E+00 0. -1.
         -4    1    5    5    0  503  0.17826684666E+03  0.14634211511E+03  0.24915572528E+03  0.33951974715E+03  0.00000000000E+00 0.  1.
         -1    1    6    6    0  502 -0.14437404227E+03  0.93091849845E+01 -0.30985308921E+03  0.34196412370E+03  0.00000000000E+00 0.  1.
<mgrwt>
<rscale>  0 0.12106722E+04</rscale>
<asrwt>0</asrwt>
<pdfrwt beam="1">  1        2 0.84219876E-01 0.12106722E+04</pdfrwt>
<pdfrwt beam="2">  1       -2 0.10297976E+00 0.12106722E+04</pdfrwt>
<totfact> 0.42046689E+01</totfact>
</mgrwt>
</event>
<event>
12    1  0.1541840E-007  0.3184560E+04  0.7818608E-02  0.8192907E-01
          1   -1    0    0  501    0  0.00000000000E+00  0.00000000000E+00  0.18885280586E+04  0.18885280586E+04  0.00000000000E+00 0. -1.
         -1   -1    0    0    0  501 -0.00000000000E+00 -0.00000000000E+00 -0.13425031976E+04  0.13425031976E+04  0.00000000000E+00 0.  1.
         23    2    1    2    0    0  0.13766105604E+04 -0.10468978677E+02  0.75179976534E+03  0.15709225027E+04  0.86188095509E+02 0.  0.
        254    2    1    2    0    0 -0.13766105604E+04  0.10468978677E+02 -0.20577490431E+03  0.16601087535E+04  0.90468310908E+03 0.  0.
        -24    2    4    4    0    0 -0.72271529909E+03  0.14957334093E+03 -0.53072338080E+03  0.91252522033E+03  0.79657912067E+02 0.  0.
         24    2    4    4    0    0 -0.65389526126E+03 -0.13910436225E+03  0.32494847650E+03  0.74758353318E+03  0.79753309689E+02 0.  0.
         13    1    3    3    0    0  0.69970280704E+02 -0.17413656087E+02  0.49779613858E+02  0.87618979428E+02  0.00000000000E+00 0. -1.
        -13    1    3    3    0    0  0.13066402797E+04  0.69446774099E+01  0.70202015149E+03  0.14833035232E+04  0.00000000000E+00 0.  1.
          4    1    6    6  502    0 -0.23497056035E+02 -0.20755654065E+02  0.21489080306E+02  0.38009069843E+02  0.00000000000E+00 0. -1.
          1    1    5    5  503    0 -0.14708961924E+03  0.63657072695E+01 -0.80156381192E+02  0.16763330147E+03  0.00000000000E+00 0. -1.
         -2    1    5    5    0  503 -0.57562567985E+03  0.14320763366E+03 -0.45056699961E+03  0.74489191886E+03  0.00000000000E+00 0.  1.
         -3    1    6    6    0  502 -0.63039820523E+03 -0.11834870819E+03  0.30345939619E+03  0.70957446334E+03  0.00000000000E+00 0.  1.
<mgrwt>
<rscale>  0 0.31845596E+04</rscale>
<asrwt>0</asrwt>
<pdfrwt beam="1">  1        1 0.29054278E+00 0.31845596E+04</pdfrwt>
<pdfrwt beam="2">  1       -1 0.20653895E+00 0.31845596E+04</pdfrwt>
<totfact> 0.40335309E-01</totfact>
</mgrwt>
</event>
<event>
12    1  0.1541840E-007  0.1430667E+04  0.7818608E-02  0.8931915E-01
         -2   -1    0    0    0  501 -0.00000000000E+00  0.00000000000E+00  0.13754685372E+03  0.13754685372E+03  0.00000000000E+00 0. -1.
          2   -1    0    0  501    0  0.00000000000E+00 -0.00000000000E+00 -0.37202001429E+04  0.37202001429E+04  0.00000000000E+00 0.  1.
         23    2    1    2    0    0 -0.39702111969E+03 -0.34427204008E+02 -0.14972560424E+04  0.15510938593E+04  0.72838876718E+02 0.  0.
        254    2    1    2    0    0  0.39702111969E+03  0.34427204008E+02 -0.20853972468E+04  0.23066531374E+04  0.90164073626E+03 0.  0.
        -24    2    4    4    0    0  0.55951810439E+03 -0.20009978089E+03 -0.87881983513E+03  0.10636710424E+04  0.77274526575E+02 0.  0.
         24    2    4    4    0    0 -0.16249698470E+03  0.23452698490E+03 -0.12065774117E+04  0.12429820950E+04  0.88132067080E+02 0.  0.
         13    1    3    3    0    0 -0.56065157200E+02  0.20622141114E+02 -0.21834884689E+03  0.22637312891E+03  0.00000000000E+00 0.  1.
        -13    1    3    3    0    0 -0.34095596249E+03 -0.55049345122E+02 -0.12789071955E+04  0.13247207304E+04  0.00000000000E+00 0. -1.
          4    1    6    6  502    0 -0.29091937693E+01  0.24185507931E+02 -0.23191086286E+03  0.23318672886E+03  0.00000000000E+00 0. -1.
          1    1    5    5  503    0  0.33593462688E+02 -0.56953347020E+00 -0.28091588901E+02  0.43794776752E+02  0.00000000000E+00 0. -1.
         -2    1    5    5    0  503  0.52592464170E+03 -0.19953024742E+03 -0.85072824622E+03  0.10198762657E+04  0.00000000000E+00 0.  1.
         -3    1    6    6    0  502 -0.15958779093E+03  0.21034147697E+03 -0.97466654886E+03  0.10097953661E+04  0.00000000000E+00 0.  1.
<mgrwt>
<rscale>  0 0.14306667E+04</rscale>
<asrwt>0</asrwt>
<pdfrwt beam="1">  1        2 0.57233852E+00 0.14306667E+04</pdfrwt>
<pdfrwt beam="2">  1       -2 0.21161053E-01 0.14306667E+04</pdfrwt>
<totfact> 0.10815192E+01</totfact>
</mgrwt>
</event>
<event>
12    1  0.1904493E-007  0.1793441E+04  0.7818608E-02  0.8709795E-01
          2   -1    0    0  501    0  0.00000000000E+00  0.00000000000E+00  0.17708037386E+04  0.17708037386E+04  0.00000000000E+00 0. -1.
         -2   -1    0    0    0  501 -0.00000000000E+00 -0.00000000000E+00 -0.45409206483E+03  0.45409206483E+03  0.00000000000E+00 0.  1.
         23    2    1    2    0    0 -0.18819796210E+01  0.58645525439E+03  0.88996627143E+03  0.10703435301E+04  0.98295477614E+02 0.  0.
        254    2    1    2    0    0  0.18819796210E+01 -0.58645525439E+03  0.42674540232E+03  0.11545522733E+04  0.89830173447E+03 0.  0.
        -24    2    4    4    0    0 -0.29697656889E+03 -0.60344077274E+03  0.49384976045E+03  0.83834409371E+03  0.81224287570E+02 0.  0.
         24    2    4    4    0    0  0.29885854851E+03  0.16985518351E+02 -0.67104358133E+02  0.31620817959E+03  0.76679059155E+02 0.  0.
         11    1    3    3    0    0 -0.19185338704E+02  0.57133914283E+03  0.85511451475E+03  0.10285996921E+04  0.00000000000E+00 0. -1.
        -11    1    3    3    0    0  0.17303359083E+02  0.15116111561E+02  0.34851756676E+02  0.41743837961E+02  0.00000000000E+00 0.  1.
          4    1    6    6  502    0  0.21652080389E+03 -0.13831446190E+02 -0.70779808833E+02  0.22821557519E+03  0.00000000000E+00 0. -1.
          3    1    5    5  503    0 -0.28981798913E+03 -0.60075769345E+03  0.49499106947E+03  0.83061449056E+03  0.00000000000E+00 0. -1.
         -4    1    5    5    0  503 -0.71585797582E+01 -0.26830792857E+01 -0.11413090240E+01  0.77296031526E+01  0.00000000000E+00 0.  1.
         -3    1    6    6    0  502  0.82337744621E+02  0.30816964540E+02  0.36754507005E+01  0.87992604409E+02  0.00000000000E+00 0.  1.
<mgrwt>
<rscale>  0 0.17934413E+04</rscale>
<asrwt>0</asrwt>
<pdfrwt beam="1">  1        2 0.27243134E+00 0.17934413E+04</pdfrwt>
<pdfrwt beam="2">  1       -2 0.69860319E-01 0.17934413E+04</pdfrwt>
<totfact> 0.15794469E+01</totfact>
</mgrwt>
</event>
<event>
12    1  0.1541840E-007  0.1314259E+04  0.7818608E-02  0.9018333E-01
         -2   -1    0    0    0  501 -0.00000000000E+00  0.00000000000E+00  0.95144351696E+02  0.95144351696E+02  0.00000000000E+00 0.  1.
          2   -1    0    0  501    0  0.00000000000E+00 -0.00000000000E+00 -0.45385689546E+04  0.45385689546E+04  0.00000000000E+00 0. -1.
         23    2    1    2    0    0 -0.17781271325E+03  0.13063783076E+03 -0.20814737359E+04  0.20951604881E+04  0.92092094570E+02 0.  0.
        254    2    1    2    0    0  0.17781271325E+03 -0.13063783076E+03 -0.23619508670E+04  0.25385528182E+04  0.90374493567E+03 0.  0.
        -24    2    4    4    0    0  0.11046407819E+03  0.29205942875E+03 -0.18002873637E+04  0.18288070137E+04  0.77456305210E+02 0.  0.
         24    2    4    4    0    0  0.67348635057E+02 -0.42269725951E+03 -0.56166350335E+03  0.70974580446E+03  0.71164626837E+02 0.  0.
         13    1    3    3    0    0 -0.12702054810E+03  0.13803600128E+03 -0.16666086294E+04  0.16771322193E+04  0.00000000000E+00 0. -1.
        -13    1    3    3    0    0 -0.50792165147E+02 -0.73981705202E+01 -0.41486510647E+03  0.41802826882E+03  0.00000000000E+00 0.  1.
          4    1    6    6  502    0  0.54719967776E+02 -0.40628276095E+03 -0.51173601679E+03  0.65569330300E+03  0.00000000000E+00 0. -1.
          3    1    5    5  503    0  0.95285770787E+02  0.17759241728E+03 -0.12875903547E+04  0.13032679564E+04  0.00000000000E+00 0. -1.
         -4    1    5    5    0  503  0.15178307407E+02  0.11446701147E+03 -0.51269700898E+03  0.52553905730E+03  0.00000000000E+00 0.  1.
         -3    1    6    6    0  502  0.12628667281E+02 -0.16414498565E+02 -0.49927486554E+02  0.54052501460E+02  0.00000000000E+00 0.  1.
<mgrwt>
<rscale>  0 0.13142590E+04</rscale>
<asrwt>0</asrwt>
<pdfrwt beam="1">  1        2 0.69824129E+00 0.13142590E+04</pdfrwt>
<pdfrwt beam="2">  1       -2 0.14637594E-01 0.13142590E+04</pdfrwt>
<totfact> 0.42444415E+00</totfact>
</mgrwt>
</event>
<event>
12    1  0.1541840E-007  0.1732026E+04  0.7818608E-02  0.8743307E-01
         -1   -1    0    0    0  501 -0.00000000000E+00  0.00000000000E+00  0.23685479193E+04  0.23685479193E+04  0.00000000000E+00 0.  1.
          1   -1    0    0  501    0  0.00000000000E+00 -0.00000000000E+00 -0.31664056897E+03  0.31664056897E+03  0.00000000000E+00 0. -1.
         23    2    1    2    0    0 -0.10304458786E+03 -0.14864963934E+03 -0.17705704291E+03  0.26877133833E+03  0.90409808648E+02 0.  0.
        254    2    1    2    0    0  0.10304458786E+03  0.14864963934E+03  0.22289643932E+04  0.24164171499E+04  0.91546418491E+03 0.  0.
        -24    2    4    4    0    0 -0.10005952844E+03  0.50105542172E+03  0.11638569226E+04  0.12735350281E+04  0.79120709517E+02 0.  0.
         24    2    4    4    0    0  0.20310411630E+03 -0.35240578238E+03  0.10651074706E+04  0.11428821218E+04  0.79274856607E+02 0.  0.
         13    1    3    3    0    0 -0.11305199282E+03 -0.10054981011E+03 -0.11750049313E+03  0.19156561090E+03  0.00000000000E+00 0. -1.
        -13    1    3    3    0    0  0.10007404959E+02 -0.48099829236E+02 -0.59556549783E+02  0.77205727434E+02  0.00000000000E+00 0.  1.
          4    1    6    6  502    0  0.81628541713E+02 -0.21922302223E+03  0.58345680308E+03  0.62860463995E+03  0.00000000000E+00 0. -1.
          3    1    5    5  503    0 -0.24139174117E+02  0.12492467344E+03  0.38124202959E+03  0.40191337236E+03  0.00000000000E+00 0. -1.
         -4    1    5    5    0  503 -0.75920354319E+02  0.37613074828E+03  0.78261489302E+03  0.87162165575E+03  0.00000000000E+00 0.  1.
         -3    1    6    6    0  502  0.12147557458E+03 -0.13318276014E+03  0.48165066750E+03  0.51427748184E+03  0.00000000000E+00 0.  1.
<mgrwt>
<rscale>  0 0.17320258E+04</rscale>
<asrwt>0</asrwt>
<pdfrwt beam="1">  1        1 0.48713935E-01 0.17320258E+04</pdfrwt>
<pdfrwt beam="2">  1       -1 0.36439198E+00 0.17320258E+04</pdfrwt>
<totfact> 0.96921538E-01</totfact>
</mgrwt>
</event>
<event>
12    1  0.1541840E-007  0.1829213E+04  0.7818608E-02  0.8690917E-01
          2   -1    0    0  501    0  0.00000000000E+00  0.00000000000E+00  0.21366761489E+04  0.21366761489E+04  0.00000000000E+00 0. -1.
         -2   -1    0    0    0  501 -0.00000000000E+00 -0.00000000000E+00 -0.39149822499E+03  0.39149822499E+03  0.00000000000E+00 0.  1.
         23    2    1    2    0    0  0.65947696264E+03  0.57478960600E+02  0.39257628196E+03  0.77471708754E+03  0.88638216372E+02 0.  0.
        254    2    1    2    0    0 -0.65947696264E+03 -0.57478960600E+02  0.13526016419E+04  0.17534572863E+04  0.89825806875E+03 0.  0.
        -24    2    4    4    0    0 -0.94559538490E+02  0.12545016153E+03  0.10820990467E+04  0.10958674551E+04  0.72855218613E+02 0.  0.
         24    2    4    4    0    0 -0.56491742415E+03 -0.18292912213E+03  0.27050259522E+03  0.65758983125E+03  0.81596398834E+02 0.  0.
         11    1    3    3    0    0  0.27832093270E+03  0.41828456777E+02  0.21370306905E+03  0.35338528987E+03  0.00000000000E+00 0. -1.
        -11    1    3    3    0    0  0.38115602994E+03  0.15650503824E+02  0.17887321291E+03  0.42133179767E+03  0.00000000000E+00 0.  1.
          4    1    6    6  502    0 -0.67702811219E+02  0.37897849196E+01  0.38865655346E+02  0.78157355906E+02  0.00000000000E+00 0. -1.
          1    1    5    5  503    0 -0.15780655609E+02  0.33489093844E+02  0.10585111957E+03  0.11213834318E+03  0.00000000000E+00 0. -1.
         -2    1    5    5    0  503 -0.78778882881E+02  0.91961067688E+02  0.97624792715E+03  0.98372911191E+03  0.00000000000E+00 0.  1.
         -3    1    6    6    0  502 -0.49721461293E+03 -0.18671890705E+03  0.23163693988E+03  0.57943247534E+03  0.00000000000E+00 0.  1.
<mgrwt>
<rscale>  0 0.18292129E+04</rscale>
<asrwt>0</asrwt>
<pdfrwt beam="1">  1        2 0.32871940E+00 0.18292129E+04</pdfrwt>
<pdfrwt beam="2">  1       -2 0.60230498E-01 0.18292129E+04</pdfrwt>
<totfact> 0.13562778E+01</totfact>
</mgrwt>
</event>
<event>
12    1  0.1541840E-007  0.1873040E+04  0.7818608E-02  0.8668394E-01
          2   -1    0    0  501    0  0.00000000000E+00  0.00000000000E+00  0.33424074595E+04  0.33424074595E+04  0.00000000000E+00 0.  1.
         -2   -1    0    0    0  501 -0.00000000000E+00 -0.00000000000E+00 -0.26240654220E+03  0.26240654220E+03  0.00000000000E+00 0. -1.
         23    2    1    2    0    0  0.23875888187E+03  0.32460954717E+03  0.23437493807E+04  0.23799452296E+04  0.92741438530E+02 0.  0.
        254    2    1    2    0    0 -0.23875888187E+03 -0.32460954717E+03  0.73625153654E+03  0.12248687721E+04  0.89210987101E+03 0.  0.
        -24    2    4    4    0    0  0.13487796305E+03 -0.46222136106E+03  0.14863507069E+03  0.51049318748E+03  0.81671651671E+02 0.  0.
         24    2    4    4    0    0 -0.37363684492E+03  0.13761181388E+03  0.58761646585E+03  0.71437558460E+03  0.80609315382E+02 0.  0.
         13    1    3    3    0    0  0.93226477451E+02  0.61251993477E+02  0.56115875222E+03  0.57213820707E+03  0.00000000000E+00 0.  1.
        -13    1    3    3    0    0  0.14553240442E+03  0.26335755369E+03  0.17825906285E+04  0.18078070225E+04  0.00000000000E+00 0. -1.
          2    1    6    6  502    0 -0.20192993853E+03  0.54280954671E+02  0.36935596809E+03  0.42443604145E+03  0.00000000000E+00 0. -1.
          3    1    5    5  503    0  0.74444457095E+02 -0.29412777389E+03  0.13271123333E+03  0.33115766037E+03  0.00000000000E+00 0. -1.
         -4    1    5    5    0  503  0.60433505953E+02 -0.16809358716E+03  0.15923837363E+02  0.17933552711E+03  0.00000000000E+00 0.  1.
         -1    1    6    6    0  502 -0.17170690639E+03  0.83330859214E+02  0.21826049776E+03  0.28993954315E+03  0.00000000000E+00 0.  1.
<mgrwt>
<rscale>  0 0.18730399E+04</rscale>
<asrwt>0</asrwt>
<pdfrwt beam="1">  1        2 0.51421650E+00 0.18730399E+04</pdfrwt>
<pdfrwt beam="2">  1       -2 0.40370240E-01 0.18730399E+04</pdfrwt>
<totfact> 0.57200222E+00</totfact>
</mgrwt>
</event>
<event>
12    1  0.1541840E-007  0.1580006E+04  0.7818608E-02  0.8832926E-01
         -2   -1    0    0    0  501 -0.00000000000E+00  0.00000000000E+00  0.21589848801E+03  0.21589848801E+03  0.00000000000E+00 0. -1.
          2   -1    0    0  501    0  0.00000000000E+00 -0.00000000000E+00 -0.28907324432E+04  0.28907324432E+04  0.00000000000E+00 0.  1.
         23    2    1    2    0    0 -0.63644629309E+02 -0.40163186187E+03 -0.15698846634E+04  0.16248473389E+04  0.10115446989E+03 0.  0.
        254    2    1    2    0    0  0.63644629309E+02  0.40163186187E+03 -0.11049492917E+04  0.14817835923E+04  0.89967265486E+03 0.  0.
        -24    2    4    4    0    0  0.43183061415E+03  0.38785733255E+03 -0.50982251707E+03  0.77715089014E+03  0.84460152739E+02 0.  0.
         24    2    4    4    0    0 -0.36818598484E+03  0.13774529320E+02 -0.59512677466E+03  0.70463270219E+03  0.81121575363E+02 0.  0.
         13    1    3    3    0    0 -0.59676606535E+02 -0.38468499999E+03 -0.15512436421E+04  0.15993438291E+04  0.00000000000E+00 0.  1.
        -13    1    3    3    0    0 -0.39680227742E+01 -0.16946861881E+02 -0.18641021336E+02  0.25503509735E+02  0.00000000000E+00 0. -1.
          4    1    6    6  502    0 -0.36926757829E+03  0.21081194276E+02 -0.58427083455E+03  0.69150225541E+03  0.00000000000E+00 0. -1.
          3    1    5    5  503    0  0.26748829729E+03  0.23333573360E+03 -0.36470901251E+03  0.50892849946E+03  0.00000000000E+00 0. -1.
         -2    1    5    5    0  503  0.16434231686E+03  0.15452159896E+03 -0.14511350457E+03  0.26822239068E+03  0.00000000000E+00 0.  1.
         -3    1    6    6    0  502  0.10815934434E+01 -0.73066649555E+01 -0.10855940107E+02  0.13130446784E+02  0.00000000000E+00 0.  1.
<mgrwt>
<rscale>  0 0.15800060E+04</rscale>
<asrwt>0</asrwt>
<pdfrwt beam="1">  1        2 0.44472808E+00 0.15800060E+04</pdfrwt>
<pdfrwt beam="2">  1       -2 0.33215151E-01 0.15800060E+04</pdfrwt>
<totfact> 0.16635307E+01</totfact>
</mgrwt>
</event>
<event>
12    1  0.1541840E-007  0.1725995E+04  0.7818608E-02  0.8746676E-01
          2   -1    0    0  501    0  0.00000000000E+00  0.00000000000E+00  0.25056310097E+04  0.25056310097E+04  0.00000000000E+00 0. -1.
         -2   -1    0    0    0  501 -0.00000000000E+00 -0.00000000000E+00 -0.29723625162E+03  0.29723625162E+03  0.00000000000E+00 0.  1.
         23    2    1    2    0    0  0.22424980360E+03 -0.31558526183E+03  0.93244497116E+01  0.39812944833E+03  0.92401733562E+02 0.  0.
        254    2    1    2    0    0 -0.22424980360E+03  0.31558526183E+03  0.21990703083E+04  0.24047378130E+04  0.89273271261E+03 0.  0.
        -24    2    4    4    0    0  0.12765652550E+03 -0.21905730470E+03  0.30552679216E+03  0.40437098087E+03  0.76726645929E+02 0.  0.
         24    2    4    4    0    0 -0.35190632910E+03  0.53464256653E+03  0.18935435162E+04  0.20003668321E+04  0.79244412242E+02 0.  0.
         13    1    3    3    0    0  0.22532936587E+03 -0.27079392959E+03  0.16909065806E+02  0.35268766910E+03  0.00000000000E+00 0.  1.
        -13    1    3    3    0    0 -0.10795622719E+01 -0.44791332233E+02 -0.75846160947E+01  0.45441779226E+02  0.00000000000E+00 0. -1.
          4    1    6    6  502    0 -0.87718086324E+02  0.78925519527E+02  0.32794328863E+03  0.34852618389E+03  0.00000000000E+00 0. -1.
          1    1    5    5  503    0  0.29027610623E+02 -0.14734477557E+02  0.15252666604E+02  0.35949281577E+02  0.00000000000E+00 0. -1.
         -2    1    5    5    0  503  0.98628914874E+02 -0.20432282714E+03  0.29027412556E+03  0.36842169929E+03  0.00000000000E+00 0.  1.
         -3    1    6    6    0  502 -0.26418824277E+03  0.45571704700E+03  0.15656002275E+04  0.16518406482E+04  0.00000000000E+00 0.  1.
<mgrwt>
<rscale>  0 0.17259946E+04</rscale>
<asrwt>0</asrwt>
<pdfrwt beam="1">  1        2 0.38548168E+00 0.17259946E+04</pdfrwt>
<pdfrwt beam="2">  1       -2 0.45728656E-01 0.17259946E+04</pdfrwt>
<totfact> 0.14900917E+01</totfact>
</mgrwt>
</event>
<event>
12    1  0.1541840E-007  0.2762413E+04  0.7818608E-02  0.8315033E-01
         -1   -1    0    0    0  501 -0.00000000000E+00  0.00000000000E+00  0.62229308441E+03  0.62229308441E+03  0.00000000000E+00 0.  1.
          1   -1    0    0  501    0  0.00000000000E+00 -0.00000000000E+00 -0.30656488209E+04  0.30656488209E+04  0.00000000000E+00 0. -1.
         23    2    1    2    0    0  0.95515494247E+03  0.61581627967E+03 -0.17185306650E+04  0.20622178482E+04  0.88567219404E+02 0.  0.
        254    2    1    2    0    0 -0.95515494247E+03 -0.61581627967E+03 -0.72482507147E+03  0.16257240571E+04  0.90887659847E+03 0.  0.
        -24    2    4    4    0    0 -0.87519241523E+03 -0.90215168952E+02 -0.27561051966E+03  0.92533048533E+03  0.78579947466E+02 0.  0.
         24    2    4    4    0    0 -0.79962527235E+02 -0.52560111072E+03 -0.44921455181E+03  0.70039357179E+03  0.78146711404E+02 0.  0.
         13    1    3    3    0    0  0.94775992548E+02  0.87824767493E+02 -0.22686295553E+03  0.26107944986E+03  0.00000000000E+00 0.  1.
        -13    1    3    3    0    0  0.86037894992E+03  0.52799151218E+03 -0.14916677095E+04  0.18011383983E+04  0.00000000000E+00 0. -1.
          4    1    6    6  502    0 -0.94550615410E+02 -0.40703976598E+03 -0.34630436308E+03  0.54272267490E+03  0.00000000000E+00 0. -1.
          3    1    5    5  503    0 -0.16071398884E+03  0.13669115687E+02 -0.54004741392E+02  0.17009509994E+03  0.00000000000E+00 0. -1.
         -4    1    5    5    0  503 -0.71447842640E+03 -0.10388428464E+03 -0.22160577827E+03  0.75523538539E+03  0.00000000000E+00 0.  1.
         -3    1    6    6    0  502  0.14588088176E+02 -0.11856134474E+03 -0.10291018873E+03  0.15767089690E+03  0.00000000000E+00 0.  1.
<mgrwt>
<rscale>  0 0.27624135E+04</rscale>
<asrwt>0</asrwt>
<pdfrwt beam="1">  1        1 0.47163827E+00 0.27624135E+04</pdfrwt>
<pdfrwt beam="2">  1       -1 0.95737399E-01 0.27624135E+04</pdfrwt>
<totfact> 0.48869601E-01</totfact>
</mgrwt>
</event>
<event>
12    1  0.1541840E-007  0.1359117E+04  0.7818608E-02  0.8983955E-01
          2   -1    0    0  501    0  0.00000000000E+00  0.00000000000E+00  0.16287682911E+04  0.16287682911E+04  0.00000000000E+00 0. -1.
         -2   -1    0    0    0  501 -0.00000000000E+00 -0.00000000000E+00 -0.28352702666E+03  0.28352702666E+03  0.00000000000E+00 0.  1.
         23    2    1    2    0    0 -0.24179251965E+03  0.60833922322E+02 -0.10953110219E+02  0.26482180625E+03  0.88578946577E+02 0.  0.
        254    2    1    2    0    0  0.24179251965E+03 -0.60833922322E+02  0.13561943747E+04  0.16474735115E+04  0.90152171387E+03 0.  0.
        -24    2    4    4    0    0  0.55296288101E+02 -0.15942482493E+03 -0.73157137782E+02  0.20045722361E+03  0.79731909579E+02 0.  0.
         24    2    4    4    0    0  0.18649623155E+03  0.98590902613E+02  0.14293515125E+04  0.14470162879E+04  0.79431611138E+02 0.  0.
         11    1    3    3    0    0 -0.23696062828E+03  0.75823965342E+02 -0.11509729249E+02  0.24906241576E+03  0.00000000000E+00 0.  1.
        -11    1    3    3    0    0 -0.48318913730E+01 -0.14990043020E+02  0.55661903001E+00  0.15759390493E+02  0.00000000000E+00 0. -1.
          2    1    6    6  502    0  0.28630433672E+02  0.37085984536E+01  0.42045830033E+03  0.42144826224E+03  0.00000000000E+00 0. -1.
          1    1    5    5  503    0  0.10431105419E+02 -0.13369287665E+03 -0.44277663301E+02  0.14122005769E+03  0.00000000000E+00 0. -1.
         -2    1    5    5    0  503  0.44865182681E+02 -0.25731948286E+02 -0.28879474482E+02  0.59237165918E+02  0.00000000000E+00 0.  1.
         -1    1    6    6    0  502  0.15786579788E+03  0.94882304159E+02  0.10088932121E+04  0.10255680257E+04  0.00000000000E+00 0.  1.
<mgrwt>
<rscale>  0 0.13591171E+04</rscale>
<asrwt>0</asrwt>
<pdfrwt beam="1">  1        2 0.25057973E+00 0.13591171E+04</pdfrwt>
<pdfrwt beam="2">  1       -2 0.43619544E-01 0.13591171E+04</pdfrwt>
<totfact> 0.52268718E+01</totfact>
</mgrwt>
</event>
<event>
12    1  0.1541840E-007  0.2137313E+04  0.7818608E-02  0.8544982E-01
          1   -1    0    0  501    0  0.00000000000E+00  0.00000000000E+00  0.16516638906E+04  0.16516638906E+04  0.00000000000E+00 0. -1.
         -1   -1    0    0    0  501 -0.00000000000E+00 -0.00000000000E+00 -0.69144019800E+03  0.69144019800E+03  0.00000000000E+00 0.  1.
         23    2    1    2    0    0 -0.52939725626E+03 -0.50912167999E+03 -0.12521263413E+03  0.75599055520E+03  0.12797334028E+03 0.  0.
        254    2    1    2    0    0  0.52939725626E+03  0.50912167999E+03  0.10854363267E+04  0.15871135334E+04  0.89514859578E+03 0.  0.
        -24    2    4    4    0    0  0.59121084936E+02  0.62226928041E+03  0.80787491689E+03  0.10245500873E+04  0.79540179013E+02 0.  0.
         24    2    4    4    0    0  0.47027617133E+03 -0.11314760042E+03  0.27756140983E+03  0.56256344607E+03  0.73994849983E+02 0.  0.
         11    1    3    3    0    0 -0.50878959152E+03 -0.47009780642E+03 -0.88041082027E+02  0.69829079055E+03  0.00000000000E+00 0.  1.
        -11    1    3    3    0    0 -0.20607664739E+02 -0.39023873569E+02 -0.37171552099E+02  0.57699764642E+02  0.00000000000E+00 0. -1.
          4    1    6    6  502    0  0.45700375520E+03 -0.11182184641E+03  0.25198101264E+03  0.53371433214E+03  0.00000000000E+00 0. -1.
          3    1    5    5  503    0  0.63373630172E+02  0.27351056806E+03  0.38203749013E+03  0.47410641391E+03  0.00000000000E+00 0. -1.
         -4    1    5    5    0  503 -0.42525452359E+01  0.34875871235E+03  0.42583742676E+03  0.55044367342E+03  0.00000000000E+00 0.  1.
         -3    1    6    6    0  502  0.13272416122E+02 -0.13257540018E+01  0.25580397196E+02  0.28849113922E+02  0.00000000000E+00 0.  1.
<mgrwt>
<rscale>  0 0.21373131E+04</rscale>
<asrwt>0</asrwt>
<pdfrwt beam="1">  1        1 0.25410214E+00 0.21373131E+04</pdfrwt>
<pdfrwt beam="2">  1       -1 0.10637542E+00 0.21373131E+04</pdfrwt>
<totfact> 0.38931258E+00</totfact>
</mgrwt>
</event>
<event>
12    1  0.1541840E-007  0.1209039E+04  0.7818608E-02  0.9104981E-01
          1   -1    0    0  501    0  0.00000000000E+00  0.00000000000E+00  0.64865203189E+03  0.64865203189E+03  0.00000000000E+00 0. -1.
         -1   -1    0    0    0  501 -0.00000000000E+00 -0.00000000000E+00 -0.56338976727E+03  0.56338976727E+03  0.00000000000E+00 0.  1.
         23    2    1    2    0    0 -0.14836928127E+03 -0.18481561309E+02 -0.19075825707E+03  0.25884598948E+03  0.90870907867E+02 0.  0.
        254    2    1    2    0    0  0.14836928127E+03  0.18481561309E+02  0.27602052169E+03  0.95319580968E+03  0.90002217276E+03 0.  0.
        -24    2    4    4    0    0  0.88643750059E+02 -0.37480395344E+03 -0.93186918941E+02  0.40408534680E+03  0.79154581068E+02 0.  0.
         24    2    4    4    0    0  0.59725531210E+02  0.39328551474E+03  0.36920744064E+03  0.54911046288E+03  0.83471737939E+02 0.  0.
         13    1    3    3    0    0 -0.37853309497E+01 -0.57320505846E+01  0.93740088483E+01  0.11621410250E+02  0.00000000000E+00 0. -1.
        -13    1    3    3    0    0 -0.14458395032E+03 -0.12749510724E+02 -0.20013226592E+03  0.24722457923E+03  0.00000000000E+00 0.  1.
          4    1    6    6  502    0  0.75530912743E+02  0.30402215267E+03  0.25942487625E+03  0.40673782036E+03  0.00000000000E+00 0. -1.
          1    1    5    5  503    0  0.28205302427E+02 -0.27552368755E+03 -0.65515169612E+02  0.28460688491E+03  0.00000000000E+00 0. -1.
         -2    1    5    5    0  503  0.60438447632E+02 -0.99280265882E+02 -0.27671749330E+02  0.11947846189E+03  0.00000000000E+00 0.  1.
         -3    1    6    6    0  502 -0.15805381533E+02  0.89263362070E+02  0.10978256438E+03  0.14237264251E+03  0.00000000000E+00 0.  1.
<mgrwt>
<rscale>  0 0.12090392E+04</rscale>
<asrwt>0</asrwt>
<pdfrwt beam="1">  1        1 0.99792620E-01 0.12090392E+04</pdfrwt>
<pdfrwt beam="2">  1       -1 0.86675349E-01 0.12090392E+04</pdfrwt>
<totfact> 0.39669438E+01</totfact>
</mgrwt>
</event>
<event>
12    1  0.1541840E-007  0.1923553E+04  0.7818608E-02  0.8643220E-01
         -2   -1    0    0    0  501 -0.00000000000E+00  0.00000000000E+00  0.56782983295E+03  0.56782983295E+03  0.00000000000E+00 0. -1.
          2   -1    0    0  501    0  0.00000000000E+00 -0.00000000000E+00 -0.16290343157E+04  0.16290343157E+04  0.00000000000E+00 0.  1.
         23    2    1    2    0    0 -0.54829152794E+03 -0.41372846024E+03 -0.90877975132E+02  0.69867828709E+03  0.89987243815E+02 0.  0.
        254    2    1    2    0    0  0.54829152794E+03  0.41372846024E+03 -0.97032650764E+03  0.14981858616E+04  0.91171953255E+03 0.  0.
        -24    2    4    4    0    0 -0.10381136016E+02  0.54620736128E+03 -0.57108000705E+03  0.79435875148E+03  0.80144881982E+02 0.  0.
         24    2    4    4    0    0  0.55867266396E+03 -0.13247890104E+03 -0.39924650060E+03  0.70382711011E+03  0.79429390145E+02 0.  0.
         13    1    3    3    0    0 -0.19162167022E+03 -0.99819749783E+02 -0.50123256131E+02  0.22179988222E+03  0.00000000000E+00 0.  1.
        -13    1    3    3    0    0 -0.35666985772E+03 -0.31390871046E+03 -0.40754719001E+02  0.47687840487E+03  0.00000000000E+00 0. -1.
          4    1    6    6  502    0  0.17774220505E+03 -0.62847263666E+02 -0.93529381478E+02  0.21045145570E+03  0.00000000000E+00 0. -1.
          3    1    5    5  503    0  0.21255062051E+02  0.20874734208E+03 -0.17647225470E+03  0.27417090868E+03  0.00000000000E+00 0. -1.
         -4    1    5    5    0  503 -0.31636198068E+02  0.33746001920E+03 -0.39460775235E+03  0.52018784280E+03  0.00000000000E+00 0.  1.
         -3    1    6    6    0  502  0.38093045891E+03 -0.69631637370E+02 -0.30571711912E+03  0.49337565441E+03  0.00000000000E+00 0.  1.
<mgrwt>
<rscale>  0 0.19235533E+04</rscale>
<asrwt>0</asrwt>
<pdfrwt beam="1">  1        2 0.25062066E+00 0.19235533E+04</pdfrwt>
<pdfrwt beam="2">  1       -2 0.87358437E-01 0.19235533E+04</pdfrwt>
<totfact> 0.11365794E+01</totfact>
</mgrwt>
</event>
<event>
12    1  0.1541840E-007  0.1252655E+04  0.7818608E-02  0.9067977E-01
         -1   -1    0    0    0  501 -0.00000000000E+00  0.00000000000E+00  0.84511521927E+03  0.84511521927E+03  0.00000000000E+00 0.  1.
          1   -1    0    0  501    0  0.00000000000E+00 -0.00000000000E+00 -0.46418030588E+03  0.46418030588E+03  0.00000000000E+00 0. -1.
         23    2    1    2    0    0 -0.14070259229E+03 -0.12148518391E+03  0.33284230710E+03  0.39189490474E+03  0.90784060154E+02 0.  0.
        254    2    1    2    0    0  0.14070259229E+03  0.12148518391E+03  0.48092606292E+02  0.91740062040E+03  0.89708145123E+03 0.  0.
        -24    2    4    4    0    0  0.30646178103E+03  0.43082206413E+03 -0.68058175646E+02  0.53895564642E+03  0.79465711829E+02 0.  0.
         24    2    4    4    0    0 -0.16575918874E+03 -0.30933688022E+03  0.11615078194E+03  0.37844497399E+03  0.81019627703E+02 0.  0.
         11    1    3    3    0    0 -0.11781442586E+03 -0.92706137677E+02  0.31924125252E+03  0.35268916089E+03  0.00000000000E+00 0.  1.
        -11    1    3    3    0    0 -0.22888166435E+02 -0.28779046232E+02  0.13601054584E+02  0.39205743847E+02  0.00000000000E+00 0. -1.
          2    1    6    6  502    0 -0.17659292237E+02 -0.85599245161E+02  0.54949433202E+02  0.10324011615E+03  0.00000000000E+00 0. -1.
          1    1    5    5  503    0  0.18156467913E+03  0.31136239323E+03 -0.64049490676E+02  0.36608005939E+03  0.00000000000E+00 0. -1.
         -4    1    5    5    0  503  0.12489710190E+03  0.11945967090E+03 -0.40086849696E+01  0.17287558703E+03  0.00000000000E+00 0.  1.
         -1    1    6    6    0  502 -0.14809989650E+03 -0.22373763506E+03  0.61201348736E+02  0.27520485783E+03  0.00000000000E+00 0.  1.
<mgrwt>
<rscale>  0 0.12526545E+04</rscale>
<asrwt>0</asrwt>
<pdfrwt beam="1">  1        1 0.71412355E-01 0.12526545E+04</pdfrwt>
<pdfrwt beam="2">  1       -1 0.13001773E+00 0.12526545E+04</pdfrwt>
<totfact> 0.24543534E+01</totfact>
</mgrwt>
</event>
<event>
12    1  0.1541840E-007  0.2027885E+04  0.7818608E-02  0.8593694E-01
         -1   -1    0    0    0  501 -0.00000000000E+00  0.00000000000E+00  0.53372927105E+03  0.53372927105E+03  0.00000000000E+00 0.  1.
          1   -1    0    0  501    0  0.00000000000E+00 -0.00000000000E+00 -0.19262182729E+04  0.19262182729E+04  0.00000000000E+00 0. -1.
         23    2    1    2    0    0  0.62325405488E+03 -0.31054891829E+03 -0.10661933264E+04  0.12765661586E+04  0.89256374554E+02 0.  0.
        254    2    1    2    0    0 -0.62325405488E+03  0.31054891829E+03 -0.32629567542E+03  0.11833813853E+04  0.89946450058E+03 0.  0.
        -24    2    4    4    0    0 -0.78458805079E+03  0.44895591023E+02 -0.34570604351E+03  0.86263763564E+03  0.83886818786E+02 0.  0.
         24    2    4    4    0    0  0.16133399591E+03  0.26565332726E+03  0.19410368087E+02  0.32074374970E+03  0.76807825525E+02 0.  0.
         11    1    3    3    0    0  0.23512497716E+03 -0.12750072891E+03 -0.33413805199E+03  0.42800517350E+03  0.00000000000E+00 0.  1.
        -11    1    3    3    0    0  0.38812907773E+03 -0.18304818938E+03 -0.73205527442E+03  0.84856098509E+03  0.00000000000E+00 0. -1.
          2    1    6    6  502    0  0.11519123178E+03  0.19100089111E+03 -0.21177234036E+02  0.22405096636E+03  0.00000000000E+00 0. -1.
          3    1    5    5  503    0 -0.86656053920E+02  0.24623618183E+02 -0.59886274034E+02  0.10817559832E+03  0.00000000000E+00 0. -1.
         -4    1    5    5    0  503 -0.69793199688E+03  0.20271972840E+02 -0.28581976947E+03  0.75446203733E+03  0.00000000000E+00 0.  1.
         -1    1    6    6    0  502  0.46142764134E+02  0.74652436152E+02  0.40587602123E+02  0.96692783347E+02  0.00000000000E+00 0.  1.
<mgrwt>
<rscale>  0 0.20278847E+04</rscale>
<asrwt>0</asrwt>
<pdfrwt beam="1">  1        1 0.29634128E+00 0.20278847E+04</pdfrwt>
<pdfrwt beam="2">  1       -1 0.82112194E-01 0.20278847E+04</pdfrwt>
<totfact> 0.45651411E+00</totfact>
</mgrwt>
</event>
<event>
12    1  0.1541840E-007  0.1579062E+04  0.7818608E-02  0.8833515E-01
         -2   -1    0    0    0  501 -0.00000000000E+00  0.00000000000E+00  0.38915228857E+03  0.38915228857E+03  0.00000000000E+00 0.  1.
          2   -1    0    0  501    0  0.00000000000E+00 -0.00000000000E+00 -0.16018385333E+04  0.16018385333E+04  0.00000000000E+00 0. -1.
         23    2    1    2    0    0 -0.20519685300E+03  0.49984015529E+03 -0.26088333105E+03  0.60643058925E+03  0.88045544084E+02 0.  0.
        254    2    1    2    0    0  0.20519685300E+03 -0.49984015529E+03 -0.95180291371E+03  0.13845602327E+04  0.84801669912E+03 0.  0.
        -24    2    4    4    0    0  0.12904524332E+03  0.41938999496E+00  0.11961516923E+03  0.19689089226E+03  0.88348084480E+02 0.  0.
         24    2    4    4    0    0  0.76151609679E+02 -0.50025954529E+03 -0.10714180829E+04  0.11876693404E+04  0.81012797518E+02 0.  0.
         11    1    3    3    0    0  0.43337860023E+01  0.92528240808E+00 -0.79638179444E+01  0.91137393479E+01  0.00000000000E+00 0. -1.
        -11    1    3    3    0    0 -0.20953063900E+03  0.49891487289E+03 -0.25291951311E+03  0.59731684990E+03  0.00000000000E+00 0.  1.
          4    1    6    6  502    0  0.32689293707E+02 -0.69744612063E+02 -0.12175372781E+03  0.14407245077E+03  0.00000000000E+00 0. -1.
          3    1    5    5  503    0  0.36494868303E+02  0.27883431790E+02  0.80597575483E+02  0.92764919849E+02  0.00000000000E+00 0. -1.
         -4    1    5    5    0  503  0.92550375021E+02 -0.27464041795E+02  0.39017593749E+02  0.10412597241E+03  0.00000000000E+00 0.  1.
         -3    1    6    6    0  502  0.43462315972E+02 -0.43051493323E+03 -0.94966435513E+03  0.10435968896E+04  0.00000000000E+00 0.  1.
<mgrwt>
<rscale>  0 0.15790619E+04</rscale>
<asrwt>0</asrwt>
<pdfrwt beam="1">  1        2 0.24643670E+00 0.15790619E+04</pdfrwt>
<pdfrwt beam="2">  1       -2 0.59869582E-01 0.15790619E+04</pdfrwt>
<totfact> 0.27799188E+01</totfact>
</mgrwt>
</event>
<event>
12    1  0.1541840E-007  0.2243824E+04  0.7818608E-02  0.8500406E-01
          2   -1    0    0  501    0  0.00000000000E+00  0.00000000000E+00  0.88602512998E+03  0.88602512998E+03  0.00000000000E+00 0.  1.
         -2   -1    0    0    0  501 -0.00000000000E+00 -0.00000000000E+00 -0.14205987743E+04  0.14205987743E+04  0.00000000000E+00 0. -1.
         23    2    1    2    0    0  0.79166453556E+03  0.50109597468E+03 -0.29723540484E+03  0.98772882101E+03  0.97105227775E+02 0.  0.
        254    2    1    2    0    0 -0.79166453556E+03 -0.50109597468E+03 -0.23733823948E+03  0.13188950833E+04  0.89739895701E+03 0.  0.
        -24    2    4    4    0    0 -0.42887790087E+03 -0.38496573197E+03  0.30054118790E+03  0.65495928759E+03  0.80695688463E+02 0.  0.
         24    2    4    4    0    0 -0.36278663469E+03 -0.11613024271E+03 -0.53787942737E+03  0.66393579568E+03  0.79975538798E+02 0.  0.
         11    1    3    3    0    0  0.26069636815E+03  0.14864368980E+03 -0.50403007495E+02  0.30429920481E+03  0.00000000000E+00 0.  1.
        -11    1    3    3    0    0  0.53096816740E+03  0.35245228488E+03 -0.24683239735E+03  0.68342961620E+03  0.00000000000E+00 0. -1.
          4    1    6    6  502    0 -0.18460604176E+03 -0.86749714792E+02 -0.33606044445E+03  0.39311769993E+03  0.00000000000E+00 0. -1.
          1    1    5    5  503    0 -0.32720686573E+03 -0.25595781510E+03  0.18891750839E+03  0.45636450461E+03  0.00000000000E+00 0. -1.
         -2    1    5    5    0  503 -0.10167103514E+03 -0.12900791686E+03  0.11162367951E+03  0.19859478298E+03  0.00000000000E+00 0.  1.
         -3    1    6    6    0  502 -0.17818059293E+03 -0.29380527921E+02 -0.20181898292E+03  0.27081809575E+03  0.00000000000E+00 0.  1.
<mgrwt>
<rscale>  0 0.22438237E+04</rscale>
<asrwt>0</asrwt>
<pdfrwt beam="1">  1        2 0.13631156E+00 0.22438237E+04</pdfrwt>
<pdfrwt beam="2">  1       -2 0.21855366E+00 0.22438237E+04</pdfrwt>
<totfact> 0.27546036E+00</totfact>
</mgrwt>
</event>
<event>
12    1  0.1541840E-007  0.3052575E+04  0.7818608E-02  0.8228875E-01
         -1   -1    0    0    0  501 -0.00000000000E+00  0.00000000000E+00  0.26602604473E+04  0.26602604473E+04  0.00000000000E+00 0. -1.
          1   -1    0    0  501    0  0.00000000000E+00 -0.00000000000E+00 -0.87568633335E+03  0.87568633335E+03  0.00000000000E+00 0.  1.
         23    2    1    2    0    0  0.77821227576E+03 -0.45043006385E+03 -0.41387403279E+03  0.99392973264E+03  0.90016719818E+02 0.  0.
        254    2    1    2    0    0 -0.77821227576E+03  0.45043006385E+03  0.21984481467E+04  0.25420170480E+04  0.90563504234E+03 0.  0.
        -24    2    4    4    0    0  0.83893333527E+02  0.19318789181E+03  0.79830655932E+02  0.23890694041E+03  0.79648851817E+02 0.  0.
         24    2    4    4    0    0 -0.86210560928E+03  0.25724217203E+03  0.21186174908E+04  0.23031101076E+04  0.79852856873E+02 0.  0.
         11    1    3    3    0    0  0.45493464573E+03 -0.31155052980E+03 -0.23771516248E+03  0.60044796859E+03  0.00000000000E+00 0. -1.
        -11    1    3    3    0    0  0.32327763002E+03 -0.13887953404E+03 -0.17615887031E+03  0.39348176405E+03  0.00000000000E+00 0.  1.
          2    1    6    6  502    0 -0.61457544512E+02  0.34937186560E+02  0.13255420252E+03  0.15022733902E+03  0.00000000000E+00 0. -1.
          3    1    5    5  503    0 -0.14528977312E+02  0.29556775714E+02  0.21159377373E+02  0.39146052459E+02  0.00000000000E+00 0. -1.
         -4    1    5    5    0  503  0.98422310839E+02  0.16363111610E+03  0.58671278558E+02  0.19976088795E+03  0.00000000000E+00 0.  1.
         -1    1    6    6    0  502 -0.80064806477E+03  0.22230498547E+03  0.19860632883E+04  0.21528827686E+04  0.00000000000E+00 0.  1.
<mgrwt>
<rscale>  0 0.30525751E+04</rscale>
<asrwt>0</asrwt>
<pdfrwt beam="1">  1        1 0.13472098E+00 0.30525751E+04</pdfrwt>
<pdfrwt beam="2">  1       -1 0.40927083E+00 0.30525751E+04</pdfrwt>
<totfact> 0.99712899E-02</totfact>
</mgrwt>
</event>
<event>
12    1  0.1541840E-007  0.1293158E+04  0.7818608E-02  0.9035009E-01
         -1   -1    0    0    0  501 -0.00000000000E+00  0.00000000000E+00  0.55389958184E+03  0.55389958184E+03  0.00000000000E+00 0.  1.
          1   -1    0    0  501    0  0.00000000000E+00 -0.00000000000E+00 -0.75476550573E+03  0.75476550573E+03  0.00000000000E+00 0. -1.
         23    2    1    2    0    0 -0.12159798485E+03  0.30224511561E+03 -0.48742114981E+01  0.33833824866E+03  0.91163768778E+02 0.  0.
        254    2    1    2    0    0  0.12159798485E+03 -0.30224511561E+03 -0.19599171239E+03  0.97032683891E+03  0.89273917980E+03 0.  0.
        -24    2    4    4    0    0 -0.31572587048E+03  0.62084375886E+02  0.67852749162E+02  0.33821453512E+03  0.79042907194E+02 0.  0.
         24    2    4    4    0    0  0.43732385534E+03 -0.36432949149E+03 -0.26384446155E+03  0.63211230379E+03  0.77226497334E+02 0.  0.
         11    1    3    3    0    0 -0.89554346055E+02  0.27280649863E+03  0.20684587367E+02  0.28787361593E+03  0.00000000000E+00 0.  1.
        -11    1    3    3    0    0 -0.32043638798E+02  0.29438616971E+02 -0.25558798865E+02  0.50464632725E+02  0.00000000000E+00 0. -1.
          2    1    6    6  502    0  0.41590441119E+03 -0.36357460407E+03 -0.24839789597E+03  0.60569339331E+03  0.00000000000E+00 0. -1.
          1    1    5    5  503    0 -0.29799745373E+03  0.52497440002E+02  0.42082031049E+02  0.30549854496E+03  0.00000000000E+00 0. -1.
         -2    1    5    5    0  503 -0.17728416755E+02  0.95869358835E+01  0.25770718113E+02  0.32715990162E+02  0.00000000000E+00 0.  1.
         -1    1    6    6    0  502  0.21419444151E+02 -0.75488741619E+00 -0.15446565581E+02  0.26418910480E+02  0.00000000000E+00 0.  1.
<mgrwt>
<rscale>  0 0.12931578E+04</rscale>
<asrwt>0</asrwt>
<pdfrwt beam="1">  1        1 0.11611777E+00 0.12931578E+04</pdfrwt>
<pdfrwt beam="2">  1       -1 0.85215320E-01 0.12931578E+04</pdfrwt>
<totfact> 0.32474165E+01</totfact>
</mgrwt>
</event>
<event>
12    1  0.1541840E-007  0.1363312E+04  0.7818608E-02  0.8980812E-01
         -1   -1    0    0    0  501 -0.00000000000E+00  0.00000000000E+00  0.28250769226E+03  0.28250769226E+03  0.00000000000E+00 0.  1.
          1   -1    0    0  501    0  0.00000000000E+00 -0.00000000000E+00 -0.16447508179E+04  0.16447508179E+04  0.00000000000E+00 0. -1.
         23    2    1    2    0    0 -0.20452249742E+03 -0.21342076004E+03 -0.71943738620E+03  0.78332845984E+03  0.92927124994E+02 0.  0.
        254    2    1    2    0    0  0.20452249742E+03  0.21342076004E+03 -0.64280573941E+03  0.11439300503E+04  0.89888757282E+03 0.  0.
        -24    2    4    4    0    0  0.10034802162E+03  0.35834155017E+03  0.85127144809E+02  0.38985542232E+03  0.79134237278E+02 0.  0.
         24    2    4    4    0    0  0.10417447581E+03 -0.14492079013E+03 -0.72793288421E+03  0.75407462797E+03  0.82993396126E+02 0.  0.
         11    1    3    3    0    0 -0.55328466052E+02 -0.35431739584E+02 -0.26450046911E+03  0.27253833764E+03  0.00000000000E+00 0.  1.
        -11    1    3    3    0    0 -0.14919403137E+03 -0.17798902046E+03 -0.45493691709E+03  0.51079012220E+03  0.00000000000E+00 0. -1.
          2    1    6    6  502    0 -0.14077230820E+02 -0.19495984481E+02 -0.10610233773E+03  0.10879323467E+03  0.00000000000E+00 0. -1.
          1    1    5    5  503    0  0.84794423571E+02  0.17906314410E+03  0.22882226174E+02  0.19944247320E+03  0.00000000000E+00 0. -1.
         -2    1    5    5    0  503  0.15553598047E+02  0.17927840607E+03  0.62244918635E+02  0.19041294912E+03  0.00000000000E+00 0.  1.
         -1    1    6    6    0  502  0.11825170663E+03 -0.12542480565E+03 -0.62183054649E+03  0.64528139330E+03  0.00000000000E+00 0.  1.
<mgrwt>
<rscale>  0 0.13633118E+04</rscale>
<asrwt>0</asrwt>
<pdfrwt beam="1">  1        1 0.25303859E+00 0.13633118E+04</pdfrwt>
<pdfrwt beam="2">  1       -1 0.43462722E-01 0.13633118E+04</pdfrwt>
<totfact> 0.26567141E+01</totfact>
</mgrwt>
</event>
<event>
12    1  0.1541840E-007  0.2260134E+04  0.7818608E-02  0.8493808E-01
          2   -1    0    0  501    0  0.00000000000E+00  0.00000000000E+00  0.24297252701E+04  0.24297252701E+04  0.00000000000E+00 0. -1.
         -2   -1    0    0    0  501 -0.00000000000E+00 -0.00000000000E+00 -0.52559511168E+03  0.52559511168E+03  0.00000000000E+00 0.  1.
         23    2    1    2    0    0  0.78647243085E+03  0.52409048131E+03  0.87169459069E+03  0.12895407773E+04  0.99268523929E+02 0.  0.
        254    2    1    2    0    0 -0.78647243085E+03 -0.52409048131E+03  0.10324355677E+04  0.16657796044E+04  0.90315489923E+03 0.  0.
        -24    2    4    4    0    0 -0.40840027148E+03 -0.31754547744E+03 -0.22208173112E+02  0.52380244110E+03  0.79056197488E+02 0.  0.
         24    2    4    4    0    0 -0.37807215937E+03 -0.20654500388E+03  0.10546437408E+04  0.11419771633E+04  0.78987500375E+02 0.  0.
         11    1    3    3    0    0  0.72893199249E+03  0.50858373179E+03  0.83523545435E+03  0.12196792718E+04  0.00000000000E+00 0. -1.
        -11    1    3    3    0    0  0.57540438360E+02  0.15506749522E+02  0.36459136344E+02  0.69861505497E+02  0.00000000000E+00 0.  1.
          2    1    6    6  502    0 -0.18543553147E+03 -0.88339575203E+02  0.60136791866E+03  0.63547902441E+03  0.00000000000E+00 0. -1.
          3    1    5    5  503    0 -0.24091133821E+03 -0.21865294027E+03  0.15351655249E+02  0.32570393686E+03  0.00000000000E+00 0. -1.
         -4    1    5    5    0  503 -0.16748893327E+03 -0.98892537171E+02 -0.37559828361E+02  0.19809850424E+03  0.00000000000E+00 0.  1.
         -1    1    6    6    0  502 -0.19263662790E+03 -0.11820542867E+03  0.45327582216E+03  0.50649813893E+03  0.00000000000E+00 0.  1.
<mgrwt>
<rscale>  0 0.22601343E+04</rscale>
<asrwt>0</asrwt>
<pdfrwt beam="1">  1        2 0.37380388E+00 0.22601343E+04</pdfrwt>
<pdfrwt beam="2">  1       -2 0.80860787E-01 0.22601343E+04</pdfrwt>
<totfact> 0.46909016E+00</totfact>
</mgrwt>
</event>
<event>
12    1  0.1541840E-007  0.1560048E+04  0.7818608E-02  0.8845475E-01
         -2   -1    0    0    0  501 -0.00000000000E+00  0.00000000000E+00  0.49748317510E+03  0.49748317510E+03  0.00000000000E+00 0.  1.
          2   -1    0    0  501    0  0.00000000000E+00 -0.00000000000E+00 -0.12230310188E+04  0.12230310188E+04  0.00000000000E+00 0. -1.
         23    2    1    2    0    0  0.39360045318E+03  0.69928943846E+02  0.10774994879E+03  0.42393258799E+03  0.91090140866E+02 0.  0.
        254    2    1    2    0    0 -0.39360045318E+03 -0.69928943846E+02 -0.83329779245E+03  0.12965816059E+04  0.90935541778E+03 0.  0.
        -24    2    4    4    0    0 -0.32900244222E+03 -0.28188974300E+03 -0.10283917508E+02  0.44049453971E+03  0.78900230408E+02 0.  0.
         24    2    4    4    0    0 -0.64598010960E+02  0.21196079915E+03 -0.82301387494E+03  0.85608706616E+03  0.80205630123E+02 0.  0.
         13    1    3    3    0    0  0.24769786658E+02 -0.17578002147E+02  0.22515566193E+01  0.30456493524E+02  0.00000000000E+00 0. -1.
        -13    1    3    3    0    0  0.36883066653E+03  0.87506945993E+02  0.10549839217E+03  0.39347609447E+03  0.00000000000E+00 0.  1.
          4    1    6    6  502    0  0.14939370127E+02  0.76973135099E+02 -0.24715156438E+03  0.25929123410E+03  0.00000000000E+00 0. -1.
          1    1    5    5  503    0  0.38415836749E+01 -0.79467358646E+01 -0.30987798132E+01  0.93547213943E+01  0.00000000000E+00 0. -1.
         -2    1    5    5    0  503 -0.33284402590E+03 -0.27394300714E+03 -0.71851376945E+01  0.43113981832E+03  0.00000000000E+00 0.  1.
         -3    1    6    6    0  502 -0.79537381087E+02  0.13498766406E+03 -0.57586231056E+03  0.59679583206E+03  0.00000000000E+00 0.  1.
<mgrwt>
<rscale>  0 0.15600479E+04</rscale>
<asrwt>0</asrwt>
<pdfrwt beam="1">  1        2 0.18815862E+00 0.15600479E+04</pdfrwt>
<pdfrwt beam="2">  1       -2 0.76535874E-01 0.15600479E+04</pdfrwt>
<totfact> 0.26944971E+01</totfact>
</mgrwt>
</event>
<event>
12    1  0.1541840E-007  0.1265947E+04  0.7818608E-02  0.9057014E-01
          1   -1    0    0  501    0  0.00000000000E+00  0.00000000000E+00  0.70383329482E+03  0.70383329482E+03  0.00000000000E+00 0. -1.
         -1   -1    0    0    0  501 -0.00000000000E+00 -0.00000000000E+00 -0.56924758675E+03  0.56924758675E+03  0.00000000000E+00 0.  1.
         23    2    1    2    0    0  0.89337889476E+02 -0.17983518205E+03  0.16009024819E+03  0.27317391239E+03  0.93129735577E+02 0.  0.
        254    2    1    2    0    0 -0.89337889476E+02  0.17983518205E+03 -0.25504540120E+02  0.99990696918E+03  0.97920453137E+03 0.  0.
        -24    2    4    4    0    0 -0.37240728673E+03  0.45163055546E+03 -0.79042100685E+02  0.59600189226E+03  0.79456000780E+02 0.  0.
         24    2    4    4    0    0  0.28306939725E+03 -0.27179537341E+03  0.53537560566E+02  0.40390507692E+03  0.79196162176E+02 0.  0.
         13    1    3    3    0    0  0.21079812431E+02 -0.11750427733E+03  0.50011818849E+02  0.12943259137E+03  0.00000000000E+00 0.  1.
        -13    1    3    3    0    0  0.68258077045E+02 -0.62330904717E+02  0.11007842934E+03  0.14374132102E+03  0.00000000000E+00 0. -1.
          2    1    6    6  502    0  0.26345052738E+03 -0.27292562434E+03  0.58028202438E+02  0.38374711605E+03  0.00000000000E+00 0. -1.
          1    1    5    5  503    0 -0.21781768534E+03  0.24481845125E+03 -0.63127848283E+01  0.32775062071E+03  0.00000000000E+00 0. -1.
         -2    1    5    5    0  503 -0.15458960139E+03  0.20681210420E+03 -0.72729315857E+02  0.26825127155E+03  0.00000000000E+00 0.  1.
         -1    1    6    6    0  502  0.19618869869E+02  0.11302509258E+01 -0.44906418727E+01  0.20157960872E+02  0.00000000000E+00 0.  1.
<mgrwt>
<rscale>  0 0.12659469E+04</rscale>
<asrwt>0</asrwt>
<pdfrwt beam="1">  1        1 0.10828204E+00 0.12659469E+04</pdfrwt>
<pdfrwt beam="2">  1       -1 0.87576552E-01 0.12659469E+04</pdfrwt>
<totfact> 0.34154774E+01</totfact>
</mgrwt>
</event>
<event>
12    1  0.1541840E-007  0.1230200E+04  0.7818608E-02  0.9086826E-01
         -1   -1    0    0    0  501 -0.00000000000E+00  0.00000000000E+00  0.38702777560E+03  0.38702777560E+03  0.00000000000E+00 0. -1.
          1   -1    0    0  501    0  0.00000000000E+00 -0.00000000000E+00 -0.97757338161E+03  0.97757338161E+03  0.00000000000E+00 0.  1.
         23    2    1    2    0    0 -0.51746399283E+02 -0.19456481787E+03 -0.33291341846E+03  0.39972540490E+03  0.91738197835E+02 0.  0.
        254    2    1    2    0    0  0.51746399283E+02  0.19456481787E+03 -0.25763218755E+03  0.96487575231E+03  0.90778726315E+03 0.  0.
        -24    2    4    4    0    0  0.40143854997E+03  0.25310720374E+03 -0.34376335784E+03  0.59141910595E+03  0.79919626525E+02 0.  0.
         24    2    4    4    0    0 -0.34969215068E+03 -0.58542385870E+02  0.86131170283E+02  0.37345664636E+03  0.79620832846E+02 0.  0.
         11    1    3    3    0    0  0.34282502791E+01  0.91707300027E+01 -0.20133217636E+02  0.22387533163E+02  0.00000000000E+00 0. -1.
        -11    1    3    3    0    0 -0.55174649562E+02 -0.20373554787E+03 -0.31278020083E+03  0.37733787174E+03  0.00000000000E+00 0.  1.
          2    1    6    6  502    0 -0.29520206099E+03 -0.35696370442E+02  0.43319788886E+02  0.30049141715E+03  0.00000000000E+00 0. -1.
          3    1    5    5  503    0  0.23994100075E+03  0.10977371242E+03 -0.16603262969E+03  0.31175116022E+03  0.00000000000E+00 0. -1.
         -4    1    5    5    0  503  0.16149754922E+03  0.14333349132E+03 -0.17773072815E+03  0.27966794573E+03  0.00000000000E+00 0.  1.
         -1    1    6    6    0  502 -0.54490089697E+02 -0.22846015429E+02  0.42811381397E+02  0.72965229207E+02  0.00000000000E+00 0.  1.
<mgrwt>
<rscale>  0 0.12302001E+04</rscale>
<asrwt>0</asrwt>
<pdfrwt beam="1">  1        1 0.15039590E+00 0.12302001E+04</pdfrwt>
<pdfrwt beam="2">  1       -1 0.59542735E-01 0.12302001E+04</pdfrwt>
<totfact> 0.44501933E+01</totfact>
</mgrwt>
</event>
<event>
12    1  0.1541840E-007  0.3392467E+04  0.7818608E-02  0.8139758E-01
         -2   -1    0    0    0  501 -0.00000000000E+00  0.00000000000E+00  0.11701935493E+04  0.11701935493E+04  0.00000000000E+00 0.  1.
          2   -1    0    0  501    0  0.00000000000E+00 -0.00000000000E+00 -0.24587454091E+04  0.24587454091E+04  0.00000000000E+00 0. -1.
         23    2    1    2    0    0  0.82765360954E+03 -0.12126941970E+04 -0.12123043512E+04  0.19062636954E+04  0.92313182522E+02 0.  0.
        254    2    1    2    0    0 -0.82765360954E+03  0.12126941970E+04 -0.76247508466E+02  0.17226752630E+04  0.89786338963E+03 0.  0.
        -24    2    4    4    0    0 -0.83928146934E+03  0.70902166697E+03 -0.33379831499E+03  0.11509422852E+04  0.78369124369E+02 0.  0.
         24    2    4    4    0    0  0.11627859801E+02  0.50367252998E+03  0.25755080652E+03  0.57173297783E+03  0.82005825490E+02 0.  0.
         13    1    3    3    0    0  0.77883843534E+03 -0.11277819045E+04 -0.11579464884E+04  0.17942467507E+04  0.00000000000E+00 0. -1.
        -13    1    3    3    0    0  0.48815174202E+02 -0.84912292468E+02 -0.54357862820E+02  0.11201694468E+03  0.00000000000E+00 0.  1.
          4    1    6    6  502    0  0.18649580032E+02  0.43845777309E+03  0.19205067039E+03  0.47903703992E+03  0.00000000000E+00 0. -1.
          3    1    5    5  503    0 -0.77351537930E+03  0.64074557350E+03 -0.28373787742E+03  0.10437375700E+04  0.00000000000E+00 0. -1.
         -4    1    5    5    0  503 -0.65766090042E+02  0.68276093479E+02 -0.50060437572E+02  0.10720471515E+03  0.00000000000E+00 0.  1.
         -3    1    6    6    0  502 -0.70217202315E+01  0.65214756894E+02  0.65500136131E+02  0.92695937909E+02  0.00000000000E+00 0.  1.
<mgrwt>
<rscale>  0 0.33924670E+04</rscale>
<asrwt>0</asrwt>
<pdfrwt beam="1">  1        2 0.37826852E+00 0.33924670E+04</pdfrwt>
<pdfrwt beam="2">  1       -2 0.18002978E+00 0.33924670E+04</pdfrwt>
<totfact> 0.55249285E-01</totfact>
</mgrwt>
</event>
<event>
12    1  0.1541840E-007  0.1107396E+04  0.7818608E-02  0.9198013E-01
          3   -1    0    0  501    0  0.00000000000E+00  0.00000000000E+00  0.14102044693E+03  0.14102044693E+03  0.00000000000E+00 0. -1.
         -3   -1    0    0    0  501 -0.00000000000E+00 -0.00000000000E+00 -0.21740232733E+04  0.21740232733E+04  0.00000000000E+00 0.  1.
         23    2    1    2    0    0 -0.13471192623E+03  0.10277462158E+03 -0.26883902823E+03  0.33057013269E+03  0.91061866992E+02 0.  0.
        254    2    1    2    0    0  0.13471192623E+03 -0.10277462158E+03 -0.17641637981E+04  0.19844735875E+04  0.89283345986E+03 0.  0.
        -24    2    4    4    0    0 -0.88406257698E+01 -0.20601257854E+03 -0.17762675156E+04  0.17900702962E+04  0.81890410051E+02 0.  0.
         24    2    4    4    0    0  0.14355255200E+03  0.10323795696E+03  0.12103717477E+02  0.19440329130E+03  0.79879463871E+02 0.  0.
         13    1    3    3    0    0 -0.81775702417E+02  0.65768673660E+01 -0.12707675194E+03  0.15125812895E+03  0.00000000000E+00 0.  1.
        -13    1    3    3    0    0 -0.52936223816E+02  0.96197754216E+02 -0.14176227629E+03  0.17931200375E+03  0.00000000000E+00 0. -1.
          4    1    6    6  502    0  0.74564052331E+02  0.35111007602E+02 -0.31318223304E+02  0.88166954500E+02  0.00000000000E+00 0. -1.
          3    1    5    5  503    0 -0.43986086683E+02 -0.13731980249E+03 -0.10978037801E+04  0.11072328768E+04  0.00000000000E+00 0. -1.
         -2    1    5    5    0  503  0.35145460913E+02 -0.68692776049E+02 -0.67846373548E+03  0.68283741936E+03  0.00000000000E+00 0.  1.
         -3    1    6    6    0  502  0.68988499671E+02  0.68126949360E+02  0.43421940781E+02  0.10623633680E+03  0.00000000000E+00 0.  1.
<mgrwt>
<rscale>  0 0.11073965E+04</rscale>
<asrwt>0</asrwt>
<pdfrwt beam="1">  1        3 0.21695453E-01 0.11073965E+04</pdfrwt>
<pdfrwt beam="2">  1       -3 0.33446513E+00 0.11073965E+04</pdfrwt>
<totfact> 0.12787334E+00</totfact>
</mgrwt>
</event>
<event>
12    1  0.1541840E-007  0.4221971E+04  0.7818608E-02  0.7961206E-01
          1   -1    0    0  501    0  0.00000000000E+00  0.00000000000E+00  0.51419217591E+04  0.51419217591E+04  0.00000000000E+00 0. -1.
         -1   -1    0    0    0  501 -0.00000000000E+00 -0.00000000000E+00 -0.86665249500E+03  0.86665249500E+03  0.00000000000E+00 0.  1.
         23    2    1    2    0    0 -0.44252205909E+03  0.15883273688E+04  0.39151360597E+03  0.16982080182E+04  0.10962648427E+03 0.  0.
        254    2    1    2    0    0  0.44252205909E+03 -0.15883273688E+04  0.38837556581E+04  0.43103662359E+04  0.88152678468E+03 0.  0.
        -24    2    4    4    0    0  0.68692490189E+02 -0.11415891252E+04  0.17118500986E+04  0.20603241086E+04  0.80995575337E+02 0.  0.
         24    2    4    4    0    0  0.37382956890E+03 -0.44673824362E+03  0.21719055595E+04  0.22500421273E+04  0.78690599117E+02 0.  0.
         11    1    3    3    0    0 -0.43881834077E+03  0.15349232915E+04  0.39500892634E+03  0.16445616738E+04  0.00000000000E+00 0.  1.
        -11    1    3    3    0    0 -0.37037183223E+01  0.53404077334E+02 -0.34953203622E+01  0.53646344421E+02  0.00000000000E+00 0. -1.
          4    1    6    6  502    0  0.13276777060E+02 -0.13477469118E+02  0.32266540761E+02  0.37403805095E+02  0.00000000000E+00 0. -1.
          1    1    5    5  503    0  0.20731843464E+02 -0.59566090164E+03  0.82420430910E+03  0.10171305040E+04  0.00000000000E+00 0. -1.
         -2    1    5    5    0  503  0.47960646725E+02 -0.54592822358E+03  0.88764578954E+03  0.10431936046E+04  0.00000000000E+00 0.  1.
         -3    1    6    6    0  502  0.36055279184E+03 -0.43326077450E+03  0.21396390187E+04  0.22126383222E+04  0.00000000000E+00 0.  1.
<mgrwt>
<rscale>  0 0.42219708E+04</rscale>
<asrwt>0</asrwt>
<pdfrwt beam="1">  1        1 0.79106486E+00 0.42219708E+04</pdfrwt>
<pdfrwt beam="2">  1       -1 0.13333116E+00 0.42219708E+04</pdfrwt>
<totfact> 0.20168950E-03</totfact>
</mgrwt>
</event>
<event>
12    1  0.1541840E-007  0.1473784E+04  0.7818608E-02  0.8902076E-01
         -2   -1    0    0    0  501 -0.00000000000E+00  0.00000000000E+00  0.48573675246E+03  0.48573675246E+03  0.00000000000E+00 0. -1.
          2   -1    0    0  501    0  0.00000000000E+00 -0.00000000000E+00 -0.11179101919E+04  0.11179101919E+04  0.00000000000E+00 0.  1.
         23    2    1    2    0    0  0.22562377473E+03  0.35035582537E+03  0.40493815638E+01  0.42637343786E+03  0.90125573130E+02 0.  0.
        254    2    1    2    0    0 -0.22562377473E+03 -0.35035582537E+03 -0.63622282099E+03  0.11772735065E+04  0.89863125865E+03 0.  0.
        -24    2    4    4    0    0 -0.55701301325E+03 -0.12004877582E+03 -0.41458503546E+03  0.70917731769E+03  0.79853057485E+02 0.  0.
         24    2    4    4    0    0  0.33138923852E+03 -0.23030704955E+03 -0.22163778554E+03  0.46809618880E+03  0.84442699530E+02 0.  0.
         13    1    3    3    0    0  0.10549105418E+03  0.16983066789E+03 -0.42965001451E+02  0.20449158814E+03  0.00000000000E+00 0.  1.
        -13    1    3    3    0    0  0.12013272055E+03  0.18052515747E+03  0.47014383014E+02  0.22188184972E+03  0.00000000000E+00 0. -1.
          4    1    6    6  502    0  0.30503573955E+03 -0.18984744650E+03 -0.17025892709E+03  0.39758893043E+03  0.00000000000E+00 0. -1.
          1    1    5    5  503    0 -0.36057235590E+03 -0.61269420049E+02 -0.30761824776E+03  0.47790726300E+03  0.00000000000E+00 0. -1.
         -2    1    5    5    0  503 -0.19644065735E+03 -0.58779355766E+02 -0.10696678770E+03  0.23127005469E+03  0.00000000000E+00 0.  1.
         -3    1    6    6    0  502  0.26353498978E+02 -0.40459603052E+02 -0.51378858447E+02  0.70507258370E+02  0.00000000000E+00 0.  1.
<mgrwt>
<rscale>  0 0.14737843E+04</rscale>
<asrwt>0</asrwt>
<pdfrwt beam="1">  1        2 0.17198618E+00 0.14737843E+04</pdfrwt>
<pdfrwt beam="2">  1       -2 0.74728731E-01 0.14737843E+04</pdfrwt>
<totfact> 0.33103549E+01</totfact>
</mgrwt>
</event>
<event>
12    1  0.1541840E-007  0.1803310E+04  0.7818608E-02  0.8704541E-01
          2   -1    0    0  501    0  0.00000000000E+00  0.00000000000E+00  0.23570685220E+04  0.23570685220E+04  0.00000000000E+00 0. -1.
         -2   -1    0    0    0  501 -0.00000000000E+00 -0.00000000000E+00 -0.34491222217E+03  0.34491222217E+03  0.00000000000E+00 0.  1.
         23    2    1    2    0    0 -0.12880292615E+03 -0.66033123795E+03  0.65337663454E+03  0.94269791114E+03  0.95659748632E+02 0.  0.
        254    2    1    2    0    0  0.12880292615E+03  0.66033123795E+03  0.13587796653E+04  0.17592828331E+04  0.89228155323E+03 0.  0.
        -24    2    4    4    0    0  0.13501206168E+03  0.51700953429E+03  0.14638371202E+04  0.15603729523E+04  0.80109429243E+02 0.  0.
         24    2    4    4    0    0 -0.62091355283E+01  0.14332170365E+03 -0.10505745483E+03  0.19890988074E+03  0.89153843103E+02 0.  0.
         13    1    3    3    0    0 -0.34231371190E+02 -0.14329514758E+03  0.92147602006E+02  0.17377130560E+03  0.00000000000E+00 0.  1.
        -13    1    3    3    0    0 -0.94571554962E+02 -0.51703609036E+03  0.56122903253E+03  0.76892660554E+03  0.00000000000E+00 0. -1.
          2    1    6    6  502    0 -0.11276892987E+02  0.38020479533E+02  0.11945768902E+02  0.41417708460E+02  0.00000000000E+00 0. -1.
          3    1    5    5  503    0  0.21022324482E+02  0.16135550906E+02  0.79745095211E+02  0.84033174044E+02  0.00000000000E+00 0. -1.
         -4    1    5    5    0  503  0.11398973720E+03  0.50087398339E+03  0.13840920249E+04  0.14763397783E+04  0.00000000000E+00 0.  1.
         -1    1    6    6    0  502  0.50677574590E+01  0.10530122412E+03 -0.11700322373E+03  0.15749217228E+03  0.00000000000E+00 0.  1.
<mgrwt>
<rscale>  0 0.18033100E+04</rscale>
<asrwt>0</asrwt>
<pdfrwt beam="1">  1        2 0.36262592E+00 0.18033100E+04</pdfrwt>
<pdfrwt beam="2">  1       -2 0.53063420E-01 0.18033100E+04</pdfrwt>
<totfact> 0.13306038E+01</totfact>
</mgrwt>
</event>
<event>
12    1  0.1541840E-007  0.1566782E+04  0.7818608E-02  0.8841219E-01
         -2   -1    0    0    0  501 -0.00000000000E+00  0.00000000000E+00  0.30573570061E+03  0.30573570061E+03  0.00000000000E+00 0.  1.
          2   -1    0    0  501    0  0.00000000000E+00 -0.00000000000E+00 -0.20072929147E+04  0.20072929147E+04  0.00000000000E+00 0. -1.
         23    2    1    2    0    0  0.11786800322E+03  0.44035346479E+03 -0.17861207894E+03  0.49673701363E+03  0.83912727469E+02 0.  0.
        254    2    1    2    0    0 -0.11786800322E+03 -0.44035346479E+03 -0.15229451351E+04  0.18162916016E+04  0.87849260525E+03 0.  0.
        -24    2    4    4    0    0 -0.14352088927E+03 -0.29947077201E+03 -0.62953672042E+02  0.34739862656E+03  0.80259902595E+02 0.  0.
         24    2    4    4    0    0  0.25652886053E+02 -0.14088269277E+03 -0.14599914631E+04  0.14688929751E+04  0.74602253983E+02 0.  0.
         11    1    3    3    0    0  0.74738979175E+01  0.10779103012E+03 -0.11929279854E+02  0.10870636156E+03  0.00000000000E+00 0. -1.
        -11    1    3    3    0    0  0.11039410530E+03  0.33256243466E+03 -0.16668279909E+03  0.38803065207E+03  0.00000000000E+00 0.  1.
          2    1    6    6  502    0  0.38169055670E+02 -0.91565970188E+02 -0.11915295329E+04  0.11956520528E+04  0.00000000000E+00 0. -1.
          1    1    5    5  503    0 -0.13573812760E+03 -0.30339480926E+03 -0.58076814574E+02  0.33741097487E+03  0.00000000000E+00 0. -1.
         -2    1    5    5    0  503 -0.77827616747E+01  0.39240372461E+01 -0.48768574678E+01  0.99876516937E+01  0.00000000000E+00 0.  1.
         -1    1    6    6    0  502 -0.12516169617E+02 -0.49316722586E+02 -0.26846193018E+03  0.27324092224E+03  0.00000000000E+00 0.  1.
<mgrwt>
<rscale>  0 0.15667815E+04</rscale>
<asrwt>0</asrwt>
<pdfrwt beam="1">  1        2 0.30881431E+00 0.15667815E+04</pdfrwt>
<pdfrwt beam="2">  1       -2 0.47036260E-01 0.15667815E+04</pdfrwt>
<totfact> 0.27270252E+01</totfact>
</mgrwt>
</event>
<event>
12    1  0.1541840E-007  0.1976567E+04  0.7818608E-02  0.8617655E-01
          2   -1    0    0  501    0  0.00000000000E+00  0.00000000000E+00  0.21770672636E+04  0.21770672636E+04  0.00000000000E+00 0. -1.
         -2   -1    0    0    0  501 -0.00000000000E+00 -0.00000000000E+00 -0.44863314873E+03  0.44863314873E+03  0.00000000000E+00 0.  1.
         23    2    1    2    0    0  0.20813417532E+03 -0.15839151100E+02 -0.31536595061E+03  0.38929673598E+03  0.92333916809E+02 0.  0.
        254    2    1    2    0    0 -0.20813417532E+03  0.15839151100E+02  0.20438000655E+04  0.22364036764E+04  0.88363566153E+03 0.  0.
        -24    2    4    4    0    0 -0.14960748316E+03 -0.42385200289E+03  0.10496935681E+04  0.11447041824E+04  0.80362670781E+02 0.  0.
         24    2    4    4    0    0 -0.58526692160E+02  0.43969115399E+03  0.99410649742E+03  0.10916994940E+04  0.82500742057E+02 0.  0.
         13    1    3    3    0    0  0.50977414048E+02 -0.34841660187E+02 -0.14021983193E+03  0.15321305197E+03  0.00000000000E+00 0. -1.
        -13    1    3    3    0    0  0.15715676127E+03  0.19002509087E+02 -0.17514611868E+03  0.23608368400E+03  0.00000000000E+00 0.  1.
          4    1    6    6  502    0  0.16408489194E+02  0.14105768362E+03  0.35296820023E+03  0.38046426770E+03  0.00000000000E+00 0. -1.
          1    1    5    5  503    0 -0.34764224222E+02 -0.71507302714E+02  0.26923557873E+03  0.28073055138E+03  0.00000000000E+00 0. -1.
         -2    1    5    5    0  503 -0.11484325893E+03 -0.35234470018E+03  0.78045798935E+03  0.86397363097E+03  0.00000000000E+00 0.  1.
         -3    1    6    6    0  502 -0.74935181354E+02  0.29863347038E+03  0.64113829719E+03  0.71123522632E+03  0.00000000000E+00 0.  1.
<mgrwt>
<rscale>  0 0.19765673E+04</rscale>
<asrwt>0</asrwt>
<pdfrwt beam="1">  1        2 0.33493342E+00 0.19765673E+04</pdfrwt>
<pdfrwt beam="2">  1       -2 0.69020486E-01 0.19765673E+04</pdfrwt>
<totfact> 0.94922769E+00</totfact>
</mgrwt>
</event>
<event>
12    1  0.1541840E-007  0.1188327E+04  0.7818608E-02  0.9123136E-01
         -1   -1    0    0    0  501 -0.00000000000E+00  0.00000000000E+00  0.30741364593E+03  0.30741364593E+03  0.00000000000E+00 0.  1.
          1   -1    0    0  501    0  0.00000000000E+00 -0.00000000000E+00 -0.11483884274E+04  0.11483884274E+04  0.00000000000E+00 0. -1.
         23    2    1    2    0    0 -0.11965388767E+03 -0.35502283017E+02 -0.43379787108E+03  0.46092539955E+03  0.93242512146E+02 0.  0.
        254    2    1    2    0    0  0.11965388767E+03  0.35502283017E+02 -0.40717691040E+03  0.99487667378E+03  0.89911572933E+03 0.  0.
        -24    2    4    4    0    0  0.25390776638E+03  0.26906133662E+03 -0.55988597503E+03  0.67516407243E+03  0.74236534019E+02 0.  0.
         24    2    4    4    0    0 -0.13425387871E+03 -0.23355905360E+03  0.15270906463E+03  0.31971260135E+03  0.79511971259E+02 0.  0.
         11    1    3    3    0    0 -0.11569984017E+03  0.39766570428E+00 -0.36934374496E+03  0.38704187512E+03  0.00000000000E+00 0. -1.
        -11    1    3    3    0    0 -0.39540474957E+01 -0.35899948722E+02 -0.64454126116E+02  0.73883524437E+02  0.00000000000E+00 0.  1.
          4    1    6    6  502    0 -0.22521385832E+02 -0.22574579935E+01  0.42712904894E+01  0.23033733064E+02  0.00000000000E+00 0. -1.
          1    1    5    5  503    0  0.25819554669E+02  0.19534817318E+02 -0.19657152819E+02  0.37876934246E+02  0.00000000000E+00 0. -1.
         -2    1    5    5    0  503  0.22808821171E+03  0.24952651930E+03 -0.54022882221E+03  0.63728713819E+03  0.00000000000E+00 0.  1.
         -3    1    6    6    0  502 -0.11173249288E+03 -0.23130159561E+03  0.14843777414E+03  0.29667886828E+03  0.00000000000E+00 0.  1.
<mgrwt>
<rscale>  0 0.11883270E+04</rscale>
<asrwt>0</asrwt>
<pdfrwt beam="1">  1        1 0.17667515E+00 0.11883270E+04</pdfrwt>
<pdfrwt beam="2">  1       -1 0.47294406E-01 0.11883270E+04</pdfrwt>
<totfact> 0.51518706E+01</totfact>
</mgrwt>
</event>
<event>
12    1  0.1541840E-007  0.1349262E+04  0.7818608E-02  0.8991387E-01
         -1   -1    0    0    0  501 -0.00000000000E+00  0.00000000000E+00  0.11532260674E+04  0.11532260674E+04  0.00000000000E+00 0.  1.
          1   -1    0    0  501    0  0.00000000000E+00 -0.00000000000E+00 -0.39465539318E+03  0.39465539318E+03  0.00000000000E+00 0. -1.
         23    2    1    2    0    0 -0.11191986503E+03  0.19172098884E+03  0.53950708788E+03  0.59055068677E+03  0.91647269547E+02 0.  0.
        254    2    1    2    0    0  0.11191986503E+03 -0.19172098884E+03  0.21906358634E+03  0.95733077382E+03  0.90510240409E+03 0.  0.
        -24    2    4    4    0    0 -0.20734052749E+03  0.60186384769E+02 -0.24394711005E+03  0.33589838188E+03  0.81884279280E+02 0.  0.
         24    2    4    4    0    0  0.31926039253E+03 -0.25190737361E+03  0.46301069639E+03  0.62143239195E+03  0.80092382100E+02 0.  0.
         13    1    3    3    0    0 -0.49138447735E+02  0.15004788448E+03  0.42590507533E+03  0.45422911385E+03  0.00000000000E+00 0.  1.
        -13    1    3    3    0    0 -0.62781417300E+02  0.41673104366E+02  0.11360201255E+03  0.13632157291E+03  0.00000000000E+00 0. -1.
          2    1    6    6  502    0  0.20610588758E+03 -0.14823223785E+03  0.23089092398E+03  0.34316621629E+03  0.00000000000E+00 0. -1.
          3    1    5    5  503    0 -0.15789070176E+03  0.40064701865E+02 -0.22794067503E+03  0.28016353326E+03  0.00000000000E+00 0. -1.
         -4    1    5    5    0  503 -0.49449825737E+02  0.20121682905E+02 -0.16006435023E+02  0.55734848618E+02  0.00000000000E+00 0.  1.
         -1    1    6    6    0  502  0.11315450495E+03 -0.10367513577E+03  0.23211977241E+03  0.27826617565E+03  0.00000000000E+00 0.  1.
<mgrwt>
<rscale>  0 0.13492619E+04</rscale>
<asrwt>0</asrwt>
<pdfrwt beam="1">  1        1 0.60716215E-01 0.13492619E+04</pdfrwt>
<pdfrwt beam="2">  1       -1 0.17741939E+00 0.13492619E+04</pdfrwt>
<totfact> 0.12987182E+01</totfact>
</mgrwt>
</event>
<event>
12    1  0.1541840E-007  0.1307052E+04  0.7818608E-02  0.9023991E-01
          2   -1    0    0  501    0  0.00000000000E+00  0.00000000000E+00  0.14116472519E+04  0.14116472519E+04  0.00000000000E+00 0. -1.
         -2   -1    0    0    0  501 -0.00000000000E+00 -0.00000000000E+00 -0.30255166693E+03  0.30255166693E+03  0.00000000000E+00 0.  1.
         23    2    1    2    0    0 -0.16842576033E+03  0.12277172927E+03  0.33152329100E+02  0.23014665645E+03  0.91805622363E+02 0.  0.
        254    2    1    2    0    0  0.16842576033E+03 -0.12277172927E+03  0.10759432558E+04  0.14840522623E+04  0.10006583300E+04 0.  0.
        -24    2    4    4    0    0  0.38315782759E+03 -0.96376044561E+02  0.20317345802E+02  0.40348135951E+03  0.79285245298E+02 0.  0.
         24    2    4    4    0    0 -0.21473206726E+03 -0.26395684713E+02  0.10556259100E+04  0.10805709028E+04  0.80503548178E+02 0.  0.
         13    1    3    3    0    0 -0.79854775352E+02  0.39970980476E+02 -0.29009539708E+02  0.93893651653E+02  0.00000000000E+00 0.  1.
        -13    1    3    3    0    0 -0.88570984975E+02  0.82800748798E+02  0.62161868809E+02  0.13625300479E+03  0.00000000000E+00 0. -1.
          4    1    6    6  502    0 -0.92687753589E+02  0.17606392009E+02  0.32099596842E+03  0.33457348437E+03  0.00000000000E+00 0. -1.
          3    1    5    5  503    0  0.24812953879E+03 -0.74301192887E+02 -0.22827055430E+02  0.26001924880E+03  0.00000000000E+00 0. -1.
         -4    1    5    5    0  503  0.13502828879E+03 -0.22074851674E+02  0.43144401231E+02  0.14346211071E+03  0.00000000000E+00 0.  1.
         -3    1    6    6    0  502 -0.12204431367E+03 -0.44002076722E+02  0.73462994161E+03  0.74599741847E+03  0.00000000000E+00 0.  1.
<mgrwt>
<rscale>  0 0.13070520E+04</rscale>
<asrwt>0</asrwt>
<pdfrwt beam="1">  1        2 0.21717650E+00 0.13070520E+04</pdfrwt>
<pdfrwt beam="2">  1       -2 0.46546411E-01 0.13070520E+04</pdfrwt>
<totfact> 0.61068896E+01</totfact>
</mgrwt>
</event>
<event>
12    1  0.1541840E-007  0.2127705E+04  0.7818608E-02  0.8549136E-01
          1   -1    0    0  501    0  0.00000000000E+00  0.00000000000E+00  0.28509091727E+04  0.28509091727E+04  0.00000000000E+00 0. -1.
         -1   -1    0    0    0  501 -0.00000000000E+00 -0.00000000000E+00 -0.39698981579E+03  0.39698981579E+03  0.00000000000E+00 0.  1.
         23    2    1    2    0    0 -0.20583741159E+03 -0.29951495614E+03 -0.19619010201E+03  0.42284676528E+03  0.90722554074E+02 0.  0.
        254    2    1    2    0    0  0.20583741159E+03  0.29951495614E+03  0.26501094590E+04  0.28250522233E+04  0.90871429538E+03 0.  0.
        -24    2    4    4    0    0  0.46037260723E+03  0.33179057053E+03  0.23644776311E+04  0.24327908649E+04  0.75425487453E+02 0.  0.
         24    2    4    4    0    0 -0.25453519564E+03 -0.32275614397E+02  0.28563182783E+03  0.39226135832E+03  0.80333996908E+02 0.  0.
         13    1    3    3    0    0 -0.17641183772E+03 -0.18519910369E+03 -0.12154872826E+03  0.28318534184E+03  0.00000000000E+00 0.  1.
        -13    1    3    3    0    0 -0.29425573867E+02 -0.11431585245E+03 -0.74641373759E+02  0.13966142343E+03  0.00000000000E+00 0. -1.
          2    1    6    6  502    0 -0.52230017402E+02 -0.37266886220E+02  0.92122521224E+02  0.11226466249E+03  0.00000000000E+00 0. -1.
          3    1    5    5  503    0  0.96023127810E+02  0.99648171546E+02  0.66656717428E+03  0.68078043230E+03  0.00000000000E+00 0. -1.
         -4    1    5    5    0  503  0.36434947942E+03  0.23214239899E+03  0.16979104569E+04  0.17520104326E+04  0.00000000000E+00 0.  1.
         -1    1    6    6    0  502 -0.20230517824E+03  0.49912718234E+01  0.19350930660E+03  0.27999669583E+03  0.00000000000E+00 0.  1.
<mgrwt>
<rscale>  0 0.21277048E+04</rscale>
<asrwt>0</asrwt>
<pdfrwt beam="1">  1        1 0.43860140E+00 0.21277048E+04</pdfrwt>
<pdfrwt beam="2">  1       -1 0.61075358E-01 0.21277048E+04</pdfrwt>
<totfact> 0.19132383E+00</totfact>
</mgrwt>
</event>
<event>
12    1  0.1541840E-007  0.1505394E+04  0.7818608E-02  0.8880874E-01
          1   -1    0    0  501    0  0.00000000000E+00  0.00000000000E+00  0.48156541823E+03  0.48156541823E+03  0.00000000000E+00 0. -1.
         -1   -1    0    0    0  501 -0.00000000000E+00 -0.00000000000E+00 -0.11764809086E+04  0.11764809086E+04  0.00000000000E+00 0.  1.
         23    2    1    2    0    0  0.13310099906E+03  0.29570730042E+03  0.16025431882E+03  0.37297464942E+03  0.90939314561E+02 0.  0.
        254    2    1    2    0    0 -0.13310099906E+03 -0.29570730042E+03 -0.85516980917E+03  0.12850716774E+04  0.90273757540E+03 0.  0.
        -24    2    4    4    0    0  0.26837095734E+03 -0.89473951738E+02  0.22059721214E+02  0.29523988063E+03  0.81556097456E+02 0.  0.
         24    2    4    4    0    0 -0.40147195641E+03 -0.20623334868E+03 -0.87722953038E+03  0.98983179676E+03  0.80767635870E+02 0.  0.
         11    1    3    3    0    0  0.14351351791E+03  0.26077364634E+03  0.12694473321E+03  0.32359541056E+03  0.00000000000E+00 0. -1.
        -11    1    3    3    0    0 -0.10412518847E+02  0.34933654084E+02  0.33309585609E+02  0.49379238854E+02  0.00000000000E+00 0.  1.
          2    1    6    6  502    0 -0.37163508825E+03 -0.20588205373E+03 -0.78095550958E+03  0.88903968798E+03  0.00000000000E+00 0. -1.
          3    1    5    5  503    0  0.26415155266E+00 -0.14954985802E+02 -0.47190480805E+01  0.15684093572E+02  0.00000000000E+00 0. -1.
         -4    1    5    5    0  503  0.26810680579E+03 -0.74518965935E+02  0.26778769294E+02  0.27955578706E+03  0.00000000000E+00 0.  1.
         -1    1    6    6    0  502 -0.29836868159E+02 -0.35129495812E+00 -0.96274020805E+02  0.10079210878E+03  0.00000000000E+00 0.  1.
<mgrwt>
<rscale>  0 0.15053937E+04</rscale>
<asrwt>0</asrwt>
<pdfrwt beam="1">  1        1 0.74086988E-01 0.15053937E+04</pdfrwt>
<pdfrwt beam="2">  1       -1 0.18099706E+00 0.15053937E+04</pdfrwt>
<totfact> 0.92379559E+00</totfact>
</mgrwt>
</event>
<event>
12    1  0.1541840E-007  0.1563031E+04  0.7818608E-02  0.8843587E-01
          2   -1    0    0  501    0  0.00000000000E+00  0.00000000000E+00  0.60564411597E+03  0.60564411597E+03  0.00000000000E+00 0. -1.
         -2   -1    0    0    0  501 -0.00000000000E+00 -0.00000000000E+00 -0.10084572272E+04  0.10084572272E+04  0.00000000000E+00 0.  1.
         23    2    1    2    0    0 -0.33741916786E+02  0.33727007918E+03  0.29604989657E+03  0.45821095654E+03  0.86151704447E+02 0.  0.
        254    2    1    2    0    0  0.33741916786E+02 -0.33727007918E+03 -0.69886300783E+03  0.11558903867E+04  0.85602772095E+03 0.  0.
        -24    2    4    4    0    0  0.43321017242E+03 -0.22196418252E+03 -0.31983385166E+03  0.58787947207E+03  0.79808703797E+02 0.  0.
         24    2    4    4    0    0 -0.39946825564E+03 -0.11530589666E+03 -0.37902915616E+03  0.56801091460E+03  0.78121449140E+02 0.  0.
         13    1    3    3    0    0 -0.14059196917E+02  0.29094098315E+03  0.28320145774E+03  0.40626023970E+03  0.00000000000E+00 0. -1.
        -13    1    3    3    0    0 -0.19682719869E+02  0.46329096022E+02  0.12848438828E+02  0.51950716838E+02  0.00000000000E+00 0.  1.
          4    1    6    6  502    0 -0.27839780968E+02  0.98974638400E+01 -0.39288994186E+02  0.49159315078E+02  0.00000000000E+00 0. -1.
          3    1    5    5  503    0  0.59408706640E+02 -0.13223638920E+02 -0.16129061706E+02  0.62963526604E+02  0.00000000000E+00 0. -1.
         -4    1    5    5    0  503  0.37380146578E+03 -0.20874054360E+03 -0.30370478996E+03  0.52491594547E+03  0.00000000000E+00 0.  1.
         -3    1    6    6    0  502 -0.37162847467E+03 -0.12520336050E+03 -0.33974016197E+03  0.51885159952E+03  0.00000000000E+00 0.  1.
<mgrwt>
<rscale>  0 0.15630306E+04</rscale>
<asrwt>0</asrwt>
<pdfrwt beam="1">  1        2 0.93176017E-01 0.15630306E+04</pdfrwt>
<pdfrwt beam="2">  1       -2 0.15514727E+00 0.15630306E+04</pdfrwt>
<totfact> 0.12901984E+01</totfact>
</mgrwt>
</event>
<event>
12    1  0.1541840E-007  0.1580484E+04  0.7818608E-02  0.8832628E-01
          2   -1    0    0  501    0  0.00000000000E+00  0.00000000000E+00  0.14418570578E+04  0.14418570578E+04  0.00000000000E+00 0. -1.
         -2   -1    0    0    0  501 -0.00000000000E+00 -0.00000000000E+00 -0.43310960697E+03  0.43310960697E+03  0.00000000000E+00 0.  1.
         23    2    1    2    0    0  0.14192017852E+03 -0.49724787173E+03  0.35023629785E+03  0.63117822500E+03  0.91234337643E+02 0.  0.
        254    2    1    2    0    0 -0.14192017852E+03  0.49724787173E+03  0.65851115297E+03  0.12437884398E+04  0.91976951530E+03 0.  0.
        -24    2    4    4    0    0 -0.25985475181E+03  0.55833957810E+03  0.58374355455E+02  0.62379059397E+03  0.80246889306E+02 0.  0.
         24    2    4    4    0    0  0.11793457328E+03 -0.61091706374E+02  0.60013679751E+03  0.61999784578E+03  0.81193551951E+02 0.  0.
         13    1    3    3    0    0  0.59085678343E+02 -0.20372335014E+03  0.19857485020E+03  0.29056202764E+03  0.00000000000E+00 0. -1.
        -13    1    3    3    0    0  0.82834500181E+02 -0.29352452159E+03  0.15166144766E+03  0.34061619736E+03  0.00000000000E+00 0.  1.
          4    1    6    6  502    0  0.97362742082E+02 -0.53537946871E+02  0.57895075265E+03  0.58951657253E+03  0.00000000000E+00 0. -1.
          1    1    5    5  503    0 -0.16824094699E+03  0.43567442648E+03  0.29257604101E+02  0.46794575490E+03  0.00000000000E+00 0. -1.
         -2    1    5    5    0  503 -0.91613804822E+02  0.12266515162E+03  0.29116751355E+02  0.15584483907E+03  0.00000000000E+00 0.  1.
         -3    1    6    6    0  502  0.20571831201E+02 -0.75537595030E+01  0.21186044865E+02  0.30481273245E+02  0.00000000000E+00 0.  1.
<mgrwt>
<rscale>  0 0.15804837E+04</rscale>
<asrwt>0</asrwt>
<pdfrwt beam="1">  1        2 0.22182416E+00 0.15804837E+04</pdfrwt>
<pdfrwt beam="2">  1       -2 0.66632248E-01 0.15804837E+04</pdfrwt>
<totfact> 0.27215677E+01</totfact>
</mgrwt>
</event>
<event>
12    1  0.1902042E-007  0.1559981E+04  0.7818608E-02  0.8845518E-01
         -2   -1    0    0    0  501 -0.00000000000E+00  0.00000000000E+00  0.25064515373E+03  0.25064515373E+03  0.00000000000E+00 0.  1.
          2   -1    0    0  501    0  0.00000000000E+00 -0.00000000000E+00 -0.24272756798E+04  0.24272756798E+04  0.00000000000E+00 0. -1.
         23    2    1    2    0    0 -0.31979933878E+03  0.39411447106E+03 -0.10675445316E+04  0.11853836132E+04  0.88798367399E+02 0.  0.
        254    2    1    2    0    0  0.31979933878E+03 -0.39411447106E+03 -0.11090859945E+04  0.14925372204E+04  0.86023123498E+03 0.  0.
        -24    2    4    4    0    0 -0.18875486233E+03 -0.10106036284E+03  0.73989509440E+01  0.22859288600E+03  0.79739375850E+02 0.  0.
         24    2    4    4    0    0  0.50855420112E+03 -0.29305410822E+03 -0.11164849454E+04  0.12639443344E+04  0.80675654355E+02 0.  0.
         13    1    3    3    0    0 -0.85483452100E+01  0.31288590918E+01 -0.33686747324E+01  0.97062832484E+01  0.00000000000E+00 0. -1.
        -13    1    3    3    0    0 -0.31125099357E+03  0.39098561197E+03 -0.10641758569E+04  0.11756773299E+04  0.00000000000E+00 0.  1.
          2    1    6    6  502    0  0.38453368850E+03 -0.25756799234E+03 -0.89677440975E+03  0.10091638966E+04  0.00000000000E+00 0. -1.
          3    1    5    5  503    0 -0.18758507424E+03 -0.10065427921E+03  0.21929058284E+02  0.21401011097E+03  0.00000000000E+00 0. -1.
         -4    1    5    5    0  503 -0.11697880957E+01 -0.40608362665E+00 -0.14530107340E+02  0.14582775024E+02  0.00000000000E+00 0.  1.
         -1    1    6    6    0  502  0.12402051262E+03 -0.35486115875E+02 -0.21971053568E+03  0.25478043775E+03  0.00000000000E+00 0.  1.
<mgrwt>
<rscale>  0 0.15599806E+04</rscale>
<asrwt>0</asrwt>
<pdfrwt beam="1">  1        2 0.37342703E+00 0.15599806E+04</pdfrwt>
<pdfrwt beam="2">  1       -2 0.38560793E-01 0.15599806E+04</pdfrwt>
<totfact> 0.23479024E+01</totfact>
</mgrwt>
</event>
<event>
12    1  0.1541840E-007  0.2502866E+04  0.7818608E-02  0.8401965E-01
          2   -1    0    0  501    0  0.00000000000E+00  0.00000000000E+00  0.30159162667E+04  0.30159162667E+04  0.00000000000E+00 0. -1.
         -2   -1    0    0    0  501 -0.00000000000E+00 -0.00000000000E+00 -0.51927322051E+03  0.51927322051E+03  0.00000000000E+00 0.  1.
         23    2    1    2    0    0 -0.94280388171E+03 -0.35796088497E+03  0.16776138604E+04  0.19593479411E+04  0.87412442938E+02 0.  0.
        254    2    1    2    0    0  0.94280388171E+03  0.35796088497E+03  0.81902918582E+03  0.15758415461E+04  0.89188150376E+03 0.  0.
        -24    2    4    4    0    0  0.83356079999E+03  0.23920049706E+03  0.99593144683E+03  0.13231330086E+04  0.82225462301E+02 0.  0.
         24    2    4    4    0    0  0.10924308172E+03  0.11876038792E+03 -0.17690226101E+03  0.25270853751E+03  0.80802935196E+02 0.  0.
         11    1    3    3    0    0 -0.83870678626E+03 -0.31439484938E+03  0.14320171159E+04  0.16890666698E+04  0.00000000000E+00 0. -1.
        -11    1    3    3    0    0 -0.10409709545E+03 -0.43566035594E+02  0.24559674447E+03  0.27028127133E+03  0.00000000000E+00 0.  1.
          4    1    6    6  502    0  0.18897565748E+02  0.27357443501E+02  0.97159237768E+00  0.33263969965E+02  0.00000000000E+00 0. -1.
          1    1    5    5  503    0  0.11475507280E+03  0.62698569245E+02  0.15893377277E+03  0.20581492037E+03  0.00000000000E+00 0. -1.
         -2    1    5    5    0  503  0.71880572719E+03  0.17650192781E+03  0.83699767406E+03  0.11173180883E+04  0.00000000000E+00 0.  1.
         -3    1    6    6    0  502  0.90345515972E+02  0.91402944417E+02 -0.17787385339E+03  0.21944456754E+03  0.00000000000E+00 0.  1.
<mgrwt>
<rscale>  0 0.25028660E+04</rscale>
<asrwt>0</asrwt>
<pdfrwt beam="1">  1        2 0.46398711E+00 0.25028660E+04</pdfrwt>
<pdfrwt beam="2">  1       -2 0.79888190E-01 0.25028660E+04</pdfrwt>
<totfact> 0.21042061E+00</totfact>
</mgrwt>
</event>
<event>
12    1  0.1541840E-007  0.1840707E+04  0.7818608E-02  0.8684947E-01
          1   -1    0    0  501    0  0.00000000000E+00  0.00000000000E+00  0.12728226467E+04  0.12728226467E+04  0.00000000000E+00 0. -1.
         -1   -1    0    0    0  501 -0.00000000000E+00 -0.00000000000E+00 -0.66548977732E+03  0.66548977732E+03  0.00000000000E+00 0.  1.
         23    2    1    2    0    0  0.21700208822E+03 -0.27992724682E+03  0.86231869140E+03  0.93672621729E+03  0.91724101645E+02 0.  0.
        254    2    1    2    0    0 -0.21700208822E+03  0.27992724682E+03 -0.25498582206E+03  0.10015862067E+04  0.90150318366E+03 0.  0.
        -24    2    4    4    0    0 -0.39869788242E+03  0.10377450135E+03 -0.49215050028E+03  0.64649962707E+03  0.77591908771E+02 0.  0.
         24    2    4    4    0    0  0.18169579420E+03  0.17615274547E+03  0.23716467822E+03  0.35508657961E+03  0.76133061524E+02 0.  0.
         13    1    3    3    0    0 -0.26774908311E+01 -0.23623585379E+02  0.28165693081E+02  0.36858499834E+02  0.00000000000E+00 0.  1.
        -13    1    3    3    0    0  0.21967957905E+03 -0.25630366144E+03  0.83415299831E+03  0.89986771745E+03  0.00000000000E+00 0. -1.
          2    1    6    6  502    0  0.24563686254E+02  0.59523050303E+02  0.87943016328E+02  0.10899698308E+03  0.00000000000E+00 0. -1.
          3    1    5    5  503    0 -0.18268774466E+03  0.33446338801E+02 -0.27780324390E+03  0.33416779011E+03  0.00000000000E+00 0. -1.
         -4    1    5    5    0  503 -0.21601013776E+03  0.70328162548E+02 -0.21434725638E+03  0.31233183696E+03  0.00000000000E+00 0.  1.
         -1    1    6    6    0  502  0.15713210794E+03  0.11662969517E+03  0.14922166189E+03  0.24608959653E+03  0.00000000000E+00 0.  1.
<mgrwt>
<rscale>  0 0.18407069E+04</rscale>
<asrwt>0</asrwt>
<pdfrwt beam="1">  1        1 0.19581887E+00 0.18407069E+04</pdfrwt>
<pdfrwt beam="2">  1       -1 0.10238304E+00 0.18407069E+04</pdfrwt>
<totfact> 0.80322304E+00</totfact>
</mgrwt>
</event>
<event>
12    1  0.1541840E-007  0.1914353E+04  0.7818608E-02  0.8647745E-01
          2   -1    0    0  501    0  0.00000000000E+00  0.00000000000E+00  0.41498983549E+04  0.41498983549E+04  0.00000000000E+00 0. -1.
         -2   -1    0    0    0  501 -0.00000000000E+00 -0.00000000000E+00 -0.22077332749E+03  0.22077332749E+03  0.00000000000E+00 0.  1.
         23    2    1    2    0    0  0.88442479719E+02 -0.30739244642E+03  0.69895939855E+01  0.33276061433E+03  0.91479963321E+02 0.  0.
        254    2    1    2    0    0 -0.88442479719E+02  0.30739244642E+03  0.39221354335E+04  0.40379110681E+04  0.90513382833E+03 0.  0.
        -24    2    4    4    0    0  0.71240261022E+02  0.37997229279E+02  0.35141352956E+04  0.35160010423E+04  0.81224931088E+02 0.  0.
         24    2    4    4    0    0 -0.15968274074E+03  0.26939521714E+03  0.40800013785E+03  0.52191002580E+03  0.88620549723E+02 0.  0.
         13    1    3    3    0    0  0.71982576638E+02 -0.30752367202E+03  0.10152746092E+02  0.31599901653E+03  0.00000000000E+00 0.  1.
        -13    1    3    3    0    0  0.16459903080E+02  0.13122560207E+00 -0.31631521069E+01  0.16761597801E+02  0.00000000000E+00 0. -1.
          4    1    6    6  502    0 -0.14447731163E+03  0.16398096869E+03  0.26186267142E+03  0.34107991783E+03  0.00000000000E+00 0. -1.
          3    1    5    5  503    0  0.67320280178E+02  0.31406261145E+02  0.34873110205E+04  0.34881021383E+04  0.00000000000E+00 0. -1.
         -4    1    5    5    0  503  0.39199808448E+01  0.65909681335E+01  0.26824275078E+02  0.27898903997E+02  0.00000000000E+00 0.  1.
         -3    1    6    6    0  502 -0.15205429116E+02  0.10541424845E+03  0.14613746643E+03  0.18083010797E+03  0.00000000000E+00 0.  1.
<mgrwt>
<rscale>  0 0.19143530E+04</rscale>
<asrwt>0</asrwt>
<pdfrwt beam="1">  1        2 0.63844584E+00 0.19143530E+04</pdfrwt>
<pdfrwt beam="2">  1       -2 0.33965130E-01 0.19143530E+04</pdfrwt>
<totfact> 0.19766845E+00</totfact>
</mgrwt>
</event>
<event>
12    1  0.1541840E-007  0.3282459E+04  0.7818608E-02  0.8167373E-01
          2   -1    0    0  501    0  0.00000000000E+00  0.00000000000E+00  0.17931749646E+04  0.17931749646E+04  0.00000000000E+00 0. -1.
         -2   -1    0    0    0  501 -0.00000000000E+00 -0.00000000000E+00 -0.15021594679E+04  0.15021594679E+04  0.00000000000E+00 0.  1.
         23    2    1    2    0    0 -0.86522398375E+03  0.34670281664E+03 -0.10673482503E+04  0.14200126953E+04  0.91588112291E+02 0.  0.
        254    2    1    2    0    0  0.86522398375E+03 -0.34670281664E+03  0.13583637469E+04  0.18753217373E+04  0.89602687687E+03 0.  0.
        -24    2    4    4    0    0  0.25441565762E+03 -0.54307034397E+03  0.42255666312E+03  0.73786721222E+03  0.79001037863E+02 0.  0.
         24    2    4    4    0    0  0.61080832613E+03  0.19636752733E+03  0.93580708383E+03  0.11374545250E+04  0.80130401917E+02 0.  0.
         13    1    3    3    0    0 -0.18735325819E+03  0.45450469364E+02 -0.18387078106E+03  0.26641218563E+03  0.00000000000E+00 0. -1.
        -13    1    3    3    0    0 -0.67787072556E+03  0.30125234728E+03 -0.88347746921E+03  0.11536005097E+04  0.00000000000E+00 0.  1.
          2    1    6    6  502    0  0.15730648166E+03  0.73570596190E+02  0.20524738167E+03  0.26885767513E+03  0.00000000000E+00 0. -1.
          1    1    5    5  503    0  0.25958238691E+03 -0.52745892629E+03  0.41594725036E+03  0.72014446440E+03  0.00000000000E+00 0. -1.
         -2    1    5    5    0  503 -0.51667292886E+01 -0.15611417680E+02  0.66094127595E+01  0.17722747827E+02  0.00000000000E+00 0.  1.
         -1    1    6    6    0  502  0.45350184448E+03  0.12279693114E+03  0.73055970215E+03  0.86859684990E+03  0.00000000000E+00 0.  1.
<mgrwt>
<rscale>  0 0.32824593E+04</rscale>
<asrwt>0</asrwt>
<pdfrwt beam="1">  1        2 0.27587307E+00 0.32824593E+04</pdfrwt>
<pdfrwt beam="2">  1       -2 0.23110146E+00 0.32824593E+04</pdfrwt>
<totfact> 0.61270454E-01</totfact>
</mgrwt>
</event>
<event>
12    1  0.1541840E-007  0.1243726E+04  0.7818608E-02  0.9075421E-01
          1   -1    0    0  501    0  0.00000000000E+00  0.00000000000E+00  0.15670852414E+04  0.15670852414E+04  0.00000000000E+00 0. -1.
         -1   -1    0    0    0  501 -0.00000000000E+00 -0.00000000000E+00 -0.24677260303E+03  0.24677260303E+03  0.00000000000E+00 0.  1.
         23    2    1    2    0    0  0.96623757026E+01 -0.25536581914E+03  0.12636346709E+03  0.29904080667E+03  0.90291833230E+02 0.  0.
        254    2    1    2    0    0 -0.96623757026E+01  0.25536581914E+03  0.11939491712E+04  0.15148170377E+04  0.89657736487E+03 0.  0.
        -24    2    4    4    0    0 -0.30785569892E+03  0.26759534462E+03  0.17575976725E+03  0.45105225724E+03  0.78576352361E+02 0.  0.
         24    2    4    4    0    0  0.29819332322E+03 -0.12229525478E+02  0.10181894040E+04  0.10637647805E+04  0.76269433672E+02 0.  0.
         11    1    3    3    0    0  0.47695328701E+02 -0.12726956173E+03  0.48033258823E+02  0.14415123890E+03  0.00000000000E+00 0.  1.
        -11    1    3    3    0    0 -0.38032952999E+02 -0.12809625741E+03  0.78330208272E+02  0.15488956777E+03  0.00000000000E+00 0. -1.
          2    1    6    6  502    0  0.28931402951E+03 -0.26923700700E+02  0.94963308958E+03  0.99309138460E+03  0.00000000000E+00 0. -1.
          1    1    5    5  503    0 -0.29986504201E+03  0.27097053952E+03  0.16337200571E+03  0.43592945410E+03  0.00000000000E+00 0. -1.
         -2    1    5    5    0  503 -0.79906569109E+01 -0.33751948948E+01  0.12387761546E+02  0.15122803132E+02  0.00000000000E+00 0.  1.
         -1    1    6    6    0  502  0.88792937095E+01  0.14694175223E+02  0.68556314412E+02  0.70673395899E+02  0.00000000000E+00 0.  1.
<mgrwt>
<rscale>  0 0.12437262E+04</rscale>
<asrwt>0</asrwt>
<pdfrwt beam="1">  1        1 0.24109003E+00 0.12437262E+04</pdfrwt>
<pdfrwt beam="2">  1       -1 0.37965017E-01 0.12437262E+04</pdfrwt>
<totfact> 0.38857465E+01</totfact>
</mgrwt>
</event>
<event>
12    1  0.1541840E-007  0.1900305E+04  0.7818608E-02  0.8654704E-01
          2   -1    0    0  501    0  0.00000000000E+00  0.00000000000E+00  0.19164412330E+04  0.19164412330E+04  0.00000000000E+00 0.  1.
         -2   -1    0    0    0  501 -0.00000000000E+00 -0.00000000000E+00 -0.47107639215E+03  0.47107639215E+03  0.00000000000E+00 0. -1.
         23    2    1    2    0    0  0.61129146058E+03  0.11757004196E+02  0.49152604604E+02  0.62022110056E+03  0.91884482439E+02 0.  0.
        254    2    1    2    0    0 -0.61129146058E+03 -0.11757004196E+02  0.13962122362E+04  0.17672965246E+04  0.89449031310E+03 0.  0.
        -24    2    4    4    0    0 -0.69252640831E+03 -0.20281491414E+03  0.60418333681E+03  0.94451067574E+03  0.79600229263E+02 0.  0.
         24    2    4    4    0    0  0.81234947726E+02  0.19105790995E+03  0.79202889940E+03  0.82278584881E+03  0.81021810893E+02 0.  0.
         13    1    3    3    0    0  0.14170532056E+03  0.37504007054E+02 -0.59981736711E+01  0.14670694090E+03  0.00000000000E+00 0.  1.
        -13    1    3    3    0    0  0.46958614003E+03 -0.25747002859E+02  0.55150778275E+02  0.47351415967E+03  0.00000000000E+00 0. -1.
          2    1    6    6  502    0  0.80997013581E+02  0.92782709326E+02  0.48606337587E+03  0.50142472289E+03  0.00000000000E+00 0. -1.
          3    1    5    5  503    0 -0.12908835877E+03 -0.12847551173E+02  0.13364286117E+03  0.18625057928E+03  0.00000000000E+00 0. -1.
         -4    1    5    5    0  503 -0.56343804954E+03 -0.18996736297E+03  0.47054047564E+03  0.75826009646E+03  0.00000000000E+00 0.  1.
         -1    1    6    6    0  502  0.23793414557E+00  0.98275200620E+02  0.30596552353E+03  0.32136112593E+03  0.00000000000E+00 0.  1.
<mgrwt>
<rscale>  0 0.19003055E+04</rscale>
<asrwt>0</asrwt>
<pdfrwt beam="1">  1        2 0.29483711E+00 0.19003055E+04</pdfrwt>
<pdfrwt beam="2">  1       -2 0.72473292E-01 0.19003055E+04</pdfrwt>
<totfact> 0.11993873E+01</totfact>
</mgrwt>
</event>
<event>
12    1  0.1541840E-007  0.2344202E+04  0.7818608E-02  0.8460694E-01
         -2   -1    0    0    0  501 -0.00000000000E+00  0.00000000000E+00  0.40542773736E+03  0.40542773736E+03  0.00000000000E+00 0.  1.
          2   -1    0    0  501    0  0.00000000000E+00 -0.00000000000E+00 -0.33885705443E+04  0.33885705443E+04  0.00000000000E+00 0. -1.
         23    2    1    2    0    0  0.19341756651E+03 -0.93053092925E+03 -0.17217116220E+04  0.19685946995E+04  0.88181722551E+02 0.  0.
        254    2    1    2    0    0 -0.19341756651E+03  0.93053092925E+03 -0.12614311850E+04  0.18254035822E+04  0.91520021754E+03 0.  0.
        -24    2    4    4    0    0 -0.48300436147E+03  0.58833806101E+03 -0.43160330549E+03  0.87883329075E+03  0.81434958056E+02 0.  0.
         24    2    4    4    0    0  0.28958679496E+03  0.34219286824E+03 -0.82982787947E+03  0.94657029144E+03  0.80153204582E+02 0.  0.
         11    1    3    3    0    0 -0.53605733838E+01 -0.52627103329E+02 -0.72728682496E+02  0.89932246771E+02  0.00000000000E+00 0.  1.
        -11    1    3    3    0    0  0.19877813989E+03 -0.87790382592E+03 -0.16489829395E+04  0.18786624527E+04  0.00000000000E+00 0. -1.
          2    1    6    6  502    0  0.12202476334E+03  0.16802354686E+03 -0.46098033722E+03  0.50559353880E+03  0.00000000000E+00 0. -1.
          1    1    5    5  503    0 -0.25374986573E+03  0.28361036100E+03 -0.17268265782E+03  0.41790325619E+03  0.00000000000E+00 0. -1.
         -2    1    5    5    0  503 -0.22925449575E+03  0.30472770000E+03 -0.25892064767E+03  0.46093003456E+03  0.00000000000E+00 0.  1.
         -1    1    6    6    0  502  0.16756203163E+03  0.17416932138E+03 -0.36884754225E+03  0.44097675265E+03  0.00000000000E+00 0.  1.
<mgrwt>
<rscale>  0 0.23442018E+04</rscale>
<asrwt>0</asrwt>
<pdfrwt beam="1">  1        2 0.52131855E+00 0.23442018E+04</pdfrwt>
<pdfrwt beam="2">  1       -2 0.62373497E-01 0.23442018E+04</pdfrwt>
<totfact> 0.20952027E+00</totfact>
</mgrwt>
</event>
<event>
12    1  0.1541840E-007  0.2650049E+04  0.7818608E-02  0.8351397E-01
         -2   -1    0    0    0  501 -0.00000000000E+00  0.00000000000E+00  0.61175253092E+03  0.61175253092E+03  0.00000000000E+00 0. -1.
          2   -1    0    0  501    0  0.00000000000E+00 -0.00000000000E+00 -0.28699358971E+04  0.28699358971E+04  0.00000000000E+00 0.  1.
         23    2    1    2    0    0 -0.94324726985E+03  0.51547861758E+03 -0.16154474429E+04  0.19425486771E+04  0.91604064758E+02 0.  0.
        254    2    1    2    0    0  0.94324726985E+03 -0.51547861758E+03 -0.64273592325E+03  0.15391397509E+04  0.89465529037E+03 0.  0.
        -24    2    4    4    0    0 -0.10983526430E+03  0.77011295660E+02 -0.18969655891E+03  0.24624886804E+03  0.81603894562E+02 0.  0.
         24    2    4    4    0    0  0.10530825341E+04 -0.59248991324E+03 -0.45303936433E+03  0.12928908829E+04  0.79341340959E+02 0.  0.
         13    1    3    3    0    0 -0.32823392242E+03  0.13044903035E+03 -0.53180721934E+03  0.63841473659E+03  0.00000000000E+00 0. -1.
        -13    1    3    3    0    0 -0.61501334743E+03  0.38502958723E+03 -0.10836402236E+04  0.13041339405E+04  0.00000000000E+00 0.  1.
          4    1    6    6  502    0  0.58346965326E+03 -0.34782984904E+03 -0.29237246657E+03  0.73952964739E+03  0.00000000000E+00 0. -1.
          1    1    5    5  503    0 -0.49302244679E+02  0.77829205783E+02 -0.85225815981E+02  0.12550512465E+03  0.00000000000E+00 0. -1.
         -2    1    5    5    0  503 -0.60533019616E+02 -0.81791012208E+00 -0.10447074293E+03  0.12074374340E+03  0.00000000000E+00 0.  1.
         -3    1    6    6    0  502  0.46961288089E+03 -0.24466006420E+03 -0.16066689777E+03  0.55336123549E+03  0.00000000000E+00 0.  1.
<mgrwt>
<rscale>  0 0.26500495E+04</rscale>
<asrwt>0</asrwt>
<pdfrwt beam="1">  1        2 0.44152860E+00 0.26500495E+04</pdfrwt>
<pdfrwt beam="2">  1       -2 0.94115774E-01 0.26500495E+04</pdfrwt>
<totfact> 0.17587237E+00</totfact>
</mgrwt>
</event>
<event>
12    1  0.1541840E-007  0.4021296E+04  0.7818608E-02  0.8000264E-01
          1   -1    0    0  501    0  0.00000000000E+00  0.00000000000E+00  0.33908682667E+04  0.33908682667E+04  0.00000000000E+00 0. -1.
         -1   -1    0    0    0  501 -0.00000000000E+00 -0.00000000000E+00 -0.11922329603E+04  0.11922329603E+04  0.00000000000E+00 0.  1.
         23    2    1    2    0    0 -0.29846119199E+03 -0.17251657870E+03 -0.10941560694E+04  0.11505985517E+04  0.88648011945E+02 0.  0.
        254    2    1    2    0    0  0.29846119199E+03  0.17251657870E+03  0.32927913757E+04  0.34325026753E+04  0.90595723913E+03 0.  0.
        -24    2    4    4    0    0  0.48931048564E+03 -0.36574527326E+02  0.95864197889E+03  0.10799065506E+04  0.80257503997E+02 0.  0.
         24    2    4    4    0    0 -0.19084929365E+03  0.20909110603E+03  0.23341493968E+04  0.23525961247E+04  0.79451720439E+02 0.  0.
         13    1    3    3    0    0 -0.27912658089E+03 -0.18043461394E+03 -0.98802990547E+03  0.10424353180E+04  0.00000000000E+00 0.  1.
        -13    1    3    3    0    0 -0.19334611099E+02  0.79180352393E+01 -0.10612616389E+03  0.10816323373E+03  0.00000000000E+00 0. -1.
          2    1    6    6  502    0 -0.10347218849E+02 -0.31196325230E+01  0.20680504468E+03  0.20708723657E+03  0.00000000000E+00 0. -1.
          1    1    5    5  503    0  0.35198277568E+03 -0.57018993197E+02  0.72954881813E+03  0.81202494912E+03  0.00000000000E+00 0. -1.
         -2    1    5    5    0  503  0.13732770996E+03  0.20444465872E+02  0.22909316076E+03  0.26788160148E+03  0.00000000000E+00 0.  1.
         -1    1    6    6    0  502 -0.18050207480E+03  0.21221073855E+03  0.21273443522E+04  0.21455088882E+04  0.00000000000E+00 0.  1.
<mgrwt>
<rscale>  0 0.40212958E+04</rscale>
<asrwt>0</asrwt>
<pdfrwt beam="1">  1        1 0.52167204E+00 0.40212958E+04</pdfrwt>
<pdfrwt beam="2">  1       -1 0.18342046E+00 0.40212958E+04</pdfrwt>
<totfact> 0.46674570E-02</totfact>
</mgrwt>
</event>
<event>
12    1  0.1541840E-007  0.1095576E+04  0.7818608E-02  0.9209514E-01
          1   -1    0    0  501    0  0.00000000000E+00  0.00000000000E+00  0.96813840117E+03  0.96813840117E+03  0.00000000000E+00 0. -1.
         -1   -1    0    0    0  501 -0.00000000000E+00 -0.00000000000E+00 -0.30994736370E+03  0.30994736370E+03  0.00000000000E+00 0.  1.
         23    2    1    2    0    0  0.44415089669E+02 -0.14471344873E+03  0.42470155238E+02  0.18074835255E+03  0.89171578600E+02 0.  0.
        254    2    1    2    0    0 -0.44415089669E+02  0.14471344873E+03  0.61572088223E+03  0.10973374123E+04  0.89561292376E+03 0.  0.
        -24    2    4    4    0    0  0.12340316819E+03 -0.34578228980E+03  0.18841487528E+03  0.42037687084E+03  0.80142463441E+02 0.  0.
         24    2    4    4    0    0 -0.16781825786E+03  0.49049573853E+03  0.42730600695E+03  0.67696054147E+03  0.83283335364E+02 0.  0.
         13    1    3    3    0    0  0.69410464986E+01 -0.26164700690E+02  0.49286462942E+02  0.56230997839E+02  0.00000000000E+00 0. -1.
        -13    1    3    3    0    0  0.37474043171E+02 -0.11854874804E+03 -0.68163077035E+01  0.12451735471E+03  0.00000000000E+00 0.  1.
          2    1    6    6  502    0 -0.17092371395E+03  0.43579603324E+03  0.40003600335E+03  0.61576123827E+03  0.00000000000E+00 0. -1.
          3    1    5    5  503    0  0.67026144429E+02 -0.13086087339E+03  0.37358899341E+02  0.15169957014E+03  0.00000000000E+00 0. -1.
         -4    1    5    5    0  503  0.56377023764E+02 -0.21492141641E+03  0.15105597594E+03  0.26867730070E+03  0.00000000000E+00 0.  1.
         -1    1    6    6    0  502  0.31054560894E+01  0.54699705291E+02  0.27270003598E+02  0.61199303204E+02  0.00000000000E+00 0.  1.
<mgrwt>
<rscale>  0 0.10955765E+04</rscale>
<asrwt>0</asrwt>
<pdfrwt beam="1">  1        1 0.14894437E+00 0.10955765E+04</pdfrwt>
<pdfrwt beam="2">  1       -1 0.47684210E-01 0.10955765E+04</pdfrwt>
<totfact> 0.70152751E+01</totfact>
</mgrwt>
</event>
<event>
12    1  0.1541840E-007  0.1666824E+04  0.7818608E-02  0.8780515E-01
          2   -1    0    0  501    0  0.00000000000E+00  0.00000000000E+00  0.17963851306E+04  0.17963851306E+04  0.00000000000E+00 0. -1.
         -2   -1    0    0    0  501 -0.00000000000E+00 -0.00000000000E+00 -0.38665190303E+03  0.38665190303E+03  0.00000000000E+00 0.  1.
         23    2    1    2    0    0 -0.23298098111E+03 -0.75541520468E+02 -0.19584803047E+03  0.32633252888E+03  0.90276295329E+02 0.  0.
        254    2    1    2    0    0  0.23298098111E+03  0.75541520468E+02  0.16055812580E+04  0.18567045048E+04  0.89970760968E+03 0.  0.
        -24    2    4    4    0    0 -0.21984142778E+03  0.32692806940E+03  0.59054417930E+03  0.71434726912E+03  0.79607645778E+02 0.  0.
         24    2    4    4    0    0  0.45282240888E+03 -0.25138654893E+03  0.10150370787E+04  0.11423572356E+04  0.80227499078E+02 0.  0.
         13    1    3    3    0    0 -0.33244429305E+02 -0.34622640406E+02 -0.71536031988E+01  0.48529304005E+02  0.00000000000E+00 0. -1.
        -13    1    3    3    0    0 -0.19973655180E+03 -0.40918880061E+02 -0.18869442727E+03  0.27780322488E+03  0.00000000000E+00 0.  1.
          4    1    6    6  502    0  0.44034683709E+03 -0.22468172229E+03  0.96590176522E+03  0.10850591843E+04  0.00000000000E+00 0. -1.
          3    1    5    5  503    0 -0.19269675570E+03  0.30675229188E+03  0.56805076667E+03  0.67372893789E+03  0.00000000000E+00 0. -1.
         -4    1    5    5    0  503 -0.27144672077E+02  0.20175777516E+02  0.22493412637E+02  0.40618331239E+02  0.00000000000E+00 0.  1.
         -3    1    6    6    0  502  0.12475571793E+02 -0.26704826638E+02  0.49135313521E+02  0.57298051382E+02  0.00000000000E+00 0.  1.
<mgrwt>
<rscale>  0 0.16668242E+04</rscale>
<asrwt>0</asrwt>
<pdfrwt beam="1">  1        2 0.27636694E+00 0.16668242E+04</pdfrwt>
<pdfrwt beam="2">  1       -2 0.59484909E-01 0.16668242E+04</pdfrwt>
<totfact> 0.21811582E+01</totfact>
</mgrwt>
</event>
<event>
12    1  0.1541840E-007  0.1289731E+04  0.7818608E-02  0.9037749E-01
         -2   -1    0    0    0  501 -0.00000000000E+00  0.00000000000E+00  0.13051778503E+04  0.13051778503E+04  0.00000000000E+00 0.  1.
          2   -1    0    0  501    0  0.00000000000E+00 -0.00000000000E+00 -0.31861663551E+03  0.31861663551E+03  0.00000000000E+00 0. -1.
         23    2    1    2    0    0 -0.10179989231E+03 -0.65488661312E+02  0.58170363302E+03  0.60151567245E+03  0.93755024953E+02 0.  0.
        254    2    1    2    0    0  0.10179989231E+03  0.65488661312E+02  0.40485758180E+03  0.10222788134E+04  0.93085569661E+03 0.  0.
        -24    2    4    4    0    0 -0.13966839061E+02 -0.38840752597E+03  0.37596415812E+03  0.54614638558E+03  0.76624718400E+02 0.  0.
         24    2    4    4    0    0  0.11576673137E+03  0.45389618728E+03  0.28893423681E+02  0.47613242780E+03  0.80271875183E+02 0.  0.
         11    1    3    3    0    0 -0.85481020131E+02 -0.41122813284E+02  0.55081511000E+03  0.55892340797E+03  0.00000000000E+00 0.  1.
        -11    1    3    3    0    0 -0.16318872179E+02 -0.24365848028E+02  0.30888523022E+02  0.42592264483E+02  0.00000000000E+00 0. -1.
          2    1    6    6  502    0  0.12401578594E+03  0.35996551525E+03  0.17200815095E+02  0.38111803338E+03  0.00000000000E+00 0. -1.
          1    1    5    5  503    0 -0.14085881910E+02 -0.39214282772E+03  0.37209721062E+03  0.54076865992E+03  0.00000000000E+00 0. -1.
         -2    1    5    5    0  503  0.11904284941E+00  0.37353017471E+01  0.38669474947E+01  0.53777256595E+01  0.00000000000E+00 0.  1.
         -1    1    6    6    0  502 -0.82490545690E+01  0.93930672036E+02  0.11692608586E+02  0.95014394414E+02  0.00000000000E+00 0.  1.
<mgrwt>
<rscale>  0 0.12897308E+04</rscale>
<asrwt>0</asrwt>
<pdfrwt beam="1">  1        2 0.49017944E-01 0.12897308E+04</pdfrwt>
<pdfrwt beam="2">  1       -2 0.20079659E+00 0.12897308E+04</pdfrwt>
<totfact> 0.13220721E+01</totfact>
</mgrwt>
</event>
<event>
12    1  0.1541840E-007  0.1775581E+04  0.7818608E-02  0.8719394E-01
          2   -1    0    0  501    0  0.00000000000E+00  0.00000000000E+00  0.26943292967E+04  0.26943292967E+04  0.00000000000E+00 0.  1.
         -2   -1    0    0    0  501 -0.00000000000E+00 -0.00000000000E+00 -0.29253001386E+03  0.29253001386E+03  0.00000000000E+00 0. -1.
         23    2    1    2    0    0 -0.33199813429E+03 -0.42257444145E+02  0.18536558950E+04  0.18860584489E+04  0.95748853400E+02 0.  0.
        254    2    1    2    0    0  0.33199813429E+03  0.42257444145E+02  0.54814338786E+03  0.11008008617E+04  0.89403182863E+03 0.  0.
        -24    2    4    4    0    0  0.39178639467E+02  0.38738159692E+03  0.15824702740E+02  0.39776452976E+03  0.79791807197E+02 0.  0.
         24    2    4    4    0    0  0.29281949482E+03 -0.34512415278E+03  0.53231868512E+03  0.70303633189E+03  0.77736504014E+02 0.  0.
         11    1    3    3    0    0 -0.27793530380E+02  0.81985052065E+01  0.34479779172E+03  0.34601331332E+03  0.00000000000E+00 0. -1.
        -11    1    3    3    0    0 -0.30420460391E+03 -0.50455949352E+02  0.15088581032E+04  0.15400451356E+04  0.00000000000E+00 0.  1.
          2    1    6    6  502    0  0.17104545427E+03 -0.23967037305E+03  0.38544479930E+03  0.48504239861E+03  0.00000000000E+00 0. -1.
          3    1    5    5  503    0  0.58926290297E+02  0.30558615618E+03 -0.43021810362E+01  0.31124542614E+03  0.00000000000E+00 0. -1.
         -4    1    5    5    0  503 -0.19747650830E+02  0.81795440746E+02  0.20126883776E+02  0.86519103617E+02  0.00000000000E+00 0.  1.
         -1    1    6    6    0  502  0.12177404055E+03 -0.10545377973E+03  0.14687388582E+03  0.21799393328E+03  0.00000000000E+00 0.  1.
<mgrwt>
<rscale>  0 0.17755812E+04</rscale>
<asrwt>0</asrwt>
<pdfrwt beam="1">  1        2 0.41451218E+00 0.17755812E+04</pdfrwt>
<pdfrwt beam="2">  1       -2 0.45004619E-01 0.17755812E+04</pdfrwt>
<totfact> 0.11878869E+01</totfact>
</mgrwt>
</event>
<event>
12    1  0.1541840E-007  0.3079177E+04  0.7818608E-02  0.8221476E-01
         -2   -1    0    0    0  501 -0.00000000000E+00  0.00000000000E+00  0.14647043901E+04  0.14647043901E+04  0.00000000000E+00 0.  1.
          2   -1    0    0  501    0  0.00000000000E+00 -0.00000000000E+00 -0.16183010825E+04  0.16183010825E+04  0.00000000000E+00 0. -1.
         23    2    1    2    0    0  0.23327943286E+03  0.10763032280E+04  0.80554400920E+03  0.13672753091E+04  0.87707968544E+02 0.  0.
        254    2    1    2    0    0 -0.23327943286E+03 -0.10763032280E+04 -0.95914070160E+03  0.17157301635E+04  0.90051717147E+03 0.  0.
        -24    2    4    4    0    0 -0.11648955266E+03 -0.80597504912E+03 -0.12542855541E+03  0.82769388676E+03  0.78608218356E+02 0.  0.
         24    2    4    4    0    0 -0.11678988020E+03 -0.27032817884E+03 -0.83371214619E+03  0.88803627672E+03  0.82554743485E+02 0.  0.
         13    1    3    3    0    0  0.15478284591E+03  0.85548119746E+03  0.65845510630E+03  0.10905819252E+04  0.00000000000E+00 0.  1.
        -13    1    3    3    0    0  0.78496586949E+02  0.22082203050E+03  0.14708890289E+03  0.27669338386E+03  0.00000000000E+00 0. -1.
          4    1    6    6  502    0 -0.37285564156E+00  0.41442516675E+01 -0.22354546919E+01  0.47234628074E+01  0.00000000000E+00 0. -1.
          1    1    5    5  503    0 -0.33191987946E+02 -0.20845541279E+03 -0.67547534405E+02  0.22162589332E+03  0.00000000000E+00 0. -1.
         -2    1    5    5    0  503 -0.83297564717E+02 -0.59751963633E+03 -0.57881021005E+02  0.60606799344E+03  0.00000000000E+00 0.  1.
         -3    1    6    6    0  502 -0.11641702456E+03 -0.27447243051E+03 -0.83147669149E+03  0.88331281391E+03  0.00000000000E+00 0.  1.
<mgrwt>
<rscale>  0 0.30791770E+04</rscale>
<asrwt>0</asrwt>
<pdfrwt beam="1">  1        2 0.24896940E+00 0.30791770E+04</pdfrwt>
<pdfrwt beam="2">  1       -2 0.22533914E+00 0.30791770E+04</pdfrwt>
<totfact> 0.84722797E-01</totfact>
</mgrwt>
</event>
<event>
12    1  0.1541840E-007  0.1177411E+04  0.7818608E-02  0.9132862E-01
         -2   -1    0    0    0  501 -0.00000000000E+00  0.00000000000E+00  0.16403001760E+03  0.16403001760E+03  0.00000000000E+00 0.  1.
          2   -1    0    0  501    0  0.00000000000E+00 -0.00000000000E+00 -0.21128690293E+04  0.21128690293E+04  0.00000000000E+00 0. -1.
         23    2    1    2    0    0 -0.13884294852E+03  0.13537490285E+03 -0.21097309436E+03  0.30104840662E+03  0.92286336528E+02 0.  0.
        254    2    1    2    0    0  0.13884294852E+03 -0.13537490285E+03 -0.17378659173E+04  0.19758506403E+04  0.91989351414E+03 0.  0.
        -24    2    4    4    0    0  0.21067381188E+03 -0.43770772196E+01 -0.17859049965E+04  0.17998120352E+04  0.73919494519E+02 0.  0.
         24    2    4    4    0    0 -0.71830863362E+02 -0.13099782564E+03  0.48039079208E+02  0.17603860504E+03  0.79760479441E+02 0.  0.
         11    1    3    3    0    0 -0.53809593238E+02  0.65175294163E+02 -0.31082112297E+02  0.90052145996E+02  0.00000000000E+00 0.  1.
        -11    1    3    3    0    0 -0.85033355284E+02  0.70199608692E+02 -0.17989098206E+03  0.21099626063E+03  0.00000000000E+00 0. -1.
          2    1    6    6  502    0 -0.59081445792E+02 -0.13148443225E+03  0.20384361653E+02  0.14558260666E+03  0.00000000000E+00 0. -1.
          3    1    5    5  503    0  0.14100668863E+03 -0.36023963997E+02 -0.12579838449E+04  0.12663743389E+04  0.00000000000E+00 0. -1.
         -4    1    5    5    0  503  0.69667123252E+02  0.31646886777E+02 -0.52792115163E+03  0.53343769631E+03  0.00000000000E+00 0.  1.
         -1    1    6    6    0  502 -0.12749417570E+02  0.48660661614E+00  0.27654717555E+02  0.30455998381E+02  0.00000000000E+00 0.  1.
<mgrwt>
<rscale>  0 0.11774106E+04</rscale>
<asrwt>0</asrwt>
<pdfrwt beam="1">  1        2 0.32505673E+00 0.11774106E+04</pdfrwt>
<pdfrwt beam="2">  1       -2 0.25235391E-01 0.11774106E+04</pdfrwt>
<totfact> 0.80741924E+01</totfact>
</mgrwt>
</event>
<event>
12    1  0.1541840E-007  0.3183507E+04  0.7818608E-02  0.8193187E-01
          1   -1    0    0  501    0  0.00000000000E+00  0.00000000000E+00  0.19119518724E+04  0.19119518724E+04  0.00000000000E+00 0. -1.
         -1   -1    0    0    0  501 -0.00000000000E+00 -0.00000000000E+00 -0.13251794620E+04  0.13251794620E+04  0.00000000000E+00 0.  1.
         23    2    1    2    0    0  0.94396509042E+03  0.56186909480E+03 -0.70716075895E+03  0.13099554663E+04  0.95603415649E+02 0.  0.
        254    2    1    2    0    0 -0.94396509042E+03 -0.56186909480E+03  0.12939331693E+04  0.19271758681E+04  0.91267563150E+03 0.  0.
        -24    2    4    4    0    0 -0.60019785252E+03 -0.55330212667E+03  0.13402469296E+04  0.15712950728E+04  0.79534067802E+02 0.  0.
         24    2    4    4    0    0 -0.34376723790E+03 -0.85669681257E+01 -0.46313760253E+02  0.35588079534E+03  0.79100374883E+02 0.  0.
         11    1    3    3    0    0  0.88366508923E+03  0.53912600401E+03 -0.64071133420E+03  0.12173873056E+04  0.00000000000E+00 0.  1.
        -11    1    3    3    0    0  0.60300001189E+02  0.22743090786E+02 -0.66449424751E+02  0.92568160679E+02  0.00000000000E+00 0. -1.
          4    1    6    6  502    0 -0.16377794161E+03 -0.30049026299E+02 -0.52249360008E+02  0.17451691540E+03  0.00000000000E+00 0. -1.
          1    1    5    5  503    0 -0.51594249969E+03 -0.45745024893E+03  0.11767099684E+04  0.13638562032E+04  0.00000000000E+00 0. -1.
         -2    1    5    5    0  503 -0.84255352830E+02 -0.95851877742E+02  0.16353696119E+03  0.20743886961E+03  0.00000000000E+00 0.  1.
         -3    1    6    6    0  502 -0.17998929629E+03  0.21482058173E+02  0.59355997557E+01  0.18136387994E+03  0.00000000000E+00 0.  1.
<mgrwt>
<rscale>  0 0.31835071E+04</rscale>
<asrwt>0</asrwt>
<pdfrwt beam="1">  1        1 0.29414644E+00 0.31835071E+04</pdfrwt>
<pdfrwt beam="2">  1       -1 0.20387376E+00 0.31835071E+04</pdfrwt>
<totfact> 0.40555912E-01</totfact>
</mgrwt>
</event>
<event>
12    1  0.1541840E-007  0.1627465E+04  0.7818608E-02  0.8803850E-01
         -2   -1    0    0    0  501 -0.00000000000E+00  0.00000000000E+00  0.53308192054E+03  0.53308192054E+03  0.00000000000E+00 0.  1.
          2   -1    0    0  501    0  0.00000000000E+00 -0.00000000000E+00 -0.12421373653E+04  0.12421373653E+04  0.00000000000E+00 0. -1.
         23    2    1    2    0    0 -0.37512368546E+03 -0.42489388337E+03 -0.11610728696E+03  0.58554903759E+03  0.90189699073E+02 0.  0.
        254    2    1    2    0    0  0.37512368546E+03  0.42489388337E+03 -0.59294815783E+03  0.11896702483E+04  0.86167000078E+03 0.  0.
        -24    2    4    4    0    0  0.25342761866E+03  0.47952216425E+03 -0.77569521299E+03  0.94988008697E+03  0.80012825552E+02 0.  0.
         24    2    4    4    0    0  0.12169606681E+03 -0.54628280882E+02  0.18274705516E+03  0.23979016132E+03  0.79427032847E+02 0.  0.
         11    1    3    3    0    0 -0.22821383492E+03 -0.28424567109E+03 -0.33601213992E+02  0.36606856948E+03  0.00000000000E+00 0.  1.
        -11    1    3    3    0    0 -0.14690985055E+03 -0.14064821228E+03 -0.82506072968E+02  0.21948046811E+03  0.00000000000E+00 0. -1.
          4    1    6    6  502    0  0.49334896471E+02 -0.40150307556E+02  0.30374497683E+02  0.70488221117E+02  0.00000000000E+00 0. -1.
          3    1    5    5  503    0  0.14581008751E+03  0.33903755564E+03 -0.48327529816E+03  0.60808063574E+03  0.00000000000E+00 0. -1.
         -4    1    5    5    0  503  0.10761753115E+03  0.14048460861E+03 -0.29241991483E+03  0.34179945123E+03  0.00000000000E+00 0.  1.
         -3    1    6    6    0  502  0.72361170334E+02 -0.14477973326E+02  0.15237255747E+03  0.16930194020E+03  0.00000000000E+00 0.  1.
<mgrwt>
<rscale>  0 0.16274655E+04</rscale>
<asrwt>0</asrwt>
<pdfrwt beam="1">  1        2 0.19109805E+00 0.16274655E+04</pdfrwt>
<pdfrwt beam="2">  1       -2 0.82012604E-01 0.16274655E+04</pdfrwt>
<totfact> 0.22360874E+01</totfact>
</mgrwt>
</event>
<event>
12    1  0.1541840E-007  0.1790667E+04  0.7818608E-02  0.8711278E-01
          1   -1    0    0  501    0  0.00000000000E+00  0.00000000000E+00  0.90863931393E+03  0.90863931393E+03  0.00000000000E+00 0. -1.
         -1   -1    0    0    0  501 -0.00000000000E+00 -0.00000000000E+00 -0.88222262667E+03  0.88222262667E+03  0.00000000000E+00 0.  1.
         23    2    1    2    0    0 -0.29570297149E+02  0.48253332818E+03  0.48264955631E+03  0.68929565209E+03  0.92005904729E+02 0.  0.
        254    2    1    2    0    0  0.29570297149E+02 -0.48253332818E+03 -0.45623286905E+03  0.11015662885E+04  0.87840027432E+03 0.  0.
        -24    2    4    4    0    0  0.44599063738E+03 -0.27851246661E+03 -0.23698078391E+03  0.58231539523E+03  0.80339808887E+02 0.  0.
         24    2    4    4    0    0 -0.41642034023E+03 -0.20402086157E+03 -0.21925208514E+03  0.51925089329E+03  0.80744050115E+02 0.  0.
         11    1    3    3    0    0  0.10067959767E+02  0.32039806866E+03  0.27105781691E+03  0.41979593414E+03  0.00000000000E+00 0. -1.
        -11    1    3    3    0    0 -0.39638256916E+02  0.16213525952E+03  0.21159173940E+03  0.26949971795E+03  0.00000000000E+00 0.  1.
          2    1    6    6  502    0 -0.38589646802E+03 -0.20966666046E+03 -0.21038149585E+03  0.48696669941E+03  0.00000000000E+00 0. -1.
          3    1    5    5  503    0  0.29693150555E+03 -0.14016092420E+03 -0.13871054844E+03  0.35644637732E+03  0.00000000000E+00 0. -1.
         -4    1    5    5    0  503  0.14905913183E+03 -0.13835154241E+03 -0.98270235473E+02  0.22586901791E+03  0.00000000000E+00 0.  1.
         -1    1    6    6    0  502 -0.30523872209E+02  0.56457988930E+01 -0.88705892847E+01  0.32284193873E+02  0.00000000000E+00 0.  1.
<mgrwt>
<rscale>  0 0.17906671E+04</rscale>
<asrwt>0</asrwt>
<pdfrwt beam="1">  1        1 0.13979066E+00 0.17906671E+04</pdfrwt>
<pdfrwt beam="2">  1       -1 0.13572656E+00 0.17906671E+04</pdfrwt>
<totfact> 0.76821251E+00</totfact>
</mgrwt>
</event>
<event>
12    1  0.1541840E-007  0.1538355E+04  0.7818608E-02  0.8859340E-01
          2   -1    0    0  501    0  0.00000000000E+00  0.00000000000E+00  0.10656854639E+04  0.10656854639E+04  0.00000000000E+00 0.  1.
         -2   -1    0    0    0  501 -0.00000000000E+00 -0.00000000000E+00 -0.55516783886E+03  0.55516783886E+03  0.00000000000E+00 0. -1.
         23    2    1    2    0    0  0.21500681658E+03 -0.39544394162E+03  0.43356283877E+03  0.63274462850E+03  0.98920107106E+02 0.  0.
        254    2    1    2    0    0 -0.21500681658E+03  0.39544394162E+03  0.76954786262E+02  0.98810867426E+03  0.87626073225E+03 0.  0.
        -24    2    4    4    0    0 -0.38864337323E+03  0.34916771460E+03 -0.26663698481E+03  0.59224758999E+03  0.81854515467E+02 0.  0.
         24    2    4    4    0    0  0.17363655666E+03  0.46276227023E+02  0.34359177107E+03  0.39586108428E+03  0.79746786146E+02 0.  0.
         11    1    3    3    0    0  0.17293261541E+03 -0.22930771564E+03  0.30134501243E+03  0.41628900351E+03  0.00000000000E+00 0.  1.
        -11    1    3    3    0    0  0.42074201165E+02 -0.16613622599E+03  0.13221782634E+03  0.21645562499E+03  0.00000000000E+00 0. -1.
          4    1    6    6  502    0  0.45729300742E+02  0.11272937035E+02  0.31219187727E+02  0.56505625721E+02  0.00000000000E+00 0. -1.
          1    1    5    5  503    0 -0.25681000125E+03  0.17847569166E+03 -0.14620189237E+03  0.34522448144E+03  0.00000000000E+00 0. -1.
         -2    1    5    5    0  503 -0.13183337198E+03  0.17069202294E+03 -0.12043509244E+03  0.24702310855E+03  0.00000000000E+00 0.  1.
         -3    1    6    6    0  502  0.12790725591E+03  0.35003289989E+02  0.31237258335E+03  0.33935545856E+03  0.00000000000E+00 0.  1.
<mgrwt>
<rscale>  0 0.15383554E+04</rscale>
<asrwt>0</asrwt>
<pdfrwt beam="1">  1        2 0.16395161E+00 0.15383554E+04</pdfrwt>
<pdfrwt beam="2">  1       -2 0.85410437E-01 0.15383554E+04</pdfrwt>
<totfact> 0.26279175E+01</totfact>
</mgrwt>
</event>
<event>
12    1  0.1541840E-007  0.1944539E+04  0.7818608E-02  0.8632999E-01
          1   -1    0    0  501    0  0.00000000000E+00  0.00000000000E+00  0.41925666405E+04  0.41925666405E+04  0.00000000000E+00 0. -1.
         -1   -1    0    0    0  501 -0.00000000000E+00 -0.00000000000E+00 -0.22547242176E+03  0.22547242176E+03  0.00000000000E+00 0.  1.
         23    2    1    2    0    0 -0.70005218231E+03  0.28112427639E+03  0.13212690362E+04  0.15242052610E+04  0.91355870140E+02 0.  0.
        254    2    1    2    0    0  0.70005218231E+03 -0.28112427639E+03  0.26458251826E+04  0.28938338012E+04  0.89709489791E+03 0.  0.
        -24    2    4    4    0    0  0.41287025193E+03  0.23185399939E+03  0.63283634072E+03  0.79522845654E+03  0.87683191066E+02 0.  0.
         24    2    4    4    0    0  0.28718193038E+03 -0.51297827579E+03  0.20129888418E+04  0.20986053447E+04  0.80000893082E+02 0.  0.
         13    1    3    3    0    0 -0.11685539715E+03  0.55423027881E+02  0.16481300421E+03  0.20949993370E+03  0.00000000000E+00 0.  1.
        -13    1    3    3    0    0 -0.58319678516E+03  0.22570124851E+03  0.11564560320E+04  0.13147053273E+04  0.00000000000E+00 0. -1.
          4    1    6    6  502    0  0.27438298048E+03 -0.43865281392E+03  0.17842048316E+04  0.18577107396E+04  0.00000000000E+00 0. -1.
          1    1    5    5  503    0  0.29456945927E+03  0.19224042026E+03  0.41329514701E+03  0.54271578571E+03  0.00000000000E+00 0. -1.
         -2    1    5    5    0  503  0.11830079266E+03  0.39613579138E+02  0.21954119371E+03  0.25251267084E+03  0.00000000000E+00 0.  1.
         -3    1    6    6    0  502  0.12798949899E+02 -0.74325461863E+02  0.22878401027E+03  0.24089460508E+03  0.00000000000E+00 0.  1.
<mgrwt>
<rscale>  0 0.19445392E+04</rscale>
<asrwt>0</asrwt>
<pdfrwt beam="1">  1        1 0.64501019E+00 0.19445392E+04</pdfrwt>
<pdfrwt beam="2">  1       -1 0.34688068E-01 0.19445392E+04</pdfrwt>
<totfact> 0.47760392E-01</totfact>
</mgrwt>
</event>
<event>
12    1  0.1541840E-007  0.1353838E+04  0.7818608E-02  0.8987928E-01
         -2   -1    0    0    0  501 -0.00000000000E+00  0.00000000000E+00  0.63680898425E+03  0.63680898425E+03  0.00000000000E+00 0.  1.
          2   -1    0    0  501    0  0.00000000000E+00 -0.00000000000E+00 -0.71955492524E+03  0.71955492524E+03  0.00000000000E+00 0. -1.
         23    2    1    2    0    0  0.20400465273E+03 -0.28641301364E+03  0.15392548841E+03  0.39509061279E+03  0.93558664016E+02 0.  0.
        254    2    1    2    0    0 -0.20400465273E+03  0.28641301364E+03 -0.23667142940E+03  0.96127329670E+03  0.86277614288E+03 0.  0.
        -24    2    4    4    0    0  0.13958448266E+03  0.88323239971E+02  0.26219243400E+03  0.31928301819E+03  0.76889210810E+02 0.  0.
         24    2    4    4    0    0 -0.34358913539E+03  0.19808977367E+03 -0.49886386340E+03  0.64199027851E+03  0.77416478158E+02 0.  0.
         11    1    3    3    0    0  0.14344290379E+03 -0.21201476084E+03  0.15481494497E+03  0.29915513141E+03  0.00000000000E+00 0.  1.
        -11    1    3    3    0    0  0.60561748940E+02 -0.74398252807E+02 -0.88945656007E+00  0.95935481384E+02  0.00000000000E+00 0. -1.
          2    1    6    6  502    0 -0.23662192054E+03  0.15862458408E+03 -0.40005777664E+03  0.49111904524E+03  0.00000000000E+00 0. -1.
          3    1    5    5  503    0  0.13485719668E+03  0.62732925030E+02  0.24916479812E+03  0.29018094356E+03  0.00000000000E+00 0. -1.
         -4    1    5    5    0  503  0.47272859798E+01  0.25590314942E+02  0.13027635881E+02  0.29102074637E+02  0.00000000000E+00 0.  1.
         -1    1    6    6    0  502 -0.10696721486E+03  0.39465189593E+02 -0.98806086769E+02  0.15087123326E+03  0.00000000000E+00 0.  1.
<mgrwt>
<rscale>  0 0.13538376E+04</rscale>
<asrwt>0</asrwt>
<pdfrwt beam="1">  1        2 0.11070076E+00 0.13538376E+04</pdfrwt>
<pdfrwt beam="2">  1       -2 0.97970613E-01 0.13538376E+04</pdfrwt>
<totfact> 0.33501484E+01</totfact>
</mgrwt>
</event>
<event>
12    1  0.1541840E-007  0.1678650E+04  0.7818608E-02  0.8773636E-01
         -1   -1    0    0    0  501 -0.00000000000E+00  0.00000000000E+00  0.27681511627E+03  0.27681511627E+03  0.00000000000E+00 0.  1.
          1   -1    0    0  501    0  0.00000000000E+00 -0.00000000000E+00 -0.25448980786E+04  0.25448980786E+04  0.00000000000E+00 0. -1.
         23    2    1    2    0    0  0.21815116832E+03 -0.54731635951E+03 -0.68463621590E+03  0.90777126561E+03  0.90425620938E+02 0.  0.
        254    2    1    2    0    0 -0.21815116832E+03  0.54731635951E+03 -0.15834467465E+04  0.19139419293E+04  0.89929137670E+03 0.  0.
        -24    2    4    4    0    0 -0.41729322840E+03  0.44981767021E+03 -0.15571835547E+04  0.16755336761E+04  0.78248973339E+02 0.  0.
         24    2    4    4    0    0  0.19914206008E+03  0.97498689296E+02 -0.26263191803E+02  0.23840825323E+03  0.83577421920E+02 0.  0.
         13    1    3    3    0    0  0.58190314586E+02 -0.16353042294E+03 -0.14266406428E+03  0.22468054472E+03  0.00000000000E+00 0.  1.
        -13    1    3    3    0    0  0.15996085373E+03 -0.38378593657E+03 -0.54197215163E+03  0.68309072089E+03  0.00000000000E+00 0. -1.
          2    1    6    6  502    0  0.15098905543E+03  0.37021308966E+02 -0.38454344126E+02  0.16014683500E+03  0.00000000000E+00 0. -1.
          3    1    5    5  503    0 -0.38080072659E+03  0.37645885023E+03 -0.13829201886E+04  0.14829695572E+04  0.00000000000E+00 0. -1.
         -4    1    5    5    0  503 -0.36492501811E+02  0.73358819981E+02 -0.17426336601E+03  0.19256411891E+03  0.00000000000E+00 0.  1.
         -1    1    6    6    0  502  0.48153004656E+02  0.60477380330E+02  0.12191152324E+02  0.78261418234E+02  0.00000000000E+00 0.  1.
<mgrwt>
<rscale>  0 0.16786498E+04</rscale>
<asrwt>0</asrwt>
<pdfrwt beam="1">  1        1 0.39152277E+00 0.16786498E+04</pdfrwt>
<pdfrwt beam="2">  1       -1 0.42586942E-01 0.16786498E+04</pdfrwt>
<totfact> 0.65338847E+00</totfact>
</mgrwt>
</event>
<event>
12    1  0.1541840E-007  0.1429266E+04  0.7818608E-02  0.8932902E-01
          2   -1    0    0  501    0  0.00000000000E+00  0.00000000000E+00  0.24963318873E+04  0.24963318873E+04  0.00000000000E+00 0. -1.
         -2   -1    0    0    0  501 -0.00000000000E+00 -0.00000000000E+00 -0.20458035849E+03  0.20458035849E+03  0.00000000000E+00 0.  1.
         23    2    1    2    0    0  0.45268763095E+02 -0.27938703614E+03  0.81626228239E+02  0.30874639719E+03  0.92493890417E+02 0.  0.
        254    2    1    2    0    0 -0.45268763095E+02  0.27938703614E+03  0.22101253006E+04  0.23921658486E+04  0.87045805532E+03 0.  0.
        -24    2    4    4    0    0  0.29580209021E+03  0.15631271748E+03  0.18217440786E+04  0.18540381373E+04  0.82300575224E+02 0.  0.
         24    2    4    4    0    0 -0.34107085330E+03  0.12307431867E+03  0.38838122202E+03  0.53812771127E+03  0.85234060873E+02 0.  0.
         13    1    3    3    0    0 -0.64287868918E+01 -0.21495368888E+03  0.55346366764E+02  0.22205773569E+03  0.00000000000E+00 0.  1.
        -13    1    3    3    0    0  0.51697549987E+02 -0.64433347262E+02  0.26279861475E+02  0.86688661503E+02  0.00000000000E+00 0. -1.
          2    1    6    6  502    0 -0.25108862918E+03  0.68182733959E+02  0.22651744878E+03  0.34497034585E+03  0.00000000000E+00 0. -1.
          1    1    5    5  503    0  0.80231530656E+02  0.83897993644E+02  0.54924728989E+03  0.56138093778E+03  0.00000000000E+00 0. -1.
         -2    1    5    5    0  503  0.21557055955E+03  0.72414723832E+02  0.12724967887E+04  0.12926571996E+04  0.00000000000E+00 0.  1.
         -1    1    6    6    0  502 -0.89982224123E+02  0.54891584708E+02  0.16186377323E+03  0.19315736542E+03  0.00000000000E+00 0.  1.
<mgrwt>
<rscale>  0 0.14292662E+04</rscale>
<asrwt>0</asrwt>
<pdfrwt beam="1">  1        2 0.38405104E+00 0.14292662E+04</pdfrwt>
<pdfrwt beam="2">  1       -2 0.31473903E-01 0.14292662E+04</pdfrwt>
<totfact> 0.31951486E+01</totfact>
</mgrwt>
</event>
<event>
12    1  0.1541840E-007  0.2524815E+04  0.7818608E-02  0.8394198E-01
         -2   -1    0    0    0  501 -0.00000000000E+00  0.00000000000E+00  0.81713710798E+03  0.81713710798E+03  0.00000000000E+00 0.  1.
          2   -1    0    0  501    0  0.00000000000E+00 -0.00000000000E+00 -0.19503123287E+04  0.19503123287E+04  0.00000000000E+00 0. -1.
         23    2    1    2    0    0 -0.38505789226E+03  0.10309095052E+04 -0.60227233410E+03  0.12578065257E+04  0.91111488962E+02 0.  0.
        254    2    1    2    0    0  0.38505789226E+03 -0.10309095052E+04 -0.53090288659E+03  0.15096429109E+04  0.88663400292E+03 0.  0.
        -24    2    4    4    0    0 -0.64352109588E+01 -0.61097663833E+03  0.13039102783E+03  0.62985025459E+03  0.79847720993E+02 0.  0.
         24    2    4    4    0    0  0.39149310322E+03 -0.41993286688E+03 -0.66129391442E+03  0.87979265631E+03  0.84350544145E+02 0.  0.
         11    1    3    3    0    0 -0.44010645103E+02  0.17041508881E+03 -0.12897539510E+03  0.21820378529E+03  0.00000000000E+00 0.  1.
        -11    1    3    3    0    0 -0.34104724716E+03  0.86049441641E+03 -0.47329693900E+03  0.10396027404E+04  0.00000000000E+00 0. -1.
          4    1    6    6  502    0  0.38536292903E+03 -0.42273321629E+03 -0.64471580161E+03  0.86189699157E+03  0.00000000000E+00 0. -1.
          3    1    5    5  503    0  0.14647811002E+01 -0.58458593984E+03  0.10829101797E+03  0.59453327175E+03  0.00000000000E+00 0. -1.
         -4    1    5    5    0  503 -0.78999920590E+01 -0.26390698487E+02  0.22100009864E+02  0.35316982843E+02  0.00000000000E+00 0.  1.
         -3    1    6    6    0  502  0.61301741871E+01  0.28003494068E+01 -0.16578112811E+02  0.17895664747E+02  0.00000000000E+00 0.  1.
<mgrwt>
<rscale>  0 0.25248149E+04</rscale>
<asrwt>0</asrwt>
<pdfrwt beam="1">  1        2 0.30004805E+00 0.25248149E+04</pdfrwt>
<pdfrwt beam="2">  1       -2 0.12571340E+00 0.25248149E+04</pdfrwt>
<totfact> 0.29956130E+00</totfact>
</mgrwt>
</event>
<event>
12    1  0.1541840E-007  0.1366156E+04  0.7818608E-02  0.8978687E-01
         -2   -1    0    0    0  501 -0.00000000000E+00  0.00000000000E+00  0.11551811592E+04  0.11551811592E+04  0.00000000000E+00 0.  1.
          2   -1    0    0  501    0  0.00000000000E+00 -0.00000000000E+00 -0.40391555461E+03  0.40391555461E+03  0.00000000000E+00 0. -1.
         23    2    1    2    0    0  0.36692429280E+03  0.58088859861E+02  0.13885090376E+03  0.40689215554E+03  0.90960983267E+02 0.  0.
        254    2    1    2    0    0 -0.36692429280E+03 -0.58088859861E+02  0.61241470084E+03  0.11522045583E+04  0.90250530526E+03 0.  0.
        -24    2    4    4    0    0  0.24701554068E+03  0.77945044446E+01  0.43169752858E+03  0.50375087406E+03  0.79528330150E+02 0.  0.
         24    2    4    4    0    0 -0.61393983348E+03 -0.65883364306E+02  0.18071717227E+03  0.64845368422E+03  0.81060146819E+02 0.  0.
         13    1    3    3    0    0  0.22480989145E+03  0.55773246593E+02  0.43328755106E+02  0.23564278760E+03  0.00000000000E+00 0. -1.
        -13    1    3    3    0    0  0.14211440135E+03  0.23156132677E+01  0.95522148650E+02  0.17124936794E+03  0.00000000000E+00 0.  1.
          2    1    6    6  502    0 -0.23878743419E+03 -0.22583850795E+02  0.11157071559E+03  0.26453259462E+03  0.00000000000E+00 0. -1.
          1    1    5    5  503    0  0.87126708812E+02  0.34971449712E+00  0.84212432971E+02  0.12117309749E+03  0.00000000000E+00 0. -1.
         -2    1    5    5    0  503  0.15988883186E+03  0.74447899475E+01  0.34748509561E+03  0.38257777656E+03  0.00000000000E+00 0.  1.
         -3    1    6    6    0  502 -0.37515239929E+03 -0.43299513511E+02  0.69146456681E+02  0.38392108960E+03  0.00000000000E+00 0.  1.
<mgrwt>
<rscale>  0 0.13661561E+04</rscale>
<asrwt>0</asrwt>
<pdfrwt beam="1">  1        2 0.62140855E-01 0.13661561E+04</pdfrwt>
<pdfrwt beam="2">  1       -2 0.17772018E+00 0.13661561E+04</pdfrwt>
<totfact> 0.14413133E+01</totfact>
</mgrwt>
</event>
<event>
12    1  0.1541840E-007  0.1751247E+04  0.7818608E-02  0.8732664E-01
         -2   -1    0    0    0  501 -0.00000000000E+00  0.00000000000E+00  0.63618183096E+03  0.63618183096E+03  0.00000000000E+00 0.  1.
          2   -1    0    0  501    0  0.00000000000E+00 -0.00000000000E+00 -0.12051839432E+04  0.12051839432E+04  0.00000000000E+00 0. -1.
         23    2    1    2    0    0  0.13425968050E+03 -0.11561575691E+03 -0.84971742564E+03  0.87285594646E+03  0.92006167085E+02 0.  0.
        254    2    1    2    0    0 -0.13425968050E+03  0.11561575691E+03  0.28071531339E+03  0.96850982771E+03  0.90984478575E+03 0.  0.
        -24    2    4    4    0    0 -0.78480541121E+01  0.42808788375E+03 -0.10570882141E+03  0.44825340604E+03  0.80224266488E+02 0.  0.
         24    2    4    4    0    0 -0.12641162639E+03 -0.31247212684E+03  0.38642413480E+03  0.52025642168E+03  0.87888582880E+02 0.  0.
         11    1    3    3    0    0  0.57870866862E+02 -0.29768942091E+02 -0.14640266210E+03  0.16021537571E+03  0.00000000000E+00 0.  1.
        -11    1    3    3    0    0  0.76388813641E+02 -0.85846814817E+02 -0.70331476354E+03  0.71264057075E+03  0.00000000000E+00 0. -1.
          2    1    6    6  502    0 -0.78074295160E+02 -0.11033018283E+03  0.19790012732E+03  0.23965142437E+03  0.00000000000E+00 0. -1.
          3    1    5    5  503    0  0.24680265136E+02  0.20925384063E+03 -0.80603082316E+02  0.22559508458E+03  0.00000000000E+00 0. -1.
         -4    1    5    5    0  503 -0.32528319248E+02  0.21883404311E+03 -0.25105739096E+02  0.22265832146E+03  0.00000000000E+00 0.  1.
         -1    1    6    6    0  502 -0.48337331232E+02 -0.20214194401E+03  0.18852400748E+03  0.28060499731E+03  0.00000000000E+00 0.  1.
<mgrwt>
<rscale>  0 0.17512466E+04</rscale>
<asrwt>0</asrwt>
<pdfrwt beam="1">  1        2 0.18541291E+00 0.17512466E+04</pdfrwt>
<pdfrwt beam="2">  1       -2 0.97874128E-01 0.17512466E+04</pdfrwt>
<totfact> 0.15491317E+01</totfact>
</mgrwt>
</event>
<event>
12    1  0.1541840E-007  0.1027991E+04  0.7818608E-02  0.9278366E-01
         -2   -1    0    0    0  501 -0.00000000000E+00  0.00000000000E+00  0.11089586302E+03  0.11089586302E+03  0.00000000000E+00 0.  1.
          2   -1    0    0  501    0  0.00000000000E+00 -0.00000000000E+00 -0.23823385331E+04  0.23823385331E+04  0.00000000000E+00 0. -1.
         23    2    1    2    0    0  0.48266339020E+02  0.18030005912E+02 -0.12889355338E+03  0.16653431368E+03  0.92007656929E+02 0.  0.
        254    2    1    2    0    0 -0.48266339020E+02 -0.18030005912E+02 -0.21425491167E+04  0.23267000825E+04  0.90573828206E+03 0.  0.
        -24    2    4    4    0    0 -0.19375040205E+03 -0.40188570785E+03 -0.14369539710E+04  0.15068807680E+04  0.82471776872E+02 0.  0.
         24    2    4    4    0    0  0.14548406303E+03  0.38385570194E+03 -0.70559514578E+03  0.81981931444E+03  0.75686102227E+02 0.  0.
         13    1    3    3    0    0 -0.21690453895E+02 -0.86885046270E-01 -0.70084038360E+02  0.73363858759E+02  0.00000000000E+00 0. -1.
        -13    1    3    3    0    0  0.69956792915E+02  0.18116890958E+02 -0.58809515023E+02  0.93170454921E+02  0.00000000000E+00 0.  1.
          2    1    6    6  502    0  0.39124960378E+02  0.64247454703E+02 -0.83515632200E+02  0.11239821521E+03  0.00000000000E+00 0. -1.
          3    1    5    5  503    0 -0.77173422500E+02 -0.19147748497E+03 -0.53644023666E+03  0.57479343411E+03  0.00000000000E+00 0. -1.
         -4    1    5    5    0  503 -0.11657697955E+03 -0.21040822288E+03 -0.90051373430E+03  0.93208733393E+03  0.00000000000E+00 0.  1.
         -1    1    6    6    0  502  0.10635910265E+03  0.31960824724E+03 -0.62207951358E+03  0.70742109923E+03  0.00000000000E+00 0.  1.
<mgrwt>
<rscale>  0 0.10279912E+04</rscale>
<asrwt>0</asrwt>
<pdfrwt beam="1">  1        2 0.36651360E+00 0.10279912E+04</pdfrwt>
<pdfrwt beam="2">  1       -2 0.17060903E-01 0.10279912E+04</pdfrwt>
<totfact> 0.11536448E+02</totfact>
</mgrwt>
</event>
<event>
12    1  0.1541840E-007  0.1329417E+04  0.7818608E-02  0.9006557E-01
         -3   -1    0    0    0  501 -0.00000000000E+00  0.00000000000E+00  0.65443102141E+03  0.65443102141E+03  0.00000000000E+00 0.  1.
          3   -1    0    0  501    0  0.00000000000E+00 -0.00000000000E+00 -0.67514771660E+03  0.67514771660E+03  0.00000000000E+00 0. -1.
         23    2    1    2    0    0 -0.17456919217E+03  0.71233825454E+02  0.28933095823E+03  0.35750697097E+03  0.92467130148E+02 0.  0.
        254    2    1    2    0    0  0.17456919217E+03 -0.71233825454E+02 -0.31004765342E+03  0.97207176704E+03  0.90180114889E+03 0.  0.
        -24    2    4    4    0    0  0.15572328541E+03 -0.47616236385E+03 -0.18874499661E+03  0.54125481016E+03  0.79697913461E+02 0.  0.
         24    2    4    4    0    0  0.18845906758E+02  0.40492853840E+03 -0.12130265682E+03  0.43081695688E+03  0.81034723233E+02 0.  0.
         13    1    3    3    0    0 -0.74032050433E+02 -0.10360075026E+02  0.14815136319E+03  0.16594246611E+03  0.00000000000E+00 0. -1.
        -13    1    3    3    0    0 -0.10053714173E+03  0.81593900480E+02  0.14117959505E+03  0.19156450486E+03  0.00000000000E+00 0.  1.
          2    1    6    6  502    0 -0.57939179230E+00  0.32540868829E+03 -0.66017255234E+02  0.33203829312E+03  0.00000000000E+00 0. -1.
          3    1    5    5  503    0  0.16214267913E+03 -0.44979518966E+03 -0.16690968925E+03  0.50642354349E+03  0.00000000000E+00 0. -1.
         -4    1    5    5    0  503 -0.64193937162E+01 -0.26367174191E+02 -0.21835307355E+02  0.34831266669E+02  0.00000000000E+00 0.  1.
         -1    1    6    6    0  502  0.19425298550E+02  0.79519850109E+02 -0.55285401584E+02  0.98778663755E+02  0.00000000000E+00 0.  1.
<mgrwt>
<rscale>  0 0.13294173E+04</rscale>
<asrwt>0</asrwt>
<pdfrwt beam="1">  1        3 0.10386888E+00 0.13294173E+04</pdfrwt>
<pdfrwt beam="2">  1       -3 0.10068170E+00 0.13294173E+04</pdfrwt>
<totfact> 0.17642741E+00</totfact>
</mgrwt>
</event>
<event>
12    1  0.1541840E-007  0.3077044E+04  0.7818608E-02  0.8222066E-01
          1   -1    0    0  501    0  0.00000000000E+00  0.00000000000E+00  0.16431951132E+04  0.16431951132E+04  0.00000000000E+00 0. -1.
         -1   -1    0    0    0  501 -0.00000000000E+00 -0.00000000000E+00 -0.14405162225E+04  0.14405162225E+04  0.00000000000E+00 0.  1.
         23    2    1    2    0    0 -0.27872331426E+03  0.97910050581E+03 -0.87902065449E+03  0.13481818432E+04  0.92695658259E+02 0.  0.
        254    2    1    2    0    0  0.27872331426E+03 -0.97910050581E+03  0.10816995452E+04  0.17355294925E+04  0.89758800501E+03 0.  0.
        -24    2    4    4    0    0  0.41098890247E+03 -0.98816150247E+02  0.54073360635E+03  0.69085271964E+03  0.78791736260E+02 0.  0.
         24    2    4    4    0    0 -0.13226558820E+03 -0.88028435556E+03  0.54096593889E+03  0.10446767728E+04  0.79439789882E+02 0.  0.
         13    1    3    3    0    0 -0.22074720032E+03  0.65075263585E+03 -0.55587871098E+03  0.88386054377E+03  0.00000000000E+00 0. -1.
        -13    1    3    3    0    0 -0.57976113947E+02  0.32834786996E+03 -0.32314194351E+03  0.46432129948E+03  0.00000000000E+00 0.  1.
          2    1    6    6  502    0 -0.14167619167E+03 -0.77369328833E+03  0.48211508456E+03  0.92255536552E+03  0.00000000000E+00 0. -1.
          3    1    5    5  503    0  0.36533719082E+03 -0.61035081421E+02  0.47511272469E+03  0.60243559434E+03  0.00000000000E+00 0. -1.
         -4    1    5    5    0  503  0.45651711644E+02 -0.37781068826E+02  0.65620881662E+02  0.88417125308E+02  0.00000000000E+00 0.  1.
         -1    1    6    6    0  502  0.94106034724E+01 -0.10659106723E+03  0.58850854327E+02  0.12212140732E+03  0.00000000000E+00 0.  1.
<mgrwt>
<rscale>  0 0.30770435E+04</rscale>
<asrwt>0</asrwt>
<pdfrwt beam="1">  1        1 0.25279925E+00 0.30770435E+04</pdfrwt>
<pdfrwt beam="2">  1       -1 0.22161788E+00 0.30770435E+04</pdfrwt>
<totfact> 0.47302469E-01</totfact>
</mgrwt>
</event>
<event>
12    1  0.1541840E-007  0.2731114E+04  0.7818608E-02  0.8324980E-01
         -2   -1    0    0    0  501 -0.00000000000E+00  0.00000000000E+00  0.62923647055E+03  0.62923647055E+03  0.00000000000E+00 0.  1.
          2   -1    0    0  501    0  0.00000000000E+00 -0.00000000000E+00 -0.29635060079E+04  0.29635060079E+04  0.00000000000E+00 0. -1.
         23    2    1    2    0    0  0.10802331731E+03  0.23238465436E+03  0.52068179366E+03  0.58765488251E+03  0.92504410810E+02 0.  0.
        254    2    1    2    0    0 -0.10802331731E+03 -0.23238465436E+03 -0.28549513310E+04  0.30050875959E+04  0.90229301902E+03 0.  0.
        -24    2    4    4    0    0 -0.17812082969E+03  0.16013077062E+03 -0.23153855229E+04  0.23291546148E+04  0.81130798407E+02 0.  0.
         24    2    4    4    0    0  0.70097512380E+02 -0.39251542498E+03 -0.53956580811E+03  0.67593298112E+03  0.82292852613E+02 0.  0.
         11    1    3    3    0    0  0.11848737762E+03  0.20097627146E+03  0.48913238850E+03  0.54192362360E+03  0.00000000000E+00 0.  1.
        -11    1    3    3    0    0 -0.10464060308E+02  0.31408382899E+02  0.31549405164E+02  0.45731258901E+02  0.00000000000E+00 0. -1.
          2    1    6    6  502    0  0.40791394028E+02 -0.68887393121E+02 -0.13585375634E+03  0.15768847094E+03  0.00000000000E+00 0. -1.
          1    1    5    5  503    0 -0.15885503475E+02 -0.83570156113E+01 -0.22799102996E+03  0.22869652091E+03  0.00000000000E+00 0. -1.
         -2    1    5    5    0  503 -0.16223532622E+03  0.16848778623E+03 -0.20873944929E+04  0.21004580939E+04  0.00000000000E+00 0.  1.
         -1    1    6    6    0  502  0.29306118352E+02 -0.32362803186E+03 -0.40371205177E+03  0.51824451017E+03  0.00000000000E+00 0.  1.
<mgrwt>
<rscale>  0 0.27311141E+04</rscale>
<asrwt>0</asrwt>
<pdfrwt beam="1">  1        2 0.45592401E+00 0.27311141E+04</pdfrwt>
<pdfrwt beam="2">  1       -2 0.96805610E-01 0.27311141E+04</pdfrwt>
<totfact> 0.14315291E+00</totfact>
</mgrwt>
</event>
<event>
12    1  0.1541840E-007  0.1506823E+04  0.7818608E-02  0.8879928E-01
         -1   -1    0    0    0  501 -0.00000000000E+00  0.00000000000E+00  0.80341653630E+03  0.80341653630E+03  0.00000000000E+00 0.  1.
          1   -1    0    0  501    0  0.00000000000E+00 -0.00000000000E+00 -0.70651907839E+03  0.70651907839E+03  0.00000000000E+00 0. -1.
         23    2    1    2    0    0 -0.45690606658E+03 -0.10010055332E+03  0.15710577110E+03  0.50104506940E+03  0.87067007586E+02 0.  0.
        254    2    1    2    0    0  0.45690606658E+03  0.10010055332E+03 -0.60208313194E+02  0.10088905453E+04  0.89188105538E+03 0.  0.
        -24    2    4    4    0    0  0.41011904017E+03 -0.30948077386E+03 -0.21280586267E+03  0.56232278441E+03  0.83334279741E+02 0.  0.
         24    2    4    4    0    0  0.46787026403E+02  0.40958132718E+03  0.15259754948E+03  0.44656776088E+03  0.78682040783E+02 0.  0.
         11    1    3    3    0    0 -0.93770973019E+02 -0.25196507270E+02 -0.30720878894E+01  0.97145751753E+02  0.00000000000E+00 0. -1.
        -11    1    3    3    0    0 -0.36313509356E+03 -0.74904046051E+02  0.16017785899E+03  0.40389931765E+03  0.00000000000E+00 0.  1.
          4    1    6    6  502    0  0.42145383464E+02  0.31928244188E+03  0.83305608447E+02  0.33265197345E+03  0.00000000000E+00 0. -1.
          3    1    5    5  503    0  0.14759921858E+03 -0.15048112319E+03 -0.58235582377E+02  0.21868123106E+03  0.00000000000E+00 0. -1.
         -4    1    5    5    0  503  0.26251982159E+03 -0.15899965067E+03 -0.15457028029E+03  0.34364155335E+03  0.00000000000E+00 0.  1.
         -3    1    6    6    0  502  0.46416429391E+01  0.90298885293E+02  0.69291941029E+02  0.11391578743E+03  0.00000000000E+00 0.  1.
<mgrwt>
<rscale>  0 0.15068233E+04</rscale>
<asrwt>0</asrwt>
<pdfrwt beam="1">  1        1 0.10869524E+00 0.15068233E+04</pdfrwt>
<pdfrwt beam="2">  1       -1 0.12360254E+00 0.15068233E+04</pdfrwt>
<totfact> 0.14950099E+01</totfact>
</mgrwt>
</event>
<event>
12    1  0.1541840E-007  0.1226182E+04  0.7818608E-02  0.9090243E-01
          2   -1    0    0  501    0  0.00000000000E+00  0.00000000000E+00  0.69173407407E+03  0.69173407407E+03  0.00000000000E+00 0. -1.
         -2   -1    0    0    0  501 -0.00000000000E+00 -0.00000000000E+00 -0.54338860750E+03  0.54338860750E+03  0.00000000000E+00 0.  1.
         23    2    1    2    0    0 -0.21242815880E+03 -0.48112551139E+02 -0.12244723649E+03  0.26723904055E+03  0.94777839390E+02 0.  0.
        254    2    1    2    0    0  0.21242815880E+03  0.48112551139E+02  0.27079270305E+03  0.96788364103E+03  0.90334351955E+03 0.  0.
        -24    2    4    4    0    0 -0.53071334651E+02 -0.37196241665E+03  0.26073358977E+03  0.46461833347E+03  0.81948672972E+02 0.  0.
         24    2    4    4    0    0  0.26549949345E+03  0.42007496779E+03  0.10059113285E+02  0.50326530756E+03  0.78878542352E+02 0.  0.
         13    1    3    3    0    0 -0.10573387429E+03 -0.34069316854E+02 -0.11418695260E+03  0.15930797427E+03  0.00000000000E+00 0.  1.
        -13    1    3    3    0    0 -0.10669428451E+03 -0.14043234285E+02 -0.82602838888E+01  0.10793106627E+03  0.00000000000E+00 0. -1.
          4    1    6    6  502    0  0.13103578879E+03  0.14971121348E+03  0.27284582767E+02  0.20081900767E+03  0.00000000000E+00 0. -1.
          3    1    5    5  503    0 -0.43066383869E+02 -0.75186978200E+02  0.45445068539E+02  0.97841961166E+02  0.00000000000E+00 0. -1.
         -4    1    5    5    0  503 -0.10004950781E+02 -0.29677543845E+03  0.21528852123E+03  0.36677637230E+03  0.00000000000E+00 0.  1.
         -3    1    6    6    0  502  0.13446370466E+03  0.27036375431E+03 -0.17225469482E+02  0.30244629988E+03  0.00000000000E+00 0.  1.
<mgrwt>
<rscale>  0 0.12261817E+04</rscale>
<asrwt>0</asrwt>
<pdfrwt beam="1">  1        2 0.10642063E+00 0.12261817E+04</pdfrwt>
<pdfrwt beam="2">  1       -2 0.83598247E-01 0.12261817E+04</pdfrwt>
<totfact> 0.51296218E+01</totfact>
</mgrwt>
</event>
<event>
12    1  0.1541840E-007  0.2642596E+04  0.7818608E-02  0.8353875E-01
         -2   -1    0    0    0  501 -0.00000000000E+00  0.00000000000E+00  0.69242582877E+03  0.69242582877E+03  0.00000000000E+00 0.  1.
          2   -1    0    0  501    0  0.00000000000E+00 -0.00000000000E+00 -0.25213217317E+04  0.25213217317E+04  0.00000000000E+00 0. -1.
         23    2    1    2    0    0 -0.26842475361E+03  0.11164268240E+04 -0.10601033730E+04  0.15654702162E+04  0.91744942801E+02 0.  0.
        254    2    1    2    0    0  0.26842475361E+03 -0.11164268240E+04 -0.76879252994E+03  0.16482773443E+04  0.89850740009E+03 0.  0.
        -24    2    4    4    0    0  0.33446080923E+03 -0.11317517698E+04 -0.89514979231E+03  0.14834099901E+04  0.80535374897E+02 0.  0.
         24    2    4    4    0    0 -0.66036055621E+02  0.15324945818E+02  0.12635726238E+03  0.16486735423E+03  0.81360138456E+02 0.  0.
         13    1    3    3    0    0 -0.55848244483E+02  0.11618302709E+03 -0.10580058589E+03  0.16676716155E+03  0.00000000000E+00 0.  1.
        -13    1    3    3    0    0 -0.21257650913E+03  0.10002437969E+04 -0.95430278714E+03  0.13987030546E+04  0.00000000000E+00 0. -1.
          2    1    6    6  502    0 -0.20844311857E+02 -0.71819358346E+01 -0.62988103419E+01  0.22929032924E+02  0.00000000000E+00 0. -1.
          1    1    5    5  503    0  0.56573168030E+02 -0.21495574284E+03 -0.13117074710E+03  0.25809350944E+03  0.00000000000E+00 0. -1.
         -4    1    5    5    0  503  0.27788764120E+03 -0.91679602698E+03 -0.76397904521E+03  0.12253164806E+04  0.00000000000E+00 0.  1.
         -1    1    6    6    0  502 -0.45191743764E+02  0.22506881653E+02  0.13265607272E+03  0.14193832131E+03  0.00000000000E+00 0.  1.
<mgrwt>
<rscale>  0 0.26425959E+04</rscale>
<asrwt>0</asrwt>
<pdfrwt beam="1">  1        2 0.38789565E+00 0.26425959E+04</pdfrwt>
<pdfrwt beam="2">  1       -2 0.10652705E+00 0.26425959E+04</pdfrwt>
<totfact> 0.21167933E+00</totfact>
</mgrwt>
</event>
<event>
12    1  0.1541840E-007  0.2781673E+04  0.7818608E-02  0.8308981E-01
         -1   -1    0    0    0  501 -0.00000000000E+00  0.00000000000E+00  0.38396073691E+03  0.38396073691E+03  0.00000000000E+00 0.  1.
          1   -1    0    0  501    0  0.00000000000E+00 -0.00000000000E+00 -0.50380824426E+04  0.50380824426E+04  0.00000000000E+00 0. -1.
         23    2    1    2    0    0 -0.10220376307E+04  0.36993302993E+03 -0.90003218246E+03  0.14142078519E+04  0.92274338938E+02 0.  0.
        254    2    1    2    0    0  0.10220376307E+04 -0.36993302993E+03 -0.37540895232E+04  0.40078353277E+04  0.88777502781E+03 0.  0.
        -24    2    4    4    0    0  0.56144890319E+03 -0.23693683798E+03 -0.77394556743E+03  0.98830942668E+03  0.79999033978E+02 0.  0.
         24    2    4    4    0    0  0.46058872750E+03 -0.13299619194E+03 -0.29801439558E+04  0.30195259010E+04  0.80303838017E+02 0.  0.
         11    1    3    3    0    0 -0.10031316121E+04  0.34834070953E+03 -0.88097038664E+03  0.13797547257E+04  0.00000000000E+00 0.  1.
        -11    1    3    3    0    0 -0.18906018621E+02  0.21592320392E+02 -0.19061795817E+02  0.34453126125E+02  0.00000000000E+00 0. -1.
          4    1    6    6  502    0  0.39658888706E+03 -0.84934119110E+02 -0.25361475119E+04  0.25683731723E+04  0.00000000000E+00 0. -1.
          1    1    5    5  503    0  0.53152188959E+03 -0.22116874412E+03 -0.69533830340E+03  0.90273278918E+03  0.00000000000E+00 0. -1.
         -2    1    5    5    0  503  0.29927013591E+02 -0.15768093869E+02 -0.78607264037E+02  0.85576637502E+02  0.00000000000E+00 0.  1.
         -3    1    6    6    0  502  0.63999840447E+02 -0.48062072832E+02 -0.44399644391E+03  0.45115272871E+03  0.00000000000E+00 0.  1.
<mgrwt>
<rscale>  0 0.27816728E+04</rscale>
<asrwt>0</asrwt>
<pdfrwt beam="1">  1        1 0.77508960E+00 0.27816728E+04</pdfrwt>
<pdfrwt beam="2">  1       -1 0.59070883E-01 0.27816728E+04</pdfrwt>
<totfact> 0.19504627E-02</totfact>
</mgrwt>
</event>
<event>
12    1  0.1541840E-007  0.1319482E+04  0.7818608E-02  0.9014257E-01
         -2   -1    0    0    0  501 -0.00000000000E+00  0.00000000000E+00  0.17334652462E+03  0.17334652462E+03  0.00000000000E+00 0.  1.
          2   -1    0    0  501    0  0.00000000000E+00 -0.00000000000E+00 -0.25109150543E+04  0.25109150543E+04  0.00000000000E+00 0. -1.
         23    2    1    2    0    0 -0.13244508593E+03  0.14552709154E+02 -0.12613777313E+04  0.12717668980E+04  0.92540691975E+02 0.  0.
        254    2    1    2    0    0  0.13244508593E+03 -0.14552709154E+02 -0.10761907984E+04  0.14124946810E+04  0.90509729147E+03 0.  0.
        -24    2    4    4    0    0 -0.18356351521E+02 -0.10049383714E+03  0.13453272743E+03  0.18680323787E+03  0.79752291406E+02 0.  0.
         24    2    4    4    0    0  0.15080143746E+03  0.85941127989E+02 -0.12107235258E+04  0.12256914431E+04  0.79631065544E+02 0.  0.
         11    1    3    3    0    0 -0.31646907302E+02  0.13394435436E+02 -0.94700966560E+02  0.10074329114E+03  0.00000000000E+00 0.  1.
        -11    1    3    3    0    0 -0.10079817863E+03  0.11582737173E+01 -0.11666767648E+04  0.11710236069E+04  0.00000000000E+00 0. -1.
          2    1    6    6  502    0  0.72534183062E+01  0.38960966223E+02 -0.22506376712E+03  0.22852629659E+03  0.00000000000E+00 0. -1.
          3    1    5    5  503    0  0.88010813700E+01 -0.84737004106E+02  0.55276516578E+02  0.10155447889E+03  0.00000000000E+00 0. -1.
         -4    1    5    5    0  503 -0.27157432891E+02 -0.15756833037E+02  0.79256210857E+02  0.85248758982E+02  0.00000000000E+00 0.  1.
         -1    1    6    6    0  502  0.14354801915E+03  0.46980161766E+02 -0.98565975872E+03  0.99716514649E+03  0.00000000000E+00 0.  1.
<mgrwt>
<rscale>  0 0.13194823E+04</rscale>
<asrwt>0</asrwt>
<pdfrwt beam="1">  1        2 0.38629459E+00 0.13194823E+04</pdfrwt>
<pdfrwt beam="2">  1       -2 0.26668698E-01 0.13194823E+04</pdfrwt>
<totfact> 0.43018780E+01</totfact>
</mgrwt>
</event>
<event>
12    1  0.1541840E-007  0.2441547E+04  0.7818608E-02  0.8424111E-01
          2   -1    0    0  501    0  0.00000000000E+00  0.00000000000E+00  0.12390939772E+04  0.12390939772E+04  0.00000000000E+00 0. -1.
         -2   -1    0    0    0  501 -0.00000000000E+00 -0.00000000000E+00 -0.12027234290E+04  0.12027234290E+04  0.00000000000E+00 0.  1.
         23    2    1    2    0    0 -0.79933280858E+03 -0.42685658832E+03  0.53506227459E+03  0.10562373478E+04  0.90588141175E+02 0.  0.
        254    2    1    2    0    0  0.79933280858E+03  0.42685658832E+03 -0.49869172644E+03  0.13855800584E+04  0.92195399798E+03 0.  0.
        -24    2    4    4    0    0  0.16606849870E+03 -0.26962814241E+03 -0.23889567836E+03  0.40587335000E+03  0.85929911327E+02 0.  0.
         24    2    4    4    0    0  0.63326430987E+03  0.69648473072E+03 -0.25979604807E+03  0.97970670841E+03  0.78845301800E+02 0.  0.
         11    1    3    3    0    0 -0.15790811392E+03 -0.10870489027E+03  0.14894307387E+03  0.24276689409E+03  0.00000000000E+00 0.  1.
        -11    1    3    3    0    0 -0.64142469466E+03 -0.31815169804E+03  0.38611920072E+03  0.81347045370E+03  0.00000000000E+00 0. -1.
          2    1    6    6  502    0  0.18417418465E+03  0.19515973572E+03 -0.11101561778E+03  0.29039958699E+03  0.00000000000E+00 0. -1.
          1    1    5    5  503    0  0.83573759496E+02 -0.11687386093E+03 -0.57416014357E+02  0.15472773297E+03  0.00000000000E+00 0. -1.
         -2    1    5    5    0  503  0.82494739208E+02 -0.15275428147E+03 -0.18147966401E+03  0.25114561703E+03  0.00000000000E+00 0.  1.
         -1    1    6    6    0  502  0.44909012523E+03  0.50132499501E+03 -0.14878043029E+03  0.68930712141E+03  0.00000000000E+00 0.  1.
<mgrwt>
<rscale>  0 0.24415465E+04</rscale>
<asrwt>0</asrwt>
<pdfrwt beam="1">  1        2 0.19062984E+00 0.24415465E+04</pdfrwt>
<pdfrwt beam="2">  1       -2 0.18503437E+00 0.24415465E+04</pdfrwt>
<totfact> 0.26942517E+00</totfact>
</mgrwt>
</event>
<event>
12    1  0.1541840E-007  0.2334938E+04  0.7818608E-02  0.8464272E-01
         -2   -1    0    0    0  501 -0.00000000000E+00  0.00000000000E+00  0.96775622025E+03  0.96775622025E+03  0.00000000000E+00 0. -1.
          2   -1    0    0  501    0  0.00000000000E+00 -0.00000000000E+00 -0.14083957799E+04  0.14083957799E+04  0.00000000000E+00 0.  1.
         23    2    1    2    0    0 -0.73774962641E+03  0.50808644881E+03  0.19546916031E+03  0.92128158537E+03  0.90139980976E+02 0.  0.
        254    2    1    2    0    0  0.73774962641E+03 -0.50808644881E+03 -0.63610871998E+03  0.14548704148E+04  0.95372284732E+03 0.  0.
        -24    2    4    4    0    0  0.90651859050E+03 -0.48245884581E+03 -0.71119699185E+03  0.12516059513E+04  0.78573553622E+02 0.  0.
         24    2    4    4    0    0 -0.16876896409E+03 -0.25627603009E+02  0.75088271866E+02  0.20326446349E+03  0.80860721425E+02 0.  0.
         11    1    3    3    0    0 -0.42986069169E+03  0.34716820760E+03  0.10737754114E+03  0.56288179485E+03  0.00000000000E+00 0. -1.
        -11    1    3    3    0    0 -0.30788893471E+03  0.16091824121E+03  0.88091619178E+02  0.35839979052E+03  0.00000000000E+00 0.  1.
          2    1    6    6  502    0 -0.25019222870E+02  0.26057323689E+02  0.14859594908E+02  0.39060890820E+02  0.00000000000E+00 0. -1.
          3    1    5    5  503    0  0.53581247935E+03 -0.32843676072E+03 -0.43036488402E+03  0.76169524892E+03  0.00000000000E+00 0. -1.
         -4    1    5    5    0  503  0.37070611115E+03 -0.15402208508E+03 -0.28083210783E+03  0.48991070240E+03  0.00000000000E+00 0.  1.
         -1    1    6    6    0  502 -0.14374974122E+03 -0.51684926698E+02  0.60228676959E+02  0.16420357267E+03  0.00000000000E+00 0.  1.
<mgrwt>
<rscale>  0 0.23349379E+04</rscale>
<asrwt>0</asrwt>
<pdfrwt beam="1">  1        2 0.21667627E+00 0.23349379E+04</pdfrwt>
<pdfrwt beam="2">  1       -2 0.14888557E+00 0.23349379E+04</pdfrwt>
<totfact> 0.39544530E+00</totfact>
</mgrwt>
</event>
<event>
12    1  0.1541840E-007  0.1254388E+04  0.7818608E-02  0.9066539E-01
          2   -1    0    0  501    0  0.00000000000E+00  0.00000000000E+00  0.14251076616E+04  0.14251076616E+04  0.00000000000E+00 0. -1.
         -2   -1    0    0    0  501 -0.00000000000E+00 -0.00000000000E+00 -0.27602997973E+03  0.27602997973E+03  0.00000000000E+00 0.  1.
         23    2    1    2    0    0  0.15697477705E+03 -0.19155784514E+03  0.49067044280E+03  0.55697125580E+03  0.90133277355E+02 0.  0.
        254    2    1    2    0    0 -0.15697477705E+03  0.19155784514E+03  0.65840723912E+03  0.11441663856E+04  0.90237527486E+03 0.  0.
        -24    2    4    4    0    0  0.36309027612E+03  0.88918473984E+02  0.16863445103E+03  0.41794156642E+03  0.80601062285E+02 0.  0.
         24    2    4    4    0    0 -0.52006505317E+03  0.10263937116E+03  0.48977278808E+03  0.72622481915E+03  0.80762639610E+02 0.  0.
         11    1    3    3    0    0  0.11140093902E+03 -0.17221111383E+03  0.32721401752E+03  0.38618111062E+03  0.00000000000E+00 0. -1.
        -11    1    3    3    0    0  0.45573838028E+02 -0.19346731317E+02  0.16345642527E+03  0.17079014517E+03  0.00000000000E+00 0.  1.
          2    1    6    6  502    0 -0.18798579486E+03  0.72346547064E+01  0.20734101590E+03  0.27996659831E+03  0.00000000000E+00 0. -1.
          1    1    5    5  503    0  0.10029184623E+03  0.58617271453E+02  0.33580722087E+02  0.12092189144E+03  0.00000000000E+00 0. -1.
         -2    1    5    5    0  503  0.26279842988E+03  0.30301202531E+02  0.13505372895E+03  0.29701967498E+03  0.00000000000E+00 0.  1.
         -1    1    6    6    0  502 -0.33207925831E+03  0.95404716454E+02  0.28243177219E+03  0.44625822083E+03  0.00000000000E+00 0.  1.
<mgrwt>
<rscale>  0 0.12543882E+04</rscale>
<asrwt>0</asrwt>
<pdfrwt beam="1">  1        2 0.21924733E+00 0.12543882E+04</pdfrwt>
<pdfrwt beam="2">  1       -2 0.42466151E-01 0.12543882E+04</pdfrwt>
<totfact> 0.72319258E+01</totfact>
</mgrwt>
</event>
<event>
12    1  0.1849784E-007  0.1634600E+04  0.7818608E-02  0.8799569E-01
         -2   -1    0    0    0  501 -0.00000000000E+00  0.00000000000E+00  0.39456178039E+03  0.39456178039E+03  0.00000000000E+00 0.  1.
          2   -1    0    0  501    0  0.00000000000E+00 -0.00000000000E+00 -0.16929651709E+04  0.16929651709E+04  0.00000000000E+00 0. -1.
         23    2    1    2    0    0  0.40967002007E+03 -0.18845797483E+03 -0.91374117812E+03  0.10231130119E+04  0.92148580309E+02 0.  0.
        254    2    1    2    0    0 -0.40967002007E+03  0.18845797483E+03 -0.38466221237E+03  0.10644139394E+04  0.88411881732E+03 0.  0.
        -24    2    4    4    0    0 -0.65859628014E+03  0.16918498247E+03 -0.41497890760E+03  0.80056346330E+03  0.79509411479E+02 0.  0.
         24    2    4    4    0    0  0.24892626007E+03  0.19272992362E+02  0.30316695224E+02  0.26385047610E+03  0.79763654268E+02 0.  0.
         11    1    3    3    0    0  0.32709548852E+03 -0.13526424311E+03 -0.78558156100E+03  0.86164160940E+03  0.00000000000E+00 0. -1.
        -11    1    3    3    0    0  0.82574531554E+02 -0.53193731721E+02 -0.12815961712E+03  0.16147140247E+03  0.00000000000E+00 0.  1.
          4    1    6    6  502    0  0.23671397022E+03  0.10002418413E+02  0.46621869191E+02  0.24146873660E+03  0.00000000000E+00 0. -1.
          1    1    5    5  503    0 -0.56681768494E+03  0.15146734582E+03 -0.38754715924E+03  0.70314823860E+03  0.00000000000E+00 0. -1.
         -2    1    5    5    0  503 -0.91778595203E+02  0.17717636648E+02 -0.27431748353E+02  0.97415224701E+02  0.00000000000E+00 0.  1.
         -3    1    6    6    0  502  0.12212289853E+02  0.92705739489E+01 -0.16305173968E+02  0.22381739497E+02  0.00000000000E+00 0.  1.
<mgrwt>
<rscale>  0 0.16346001E+04</rscale>
<asrwt>0</asrwt>
<pdfrwt beam="1">  1        2 0.26045618E+00 0.16346001E+04</pdfrwt>
<pdfrwt beam="2">  1       -2 0.60701812E-01 0.16346001E+04</pdfrwt>
<totfact> 0.23912192E+01</totfact>
</mgrwt>
</event>
<event>
12    1  0.1541840E-007  0.1191297E+04  0.7818608E-02  0.9120509E-01
         -1   -1    0    0    0  501 -0.00000000000E+00  0.00000000000E+00  0.36643939464E+03  0.36643939464E+03  0.00000000000E+00 0.  1.
          1   -1    0    0  501    0  0.00000000000E+00 -0.00000000000E+00 -0.96822845138E+03  0.96822845138E+03  0.00000000000E+00 0. -1.
         23    2    1    2    0    0 -0.24902025605E+03 -0.28322191131E+02 -0.12916650589E+03  0.29556004365E+03  0.88648286658E+02 0.  0.
        254    2    1    2    0    0  0.24902025605E+03  0.28322191131E+02 -0.47262255085E+03  0.10391078024E+04  0.89081968710E+03 0.  0.
        -24    2    4    4    0    0  0.41301852396E+03 -0.32264641201E+03 -0.28759860766E+03  0.60287246358E+03  0.77828271835E+02 0.  0.
         24    2    4    4    0    0 -0.16399826791E+03  0.35096860314E+03 -0.18502394319E+03  0.43623533878E+03  0.77414591518E+02 0.  0.
         11    1    3    3    0    0 -0.16205887112E+03 -0.30596851849E+02 -0.37390555754E+02  0.16910735853E+03  0.00000000000E+00 0.  1.
        -11    1    3    3    0    0 -0.86961384932E+02  0.22746607180E+01 -0.91775950134E+02  0.12645268512E+03  0.00000000000E+00 0. -1.
          4    1    6    6  502    0 -0.65794215456E+02  0.73801650346E+02 -0.66727594755E+02  0.11928174329E+03  0.00000000000E+00 0. -1.
          3    1    5    5  503    0  0.28237653554E+03 -0.21420579741E+03 -0.15227462233E+03  0.38575664878E+03  0.00000000000E+00 0. -1.
         -4    1    5    5    0  503  0.13064198842E+03 -0.10844061460E+03 -0.13532398533E+03  0.21711581480E+03  0.00000000000E+00 0.  1.
         -3    1    6    6    0  502 -0.98204052456E+02  0.27716695279E+03 -0.11829634844E+03  0.31695359549E+03  0.00000000000E+00 0.  1.
<mgrwt>
<rscale>  0 0.11912969E+04</rscale>
<asrwt>0</asrwt>
<pdfrwt beam="1">  1        1 0.14895823E+00 0.11912969E+04</pdfrwt>
<pdfrwt beam="2">  1       -1 0.56375291E-01 0.11912969E+04</pdfrwt>
<totfact> 0.50540741E+01</totfact>
</mgrwt>
</event>
<event>
12    1  0.1541840E-007  0.1150643E+04  0.7818608E-02  0.9157191E-01
          2   -1    0    0  501    0  0.00000000000E+00  0.00000000000E+00  0.11822389682E+04  0.11822389682E+04  0.00000000000E+00 0. -1.
         -2   -1    0    0    0  501 -0.00000000000E+00 -0.00000000000E+00 -0.27997269746E+03  0.27997269746E+03  0.00000000000E+00 0.  1.
         23    2    1    2    0    0  0.91242126947E+02  0.18156788239E+03  0.20014571876E+03  0.29938655800E+03  0.91005388455E+02 0.  0.
        254    2    1    2    0    0 -0.91242126947E+02 -0.18156788239E+03  0.70212055198E+03  0.11628251077E+04  0.90437654760E+03 0.  0.
        -24    2    4    4    0    0 -0.33256834144E+03  0.19061546015E+03  0.87508653518E+02  0.40097069651E+03  0.78637011905E+02 0.  0.
         24    2    4    4    0    0  0.24132621449E+03 -0.37218334254E+03  0.61461189846E+03  0.76185441115E+03  0.76912780454E+02 0.  0.
         13    1    3    3    0    0  0.10594734385E+03  0.14066839068E+03  0.17881124247E+03  0.25096991102E+03  0.00000000000E+00 0. -1.
        -13    1    3    3    0    0 -0.14705216902E+02  0.40899491704E+02  0.21334476295E+02  0.48416646978E+02  0.00000000000E+00 0.  1.
          4    1    6    6  502    0  0.21317811808E+03 -0.34374913393E+03  0.58841349226E+03  0.71402998185E+03  0.00000000000E+00 0. -1.
          1    1    5    5  503    0 -0.31642904789E+03  0.16688756757E+03  0.97149932221E+02  0.37069787144E+03  0.00000000000E+00 0. -1.
         -2    1    5    5    0  503 -0.16139293542E+02  0.23727892579E+02 -0.96412787030E+01  0.30272825064E+02  0.00000000000E+00 0.  1.
         -3    1    6    6    0  502  0.28148096410E+02 -0.28434208607E+02  0.26198406205E+02  0.47824429305E+02  0.00000000000E+00 0.  1.
<mgrwt>
<rscale>  0 0.11506427E+04</rscale>
<asrwt>0</asrwt>
<pdfrwt beam="1">  1        2 0.18188292E+00 0.11506427E+04</pdfrwt>
<pdfrwt beam="2">  1       -2 0.43072723E-01 0.11506427E+04</pdfrwt>
<totfact> 0.98135904E+01</totfact>
</mgrwt>
</event>
<event>
12    1  0.1541840E-007  0.1085726E+04  0.7818608E-02  0.9219217E-01
         -1   -1    0    0    0  501 -0.00000000000E+00  0.00000000000E+00  0.36902813306E+03  0.36902813306E+03  0.00000000000E+00 0.  1.
          1   -1    0    0  501    0  0.00000000000E+00 -0.00000000000E+00 -0.79858465600E+03  0.79858465600E+03  0.00000000000E+00 0. -1.
         23    2    1    2    0    0  0.68982451362E+02  0.73564264632E+02 -0.15495685086E+03  0.20611048838E+03  0.91102295050E+02 0.  0.
        254    2    1    2    0    0 -0.68982451362E+02 -0.73564264632E+02 -0.27459967209E+03  0.96150230069E+03  0.91592107449E+03 0.  0.
        -24    2    4    4    0    0  0.25677150683E+03 -0.28044453399E+02  0.22808792198E+03  0.35540956920E+03  0.87027372937E+02 0.  0.
         24    2    4    4    0    0 -0.32575395819E+03 -0.45519811233E+02 -0.50268759407E+03  0.60609273149E+03  0.80410742064E+02 0.  0.
         13    1    3    3    0    0  0.89454950808E+02  0.49503865067E+02 -0.13245941566E+03  0.16732697833E+03  0.00000000000E+00 0. -1.
        -13    1    3    3    0    0 -0.20472499446E+02  0.24060399566E+02 -0.22497435200E+02  0.38783510044E+02  0.00000000000E+00 0.  1.
          2    1    6    6  502    0 -0.20159647501E+03 -0.10415268153E+02 -0.36699709536E+03  0.41885138719E+03  0.00000000000E+00 0. -1.
          3    1    5    5  503    0  0.11548906841E+02 -0.24759728910E+02  0.22819295349E+02  0.35596933367E+02  0.00000000000E+00 0. -1.
         -4    1    5    5    0  503  0.24522259998E+03 -0.32847244895E+01  0.20526862663E+03  0.31981263583E+03  0.00000000000E+00 0.  1.
         -1    1    6    6    0  502 -0.12415748318E+03 -0.35104543080E+02 -0.13569049871E+03  0.18724134430E+03  0.00000000000E+00 0.  1.
<mgrwt>
<rscale>  0 0.10857259E+04</rscale>
<asrwt>0</asrwt>
<pdfrwt beam="1">  1        1 0.12285918E+00 0.10857259E+04</pdfrwt>
<pdfrwt beam="2">  1       -1 0.56773559E-01 0.10857259E+04</pdfrwt>
<totfact> 0.69450776E+01</totfact>
</mgrwt>
</event>
<event>
12    1  0.1541840E-007  0.1355067E+04  0.7818608E-02  0.8987001E-01
         -3   -1    0    0    0  501 -0.00000000000E+00  0.00000000000E+00  0.71886870930E+03  0.71886870930E+03  0.00000000000E+00 0.  1.
          3   -1    0    0  501    0  0.00000000000E+00 -0.00000000000E+00 -0.63857498005E+03  0.63857498005E+03  0.00000000000E+00 0. -1.
         23    2    1    2    0    0 -0.16596120677E+03  0.20746990076E+03 -0.22842491058E+03  0.36201586552E+03  0.91053090236E+02 0.  0.
        254    2    1    2    0    0  0.16596120677E+03 -0.20746990076E+03  0.30871863983E+03  0.99542782383E+03  0.90828545734E+03 0.  0.
        -24    2    4    4    0    0  0.88662275332E+02  0.80296190716E+02 -0.28973706130E+03  0.32225861097E+03  0.74796860530E+02 0.  0.
         24    2    4    4    0    0  0.77298931439E+02 -0.28776609148E+03  0.59845570113E+03  0.67316921287E+03  0.78886720887E+02 0.  0.
         13    1    3    3    0    0 -0.13993021091E+03  0.10572167487E+03 -0.13288412772E+03  0.22003574224E+03  0.00000000000E+00 0. -1.
        -13    1    3    3    0    0 -0.26030995859E+02  0.10174822589E+03 -0.95540782867E+02  0.14198012329E+03  0.00000000000E+00 0.  1.
          4    1    6    6  502    0  0.17721907898E+02 -0.18606503639E+03  0.41450693229E+03  0.45469798845E+03  0.00000000000E+00 0. -1.
          3    1    5    5  503    0  0.55673362465E+02  0.24418691713E+01 -0.13216648166E+03  0.14343453171E+03  0.00000000000E+00 0. -1.
         -4    1    5    5    0  503  0.32988912867E+02  0.77854321545E+02 -0.15757057964E+03  0.17882407926E+03  0.00000000000E+00 0.  1.
         -3    1    6    6    0  502  0.59577023541E+02 -0.10170105509E+03  0.18394876884E+03  0.21847122442E+03  0.00000000000E+00 0.  1.
<mgrwt>
<rscale>  0 0.13550669E+04</rscale>
<asrwt>0</asrwt>
<pdfrwt beam="1">  1        3 0.98242305E-01 0.13550669E+04</pdfrwt>
<pdfrwt beam="2">  1       -3 0.11059519E+00 0.13550669E+04</pdfrwt>
<totfact> 0.16060283E+00</totfact>
</mgrwt>
</event>
<event>
12    1  0.1541840E-007  0.1607270E+04  0.7818608E-02  0.8816094E-01
          1   -1    0    0  501    0  0.00000000000E+00  0.00000000000E+00  0.14441398024E+04  0.14441398024E+04  0.00000000000E+00 0. -1.
         -1   -1    0    0    0  501 -0.00000000000E+00 -0.00000000000E+00 -0.44720694749E+03  0.44720694749E+03  0.00000000000E+00 0.  1.
         23    2    1    2    0    0  0.14869208410E+03 -0.29724840530E+03  0.85344692646E+03  0.92240669864E+03  0.10952858570E+03 0.  0.
        254    2    1    2    0    0 -0.14869208410E+03  0.29724840530E+03  0.14348592841E+03  0.96894005122E+03  0.89877175127E+03 0.  0.
        -24    2    4    4    0    0  0.22322616189E+02  0.45642604695E+03  0.40054733713E+03  0.61278222912E+03  0.78999085572E+02 0.  0.
         24    2    4    4    0    0 -0.17101470029E+03 -0.15917764165E+03 -0.25706140872E+03  0.35615782210E+03  0.78640174718E+02 0.  0.
         11    1    3    3    0    0  0.12108118567E+03 -0.18217751864E+03  0.66335046496E+03  0.69848632139E+03  0.00000000000E+00 0. -1.
        -11    1    3    3    0    0  0.27610898431E+02 -0.11507088666E+03  0.19009646150E+03  0.22392037725E+03  0.00000000000E+00 0.  1.
          2    1    6    6  502    0 -0.31818094733E+02 -0.19577783381E+02 -0.74642246595E+01  0.38097183679E+02  0.00000000000E+00 0. -1.
          3    1    5    5  503    0  0.64653038778E+01  0.14257771467E+03  0.78794705576E+02  0.16303009079E+03  0.00000000000E+00 0. -1.
         -4    1    5    5    0  503  0.15857312311E+02  0.31384833228E+03  0.32175263155E+03  0.44975213833E+03  0.00000000000E+00 0.  1.
         -1    1    6    6    0  502 -0.13919660555E+03 -0.13959985827E+03 -0.24959718406E+03  0.31806063842E+03  0.00000000000E+00 0.  1.
<mgrwt>
<rscale>  0 0.16072702E+04</rscale>
<asrwt>0</asrwt>
<pdfrwt beam="1">  1        1 0.22217535E+00 0.16072702E+04</pdfrwt>
<pdfrwt beam="2">  1       -1 0.68801070E-01 0.16072702E+04</pdfrwt>
<totfact> 0.14666229E+01</totfact>
</mgrwt>
</event>
<event>
12    1  0.1541840E-007  0.1626609E+04  0.7818608E-02  0.8804366E-01
          1   -1    0    0  501    0  0.00000000000E+00  0.00000000000E+00  0.30078367423E+03  0.30078367423E+03  0.00000000000E+00 0. -1.
         -1   -1    0    0    0  501 -0.00000000000E+00 -0.00000000000E+00 -0.21991351505E+04  0.21991351505E+04  0.00000000000E+00 0.  1.
         23    2    1    2    0    0 -0.32848694336E+03  0.28351028790E+03 -0.11659077176E+03  0.45878233467E+03  0.92768891536E+02 0.  0.
        254    2    1    2    0    0  0.32848694336E+03 -0.28351028790E+03 -0.17817607045E+04  0.20411364900E+04  0.89626179634E+03 0.  0.
        -24    2    4    4    0    0 -0.24617126564E+03 -0.24851169596E+03 -0.37675404505E+03  0.52037533619E+03  0.80551381090E+02 0.  0.
         24    2    4    4    0    0  0.57465820900E+03 -0.34998591944E+02 -0.14050066594E+04  0.15207611539E+04  0.84934182549E+02 0.  0.
         13    1    3    3    0    0 -0.28109630289E+03  0.27838001948E+03 -0.11029176245E+03  0.41070042563E+03  0.00000000000E+00 0.  1.
        -13    1    3    3    0    0 -0.47390640475E+02  0.51302684183E+01 -0.62990093049E+01  0.48081909040E+02  0.00000000000E+00 0. -1.
          4    1    6    6  502    0  0.36300827044E+02 -0.23832895435E+02 -0.11050186903E+03  0.11872834543E+03  0.00000000000E+00 0. -1.
          3    1    5    5  503    0 -0.14857029170E+03 -0.92965570703E+02 -0.18881399445E+03  0.25761687331E+03  0.00000000000E+00 0. -1.
         -4    1    5    5    0  503 -0.97600973940E+02 -0.15554612526E+03 -0.18794005060E+03  0.26275846288E+03  0.00000000000E+00 0.  1.
         -3    1    6    6    0  502  0.53835738196E+03 -0.11165696509E+02 -0.12945047904E+04  0.14020328084E+04  0.00000000000E+00 0.  1.
<mgrwt>
<rscale>  0 0.16266087E+04</rscale>
<asrwt>0</asrwt>
<pdfrwt beam="1">  1        1 0.46274410E-01 0.16266087E+04</pdfrwt>
<pdfrwt beam="2">  1       -1 0.33832849E+00 0.16266087E+04</pdfrwt>
<totfact> 0.15577551E+00</totfact>
</mgrwt>
</event>
<event>
12    1  0.1541840E-007  0.2763391E+04  0.7818608E-02  0.8314725E-01
          2   -1    0    0  501    0  0.00000000000E+00  0.00000000000E+00  0.24417551322E+04  0.24417551322E+04  0.00000000000E+00 0. -1.
         -2   -1    0    0    0  501 -0.00000000000E+00 -0.00000000000E+00 -0.78184818069E+03  0.78184818069E+03  0.00000000000E+00 0.  1.
         23    2    1    2    0    0 -0.77052349812E+03  0.95532712753E+03  0.87550524253E+03  0.15104263051E+04  0.92313658596E+02 0.  0.
        254    2    1    2    0    0  0.77052349812E+03 -0.95532712753E+03  0.78440170894E+03  0.17131770078E+04  0.90184978646E+03 0.  0.
        -24    2    4    4    0    0  0.28246999955E+03 -0.81399417059E+03  0.82697620417E+03  0.11969572749E+04  0.80257494333E+02 0.  0.
         24    2    4    4    0    0  0.48805349857E+03 -0.14133295694E+03 -0.42574495222E+02  0.51621973286E+03  0.80616392662E+02 0.  0.
         11    1    3    3    0    0 -0.38069402763E+03  0.47224164031E+03  0.48936398868E+03  0.77936976008E+03  0.00000000000E+00 0. -1.
        -11    1    3    3    0    0 -0.38982947049E+03  0.48308548722E+03  0.38614125386E+03  0.73105654498E+03  0.00000000000E+00 0.  1.
          2    1    6    6  502    0  0.87297287355E+02 -0.58244367859E+02 -0.15033070369E+02  0.10601516859E+03  0.00000000000E+00 0. -1.
          1    1    5    5  503    0  0.34883866230E+02 -0.42671887649E+02  0.58090514715E+02  0.80076725823E+02  0.00000000000E+00 0. -1.
         -2    1    5    5    0  503  0.24758613332E+03 -0.77132228294E+03  0.76888568945E+03  0.11168805491E+04  0.00000000000E+00 0.  1.
         -1    1    6    6    0  502  0.40075621122E+03 -0.83088589085E+02 -0.27541424853E+02  0.41020456427E+03  0.00000000000E+00 0.  1.
<mgrwt>
<rscale>  0 0.27633905E+04</rscale>
<asrwt>0</asrwt>
<pdfrwt beam="1">  1        2 0.37565463E+00 0.27633905E+04</pdfrwt>
<pdfrwt beam="2">  1       -2 0.12028434E+00 0.27633905E+04</pdfrwt>
<totfact> 0.17327637E+00</totfact>
</mgrwt>
</event>
<event>
12    1  0.1541840E-007  0.1877732E+04  0.7818608E-02  0.8666021E-01
          2   -1    0    0  501    0  0.00000000000E+00  0.00000000000E+00  0.70276256386E+03  0.70276256386E+03  0.00000000000E+00 0. -1.
         -2   -1    0    0    0  501 -0.00000000000E+00 -0.00000000000E+00 -0.12542914710E+04  0.12542914710E+04  0.00000000000E+00 0.  1.
         23    2    1    2    0    0  0.44104571771E+03  0.15369172788E+03  0.34920376239E+03  0.59031646065E+03  0.91584844355E+02 0.  0.
        254    2    1    2    0    0 -0.44104571771E+03 -0.15369172788E+03 -0.90073266956E+03  0.13667375742E+04  0.91570179779E+03 0.  0.
        -24    2    4    4    0    0 -0.48098900664E+03 -0.46301835347E+03 -0.43553524540E+03  0.80108379201E+03  0.79422110675E+02 0.  0.
         24    2    4    4    0    0  0.39943288931E+02  0.30932662559E+03 -0.46519742416E+03  0.56565378223E+03  0.79228342615E+02 0.  0.
         13    1    3    3    0    0  0.12603946462E+03  0.71134280340E+02  0.15069017933E+03  0.20893435004E+03  0.00000000000E+00 0.  1.
        -13    1    3    3    0    0  0.31500625310E+03  0.82557447541E+02  0.19851358306E+03  0.38138211061E+03  0.00000000000E+00 0. -1.
          2    1    6    6  502    0 -0.16401621554E+02  0.68907378394E+02 -0.69541223216E+02  0.99263395636E+02  0.00000000000E+00 0. -1.
          3    1    5    5  503    0 -0.26997435678E+01 -0.43791950583E+01 -0.15954434680E+02  0.16763351415E+02  0.00000000000E+00 0. -1.
         -4    1    5    5    0  503 -0.47828926308E+03 -0.45863915841E+03 -0.41958081072E+03  0.78432044059E+03  0.00000000000E+00 0.  1.
         -1    1    6    6    0  502  0.56344910485E+02  0.24041924720E+03 -0.39565620095E+03  0.46639038659E+03  0.00000000000E+00 0.  1.
<mgrwt>
<rscale>  0 0.18777317E+04</rscale>
<asrwt>0</asrwt>
<pdfrwt beam="1">  1        2 0.10811732E+00 0.18777317E+04</pdfrwt>
<pdfrwt beam="2">  1       -2 0.19296792E+00 0.18777317E+04</pdfrwt>
<totfact> 0.56596255E+00</totfact>
</mgrwt>
</event>
<event>
12    1  0.1541840E-007  0.1327596E+04  0.7818608E-02  0.9007963E-01
          2   -1    0    0  501    0  0.00000000000E+00  0.00000000000E+00  0.13644003824E+04  0.13644003824E+04  0.00000000000E+00 0. -1.
         -2   -1    0    0    0  501 -0.00000000000E+00 -0.00000000000E+00 -0.32294609802E+03  0.32294609802E+03  0.00000000000E+00 0.  1.
         23    2    1    2    0    0  0.25487487605E+03 -0.17878390653E+03  0.48385766363E+03  0.58297957360E+03  0.93925805314E+02 0.  0.
        254    2    1    2    0    0 -0.25487487605E+03  0.17878390653E+03  0.55759662078E+03  0.11043669069E+04  0.90099244491E+03 0.  0.
        -24    2    4    4    0    0  0.16792379355E+03 -0.26918049940E+03  0.24803602010E+03  0.41048036659E+03  0.79471519403E+02 0.  0.
         24    2    4    4    0    0 -0.42279866960E+03  0.44796440593E+03  0.30956060069E+03  0.69388654026E+03  0.78866604270E+02 0.  0.
         11    1    3    3    0    0  0.12416454347E+03 -0.14357594868E+03  0.28290087777E+03  0.34068136658E+03  0.00000000000E+00 0. -1.
        -11    1    3    3    0    0  0.13071033258E+03 -0.35207957846E+02  0.20095678586E+03  0.24229820702E+03  0.00000000000E+00 0.  1.
          4    1    6    6  502    0 -0.41047581577E+03  0.40686402227E+03  0.28426227046E+03  0.64407590109E+03  0.00000000000E+00 0. -1.
          1    1    5    5  503    0  0.17039919974E+03 -0.23636802605E+03  0.23754332524E+03  0.37594223277E+03  0.00000000000E+00 0. -1.
         -2    1    5    5    0  503 -0.24754061893E+01 -0.32812473345E+02  0.10492694858E+02  0.34538133826E+02  0.00000000000E+00 0.  1.
         -3    1    6    6    0  502 -0.12322853828E+02  0.41100383654E+02  0.25298330227E+02  0.49810639177E+02  0.00000000000E+00 0.  1.
<mgrwt>
<rscale>  0 0.13275960E+04</rscale>
<asrwt>0</asrwt>
<pdfrwt beam="1">  1        2 0.20990775E+00 0.13275960E+04</pdfrwt>
<pdfrwt beam="2">  1       -2 0.49684016E-01 0.13275960E+04</pdfrwt>
<totfact> 0.56873326E+01</totfact>
</mgrwt>
</event>
<event>
12    1  0.1541840E-007  0.1012941E+04  0.7818608E-02  0.9294464E-01
          3   -1    0    0  501    0  0.00000000000E+00  0.00000000000E+00  0.89901783616E+03  0.89901783616E+03  0.00000000000E+00 0. -1.
         -3   -1    0    0    0  501 -0.00000000000E+00 -0.00000000000E+00 -0.28532535954E+03  0.28532535954E+03  0.00000000000E+00 0.  1.
         23    2    1    2    0    0 -0.52810272479E+02 -0.71134771106E+01  0.96689568328E+02  0.14308767683E+03  0.91025733739E+02 0.  0.
        254    2    1    2    0    0  0.52810272479E+02  0.71134771106E+01  0.51700290830E+03  0.10412555189E+04  0.90226466292E+03 0.  0.
        -24    2    4    4    0    0  0.36205354975E+03 -0.28455326341E+03  0.31694223910E+03  0.56486011658E+03  0.81001455389E+02 0.  0.
         24    2    4    4    0    0 -0.30924327727E+03  0.29166674052E+03  0.20006066919E+03  0.47639540228E+03  0.78913977814E+02 0.  0.
         11    1    3    3    0    0 -0.61382205328E+02 -0.34593166763E+02  0.88572953084E+02  0.11317963746E+03  0.00000000000E+00 0. -1.
        -11    1    3    3    0    0  0.85719328489E+01  0.27479689653E+02  0.81166152431E+01  0.29908039374E+02  0.00000000000E+00 0.  1.
          2    1    6    6  502    0 -0.83070158141E+02  0.10670838396E+03  0.97626887386E+02  0.16678830751E+03  0.00000000000E+00 0. -1.
          3    1    5    5  503    0  0.22711591557E+03 -0.14981692766E+03  0.22550419162E+03  0.35338207561E+03  0.00000000000E+00 0. -1.
         -4    1    5    5    0  503  0.13493763418E+03 -0.13473633575E+03  0.91438047476E+02  0.21147804098E+03  0.00000000000E+00 0.  1.
         -1    1    6    6    0  502 -0.22617311913E+03  0.18495835656E+03  0.10243378181E+03  0.30960709477E+03  0.00000000000E+00 0.  1.
<mgrwt>
<rscale>  0 0.10129414E+04</rscale>
<asrwt>0</asrwt>
<pdfrwt beam="1">  1        3 0.13831044E+00 0.10129414E+04</pdfrwt>
<pdfrwt beam="2">  1       -3 0.43896209E-01 0.10129414E+04</pdfrwt>
<totfact> 0.53811080E+00</totfact>
</mgrwt>
</event>
<event>
12    1  0.1541840E-007  0.1789022E+04  0.7818608E-02  0.8712159E-01
         -1   -1    0    0    0  501 -0.00000000000E+00  0.00000000000E+00  0.14116084695E+04  0.14116084695E+04  0.00000000000E+00 0. -1.
          1   -1    0    0  501    0  0.00000000000E+00 -0.00000000000E+00 -0.56683542857E+03  0.56683542857E+03  0.00000000000E+00 0.  1.
         23    2    1    2    0    0  0.39829187579E+03  0.46018884348E+03  0.63117996393E+03  0.88142035289E+03  0.90019451423E+02 0.  0.
        254    2    1    2    0    0 -0.39829187579E+03 -0.46018884348E+03  0.21359307700E+03  0.10970235452E+04  0.88737166180E+03 0.  0.
        -24    2    4    4    0    0  0.11971015180E+03 -0.51430572988E+03  0.16118010314E+02  0.53362086565E+03  0.75170032389E+02 0.  0.
         24    2    4    4    0    0 -0.51800202760E+03  0.54116886401E+02  0.19747506668E+03  0.56340267953E+03  0.84684351273E+02 0.  0.
         13    1    3    3    0    0  0.31651058397E+03  0.30425647888E+03  0.45843598823E+03  0.63475547261E+03  0.00000000000E+00 0. -1.
        -13    1    3    3    0    0  0.81781291821E+02  0.15593236460E+03  0.17274397570E+03  0.24666488028E+03  0.00000000000E+00 0.  1.
          4    1    6    6  502    0 -0.45985578955E+03  0.20251923247E+02  0.17534073590E+03  0.49256660590E+03  0.00000000000E+00 0. -1.
          3    1    5    5  503    0  0.89484781698E+02 -0.46887753745E+03  0.26508865368E+02  0.47807571704E+03  0.00000000000E+00 0. -1.
         -4    1    5    5    0  503  0.30225370106E+02 -0.45428192436E+02 -0.10390855054E+02  0.55545148617E+02  0.00000000000E+00 0.  1.
         -3    1    6    6    0  502 -0.58146238046E+02  0.33864963155E+02  0.22134330778E+02  0.70836073630E+02  0.00000000000E+00 0.  1.
<mgrwt>
<rscale>  0 0.17890217E+04</rscale>
<asrwt>0</asrwt>
<pdfrwt beam="1">  1        1 0.87205451E-01 0.17890217E+04</pdfrwt>
<pdfrwt beam="2">  1       -1 0.21717053E+00 0.17890217E+04</pdfrwt>
<totfact> 0.40351100E+00</totfact>
</mgrwt>
</event>
<event>
12    1  0.1541840E-007  0.2061571E+04  0.7818608E-02  0.8578363E-01
          2   -1    0    0  501    0  0.00000000000E+00  0.00000000000E+00  0.17900953444E+04  0.17900953444E+04  0.00000000000E+00 0. -1.
         -2   -1    0    0    0  501 -0.00000000000E+00 -0.00000000000E+00 -0.59355414702E+03  0.59355414702E+03  0.00000000000E+00 0.  1.
         23    2    1    2    0    0 -0.17883614481E+03 -0.46657888669E+03 -0.27760632078E+03  0.57861904846E+03  0.89758062072E+02 0.  0.
        254    2    1    2    0    0  0.17883614481E+03  0.46657888669E+03  0.14741475182E+04  0.18050304430E+04  0.91397252175E+03 0.  0.
        -24    2    4    4    0    0 -0.32172368877E+03 -0.28630655667E+02  0.44402656343E+03  0.55466299215E+03  0.78521331303E+02 0.  0.
         24    2    4    4    0    0  0.50055983358E+03  0.49520954236E+03  0.10301209548E+04  0.12503674508E+04  0.80479455925E+02 0.  0.
         11    1    3    3    0    0 -0.15163883777E+03 -0.42973905303E+03 -0.27605652245E+03  0.53280127103E+03  0.00000000000E+00 0.  1.
        -11    1    3    3    0    0 -0.27197307041E+02 -0.36839833657E+02 -0.15497983369E+01  0.45817777435E+02  0.00000000000E+00 0. -1.
          4    1    6    6  502    0  0.21886775533E+03  0.25635365801E+03  0.54204399317E+03  0.63830398936E+03  0.00000000000E+00 0. -1.
          3    1    5    5  503    0 -0.29533987582E+03 -0.34186029685E+02  0.36270064427E+03  0.46898409805E+03  0.00000000000E+00 0. -1.
         -4    1    5    5    0  503 -0.26383812955E+02  0.55553740179E+01  0.81325919162E+02  0.85678894099E+02  0.00000000000E+00 0.  1.
         -3    1    6    6    0  502  0.28169207825E+03  0.23885588435E+03  0.48807696160E+03  0.61206346148E+03  0.00000000000E+00 0.  1.
<mgrwt>
<rscale>  0 0.20615708E+04</rscale>
<asrwt>0</asrwt>
<pdfrwt beam="1">  1        2 0.27539928E+00 0.20615708E+04</pdfrwt>
<pdfrwt beam="2">  1       -2 0.91316023E-01 0.20615708E+04</pdfrwt>
<totfact> 0.82551774E+00</totfact>
</mgrwt>
</event>
<event>
12    1  0.1541840E-007  0.2068178E+04  0.7818608E-02  0.8575392E-01
         -1   -1    0    0    0  501 -0.00000000000E+00  0.00000000000E+00  0.48775320558E+03  0.48775320558E+03  0.00000000000E+00 0.  1.
          1   -1    0    0  501    0  0.00000000000E+00 -0.00000000000E+00 -0.21923798313E+04  0.21923798313E+04  0.00000000000E+00 0. -1.
         23    2    1    2    0    0 -0.74722369668E+02 -0.68605597984E+03 -0.87726016713E+02  0.70099812081E+03  0.86291780444E+02 0.  0.
        254    2    1    2    0    0  0.74722369668E+02  0.68605597984E+03 -0.16169006090E+04  0.19791349160E+04  0.90903861116E+03 0.  0.
        -24    2    4    4    0    0  0.42890608663E+03  0.47293456501E+03 -0.60664787387E+03  0.88473057951E+03  0.84255691287E+02 0.  0.
         24    2    4    4    0    0 -0.35418371696E+03  0.21312141482E+03 -0.10102527351E+04  0.10944043365E+04  0.79015316328E+02 0.  0.
         13    1    3    3    0    0 -0.93874219085E+02 -0.57233318216E+03 -0.79131738025E+02  0.58535414270E+03  0.00000000000E+00 0.  1.
        -13    1    3    3    0    0  0.19151849417E+02 -0.11372279768E+03 -0.85942786880E+01  0.11564397811E+03  0.00000000000E+00 0. -1.
          4    1    6    6  502    0 -0.15974322752E+02  0.62182931625E+01 -0.13917060742E+02  0.22080098210E+02  0.00000000000E+00 0. -1.
          3    1    5    5  503    0  0.68208035582E+02  0.36900921691E+02 -0.61539531370E+02  0.99000646770E+02  0.00000000000E+00 0. -1.
         -4    1    5    5    0  503  0.36069805105E+03  0.43603364332E+03 -0.54510834250E+03  0.78572993274E+03  0.00000000000E+00 0.  1.
         -3    1    6    6    0  502 -0.33820939421E+03  0.20690312166E+03 -0.99633567435E+03  0.10723242383E+04  0.00000000000E+00 0.  1.
<mgrwt>
<rscale>  0 0.20681782E+04</rscale>
<asrwt>0</asrwt>
<pdfrwt beam="1">  1        1 0.33728920E+00 0.20681782E+04</pdfrwt>
<pdfrwt beam="2">  1       -1 0.75038956E-01 0.20681782E+04</pdfrwt>
<totfact> 0.36312535E+00</totfact>
</mgrwt>
</event>
<event>
12    1  0.1541840E-007  0.1965922E+04  0.7818608E-02  0.8622721E-01
          2   -1    0    0  501    0  0.00000000000E+00  0.00000000000E+00  0.16730853603E+04  0.16730853603E+04  0.00000000000E+00 0. -1.
         -2   -1    0    0    0  501 -0.00000000000E+00 -0.00000000000E+00 -0.57750313938E+03  0.57750313938E+03  0.00000000000E+00 0.  1.
         23    2    1    2    0    0  0.14895461373E+03  0.56010223351E+03  0.95903040248E+03  0.11241356023E+04  0.89663541424E+02 0.  0.
        254    2    1    2    0    0 -0.14895461373E+03 -0.56010223351E+03  0.13655181848E+03  0.11264528974E+04  0.95621532196E+03 0.  0.
        -24    2    4    4    0    0 -0.35490567106E+03 -0.71533088749E+03 -0.40413570144E+02  0.80353599157E+03  0.79878151868E+02 0.  0.
         24    2    4    4    0    0  0.20595105733E+03  0.15522865398E+03  0.17696538862E+03  0.32291690581E+03  0.80292006170E+02 0.  0.
         11    1    3    3    0    0  0.99981409625E+01  0.17368586515E+03  0.32743633895E+03  0.37078470659E+03  0.00000000000E+00 0. -1.
        -11    1    3    3    0    0  0.13895647277E+03  0.38641636836E+03  0.63159406353E+03  0.75335089576E+03  0.00000000000E+00 0.  1.
          2    1    6    6  502    0  0.15028056198E+03  0.98288210175E+02  0.77702496386E+02  0.19565913603E+03  0.00000000000E+00 0. -1.
          1    1    5    5  503    0 -0.36356597913E+02 -0.37111903103E+02  0.84776078911E+01  0.52639960100E+02  0.00000000000E+00 0. -1.
         -2    1    5    5    0  503 -0.31854907315E+03 -0.67821898438E+03 -0.48891178035E+02  0.75089603147E+03  0.00000000000E+00 0.  1.
         -3    1    6    6    0  502  0.55670495350E+02  0.56940443806E+02  0.99262892236E+02  0.12725776978E+03  0.00000000000E+00 0.  1.
<mgrwt>
<rscale>  0 0.19659217E+04</rscale>
<asrwt>0</asrwt>
<pdfrwt beam="1">  1        2 0.25739775E+00 0.19659217E+04</pdfrwt>
<pdfrwt beam="2">  1       -2 0.88846638E-01 0.19659217E+04</pdfrwt>
<totfact> 0.10296166E+01</totfact>
</mgrwt>
</event>
<event>
12    1  0.1541840E-007  0.2453644E+04  0.7818608E-02  0.8419689E-01
         -2   -1    0    0    0  501 -0.00000000000E+00  0.00000000000E+00  0.72251302152E+03  0.72251302152E+03  0.00000000000E+00 0. -1.
          2   -1    0    0  501    0  0.00000000000E+00 -0.00000000000E+00 -0.20831357500E+04  0.20831357500E+04  0.00000000000E+00 0.  1.
         23    2    1    2    0    0  0.83926851584E+03 -0.16950520973E+03  0.12849750722E+03  0.87062577148E+03  0.91509380947E+02 0.  0.
        254    2    1    2    0    0 -0.83926851584E+03  0.16950520973E+03 -0.14891202357E+04  0.19350230000E+04  0.89091597609E+03 0.  0.
        -24    2    4    4    0    0 -0.80790200132E+03  0.19289297496E+03 -0.15930559230E+04  0.17984280290E+04  0.81257972600E+02 0.  0.
         24    2    4    4    0    0 -0.31366514522E+02 -0.23387765232E+02  0.10393568731E+03  0.13659497104E+03  0.79528065614E+02 0.  0.
         11    1    3    3    0    0  0.40303137642E+03 -0.80699071034E+02  0.10793459834E+03  0.42496647864E+03  0.00000000000E+00 0. -1.
        -11    1    3    3    0    0  0.43623713942E+03 -0.88806138695E+02  0.20562908881E+02  0.44565929284E+03  0.00000000000E+00 0.  1.
          4    1    6    6  502    0  0.99208956725E+01  0.19849501721E+02  0.80639804311E+01  0.23610477969E+02  0.00000000000E+00 0. -1.
          1    1    5    5  503    0 -0.67919954320E+02 -0.62964846486E+01 -0.13521853352E+03  0.15144905982E+03  0.00000000000E+00 0. -1.
         -2    1    5    5    0  503 -0.73998204700E+03  0.19918945961E+03 -0.14578373895E+04  0.16469789692E+04  0.00000000000E+00 0.  1.
         -1    1    6    6    0  502 -0.41287410195E+02 -0.43237266953E+02  0.95871706877E+02  0.11298449307E+03  0.00000000000E+00 0.  1.
<mgrwt>
<rscale>  0 0.24536444E+04</rscale>
<asrwt>0</asrwt>
<pdfrwt beam="1">  1        2 0.32048242E+00 0.24536444E+04</pdfrwt>
<pdfrwt beam="2">  1       -2 0.11115585E+00 0.24536444E+04</pdfrwt>
<totfact> 0.34434474E+00</totfact>
</mgrwt>
</event>
<event>
12    1  0.1541840E-007  0.1897105E+04  0.7818608E-02  0.8656299E-01
         -1   -1    0    0    0  501 -0.00000000000E+00  0.00000000000E+00  0.25038862680E+03  0.25038862680E+03  0.00000000000E+00 0.  1.
          1   -1    0    0  501    0  0.00000000000E+00 -0.00000000000E+00 -0.35934225353E+04  0.35934225353E+04  0.00000000000E+00 0. -1.
         23    2    1    2    0    0  0.14113713759E+03  0.68543744439E+03 -0.16931954405E+04  0.18364332768E+04  0.12582606588E+03 0.  0.
        254    2    1    2    0    0 -0.14113713759E+03 -0.68543744439E+03 -0.16498384680E+04  0.20073778853E+04  0.90435326166E+03 0.  0.
        -24    2    4    4    0    0 -0.66081663738E+02 -0.65340049093E+03 -0.44534542662E+03  0.79751388865E+03  0.79980408536E+02 0.  0.
         24    2    4    4    0    0 -0.75055473856E+02 -0.32036953466E+02 -0.12044930414E+04  0.12098639966E+04  0.79421111654E+02 0.  0.
         11    1    3    3    0    0  0.83013384377E+02  0.38366056686E+03 -0.11074615460E+04  0.11749713735E+04  0.00000000000E+00 0. -1.
        -11    1    3    3    0    0  0.58123753217E+02  0.30177687753E+03 -0.58573389443E+03  0.66146190335E+03  0.00000000000E+00 0.  1.
          2    1    6    6  502    0 -0.46565641006E+02 -0.42687098118E+02 -0.10746943148E+04  0.10765493103E+04  0.00000000000E+00 0. -1.
          3    1    5    5  503    0 -0.56495468877E+02 -0.47777001873E+03 -0.28305757360E+03  0.55819129227E+03  0.00000000000E+00 0. -1.
         -4    1    5    5    0  503 -0.95861948609E+01 -0.17563047220E+03 -0.16228785303E+03  0.23932259638E+03  0.00000000000E+00 0.  1.
         -1    1    6    6    0  502 -0.28489832850E+02  0.10650144652E+02 -0.12979872662E+03  0.13331468632E+03  0.00000000000E+00 0.  1.
<mgrwt>
<rscale>  0 0.18971053E+04</rscale>
<asrwt>0</asrwt>
<pdfrwt beam="1">  1        1 0.55283419E+00 0.18971053E+04</pdfrwt>
<pdfrwt beam="2">  1       -1 0.38521330E-01 0.18971053E+04</pdfrwt>
<totfact> 0.12937099E+00</totfact>
</mgrwt>
</event>
<event>
12    1  0.1541840E-007  0.1921336E+04  0.7818608E-02  0.8644309E-01
          1   -1    0    0  501    0  0.00000000000E+00  0.00000000000E+00  0.16027031204E+04  0.16027031204E+04  0.00000000000E+00 0. -1.
         -1   -1    0    0    0  501 -0.00000000000E+00 -0.00000000000E+00 -0.57582889778E+03  0.57582889778E+03  0.00000000000E+00 0.  1.
         23    2    1    2    0    0 -0.58458904586E+03 -0.91254632681E+02  0.91257811610E+03  0.10914285659E+04  0.91354999355E+02 0.  0.
        254    2    1    2    0    0  0.58458904586E+03  0.91254632681E+02  0.11429610654E+03  0.10871034523E+04  0.90479752186E+03 0.  0.
        -24    2    4    4    0    0  0.37853442469E+02  0.42318461234E+03  0.92317201961E+02  0.44215609468E+03  0.80383126694E+02 0.  0.
         24    2    4    4    0    0  0.54673560339E+03 -0.33192997966E+03  0.21978904576E+02  0.64494735765E+03  0.79854182581E+02 0.  0.
         11    1    3    3    0    0 -0.13101621420E+03 -0.27071896121E+01  0.26775393379E+03  0.29810190593E+03  0.00000000000E+00 0.  1.
        -11    1    3    3    0    0 -0.45357283167E+03 -0.88547443069E+02  0.64482418231E+03  0.79332665996E+03  0.00000000000E+00 0. -1.
          4    1    6    6  502    0  0.17327988138E+03 -0.64156656803E+02  0.14638707364E+02  0.18535448647E+03  0.00000000000E+00 0. -1.
          3    1    5    5  503    0 -0.17635854493E+01  0.52884894981E+02 -0.14243187130E+02  0.54797725595E+02  0.00000000000E+00 0. -1.
         -4    1    5    5    0  503  0.39617027918E+02  0.37029971736E+03  0.10656038909E+03  0.38735836908E+03  0.00000000000E+00 0.  1.
         -3    1    6    6    0  502  0.37345572202E+03 -0.26777332285E+03  0.73401972116E+01  0.45959287117E+03  0.00000000000E+00 0.  1.
<mgrwt>
<rscale>  0 0.19213358E+04</rscale>
<asrwt>0</asrwt>
<pdfrwt beam="1">  1        1 0.24656971E+00 0.19213358E+04</pdfrwt>
<pdfrwt beam="2">  1       -1 0.88589062E-01 0.19213358E+04</pdfrwt>
<totfact> 0.64899079E+00</totfact>
</mgrwt>
</event>
<event>
12    1  0.1541840E-007  0.2594850E+04  0.7818608E-02  0.8369953E-01
          2   -1    0    0  501    0  0.00000000000E+00  0.00000000000E+00  0.19541624458E+04  0.19541624458E+04  0.00000000000E+00 0.  1.
         -2   -1    0    0    0  501 -0.00000000000E+00 -0.00000000000E+00 -0.86139771758E+03  0.86139771758E+03  0.00000000000E+00 0. -1.
         23    2    1    2    0    0 -0.22965918232E+02  0.97825499275E+03  0.11510922865E+04  0.15129909137E+04  0.81349791119E+02 0.  0.
        254    2    1    2    0    0  0.22965918232E+02 -0.97825499275E+03 -0.58327558353E+02  0.13025692497E+04  0.85777286148E+03 0.  0.
        -24    2    4    4    0    0  0.56546853205E+02 -0.11127730516E+04  0.34178074809E+02  0.11177561248E+04  0.82153532145E+02 0.  0.
         24    2    4    4    0    0 -0.33580934973E+02  0.13451805884E+03 -0.92505633162E+02  0.18481312484E+03  0.79848679386E+02 0.  0.
         13    1    3    3    0    0 -0.14693403750E+01  0.89579247637E+03  0.10320839324E+04  0.13666175629E+04  0.00000000000E+00 0. -1.
        -13    1    3    3    0    0 -0.21496577857E+02  0.82462516383E+02  0.11900835414E+03  0.14637335079E+03  0.00000000000E+00 0.  1.
          4    1    6    6  502    0 -0.49555678119E+01 -0.46285917310E+01  0.82282004831E+01  0.10662307299E+02  0.00000000000E+00 0. -1.
          3    1    5    5  503    0  0.25491462735E+02 -0.74621483765E+03 -0.13743253035E+02  0.74677659015E+03  0.00000000000E+00 0. -1.
         -4    1    5    5    0  503  0.31055390470E+02 -0.36655821394E+03  0.47921327844E+02  0.37097953468E+03  0.00000000000E+00 0.  1.
         -3    1    6    6    0  502 -0.28625367161E+02  0.13914665057E+03 -0.10073383364E+03  0.17415081754E+03  0.00000000000E+00 0.  1.
<mgrwt>
<rscale>  0 0.25948496E+04</rscale>
<asrwt>0</asrwt>
<pdfrwt beam="1">  1        2 0.30064037E+00 0.25948496E+04</pdfrwt>
<pdfrwt beam="2">  1       -2 0.13252273E+00 0.25948496E+04</pdfrwt>
<totfact> 0.25934355E+00</totfact>
</mgrwt>
</event>
<event>
12    1  0.1541840E-007  0.2602688E+04  0.7818608E-02  0.8367289E-01
          2   -1    0    0  501    0  0.00000000000E+00  0.00000000000E+00  0.70364006669E+03  0.70364006669E+03  0.00000000000E+00 0.  1.
         -2   -1    0    0    0  501 -0.00000000000E+00 -0.00000000000E+00 -0.24067655898E+04  0.24067655898E+04  0.00000000000E+00 0. -1.
         23    2    1    2    0    0 -0.40055228964E+03 -0.18797480469E+03  0.50725990653E+03  0.67941802269E+03  0.92301532230E+02 0.  0.
        254    2    1    2    0    0  0.40055228964E+03  0.18797480469E+03 -0.22103854297E+04  0.24309876338E+04  0.91001124401E+03 0.  0.
        -24    2    4    4    0    0 -0.26268907369E+03  0.19965259773E+03 -0.84794592767E+03  0.91349875090E+03  0.81246307233E+02 0.  0.
         24    2    4    4    0    0  0.66324136333E+03 -0.11677793038E+02 -0.13624395020E+04  0.15174888829E+04  0.80657524913E+02 0.  0.
         13    1    3    3    0    0 -0.42866369716E+02 -0.49883040990E+02  0.49617329589E+02  0.82387637584E+02  0.00000000000E+00 0. -1.
        -13    1    3    3    0    0 -0.35768591992E+03 -0.13809176370E+03  0.45764257694E+03  0.59703038511E+03  0.00000000000E+00 0.  1.
          2    1    6    6  502    0  0.58812007168E+03 -0.18967170585E+02 -0.12560218023E+04  0.13870240590E+04  0.00000000000E+00 0. -1.
          3    1    5    5  503    0 -0.12278094955E+03  0.12801259755E+03 -0.52858364464E+03  0.55755094483E+03  0.00000000000E+00 0. -1.
         -4    1    5    5    0  503 -0.13990812414E+03  0.71640000177E+02 -0.31936228303E+03  0.35594780607E+03  0.00000000000E+00 0.  1.
         -1    1    6    6    0  502  0.75121291649E+02  0.72893775469E+01 -0.10641769967E+03  0.13046482394E+03  0.00000000000E+00 0.  1.
<mgrwt>
<rscale>  0 0.26026884E+04</rscale>
<asrwt>0</asrwt>
<pdfrwt beam="1">  1        2 0.10825232E+00 0.26026884E+04</pdfrwt>
<pdfrwt beam="2">  1       -2 0.37027163E+00 0.26026884E+04</pdfrwt>
<totfact> 0.41635250E-01</totfact>
</mgrwt>
</event>
<event>
12    1  0.1541840E-007  0.4831933E+04  0.7818608E-02  0.7854969E-01
         -2   -1    0    0    0  501 -0.00000000000E+00  0.00000000000E+00  0.24968131785E+04  0.24968131785E+04  0.00000000000E+00 0. -1.
          2   -1    0    0  501    0  0.00000000000E+00 -0.00000000000E+00 -0.23377372264E+04  0.23377372264E+04  0.00000000000E+00 0.  1.
         23    2    1    2    0    0  0.40677596793E+03 -0.18010707161E+04 -0.13420866989E+04  0.22844585808E+04  0.90729750766E+02 0.  0.
        254    2    1    2    0    0 -0.40677596793E+03  0.18010707161E+04  0.15011626510E+04  0.25500918242E+04  0.91660056425E+03 0.  0.
        -24    2    4    4    0    0  0.13812845315E+03 -0.47588592915E+01  0.37487152072E+02  0.16118429140E+03  0.73979543878E+02 0.  0.
         24    2    4    4    0    0 -0.54490442109E+03  0.18058295754E+04  0.14636754989E+04  0.23889075327E+04  0.81190827010E+02 0.  0.
         13    1    3    3    0    0  0.32702330904E+02 -0.12229107527E+03 -0.12108871289E+03  0.17517712729E+03  0.00000000000E+00 0. -1.
        -13    1    3    3    0    0  0.37407363703E+03 -0.16787796408E+04 -0.12209979860E+04  0.21092814535E+04  0.00000000000E+00 0.  1.
          4    1    6    6  502    0 -0.21013562232E+03  0.83009103039E+03  0.64881231847E+03  0.10743209591E+04  0.00000000000E+00 0. -1.
          1    1    5    5  503    0  0.14513123153E+03  0.36357945447E+01  0.30925094483E+02  0.14843400835E+03  0.00000000000E+00 0. -1.
         -2    1    5    5    0  503 -0.70027783764E+01 -0.83946538362E+01  0.65620575894E+01  0.12750283049E+02  0.00000000000E+00 0.  1.
         -3    1    6    6    0  502 -0.33476879877E+03  0.97573854499E+03  0.81486318046E+03  0.13145865737E+04  0.00000000000E+00 0.  1.
<mgrwt>
<rscale>  0 0.48319326E+04</rscale>
<asrwt>0</asrwt>
<pdfrwt beam="1">  1        2 0.35965188E+00 0.48319326E+04</pdfrwt>
<pdfrwt beam="2">  1       -2 0.38412511E+00 0.48319326E+04</pdfrwt>
<totfact> 0.29985600E-02</totfact>
</mgrwt>
</event>
<event>
12    1  0.1541840E-007  0.2326079E+04  0.7818608E-02  0.8467709E-01
         -2   -1    0    0    0  501 -0.00000000000E+00  0.00000000000E+00  0.47148007040E+03  0.47148007040E+03  0.00000000000E+00 0. -1.
          2   -1    0    0  501    0  0.00000000000E+00 -0.00000000000E+00 -0.28689664575E+04  0.28689664575E+04  0.00000000000E+00 0.  1.
         23    2    1    2    0    0  0.34557421934E+02 -0.98291472335E+03 -0.98929576246E+03  0.13979535950E+04  0.90843708299E+02 0.  0.
        254    2    1    2    0    0 -0.34557421934E+02  0.98291472335E+03 -0.14081906247E+04  0.19424929329E+04  0.90717274558E+03 0.  0.
        -24    2    4    4    0    0  0.19886322450E+03 -0.16740250340E+02 -0.58834778446E+03  0.62631207940E+03  0.79289893962E+02 0.  0.
         24    2    4    4    0    0 -0.23342064643E+03  0.99965497369E+03 -0.81984284020E+03  0.13161808535E+04  0.79965567386E+02 0.  0.
         13    1    3    3    0    0 -0.62493808563E+01 -0.28974023462E+03 -0.23892861053E+03  0.37559997238E+03  0.00000000000E+00 0. -1.
        -13    1    3    3    0    0  0.40806802790E+02 -0.69317448873E+03 -0.75036715193E+03  0.10223536226E+04  0.00000000000E+00 0.  1.
          4    1    6    6  502    0 -0.76855873238E+02  0.25868962826E+03 -0.25640233072E+03  0.37224898149E+03  0.00000000000E+00 0. -1.
          1    1    5    5  503    0  0.95625844525E+02 -0.46492341151E+02 -0.26288224701E+03  0.28357171178E+03  0.00000000000E+00 0. -1.
         -2    1    5    5    0  503  0.10323737997E+03  0.29752090810E+02 -0.32546553746E+03  0.34274036763E+03  0.00000000000E+00 0.  1.
         -3    1    6    6    0  502 -0.15656477319E+03  0.74096534542E+03 -0.56344050948E+03  0.94393187204E+03  0.00000000000E+00 0.  1.
<mgrwt>
<rscale>  0 0.23260787E+04</rscale>
<asrwt>0</asrwt>
<pdfrwt beam="1">  1        2 0.44137945E+00 0.23260787E+04</pdfrwt>
<pdfrwt beam="2">  1       -2 0.72535396E-01 0.23260787E+04</pdfrwt>
<totfact> 0.32665179E+00</totfact>
</mgrwt>
</event>
<event>
12    1  0.1541840E-007  0.1298141E+04  0.7818608E-02  0.9031041E-01
         -2   -1    0    0    0  501 -0.00000000000E+00  0.00000000000E+00  0.56604098135E+03  0.56604098135E+03  0.00000000000E+00 0.  1.
          2   -1    0    0  501    0  0.00000000000E+00 -0.00000000000E+00 -0.74427898080E+03  0.74427898080E+03  0.00000000000E+00 0. -1.
         23    2    1    2    0    0 -0.23307943202E+02  0.30449635732E+03  0.33264153863E+02  0.33069635219E+03  0.12244297278E+03 0.  0.
        254    2    1    2    0    0  0.23307943202E+02 -0.30449635732E+03 -0.21150215331E+03  0.97962360995E+03  0.90645902527E+03 0.  0.
        -24    2    4    4    0    0  0.27169134330E+03  0.22764960016E+03 -0.93042838466E+02  0.37507558452E+03  0.79901175418E+02 0.  0.
         24    2    4    4    0    0 -0.24838340010E+03 -0.53214595748E+03 -0.11845931485E+03  0.60454802543E+03  0.81068318509E+02 0.  0.
         11    1    3    3    0    0  0.23734248058E+02  0.12714675538E+03 -0.36506335923E+02  0.13439614763E+03  0.00000000000E+00 0.  1.
        -11    1    3    3    0    0 -0.47042191261E+02  0.17734960194E+03  0.69770489786E+02  0.19630020456E+03  0.00000000000E+00 0. -1.
          4    1    6    6  502    0 -0.22151802608E+03 -0.47307951635E+03 -0.13078857428E+03  0.53849801841E+03  0.00000000000E+00 0. -1.
          3    1    5    5  503    0  0.25174334742E+03  0.23001598076E+03 -0.97153621800E+02  0.35457141820E+03  0.00000000000E+00 0. -1.
         -4    1    5    5    0  503  0.19947995881E+02 -0.23663805978E+01  0.41107833340E+01  0.20504166319E+02  0.00000000000E+00 0.  1.
         -3    1    6    6    0  502 -0.26865374019E+02 -0.59066441136E+02  0.12329259430E+02  0.66050007023E+02  0.00000000000E+00 0.  1.
<mgrwt>
<rscale>  0 0.12981408E+04</rscale>
<asrwt>0</asrwt>
<pdfrwt beam="1">  1        2 0.11450446E+00 0.12981408E+04</pdfrwt>
<pdfrwt beam="2">  1       -2 0.87083228E-01 0.12981408E+04</pdfrwt>
<totfact> 0.42344690E+01</totfact>
</mgrwt>
</event>
<event>
12    1  0.1541840E-007  0.1172655E+04  0.7818608E-02  0.9137134E-01
          1   -1    0    0  501    0  0.00000000000E+00  0.00000000000E+00  0.41360009353E+03  0.41360009353E+03  0.00000000000E+00 0. -1.
         -1   -1    0    0    0  501 -0.00000000000E+00 -0.00000000000E+00 -0.83118939660E+03  0.83118939660E+03  0.00000000000E+00 0.  1.
         23    2    1    2    0    0 -0.15910894856E+03  0.12126420101E+03  0.11864968629E+02  0.21925013658E+03  0.88933576080E+02 0.  0.
        254    2    1    2    0    0  0.15910894856E+03 -0.12126420101E+03 -0.42945427170E+03  0.10255393535E+04  0.90954897077E+03 0.  0.
        -24    2    4    4    0    0 -0.22014885725E+03  0.23593150813E+03 -0.36554113582E+03  0.49402733706E+03  0.79457484900E+02 0.  0.
         24    2    4    4    0    0  0.37925780581E+03 -0.35719570914E+03 -0.63913135885E+02  0.53151201649E+03  0.83635380333E+02 0.  0.
         13    1    3    3    0    0 -0.79636012806E+02  0.73859019438E+01  0.72524325469E+01  0.80305939139E+02  0.00000000000E+00 0.  1.
        -13    1    3    3    0    0 -0.79472935753E+02  0.11387829906E+03  0.46125360818E+01  0.13894419744E+03  0.00000000000E+00 0. -1.
          2    1    6    6  502    0  0.12241524948E+03 -0.16651539007E+03 -0.41853310924E+02  0.21086623265E+03  0.00000000000E+00 0. -1.
          3    1    5    5  503    0 -0.73287926212E+02  0.12970040606E+03 -0.13753223114E+03  0.20275213947E+03  0.00000000000E+00 0. -1.
         -4    1    5    5    0  503 -0.14686093104E+03  0.10623110208E+03 -0.22800890468E+03  0.29127519758E+03  0.00000000000E+00 0.  1.
         -1    1    6    6    0  502  0.25684255632E+03 -0.19068031907E+03 -0.22059824961E+02  0.32064578384E+03  0.00000000000E+00 0.  1.
<mgrwt>
<rscale>  0 0.11726551E+04</rscale>
<asrwt>0</asrwt>
<pdfrwt beam="1">  1        1 0.63630784E-01 0.11726551E+04</pdfrwt>
<pdfrwt beam="2">  1       -1 0.12787529E+00 0.11726551E+04</pdfrwt>
<totfact> 0.30085525E+01</totfact>
</mgrwt>
</event>
<event>
12    1  0.1541840E-007  0.1772143E+04  0.7818608E-02  0.8721255E-01
         -1   -1    0    0    0  501 -0.00000000000E+00  0.00000000000E+00  0.80143274517E+03  0.80143274517E+03  0.00000000000E+00 0.  1.
          1   -1    0    0  501    0  0.00000000000E+00 -0.00000000000E+00 -0.97964883375E+03  0.97964883375E+03  0.00000000000E+00 0. -1.
         23    2    1    2    0    0 -0.59442239285E+03  0.12630593373E+03 -0.32328864518E+03  0.69390160789E+03  0.87708171235E+02 0.  0.
        254    2    1    2    0    0  0.59442239285E+03 -0.12630593373E+03  0.14507255660E+03  0.10871799710E+04  0.88973202298E+03 0.  0.
        -24    2    4    4    0    0 -0.77110889012E+02 -0.33632156938E+03 -0.36693109036E+02  0.35631034330E+03  0.80946829801E+02 0.  0.
         24    2    4    4    0    0  0.67153328187E+03  0.21001563566E+03  0.18176566564E+03  0.73086962773E+03  0.77898264850E+02 0.  0.
         13    1    3    3    0    0 -0.52282360858E+03  0.13448511712E+03 -0.30287134670E+03  0.61900066646E+03  0.00000000000E+00 0. -1.
        -13    1    3    3    0    0 -0.71598784270E+02 -0.81791833907E+01 -0.20417298479E+02  0.74900941430E+02  0.00000000000E+00 0.  1.
          4    1    6    6  502    0  0.40572352387E+03  0.15151679332E+03  0.14219051215E+03  0.45583665740E+03  0.00000000000E+00 0. -1.
          1    1    5    5  503    0 -0.86179233845E+02 -0.28573687395E+03 -0.51427939971E+02  0.30284856693E+03  0.00000000000E+00 0. -1.
         -2    1    5    5    0  503  0.90683448332E+01 -0.50584695437E+02  0.14734830935E+02  0.53461776375E+02  0.00000000000E+00 0.  1.
         -3    1    6    6    0  502  0.26580975799E+03  0.58498842337E+02  0.39575153486E+02  0.27503297034E+03  0.00000000000E+00 0.  1.
<mgrwt>
<rscale>  0 0.17721429E+04</rscale>
<asrwt>0</asrwt>
<pdfrwt beam="1">  1        1 0.15071521E+00 0.17721429E+04</pdfrwt>
<pdfrwt beam="2">  1       -1 0.12329735E+00 0.17721429E+04</pdfrwt>
<totfact> 0.85995118E+00</totfact>
</mgrwt>
</event>
<event>
12    1  0.1541840E-007  0.2268976E+04  0.7818608E-02  0.8490255E-01
         -2   -1    0    0    0  501 -0.00000000000E+00  0.00000000000E+00  0.53425804119E+03  0.53425804119E+03  0.00000000000E+00 0.  1.
          2   -1    0    0  501    0  0.00000000000E+00 -0.00000000000E+00 -0.24090656058E+04  0.24090656058E+04  0.00000000000E+00 0. -1.
         23    2    1    2    0    0  0.63194062086E+03 -0.97302682732E+02  0.12247685088E+03  0.65737713038E+03  0.91254326903E+02 0.  0.
        254    2    1    2    0    0 -0.63194062086E+03  0.97302682732E+02 -0.19972844155E+04  0.22859465166E+04  0.90971956122E+03 0.  0.
        -24    2    4    4    0    0  0.19563215804E+03 -0.96801021699E+02 -0.65474060096E+03  0.69464554881E+03  0.78770583789E+02 0.  0.
         24    2    4    4    0    0 -0.82757277890E+03  0.19410370443E+03 -0.13425438145E+04  0.15913009678E+04  0.85216921644E+02 0.  0.
         11    1    3    3    0    0  0.61831003235E+03 -0.10162148959E+03  0.10590936052E+03  0.63549273473E+03  0.00000000000E+00 0.  1.
        -11    1    3    3    0    0  0.13630588514E+02  0.43188068629E+01  0.16567490361E+02  0.21884395646E+02  0.00000000000E+00 0. -1.
          4    1    6    6  502    0 -0.40785570447E+03  0.59395646569E+02 -0.60444922910E+03  0.73159619263E+03  0.00000000000E+00 0. -1.
          3    1    5    5  503    0  0.12295375855E+03 -0.21913690242E+02 -0.40959342289E+03  0.42821093942E+03  0.00000000000E+00 0. -1.
         -4    1    5    5    0  503  0.72678399488E+02 -0.74887331456E+02 -0.24514717807E+03  0.26643460939E+03  0.00000000000E+00 0.  1.
         -3    1    6    6    0  502 -0.41971707443E+03  0.13470805786E+03 -0.73809458539E+03  0.85970477515E+03  0.00000000000E+00 0.  1.
<mgrwt>
<rscale>  0 0.22689757E+04</rscale>
<asrwt>0</asrwt>
<pdfrwt beam="1">  1        2 0.37062547E+00 0.22689757E+04</pdfrwt>
<pdfrwt beam="2">  1       -2 0.82193546E-01 0.22689757E+04</pdfrwt>
<totfact> 0.46425727E+00</totfact>
</mgrwt>
</event>
<event>
12    1  0.1541840E-007  0.1608542E+04  0.7818608E-02  0.8815318E-01
         -1   -1    0    0    0  501 -0.00000000000E+00  0.00000000000E+00  0.84771147756E+03  0.84771147756E+03  0.00000000000E+00 0.  1.
          1   -1    0    0  501    0  0.00000000000E+00 -0.00000000000E+00 -0.76305646181E+03  0.76305646181E+03  0.00000000000E+00 0. -1.
         23    2    1    2    0    0  0.14248619268E+03  0.10479118069E+03  0.55363996770E+03  0.58827363994E+03  0.90912897623E+02 0.  0.
        254    2    1    2    0    0 -0.14248619268E+03 -0.10479118069E+03 -0.46898495196E+03  0.10224942994E+04  0.89121501365E+03 0.  0.
        -24    2    4    4    0    0 -0.40101195089E+03  0.22592385337E+03 -0.15594131732E+03  0.49268501236E+03  0.81047237365E+02 0.  0.
         24    2    4    4    0    0  0.25852575821E+03 -0.33071503405E+03 -0.31304363464E+03  0.52980928707E+03  0.80582641213E+02 0.  0.
         11    1    3    3    0    0  0.10928413095E+03  0.97943881279E+02  0.31825648895E+03  0.35046143570E+03  0.00000000000E+00 0. -1.
        -11    1    3    3    0    0  0.33202061725E+02  0.68472994088E+01  0.23538347875E+03  0.23781220423E+03  0.00000000000E+00 0.  1.
          2    1    6    6  502    0  0.24838955222E+03 -0.28242044947E+03 -0.29203959344E+03  0.47617833220E+03  0.00000000000E+00 0. -1.
          1    1    5    5  503    0 -0.32909940491E+03  0.20624399699E+03 -0.10480671244E+03  0.40227782885E+03  0.00000000000E+00 0. -1.
         -2    1    5    5    0  503 -0.71912545977E+02  0.19679856379E+02 -0.51134604876E+02  0.90407183519E+02  0.00000000000E+00 0.  1.
         -1    1    6    6    0  502  0.10136205995E+02 -0.48294584588E+02 -0.21004041205E+02  0.53630954862E+02  0.00000000000E+00 0.  1.
<mgrwt>
<rscale>  0 0.16085418E+04</rscale>
<asrwt>0</asrwt>
<pdfrwt beam="1">  1        1 0.11739330E+00 0.16085418E+04</pdfrwt>
<pdfrwt beam="2">  1       -1 0.13041715E+00 0.16085418E+04</pdfrwt>
<totfact> 0.11500837E+01</totfact>
</mgrwt>
</event>
<event>
12    1  0.1541840E-007  0.1893837E+04  0.7818608E-02  0.8657930E-01
         -1   -1    0    0    0  501 -0.00000000000E+00  0.00000000000E+00  0.11248938996E+04  0.11248938996E+04  0.00000000000E+00 0.  1.
          1   -1    0    0  501    0  0.00000000000E+00 -0.00000000000E+00 -0.79710134517E+03  0.79710134517E+03  0.00000000000E+00 0. -1.
         23    2    1    2    0    0  0.34153132032E+02  0.68076675993E+03 -0.13923101794E+03  0.69812260138E+03  0.58138389649E+02 0.  0.
        254    2    1    2    0    0 -0.34153132032E+02 -0.68076675993E+03  0.46702357238E+03  0.12238726434E+04  0.90285292947E+03 0.  0.
        -24    2    4    4    0    0 -0.34096775422E+03 -0.60270786940E+03  0.54919819841E+03  0.88750995025E+03  0.80866961032E+02 0.  0.
         24    2    4    4    0    0  0.30681462219E+03 -0.78058890523E+02 -0.82174626035E+02  0.33636269315E+03  0.78477954877E+02 0.  0.
         11    1    3    3    0    0  0.27085622986E+02  0.25899627674E+03 -0.78226343568E+02  0.27190451112E+03  0.00000000000E+00 0.  1.
        -11    1    3    3    0    0  0.70675090454E+01  0.42177048318E+03 -0.61004674375E+02  0.42621809026E+03  0.00000000000E+00 0. -1.
          2    1    6    6  502    0  0.26268275192E+03 -0.40783515593E+02 -0.83327038391E+02  0.27858377309E+03  0.00000000000E+00 0. -1.
          1    1    5    5  503    0 -0.31167605165E+03 -0.57598911525E+03  0.53410198410E+03  0.84508600242E+03  0.00000000000E+00 0. -1.
         -2    1    5    5    0  503 -0.29291702570E+02 -0.26718754149E+02  0.15096214314E+02  0.42423947828E+02  0.00000000000E+00 0.  1.
         -1    1    6    6    0  502  0.44131870268E+02 -0.37275374930E+02  0.11524123558E+01  0.57778920064E+02  0.00000000000E+00 0.  1.
<mgrwt>
<rscale>  0 0.18938368E+04</rscale>
<asrwt>0</asrwt>
<pdfrwt beam="1">  1        1 0.12263098E+00 0.18938368E+04</pdfrwt>
<pdfrwt beam="2">  1       -1 0.17306060E+00 0.18938368E+04</pdfrwt>
<totfact> 0.48645231E+00</totfact>
</mgrwt>
</event>
<event>
12    1  0.1541840E-007  0.1554294E+04  0.7818608E-02  0.8849130E-01
         -2   -1    0    0    0  501 -0.00000000000E+00  0.00000000000E+00  0.92041931785E+03  0.92041931785E+03  0.00000000000E+00 0.  1.
          2   -1    0    0  501    0  0.00000000000E+00 -0.00000000000E+00 -0.65617613618E+03  0.65617613618E+03  0.00000000000E+00 0. -1.
         23    2    1    2    0    0  0.30625918419E+03  0.38174670749E+03  0.28754498630E+03  0.57489127481E+03  0.91063835406E+02 0.  0.
        254    2    1    2    0    0 -0.30625918419E+03 -0.38174670749E+03 -0.23301804631E+02  0.10017041792E+04  0.87369505663E+03 0.  0.
        -24    2    4    4    0    0  0.10139882282E+03 -0.68297654900E+02  0.33758125979E+03  0.36789359750E+03  0.80239025305E+02 0.  0.
         24    2    4    4    0    0 -0.40765800702E+03 -0.31344905259E+03 -0.36088306442E+03  0.63381058172E+03  0.83927993324E+02 0.  0.
         13    1    3    3    0    0  0.28736469596E+03  0.30879378721E+03  0.23329899808E+03  0.48203785536E+03  0.00000000000E+00 0.  1.
        -13    1    3    3    0    0  0.18894488234E+02  0.72952920285E+02  0.54245988223E+02  0.92853419442E+02  0.00000000000E+00 0. -1.
          4    1    6    6  502    0 -0.69458952076E+02 -0.33792057971E+02 -0.87768522942E+02  0.11691776095E+03  0.00000000000E+00 0. -1.
          3    1    5    5  503    0  0.77084580644E+02 -0.93780573474E+01  0.13758658105E+03  0.15798749260E+03  0.00000000000E+00 0. -1.
         -4    1    5    5    0  503  0.24314242181E+02 -0.58919597553E+02  0.19999467874E+03  0.20990610490E+03  0.00000000000E+00 0.  1.
         -3    1    6    6    0  502 -0.33819905494E+03 -0.27965699462E+03 -0.27311454148E+03  0.51689282078E+03  0.00000000000E+00 0.  1.
<mgrwt>
<rscale>  0 0.15542937E+04</rscale>
<asrwt>0</asrwt>
<pdfrwt beam="1">  1        2 0.10095018E+00 0.15542937E+04</pdfrwt>
<pdfrwt beam="2">  1       -2 0.14160297E+00 0.15542937E+04</pdfrwt>
<totfact> 0.14901293E+01</totfact>
</mgrwt>
</event>
<event>
12    1  0.1541840E-007  0.1305305E+04  0.7818608E-02  0.9025369E-01
          2   -1    0    0  501    0  0.00000000000E+00  0.00000000000E+00  0.30550079222E+04  0.30550079222E+04  0.00000000000E+00 0. -1.
         -2   -1    0    0    0  501 -0.00000000000E+00 -0.00000000000E+00 -0.13942857158E+03  0.13942857158E+03  0.00000000000E+00 0.  1.
         23    2    1    2    0    0 -0.25564860492E+03  0.18299123841E+03  0.86448713726E+03  0.92436054969E+03  0.90897815124E+02 0.  0.
        254    2    1    2    0    0  0.25564860492E+03 -0.18299123841E+03  0.20510922134E+04  0.22700759441E+04  0.92055609374E+03 0.  0.
        -24    2    4    4    0    0 -0.26971945846E+03 -0.43259543289E+02  0.13491311318E+04  0.13787693992E+04  0.78932064897E+02 0.  0.
         24    2    4    4    0    0  0.52536806339E+03 -0.13973169512E+03  0.70196108158E+03  0.89130654497E+03  0.78367393751E+02 0.  0.
         13    1    3    3    0    0 -0.21656416214E+03  0.15894068597E+03  0.80855412835E+03  0.85201053775E+03  0.00000000000E+00 0. -1.
        -13    1    3    3    0    0 -0.39084442783E+02  0.24050552440E+02  0.55933008916E+02  0.72350011933E+02  0.00000000000E+00 0.  1.
          4    1    6    6  502    0  0.32360043184E+03 -0.90764373890E+02  0.49362434704E+03  0.59717703157E+03  0.00000000000E+00 0. -1.
          3    1    5    5  503    0 -0.37212061681E+02 -0.20062905021E+01  0.85573965322E+02  0.93336307390E+02  0.00000000000E+00 0. -1.
         -4    1    5    5    0  503 -0.23250739678E+03 -0.41253252787E+02  0.12635571665E+04  0.12854330918E+04  0.00000000000E+00 0.  1.
         -3    1    6    6    0  502  0.20176763155E+03 -0.48967321231E+02  0.20833673455E+03  0.29412951340E+03  0.00000000000E+00 0.  1.
<mgrwt>
<rscale>  0 0.13053052E+04</rscale>
<asrwt>0</asrwt>
<pdfrwt beam="1">  1        2 0.47000117E+00 0.13053052E+04</pdfrwt>
<pdfrwt beam="2">  1       -2 0.21450552E-01 0.13053052E+04</pdfrwt>
<totfact> 0.30111822E+01</totfact>
</mgrwt>
</event>
<event>
12    1  0.1541840E-007  0.2622389E+04  0.7818608E-02  0.8360636E-01
          2   -1    0    0  501    0  0.00000000000E+00  0.00000000000E+00  0.32697243409E+04  0.32697243409E+04  0.00000000000E+00 0. -1.
         -2   -1    0    0    0  501 -0.00000000000E+00 -0.00000000000E+00 -0.52580298928E+03  0.52580298928E+03  0.00000000000E+00 0.  1.
         23    2    1    2    0    0  0.14279445774E+03 -0.79044343478E+02 -0.43882310719E+03  0.47886357673E+03  0.10053029550E+03 0.  0.
        254    2    1    2    0    0 -0.14279445774E+03  0.79044343478E+02  0.31827444588E+04  0.33166637535E+04  0.91856295267E+03 0.  0.
        -24    2    4    4    0    0  0.39509275003E+02  0.79734107505E+02  0.30990890041E+04  0.31013838779E+04  0.79440492461E+02 0.  0.
         24    2    4    4    0    0 -0.18230373274E+03 -0.68976402692E+00  0.83655454715E+02  0.21527987559E+03  0.78179683978E+02 0.  0.
         11    1    3    3    0    0 -0.12051649602E+02  0.62293563368E+01 -0.48786153951E+02  0.50637298070E+02  0.00000000000E+00 0. -1.
        -11    1    3    3    0    0  0.15484610734E+03 -0.85273699815E+02 -0.39003695324E+03  0.42822627866E+03  0.00000000000E+00 0.  1.
          2    1    6    6  502    0 -0.12721640814E+03  0.32909758653E+02  0.39938931844E+02  0.13733967013E+03  0.00000000000E+00 0. -1.
          1    1    5    5  503    0  0.54772191262E+02  0.74563404606E+02  0.29453224411E+04  0.29467751825E+04  0.00000000000E+00 0. -1.
         -2    1    5    5    0  503 -0.15262916259E+02  0.51707028984E+01  0.15376656305E+03  0.15460869540E+03  0.00000000000E+00 0.  1.
         -1    1    6    6    0  502 -0.55087324601E+02 -0.33599522679E+02  0.43716522871E+02  0.77940205465E+02  0.00000000000E+00 0.  1.
<mgrwt>
<rscale>  0 0.26223889E+04</rscale>
<asrwt>0</asrwt>
<pdfrwt beam="1">  1        2 0.50303450E+00 0.26223889E+04</pdfrwt>
<pdfrwt beam="2">  1       -2 0.80892770E-01 0.26223889E+04</pdfrwt>
<totfact> 0.13890251E+00</totfact>
</mgrwt>
</event>
<event>
12    1  0.1541840E-007  0.1654510E+04  0.7818608E-02  0.8787743E-01
         -1   -1    0    0    0  501 -0.00000000000E+00  0.00000000000E+00  0.90224791495E+03  0.90224791495E+03  0.00000000000E+00 0.  1.
          1   -1    0    0  501    0  0.00000000000E+00 -0.00000000000E+00 -0.75849494369E+03  0.75849494369E+03  0.00000000000E+00 0. -1.
         23    2    1    2    0    0  0.46721389390E+03 -0.30919723127E+03 -0.73072117424E+02  0.57226858619E+03  0.90884816776E+02 0.  0.
        254    2    1    2    0    0 -0.46721389390E+03  0.30919723127E+03  0.21682508869E+03  0.10884742724E+04  0.90767360445E+03 0.  0.
        -24    2    4    4    0    0 -0.41218141212E+03  0.59885753658E+03  0.33675842222E+02  0.73231516051E+03  0.81409866366E+02 0.  0.
         24    2    4    4    0    0 -0.55032481773E+02 -0.28966030531E+03  0.18314924647E+03  0.35615911194E+03  0.79837334705E+02 0.  0.
         11    1    3    3    0    0  0.16473124443E+03 -0.11282924754E+03 -0.70126462598E+02  0.21162358741E+03  0.00000000000E+00 0. -1.
        -11    1    3    3    0    0  0.30248264947E+03 -0.19636798373E+03 -0.29456548262E+01  0.36064499878E+03  0.00000000000E+00 0.  1.
          2    1    6    6  502    0  0.10396713293E+02 -0.53594227682E+01  0.16367051028E+02  0.20117043000E+02  0.00000000000E+00 0. -1.
          1    1    5    5  503    0 -0.16901311073E+02  0.46655888349E+02 -0.13960564382E+02  0.51549234636E+02  0.00000000000E+00 0. -1.
         -2    1    5    5    0  503 -0.39528010105E+03  0.55220164823E+03  0.47636406603E+02  0.68076592587E+03  0.00000000000E+00 0.  1.
         -1    1    6    6    0  502 -0.65429195066E+02 -0.28430088254E+03  0.16678219544E+03  0.33604206894E+03  0.00000000000E+00 0.  1.
<mgrwt>
<rscale>  0 0.16545096E+04</rscale>
<asrwt>0</asrwt>
<pdfrwt beam="1">  1        1 0.11669153E+00 0.16545096E+04</pdfrwt>
<pdfrwt beam="2">  1       -1 0.13880737E+00 0.16545096E+04</pdfrwt>
<totfact> 0.98544961E+00</totfact>
</mgrwt>
</event>
<event>
12    1  0.1541840E-007  0.1511341E+04  0.7818608E-02  0.8876946E-01
         -2   -1    0    0    0  501 -0.00000000000E+00  0.00000000000E+00  0.39187425270E+03  0.39187425270E+03  0.00000000000E+00 0.  1.
          2   -1    0    0  501    0  0.00000000000E+00 -0.00000000000E+00 -0.14571971012E+04  0.14571971012E+04  0.00000000000E+00 0. -1.
         23    2    1    2    0    0  0.14267591611E+03 -0.35556357616E+03 -0.71886684386E+03  0.81991290196E+03  0.93304629353E+02 0.  0.
        254    2    1    2    0    0 -0.14267591611E+03  0.35556357616E+03 -0.34645600465E+03  0.10291584520E+04  0.89014239442E+03 0.  0.
        -24    2    4    4    0    0 -0.14089038011E+03  0.63883372830E+03 -0.15260774639E+03  0.67708847978E+03  0.84859021772E+02 0.  0.
         24    2    4    4    0    0 -0.17855360008E+01 -0.28327015214E+03 -0.19384825826E+03  0.35206997218E+03  0.78300388567E+02 0.  0.
         11    1    3    3    0    0  0.32268645308E+02 -0.11662244530E+03 -0.14714108980E+03  0.19050606428E+03  0.00000000000E+00 0.  1.
        -11    1    3    3    0    0  0.11040727081E+03 -0.23894113086E+03 -0.57172575406E+03  0.62940683768E+03  0.00000000000E+00 0. -1.
          4    1    6    6  502    0 -0.19417516459E+02 -0.16647096442E+03 -0.72142679839E+02  0.18246695097E+03  0.00000000000E+00 0. -1.
          1    1    5    5  503    0 -0.16875365985E+02  0.21057012063E+03 -0.77136262498E+02  0.22488787578E+03  0.00000000000E+00 0. -1.
         -2    1    5    5    0  503 -0.12401501413E+03  0.42826360767E+03 -0.75471483893E+02  0.45220060401E+03  0.00000000000E+00 0.  1.
         -3    1    6    6    0  502  0.17631980458E+02 -0.11679918771E+03 -0.12170557842E+03  0.16960302121E+03  0.00000000000E+00 0.  1.
<mgrwt>
<rscale>  0 0.15113412E+04</rscale>
<asrwt>0</asrwt>
<pdfrwt beam="1">  1        2 0.22418417E+00 0.15113412E+04</pdfrwt>
<pdfrwt beam="2">  1       -2 0.60288347E-01 0.15113412E+04</pdfrwt>
<totfact> 0.33217942E+01</totfact>
</mgrwt>
</event>
<event>
12    1  0.1541840E-007  0.1476861E+04  0.7818608E-02  0.8899987E-01
         -2   -1    0    0    0  501 -0.00000000000E+00  0.00000000000E+00  0.22430377097E+03  0.22430377097E+03  0.00000000000E+00 0.  1.
          2   -1    0    0  501    0  0.00000000000E+00 -0.00000000000E+00 -0.24309878142E+04  0.24309878142E+04  0.00000000000E+00 0. -1.
         23    2    1    2    0    0  0.25126692227E+03 -0.25743569187E+03 -0.18686585739E+03  0.41563855198E+03  0.91806075796E+02 0.  0.
        254    2    1    2    0    0 -0.25126692227E+03  0.25743569187E+03 -0.20198181858E+04  0.22396530332E+04  0.89831620469E+03 0.  0.
        -24    2    4    4    0    0  0.97356099763E+02  0.25508627015E+03 -0.12373406426E+03  0.31010126602E+03  0.79406933887E+02 0.  0.
         24    2    4    4    0    0 -0.34862302203E+03  0.23494217261E+01 -0.18960841215E+04  0.19295517671E+04  0.80569813657E+02 0.  0.
         13    1    3    3    0    0  0.24903400913E+03 -0.24320039298E+03 -0.15573938347E+03  0.38133859549E+03  0.00000000000E+00 0.  1.
        -13    1    3    3    0    0  0.22329131343E+01 -0.14235298896E+02 -0.31126473925E+02  0.34299956483E+02  0.00000000000E+00 0. -1.
          2    1    6    6  502    0 -0.11206207602E+03  0.29210561087E+02 -0.49358726664E+03  0.50699068586E+03  0.00000000000E+00 0. -1.
          1    1    5    5  503    0  0.77597302127E+02  0.11069266992E+03 -0.83573056158E+02  0.15892974607E+03  0.00000000000E+00 0. -1.
         -2    1    5    5    0  503  0.19758797636E+02  0.14439360023E+03 -0.40161008104E+02  0.15117151995E+03  0.00000000000E+00 0.  1.
         -1    1    6    6    0  502 -0.23656094601E+03 -0.26861139361E+02 -0.14024968549E+04  0.14225610813E+04  0.00000000000E+00 0.  1.
<mgrwt>
<rscale>  0 0.14768612E+04</rscale>
<asrwt>0</asrwt>
<pdfrwt beam="1">  1        2 0.37399813E+00 0.14768612E+04</pdfrwt>
<pdfrwt beam="2">  1       -2 0.34508272E-01 0.14768612E+04</pdfrwt>
<totfact> 0.29142045E+01</totfact>
</mgrwt>
</event>
<event>
12    1  0.1541840E-007  0.1582394E+04  0.7818608E-02  0.8831438E-01
          2   -1    0    0  501    0  0.00000000000E+00  0.00000000000E+00  0.27516783801E+04  0.27516783801E+04  0.00000000000E+00 0. -1.
         -2   -1    0    0    0  501 -0.00000000000E+00 -0.00000000000E+00 -0.22749475346E+03  0.22749475346E+03  0.00000000000E+00 0.  1.
         23    2    1    2    0    0 -0.77228918758E+02 -0.46684715612E+03  0.13349513373E+04  0.14192693950E+04  0.91213866534E+02 0.  0.
        254    2    1    2    0    0  0.77228918758E+02  0.46684715612E+03  0.11892322893E+04  0.15599037386E+04  0.89169258300E+03 0.  0.
        -24    2    4    4    0    0  0.28192344958E+03 -0.49082466599E+02  0.67721777380E+02  0.30598090955E+03  0.84546779503E+02 0.  0.
         24    2    4    4    0    0 -0.20469453082E+03  0.51592962272E+03  0.11215105119E+04  0.12539228290E+04  0.80333095481E+02 0.  0.
         11    1    3    3    0    0  0.16166167023E+02 -0.12725924734E+03  0.40652784706E+03  0.42628763930E+03  0.00000000000E+00 0.  1.
        -11    1    3    3    0    0 -0.93395085781E+02 -0.33958790878E+03  0.92842349026E+03  0.99298175568E+03  0.00000000000E+00 0. -1.
          2    1    6    6  502    0 -0.13710553542E+03  0.42853672222E+03  0.91923383281E+03  0.10234414930E+04  0.00000000000E+00 0. -1.
          1    1    5    5  503    0  0.15958589856E+03 -0.50451102090E+02  0.75027383282E+02  0.18341777712E+03  0.00000000000E+00 0. -1.
         -2    1    5    5    0  503  0.12233755101E+03  0.13686354917E+01 -0.73056059017E+01  0.12256313242E+03  0.00000000000E+00 0.  1.
         -1    1    6    6    0  502 -0.67588995398E+02  0.87392900496E+02  0.20227667911E+03  0.23048133605E+03  0.00000000000E+00 0.  1.
<mgrwt>
<rscale>  0 0.15823936E+04</rscale>
<asrwt>0</asrwt>
<pdfrwt beam="1">  1        2 0.42333511E+00 0.15823936E+04</pdfrwt>
<pdfrwt beam="2">  1       -2 0.34999195E-01 0.15823936E+04</pdfrwt>
<totfact> 0.18264647E+01</totfact>
</mgrwt>
</event>
<event>
12    1  0.1541840E-007  0.1647845E+04  0.7818608E-02  0.8791682E-01
         -2   -1    0    0    0  501 -0.00000000000E+00  0.00000000000E+00  0.58530796355E+03  0.58530796355E+03  0.00000000000E+00 0.  1.
          2   -1    0    0  501    0  0.00000000000E+00 -0.00000000000E+00 -0.11598139787E+04  0.11598139787E+04  0.00000000000E+00 0. -1.
         23    2    1    2    0    0  0.43486668563E+03 -0.19033986122E+03 -0.52284813871E+03  0.71189783768E+03  0.89944750245E+02 0.  0.
        254    2    1    2    0    0 -0.43486668563E+03  0.19033986122E+03 -0.51657876456E+02  0.10332241046E+04  0.91626700096E+03 0.  0.
        -24    2    4    4    0    0 -0.33150154988E+03 -0.31230057918E+03  0.13470198577E+03  0.48174901018E+03  0.80700399711E+02 0.  0.
         24    2    4    4    0    0 -0.10336513575E+03  0.50264044040E+03 -0.18635986222E+03  0.55147509441E+03  0.77865383153E+02 0.  0.
         11    1    3    3    0    0  0.13605923806E+03 -0.56571032976E+02 -0.10434568888E+03  0.18055586621E+03  0.00000000000E+00 0.  1.
        -11    1    3    3    0    0  0.29880744757E+03 -0.13376882824E+03 -0.41850244983E+03  0.53134197147E+03  0.00000000000E+00 0. -1.
          2    1    6    6  502    0  0.10230258773E+02  0.81674574896E+02 -0.40216465128E+02  0.91611999467E+02  0.00000000000E+00 0. -1.
          1    1    5    5  503    0 -0.16803524943E+03 -0.10356011422E+03  0.59686496882E+02  0.20621110595E+03  0.00000000000E+00 0. -1.
         -2    1    5    5    0  503 -0.16346630045E+03 -0.20874046496E+03  0.75015488884E+02  0.27553790423E+03  0.00000000000E+00 0.  1.
         -1    1    6    6    0  502 -0.11359539453E+03  0.42096586550E+03 -0.14614339709E+03  0.45986309494E+03  0.00000000000E+00 0.  1.
<mgrwt>
<rscale>  0 0.16478451E+04</rscale>
<asrwt>0</asrwt>
<pdfrwt beam="1">  1        2 0.17843292E+00 0.16478451E+04</pdfrwt>
<pdfrwt beam="2">  1       -2 0.90047380E-01 0.16478451E+04</pdfrwt>
<totfact> 0.20199014E+01</totfact>
</mgrwt>
</event>
<event>
12    1  0.1541840E-007  0.1760457E+04  0.7818608E-02  0.8727615E-01
         -1   -1    0    0    0  501 -0.00000000000E+00  0.00000000000E+00  0.11777414802E+04  0.11777414802E+04  0.00000000000E+00 0.  1.
          1   -1    0    0  501    0  0.00000000000E+00 -0.00000000000E+00 -0.65787157298E+03  0.65787157298E+03  0.00000000000E+00 0. -1.
         23    2    1    2    0    0 -0.13178055993E+03 -0.11501853206E+02 -0.46845645727E+03  0.49494172847E+03  0.89540234638E+02 0.  0.
        254    2    1    2    0    0  0.13178055993E+03  0.11501853206E+02  0.98832636450E+03  0.13406713247E+04  0.89616526910E+03 0.  0.
        -24    2    4    4    0    0  0.47647395944E+03  0.56101555036E+02  0.32092485420E+03  0.58337393499E+03  0.84602408278E+02 0.  0.
         24    2    4    4    0    0 -0.34469339951E+03 -0.44599701830E+02  0.66740151030E+03  0.75729738972E+03  0.85275362561E+02 0.  0.
         11    1    3    3    0    0 -0.54870922911E+02 -0.26748643414E+02 -0.92019293454E+02  0.11042580529E+03  0.00000000000E+00 0.  1.
        -11    1    3    3    0    0 -0.76909637019E+02  0.15246790208E+02 -0.37643716382E+03  0.38451592318E+03  0.00000000000E+00 0. -1.
          4    1    6    6  502    0 -0.22872070543E+03 -0.55827623254E+02  0.50746720967E+03  0.55942189223E+03  0.00000000000E+00 0. -1.
          1    1    5    5  503    0  0.82169677691E+01 -0.10845175359E+02  0.47308490669E+01  0.14405461491E+02  0.00000000000E+00 0. -1.
         -2    1    5    5    0  503  0.46825699167E+03  0.66946730394E+02  0.31619400514E+03  0.56896847350E+03  0.00000000000E+00 0.  1.
         -3    1    6    6    0  502 -0.11597269408E+03  0.11227921425E+02  0.15993430063E+03  0.19787549749E+03  0.00000000000E+00 0.  1.
<mgrwt>
<rscale>  0 0.17604575E+04</rscale>
<asrwt>0</asrwt>
<pdfrwt beam="1">  1        1 0.10121101E+00 0.17604575E+04</pdfrwt>
<pdfrwt beam="2">  1       -1 0.18119100E+00 0.17604575E+04</pdfrwt>
<totfact> 0.57788672E+00</totfact>
</mgrwt>
</event>
<event>
12    1  0.1541840E-007  0.2289069E+04  0.7818608E-02  0.8482244E-01
          2   -1    0    0  501    0  0.00000000000E+00  0.00000000000E+00  0.22814167245E+04  0.22814167245E+04  0.00000000000E+00 0.  1.
         -2   -1    0    0    0  501 -0.00000000000E+00 -0.00000000000E+00 -0.57418665259E+03  0.57418665259E+03  0.00000000000E+00 0. -1.
         23    2    1    2    0    0  0.48864822699E+03  0.65334303034E+02  0.17566712692E+04  0.18271438479E+04  0.97545024556E+02 0.  0.
        254    2    1    2    0    0 -0.48864822699E+03 -0.65334303034E+02 -0.49441197368E+02  0.10284595292E+04  0.90124298068E+03 0.  0.
        -24    2    4    4    0    0 -0.20927492909E+03 -0.44678125858E+03  0.12991790465E+03  0.51641871801E+03  0.80000883712E+02 0.  0.
         24    2    4    4    0    0 -0.27937329790E+03  0.38144695555E+03 -0.17935910202E+03  0.51204081115E+03  0.80404510591E+02 0.  0.
         11    1    3    3    0    0  0.25361112078E+03 -0.57399074422E+01  0.78746929717E+03  0.82732063984E+03  0.00000000000E+00 0.  1.
        -11    1    3    3    0    0  0.23503710621E+03  0.71074210476E+02  0.96920197207E+03  0.99982320805E+03  0.00000000000E+00 0. -1.
          4    1    6    6  502    0 -0.22085799449E+03  0.24966341775E+03 -0.14676830420E+03  0.36421286497E+03  0.00000000000E+00 0. -1.
          1    1    5    5  503    0 -0.17428066390E+02 -0.10175842090E+03  0.44970426700E+02  0.11260929358E+03  0.00000000000E+00 0. -1.
         -2    1    5    5    0  503 -0.19184686270E+03 -0.34502283768E+03  0.84947477953E+02  0.40380942443E+03  0.00000000000E+00 0.  1.
         -3    1    6    6    0  502 -0.58515303414E+02  0.13178353780E+03 -0.32590797824E+02  0.14782794618E+03  0.00000000000E+00 0.  1.
<mgrwt>
<rscale>  0 0.22890688E+04</rscale>
<asrwt>0</asrwt>
<pdfrwt beam="1">  1        2 0.35098718E+00 0.22890688E+04</pdfrwt>
<pdfrwt beam="2">  1       -2 0.88336410E-01 0.22890688E+04</pdfrwt>
<totfact> 0.46495442E+00</totfact>
</mgrwt>
</event>
<event>
12    1  0.1541840E-007  0.2020059E+04  0.7818608E-02  0.8597299E-01
          2   -1    0    0  501    0  0.00000000000E+00  0.00000000000E+00  0.95094812582E+03  0.95094812582E+03  0.00000000000E+00 0. -1.
         -2   -1    0    0    0  501 -0.00000000000E+00 -0.00000000000E+00 -0.10727816023E+04  0.10727816023E+04  0.00000000000E+00 0.  1.
         23    2    1    2    0    0 -0.48325866247E+03 -0.51202566978E+03 -0.44640633532E+03  0.83869306515E+03  0.91750858013E+02 0.  0.
        254    2    1    2    0    0  0.48325866247E+03  0.51202566978E+03  0.32457285878E+03  0.11850366630E+04  0.89624501709E+03 0.  0.
        -24    2    4    4    0    0 -0.17368532218E+03 -0.11319204827E+03  0.30711181077E+01  0.21983905424E+03  0.73080415097E+02 0.  0.
         24    2    4    4    0    0  0.65694398466E+03  0.62521771805E+03  0.32150174068E+03  0.96519760877E+03  0.75963549087E+02 0.  0.
         13    1    3    3    0    0 -0.37864827214E+03 -0.41443604691E+03 -0.31123016125E+03  0.64186911769E+03  0.00000000000E+00 0.  1.
        -13    1    3    3    0    0 -0.10461039034E+03 -0.97589622875E+02 -0.13517617407E+03  0.19682394746E+03  0.00000000000E+00 0. -1.
          2    1    6    6  502    0  0.35132775844E+03  0.28203417230E+03  0.16169604361E+03  0.47866489188E+03  0.00000000000E+00 0. -1.
          1    1    5    5  503    0 -0.15872299661E+03 -0.69756490668E+02 -0.36258942731E+01  0.17341310433E+03  0.00000000000E+00 0. -1.
         -2    1    5    5    0  503 -0.14962325570E+02 -0.43435557598E+02  0.66970123808E+01  0.46425949911E+02  0.00000000000E+00 0.  1.
         -1    1    6    6    0  502  0.30561622622E+03  0.34318354575E+03  0.15980569706E+03  0.48653271690E+03  0.00000000000E+00 0.  1.
<mgrwt>
<rscale>  0 0.20200591E+04</rscale>
<asrwt>0</asrwt>
<pdfrwt beam="1">  1        2 0.14629971E+00 0.20200591E+04</pdfrwt>
<pdfrwt beam="2">  1       -2 0.16504332E+00 0.20200591E+04</pdfrwt>
<totfact> 0.58163528E+00</totfact>
</mgrwt>
</event>
<event>
12    1  0.1541840E-007  0.2423880E+04  0.7818608E-02  0.8430617E-01
         -1   -1    0    0    0  501 -0.00000000000E+00  0.00000000000E+00  0.20983446913E+04  0.20983446913E+04  0.00000000000E+00 0.  1.
          1   -1    0    0  501    0  0.00000000000E+00 -0.00000000000E+00 -0.69997967891E+03  0.69997967891E+03  0.00000000000E+00 0. -1.
         23    2    1    2    0    0 -0.25458594787E+03  0.72761356134E+03 -0.19953182737E+03  0.80153739945E+03  0.91726512424E+02 0.  0.
        254    2    1    2    0    0  0.25458594787E+03 -0.72761356134E+03  0.15978968398E+04  0.19967869708E+04  0.91632330350E+03 0.  0.
        -24    2    4    4    0    0  0.45247060265E+03 -0.67925003788E+03  0.15751851606E+04  0.17757913213E+04  0.78206560844E+02 0.  0.
         24    2    4    4    0    0 -0.19788465478E+03 -0.48363523464E+02  0.22711679127E+02  0.22099564949E+03  0.82618942907E+02 0.  0.
         13    1    3    3    0    0 -0.19669259234E+03  0.46085776947E+03 -0.15822096168E+03  0.52546335008E+03  0.00000000000E+00 0. -1.
        -13    1    3    3    0    0 -0.57893355537E+02  0.26675579187E+03 -0.41310865689E+02  0.27607404937E+03  0.00000000000E+00 0.  1.
          4    1    6    6  502    0 -0.46033825575E+02 -0.43563619569E+02  0.27279019751E+02  0.69000340330E+02  0.00000000000E+00 0. -1.
          1    1    5    5  503    0  0.14011004429E+03 -0.15729627783E+03  0.44374099283E+03  0.49120160041E+03  0.00000000000E+00 0. -1.
         -2    1    5    5    0  503  0.31236055835E+03 -0.52195376005E+03  0.11314441678E+04  0.12845897209E+04  0.00000000000E+00 0.  1.
         -3    1    6    6    0  502 -0.15185082920E+03 -0.47999038947E+01 -0.45673406232E+01  0.15199530916E+03  0.00000000000E+00 0.  1.
<mgrwt>
<rscale>  0 0.24238801E+04</rscale>
<asrwt>0</asrwt>
<pdfrwt beam="1">  1        1 0.10768918E+00 0.24238801E+04</pdfrwt>
<pdfrwt beam="2">  1       -1 0.32282226E+00 0.24238801E+04</pdfrwt>
<totfact> 0.57171111E-01</totfact>
</mgrwt>
</event>
<event>
12    1  0.1541840E-007  0.3695622E+04  0.7818608E-02  0.8068933E-01
          2   -1    0    0  501    0  0.00000000000E+00  0.00000000000E+00  0.28781570534E+04  0.28781570534E+04  0.00000000000E+00 0. -1.
         -2   -1    0    0    0  501 -0.00000000000E+00 -0.00000000000E+00 -0.11863163466E+04  0.11863163466E+04  0.00000000000E+00 0.  1.
         23    2    1    2    0    0  0.96661474257E+03 -0.13409795218E+04  0.22720280244E+03  0.16710879257E+04  0.91343328037E+02 0.  0.
        254    2    1    2    0    0 -0.96661474257E+03  0.13409795218E+04  0.14646379044E+04  0.23933854744E+04  0.92225793548E+03 0.  0.
        -24    2    4    4    0    0 -0.25019025376E+03  0.19906360078E+03  0.84518795724E+03  0.90750073854E+03  0.83626713249E+02 0.  0.
         24    2    4    4    0    0 -0.71642448881E+03  0.11419159210E+04  0.61944994715E+03  0.14858847358E+04  0.83061376810E+02 0.  0.
         11    1    3    3    0    0  0.93286082508E+03 -0.12714337076E+04  0.23053201348E+03  0.15937120194E+04  0.00000000000E+00 0.  1.
        -11    1    3    3    0    0  0.33753917488E+02 -0.69545814226E+02 -0.33292110375E+01  0.77375906251E+02  0.00000000000E+00 0. -1.
          2    1    6    6  502    0 -0.41583317397E+03  0.60622946326E+03  0.30616667816E+03  0.79634755322E+03  0.00000000000E+00 0. -1.
          3    1    5    5  503    0 -0.21336042984E+03  0.18497392139E+03  0.79508977561E+03  0.84374508940E+03  0.00000000000E+00 0. -1.
         -4    1    5    5    0  503 -0.36829823912E+02  0.14089679385E+02  0.50098181633E+02  0.63755649142E+02  0.00000000000E+00 0.  1.
         -1    1    6    6    0  502 -0.30059131484E+03  0.53568645774E+03  0.31328326899E+03  0.68953718260E+03  0.00000000000E+00 0.  1.
<mgrwt>
<rscale>  0 0.36956216E+04</rscale>
<asrwt>0</asrwt>
<pdfrwt beam="1">  1        2 0.44279339E+00 0.36956216E+04</pdfrwt>
<pdfrwt beam="2">  1       -2 0.18251021E+00 0.36956216E+04</pdfrwt>
<totfact> 0.29185654E-01</totfact>
</mgrwt>
</event>
<event>
12    1  0.1541840E-007  0.1065178E+04  0.7818608E-02  0.9239812E-01
          2   -1    0    0  501    0  0.00000000000E+00  0.00000000000E+00  0.15528545932E+04  0.15528545932E+04  0.00000000000E+00 0. -1.
         -2   -1    0    0    0  501 -0.00000000000E+00 -0.00000000000E+00 -0.18266438472E+03  0.18266438472E+03  0.00000000000E+00 0.  1.
         23    2    1    2    0    0 -0.10705759041E+02  0.44145245813E+02  0.39848923883E+03  0.41121939493E+03  0.90798134929E+02 0.  0.
        254    2    1    2    0    0  0.10705759041E+02 -0.44145245813E+02  0.97170096968E+03  0.13242995830E+04  0.89861181556E+03 0.  0.
        -24    2    4    4    0    0  0.16376144535E+03 -0.31657501810E+03  0.77015002579E+02  0.37325968294E+03  0.79711525011E+02 0.  0.
         24    2    4    4    0    0 -0.15305568630E+03  0.27242977229E+03  0.89468596710E+03  0.95103990007E+03  0.79811577169E+02 0.  0.
         13    1    3    3    0    0  0.11368435116E+02  0.65097843954E+02  0.20602798463E+03  0.21636658951E+03  0.00000000000E+00 0.  1.
        -13    1    3    3    0    0 -0.22074194158E+02 -0.20952598141E+02  0.19246125419E+03  0.19485280542E+03  0.00000000000E+00 0. -1.
          4    1    6    6  502    0 -0.87731719861E+02  0.96818843188E+02  0.29193836466E+03  0.31984176061E+03  0.00000000000E+00 0. -1.
          1    1    5    5  503    0  0.58373782384E+02 -0.57258959665E+02  0.39613644994E+02  0.90858834471E+02  0.00000000000E+00 0. -1.
         -2    1    5    5    0  503  0.10538766296E+03 -0.25931605844E+03  0.37401357584E+02  0.28240084847E+03  0.00000000000E+00 0.  1.
         -3    1    6    6    0  502 -0.65323966444E+02  0.17561092910E+03  0.60274760244E+03  0.63119813946E+03  0.00000000000E+00 0.  1.
<mgrwt>
<rscale>  0 0.10651783E+04</rscale>
<asrwt>0</asrwt>
<pdfrwt beam="1">  1        2 0.23890070E+00 0.10651783E+04</pdfrwt>
<pdfrwt beam="2">  1       -2 0.28102214E-01 0.10651783E+04</pdfrwt>
<totfact> 0.13644084E+02</totfact>
</mgrwt>
</event>
<event>
12    1  0.1541840E-007  0.3172146E+04  0.7818608E-02  0.8196212E-01
         -2   -1    0    0    0  501 -0.00000000000E+00  0.00000000000E+00  0.15885493260E+04  0.15885493260E+04  0.00000000000E+00 0.  1.
          2   -1    0    0  501    0  0.00000000000E+00 -0.00000000000E+00 -0.15836003335E+04  0.15836003335E+04  0.00000000000E+00 0. -1.
         23    2    1    2    0    0 -0.39988032590E+03  0.39379815785E+03  0.13487340677E+04  0.14636444340E+04  0.90499611482E+02 0.  0.
        254    2    1    2    0    0  0.39988032590E+03 -0.39379815785E+03 -0.13437850753E+04  0.17085052255E+04  0.89344866261E+03 0.  0.
        -24    2    4    4    0    0 -0.19749626763E+03 -0.39406905850E+03 -0.65485471352E+03  0.79316488776E+03  0.77334628496E+02 0.  0.
         24    2    4    4    0    0  0.59737659353E+03  0.27090065381E+00 -0.68893036179E+03  0.91534033772E+03  0.79774824238E+02 0.  0.
         11    1    3    3    0    0 -0.62221514098E+02  0.22109239892E+02  0.17219155576E+03  0.18441872784E+03  0.00000000000E+00 0. -1.
        -11    1    3    3    0    0 -0.33765881180E+03  0.37168891796E+03  0.11765425120E+04  0.12792257062E+04  0.00000000000E+00 0.  1.
          2    1    6    6  502    0  0.59991591247E+03 -0.74347851616E+00 -0.68637623595E+03  0.91159859153E+03  0.00000000000E+00 0. -1.
          1    1    5    5  503    0 -0.15960074164E+03 -0.36588408443E+03 -0.60157319021E+03  0.72196527836E+03  0.00000000000E+00 0. -1.
         -4    1    5    5    0  503 -0.37895525990E+02 -0.28184974067E+02 -0.53281523310E+02  0.71199609405E+02  0.00000000000E+00 0.  1.
         -1    1    6    6    0  502 -0.25393189416E+01  0.10143791700E+01 -0.25541258348E+01  0.37417461923E+01  0.00000000000E+00 0.  1.
<mgrwt>
<rscale>  0 0.31721458E+04</rscale>
<asrwt>0</asrwt>
<pdfrwt beam="1">  1        2 0.24363082E+00 0.31721458E+04</pdfrwt>
<pdfrwt beam="2">  1       -2 0.24439220E+00 0.31721458E+04</pdfrwt>
<totfact> 0.66897821E-01</totfact>
</mgrwt>
</event>
<event>
12    1  0.1541840E-007  0.2180716E+04  0.7818608E-02  0.8526498E-01
          1   -1    0    0  501    0  0.00000000000E+00  0.00000000000E+00  0.25005845012E+04  0.25005845012E+04  0.00000000000E+00 0. -1.
         -1   -1    0    0    0  501 -0.00000000000E+00 -0.00000000000E+00 -0.47544117719E+03  0.47544117719E+03  0.00000000000E+00 0.  1.
         23    2    1    2    0    0 -0.43045890186E+03  0.34320730468E+03 -0.13272838205E+03  0.57351349463E+03  0.90635450837E+02 0.  0.
        254    2    1    2    0    0  0.43045890186E+03 -0.34320730468E+03  0.21578717061E+04  0.24025121838E+04  0.90142574468E+03 0.  0.
        -24    2    4    4    0    0  0.39610307768E+03 -0.28499376024E+02  0.19977574138E+04  0.20384651878E+04  0.81214377605E+02 0.  0.
         24    2    4    4    0    0  0.34355824171E+02 -0.31470792866E+03  0.16011429234E+03  0.36404699598E+03  0.81683692751E+02 0.  0.
         11    1    3    3    0    0 -0.70466852784E+02  0.98355493800E+02 -0.46896042640E+02  0.12976370570E+03  0.00000000000E+00 0. -1.
        -11    1    3    3    0    0 -0.35999204907E+03  0.24485181088E+03 -0.85832339413E+02  0.44374978893E+03  0.00000000000E+00 0.  1.
          2    1    6    6  502    0  0.24118886339E+02 -0.21761518409E+03  0.15104917084E+03  0.26599612974E+03  0.00000000000E+00 0. -1.
          1    1    5    5  503    0  0.36774477469E+03 -0.38530029373E+01  0.18084724518E+04  0.18454873811E+04  0.00000000000E+00 0. -1.
         -2    1    5    5    0  503  0.28358302997E+02 -0.24646373087E+02  0.18928496196E+03  0.19297780671E+03  0.00000000000E+00 0.  1.
         -1    1    6    6    0  502  0.10236937832E+02 -0.97092744564E+02  0.90651214944E+01  0.98050866242E+02  0.00000000000E+00 0.  1.
<mgrwt>
<rscale>  0 0.21807162E+04</rscale>
<asrwt>0</asrwt>
<pdfrwt beam="1">  1        1 0.38470530E+00 0.21807162E+04</pdfrwt>
<pdfrwt beam="2">  1       -1 0.73144798E-01 0.21807162E+04</pdfrwt>
<totfact> 0.23287894E+00</totfact>
</mgrwt>
</event>
<event>
12    1  0.1541840E-007  0.2389700E+04  0.7818608E-02  0.8443370E-01
         -2   -1    0    0    0  501 -0.00000000000E+00  0.00000000000E+00  0.11702125794E+04  0.11702125794E+04  0.00000000000E+00 0.  1.
          2   -1    0    0  501    0  0.00000000000E+00 -0.00000000000E+00 -0.12200059006E+04  0.12200059006E+04  0.00000000000E+00 0. -1.
         23    2    1    2    0    0  0.87956905223E+03  0.79917577544E+02  0.48942188621E+03  0.10138922798E+04  0.91734592506E+02 0.  0.
        254    2    1    2    0    0 -0.87956905223E+03 -0.79917577544E+02 -0.53921520740E+03  0.13763262003E+04  0.90746472818E+03 0.  0.
        -24    2    4    4    0    0 -0.18512095445E+03  0.22784205829E+03  0.15656518142E+03  0.34257969591E+03  0.81648151955E+02 0.  0.
         24    2    4    4    0    0 -0.69444809778E+03 -0.30775963583E+03 -0.69578038882E+03  0.10337465044E+04  0.86875381438E+02 0.  0.
         13    1    3    3    0    0  0.14172385928E+03  0.46951589012E+02  0.77782085761E+02  0.16834534999E+03  0.00000000000E+00 0. -1.
        -13    1    3    3    0    0  0.73784519295E+03  0.32965988532E+02  0.41163980045E+03  0.84554692979E+03  0.00000000000E+00 0.  1.
          4    1    6    6  502    0 -0.18243830545E+03 -0.40148038737E+02 -0.17205387319E+03  0.25396483140E+03  0.00000000000E+00 0. -1.
          3    1    5    5  503    0 -0.80051341290E+02  0.78459201605E+02  0.18439934815E+02  0.11359619164E+03  0.00000000000E+00 0. -1.
         -4    1    5    5    0  503 -0.10506961316E+03  0.14938285668E+03  0.13812524660E+03  0.22898350427E+03  0.00000000000E+00 0.  1.
         -3    1    6    6    0  502 -0.51200979233E+03 -0.26761159710E+03 -0.52372651564E+03  0.77978167298E+03  0.00000000000E+00 0.  1.
<mgrwt>
<rscale>  0 0.23896998E+04</rscale>
<asrwt>0</asrwt>
<pdfrwt beam="1">  1        2 0.18769322E+00 0.23896998E+04</pdfrwt>
<pdfrwt beam="2">  1       -2 0.18003270E+00 0.23896998E+04</pdfrwt>
<totfact> 0.30056596E+00</totfact>
</mgrwt>
</event>
<event>
12    1  0.1541840E-007  0.2521352E+04  0.7818608E-02  0.8395418E-01
          2   -1    0    0  501    0  0.00000000000E+00  0.00000000000E+00  0.84724772329E+03  0.84724772329E+03  0.00000000000E+00 0. -1.
         -2   -1    0    0    0  501 -0.00000000000E+00 -0.00000000000E+00 -0.18758428477E+04  0.18758428477E+04  0.00000000000E+00 0.  1.
         23    2    1    2    0    0 -0.42906401917E+03  0.92657087915E+03 -0.88168428240E+03  0.13523137204E+04  0.93571885880E+02 0.  0.
        254    2    1    2    0    0  0.42906401917E+03 -0.92657087915E+03 -0.14691084204E+03  0.13707768506E+04  0.90267206234E+03 0.  0.
        -24    2    4    4    0    0 -0.10476420413E+03 -0.79542064776E+03 -0.11526450653E+03  0.81440276488E+03  0.79349931572E+02 0.  0.
         24    2    4    4    0    0  0.53382822330E+03 -0.13115023139E+03 -0.31646335508E+02  0.55637408576E+03  0.79860362946E+02 0.  0.
         11    1    3    3    0    0 -0.31393114032E+03  0.73483122548E+03 -0.72773196608E+03  0.10807976246E+04  0.00000000000E+00 0.  1.
        -11    1    3    3    0    0 -0.11513287885E+03  0.19173965367E+03 -0.15395231633E+03  0.27151609581E+03  0.00000000000E+00 0. -1.
          4    1    6    6  502    0  0.32857853151E+03 -0.58562370981E+02 -0.51733473147E+02  0.33774214263E+03  0.00000000000E+00 0. -1.
          3    1    5    5  503    0 -0.10078589013E+03 -0.79093773984E+03 -0.10742929170E+03  0.80453797715E+03  0.00000000000E+00 0. -1.
         -4    1    5    5    0  503 -0.39783139979E+01 -0.44829079152E+01 -0.78352148329E+01  0.98647877382E+01  0.00000000000E+00 0.  1.
         -3    1    6    6    0  502  0.20524969179E+03 -0.72587860412E+02  0.20087137639E+02  0.21863194313E+03  0.00000000000E+00 0.  1.
<mgrwt>
<rscale>  0 0.25213517E+04</rscale>
<asrwt>0</asrwt>
<pdfrwt beam="1">  1        2 0.13034580E+00 0.25213517E+04</pdfrwt>
<pdfrwt beam="2">  1       -2 0.28859120E+00 0.25213517E+04</pdfrwt>
<totfact> 0.10593958E+00</totfact>
</mgrwt>
</event>
<event>
12    1  0.1541840E-007  0.1257381E+04  0.7818608E-02  0.9064062E-01
          2   -1    0    0  501    0  0.00000000000E+00  0.00000000000E+00  0.11358810266E+04  0.11358810266E+04  0.00000000000E+00 0.  1.
         -2   -1    0    0    0  501 -0.00000000000E+00 -0.00000000000E+00 -0.34796926241E+03  0.34796926241E+03  0.00000000000E+00 0. -1.
         23    2    1    2    0    0  0.18770451955E+03 -0.16226868973E+03  0.27202299261E+03  0.37970471027E+03  0.92817262240E+02 0.  0.
        254    2    1    2    0    0 -0.18770451955E+03  0.16226868973E+03  0.51588877155E+03  0.11041455787E+04  0.94415683021E+03 0.  0.
        -24    2    4    4    0    0 -0.76178367828E+02 -0.15422299786E+03 -0.22082390176E+03  0.29103871483E+03  0.79702328378E+02 0.  0.
         24    2    4    4    0    0 -0.11152615172E+03  0.31649168758E+03  0.73671267331E+03  0.81310686388E+03  0.76106098598E+02 0.  0.
         13    1    3    3    0    0  0.89817729572E+02 -0.70518028473E+02  0.19227539506E+03  0.22362880948E+03  0.00000000000E+00 0.  1.
        -13    1    3    3    0    0  0.97886789977E+02 -0.91750661253E+02  0.79747597552E+02  0.15607590079E+03  0.00000000000E+00 0. -1.
          4    1    6    6  502    0 -0.89338316248E+02  0.24782316309E+03  0.64267536959E+03  0.69457129626E+03  0.00000000000E+00 0. -1.
          1    1    5    5  503    0  0.82589825338E+01  0.43728444420E+01 -0.16419643906E+02  0.18892783464E+02  0.00000000000E+00 0. -1.
         -2    1    5    5    0  503 -0.84437350362E+02 -0.15859584230E+03 -0.20440425785E+03  0.27214593137E+03  0.00000000000E+00 0.  1.
         -3    1    6    6    0  502 -0.22187835473E+02  0.68668524492E+02  0.94037303715E+02  0.11853556761E+03  0.00000000000E+00 0.  1.
<mgrwt>
<rscale>  0 0.12573809E+04</rscale>
<asrwt>0</asrwt>
<pdfrwt beam="1">  1        2 0.17475092E+00 0.12573809E+04</pdfrwt>
<pdfrwt beam="2">  1       -2 0.53533733E-01 0.12573809E+04</pdfrwt>
<totfact> 0.66931409E+01</totfact>
</mgrwt>
</event>
<event>
12    1  0.1541840E-007  0.1480463E+04  0.7818608E-02  0.8897550E-01
          2   -1    0    0  501    0  0.00000000000E+00  0.00000000000E+00  0.16832033817E+04  0.16832033817E+04  0.00000000000E+00 0. -1.
         -2   -1    0    0    0  501 -0.00000000000E+00 -0.00000000000E+00 -0.32553563879E+03  0.32553563879E+03  0.00000000000E+00 0.  1.
         23    2    1    2    0    0 -0.55254458561E+02 -0.45399010605E+03  0.38602621830E+03  0.60568665116E+03  0.93166552958E+02 0.  0.
        254    2    1    2    0    0  0.55254458561E+02  0.45399010605E+03  0.97164152461E+03  0.14030523693E+04  0.90294442086E+03 0.  0.
        -24    2    4    4    0    0  0.42392865389E+03  0.49389929348E+02  0.27552495155E+03  0.51396713654E+03  0.78059911670E+02 0.  0.
         24    2    4    4    0    0 -0.36867419533E+03  0.40460017671E+03  0.69611657306E+03  0.88908523279E+03  0.79197869786E+02 0.  0.
         13    1    3    3    0    0 -0.27024005698E+02 -0.37515119486E+02  0.61531741261E+02  0.76966461894E+02  0.00000000000E+00 0. -1.
        -13    1    3    3    0    0 -0.28230452863E+02 -0.41647498657E+03  0.32449447704E+03  0.52872018926E+03  0.00000000000E+00 0.  1.
          2    1    6    6  502    0 -0.26728456701E+03  0.33904793067E+03  0.56078665797E+03  0.70772608741E+03  0.00000000000E+00 0. -1.
          3    1    5    5  503    0  0.36256430687E+03  0.45149917596E+02  0.26550383507E+03  0.45164552263E+03  0.00000000000E+00 0. -1.
         -4    1    5    5    0  503  0.61364347025E+02  0.42400117514E+01  0.10021116475E+02  0.62321613914E+02  0.00000000000E+00 0.  1.
         -1    1    6    6    0  502 -0.10138962832E+03  0.65552246037E+02  0.13532991510E+03  0.18135914538E+03  0.00000000000E+00 0.  1.
<mgrwt>
<rscale>  0 0.14804630E+04</rscale>
<asrwt>0</asrwt>
<pdfrwt beam="1">  1        2 0.25895436E+00 0.14804630E+04</pdfrwt>
<pdfrwt beam="2">  1       -2 0.50082407E-01 0.14804630E+04</pdfrwt>
<totfact> 0.36563017E+01</totfact>
</mgrwt>
</event>
<event>
12    1  0.1541840E-007  0.2455385E+04  0.7818608E-02  0.8419054E-01
         -2   -1    0    0    0  501 -0.00000000000E+00  0.00000000000E+00  0.13266247786E+04  0.13266247786E+04  0.00000000000E+00 0.  1.
          2   -1    0    0  501    0  0.00000000000E+00 -0.00000000000E+00 -0.11361380211E+04  0.11361380211E+04  0.00000000000E+00 0. -1.
         23    2    1    2    0    0  0.97259838968E+03  0.26452600444E+03  0.44050975680E+03  0.11037329174E+04  0.90861831893E+02 0.  0.
        254    2    1    2    0    0 -0.97259838968E+03 -0.26452600444E+03 -0.25002299933E+03  0.13590298823E+04  0.87665790722E+03 0.  0.
        -24    2    4    4    0    0 -0.78355889941E+02 -0.20717838903E+03 -0.38287976499E+03  0.44944423341E+03  0.79628350115E+02 0.  0.
         24    2    4    4    0    0 -0.89424249974E+03 -0.57347615412E+02  0.13285676566E+03  0.90958564894E+03  0.82077617169E+02 0.  0.
         13    1    3    3    0    0  0.24074123997E+03  0.68364444768E+02  0.67500187761E+02  0.25920323547E+03  0.00000000000E+00 0. -1.
        -13    1    3    3    0    0  0.73185714971E+03  0.19616155967E+03  0.37300956904E+03  0.84452968194E+03  0.00000000000E+00 0.  1.
          4    1    6    6  502    0 -0.42074928315E+02 -0.17903273613E+02  0.16477752522E+02  0.48603941476E+02  0.00000000000E+00 0. -1.
          1    1    5    5  503    0 -0.25695024029E+02 -0.32181203500E+02 -0.13721066029E+03  0.14325721418E+03  0.00000000000E+00 0. -1.
         -2    1    5    5    0  503 -0.52660865912E+02 -0.17499718553E+03 -0.24566910470E+03  0.30618701923E+03  0.00000000000E+00 0.  1.
         -3    1    6    6    0  502 -0.85216757142E+03 -0.39444341799E+02  0.11637901314E+03  0.86098170746E+03  0.00000000000E+00 0.  1.
<mgrwt>
<rscale>  0 0.24553850E+04</rscale>
<asrwt>0</asrwt>
<pdfrwt beam="1">  1        2 0.17479046E+00 0.24553850E+04</pdfrwt>
<pdfrwt beam="2">  1       -2 0.20409612E+00 0.24553850E+04</pdfrwt>
<totfact> 0.23168849E+00</totfact>
</mgrwt>
</event>
<event>
12    1  0.1541840E-007  0.1928121E+04  0.7818608E-02  0.8640984E-01
         -2   -1    0    0    0  501 -0.00000000000E+00  0.00000000000E+00  0.81459483848E+03  0.81459483848E+03  0.00000000000E+00 0.  1.
          2   -1    0    0  501    0  0.00000000000E+00 -0.00000000000E+00 -0.11409512460E+04  0.11409512460E+04  0.00000000000E+00 0. -1.
         23    2    1    2    0    0 -0.43975962134E+03 -0.54569762656E+03  0.87471929165E+02  0.71234620519E+03  0.92797378479E+02 0.  0.
        254    2    1    2    0    0  0.43975962134E+03  0.54569762656E+03 -0.41382833673E+03  0.12431998793E+04  0.93974338172E+03 0.  0.
        -24    2    4    4    0    0  0.43996109699E+02 -0.18523276360E+03 -0.34980601848E+03  0.40624844991E+03  0.80166814274E+02 0.  0.
         24    2    4    4    0    0  0.39576351164E+03  0.73093039017E+03 -0.64022318250E+02  0.83695142942E+03  0.74167685359E+02 0.  0.
         13    1    3    3    0    0 -0.17541729394E+03 -0.21723914721E+03 -0.10790722838E+02  0.27942890651E+03  0.00000000000E+00 0.  1.
        -13    1    3    3    0    0 -0.26434232740E+03 -0.32845847935E+03  0.98262652003E+02  0.43291729868E+03  0.00000000000E+00 0. -1.
          2    1    6    6  502    0  0.98257152207E+02  0.12094390377E+03 -0.11200197959E+02  0.15622848733E+03  0.00000000000E+00 0. -1.
          1    1    5    5  503    0 -0.18522480905E+02 -0.86476562242E+02 -0.17311841255E+03  0.19439975020E+03  0.00000000000E+00 0. -1.
         -2    1    5    5    0  503  0.62518590604E+02 -0.98756201362E+02 -0.17668760593E+03  0.21184869971E+03  0.00000000000E+00 0.  1.
         -1    1    6    6    0  502  0.29750635944E+03  0.60998648640E+03 -0.52822120291E+02  0.68072294209E+03  0.00000000000E+00 0.  1.
<mgrwt>
<rscale>  0 0.19281214E+04</rscale>
<asrwt>0</asrwt>
<pdfrwt beam="1">  1        2 0.17553096E+00 0.19281214E+04</pdfrwt>
<pdfrwt beam="2">  1       -2 0.12532228E+00 0.19281214E+04</pdfrwt>
<totfact> 0.91543491E+00</totfact>
</mgrwt>
</event>
<event>
12    1  0.1541840E-007  0.1995519E+04  0.7818608E-02  0.8608718E-01
         -1   -1    0    0    0  501 -0.00000000000E+00  0.00000000000E+00  0.11158122675E+04  0.11158122675E+04  0.00000000000E+00 0.  1.
          1   -1    0    0  501    0  0.00000000000E+00 -0.00000000000E+00 -0.89219709099E+03  0.89219709099E+03  0.00000000000E+00 0. -1.
         23    2    1    2    0    0 -0.23830923385E+03  0.76202839408E+03  0.15174808817E+03  0.81804717711E+03  0.93247720648E+02 0.  0.
        254    2    1    2    0    0  0.23830923385E+03 -0.76202839408E+03  0.71867088338E+02  0.11899621814E+04  0.87941261669E+03 0.  0.
        -24    2    4    4    0    0  0.34983767094E+03 -0.55093010964E+03  0.40583527237E+03  0.77279849999E+03  0.81270360989E+02 0.  0.
         24    2    4    4    0    0 -0.11152843709E+03 -0.21109828444E+03 -0.33396818403E+03  0.41716368138E+03  0.74092584932E+02 0.  0.
         13    1    3    3    0    0 -0.18983087506E+03  0.65581812427E+03  0.98800753394E+02  0.68985126086E+03  0.00000000000E+00 0. -1.
        -13    1    3    3    0    0 -0.48478358781E+02  0.10621026981E+03  0.52947334779E+02  0.12819591625E+03  0.00000000000E+00 0.  1.
          2    1    6    6  502    0 -0.40485086636E+02 -0.15228395230E+03 -0.20299601777E+03  0.25697631719E+03  0.00000000000E+00 0. -1.
          1    1    5    5  503    0  0.19254932473E+03 -0.25475872216E+03  0.23469476907E+03  0.39630655256E+03  0.00000000000E+00 0. -1.
         -2    1    5    5    0  503  0.15728834621E+03 -0.29617138747E+03  0.17114050330E+03  0.37649194743E+03  0.00000000000E+00 0.  1.
         -1    1    6    6    0  502 -0.71043350458E+02 -0.58814332142E+02 -0.13097216626E+03  0.16018736419E+03  0.00000000000E+00 0.  1.
<mgrwt>
<rscale>  0 0.19955194E+04</rscale>
<asrwt>0</asrwt>
<pdfrwt beam="1">  1        1 0.13726109E+00 0.19955194E+04</pdfrwt>
<pdfrwt beam="2">  1       -1 0.17166343E+00 0.19955194E+04</pdfrwt>
<totfact> 0.41001249E+00</totfact>
</mgrwt>
</event>
<event>
12    1  0.1541840E-007  0.1746327E+04  0.7818608E-02  0.8735375E-01
          2   -1    0    0  501    0  0.00000000000E+00  0.00000000000E+00  0.34853559672E+04  0.34853559672E+04  0.00000000000E+00 0. -1.
         -2   -1    0    0    0  501 -0.00000000000E+00 -0.00000000000E+00 -0.21874785652E+03  0.21874785652E+03  0.00000000000E+00 0.  1.
         23    2    1    2    0    0 -0.18332687649E+03  0.41970187523E+03  0.25214270369E+03  0.53073792921E+03  0.91369572430E+02 0.  0.
        254    2    1    2    0    0  0.18332687649E+03 -0.41970187523E+03  0.30144654070E+04  0.31733658945E+04  0.87948337266E+03 0.  0.
        -24    2    4    4    0    0 -0.20316969122E+03 -0.59483718464E+02  0.21164151040E+04  0.21284824412E+04  0.80052320603E+02 0.  0.
         24    2    4    4    0    0  0.38649656770E+03 -0.36021815676E+03  0.89805030298E+03  0.10448834533E+04  0.78424274977E+02 0.  0.
         13    1    3    3    0    0  0.58551473882E+01  0.22447867522E+02 -0.80233064914E+00  0.23212781860E+02  0.00000000000E+00 0. -1.
        -13    1    3    3    0    0 -0.18918202388E+03  0.39725400771E+03  0.25294503434E+03  0.50752514735E+03  0.00000000000E+00 0.  1.
          2    1    6    6  502    0  0.38575741576E+03 -0.35145100276E+03  0.89407710228E+03  0.10352296634E+04  0.00000000000E+00 0. -1.
          1    1    5    5  503    0 -0.10958387659E+03 -0.70450731547E+02  0.10922110472E+04  0.10999531368E+04  0.00000000000E+00 0. -1.
         -2    1    5    5    0  503 -0.93585814628E+02  0.10967013083E+02  0.10242040568E+04  0.10285293044E+04  0.00000000000E+00 0.  1.
         -1    1    6    6    0  502  0.73915194404E+00 -0.87671540002E+01  0.39732006943E+01  0.96537898578E+01  0.00000000000E+00 0.  1.
<mgrwt>
<rscale>  0 0.17463266E+04</rscale>
<asrwt>0</asrwt>
<pdfrwt beam="1">  1        2 0.53620857E+00 0.17463266E+04</pdfrwt>
<pdfrwt beam="2">  1       -2 0.33653519E-01 0.17463266E+04</pdfrwt>
<totfact> 0.65746969E+00</totfact>
</mgrwt>
</event>
<event>
12    1  0.1541840E-007  0.1824633E+04  0.7818608E-02  0.8693309E-01
         -1   -1    0    0    0  501 -0.00000000000E+00  0.00000000000E+00  0.61247209728E+03  0.61247209728E+03  0.00000000000E+00 0.  1.
          1   -1    0    0  501    0  0.00000000000E+00 -0.00000000000E+00 -0.13589534881E+04  0.13589534881E+04  0.00000000000E+00 0. -1.
         23    2    1    2    0    0  0.19916322208E+03 -0.50788546253E+03  0.16976833912E+03  0.57864885421E+03  0.91649197698E+02 0.  0.
        254    2    1    2    0    0 -0.19916322208E+03  0.50788546253E+03 -0.91624972991E+03  0.13927767311E+04  0.89593516684E+03 0.  0.
        -24    2    4    4    0    0  0.12859168293E+03  0.26862272555E+03  0.76265839715E+02  0.31758557965E+03  0.79687718582E+02 0.  0.
         24    2    4    4    0    0 -0.32775490500E+03  0.23926273698E+03 -0.99251556963E+03  0.10751911515E+04  0.79239644441E+02 0.  0.
         11    1    3    3    0    0  0.34782857604E+02 -0.34792157305E+02 -0.18276633970E+01  0.49230902353E+02  0.00000000000E+00 0.  1.
        -11    1    3    3    0    0  0.16438036447E+03 -0.47309330522E+03  0.17159600252E+03  0.52941795186E+03  0.00000000000E+00 0. -1.
          2    1    6    6  502    0 -0.56794569279E+02  0.13217645854E+02 -0.18422182111E+03  0.19323045473E+03  0.00000000000E+00 0. -1.
          1    1    5    5  503    0  0.57635048304E+02  0.56261061983E+02 -0.15177608147E+01  0.80556871130E+02  0.00000000000E+00 0. -1.
         -2    1    5    5    0  503  0.70956634624E+02  0.21236166356E+03  0.77783600530E+02  0.23702870852E+03  0.00000000000E+00 0.  1.
         -1    1    6    6    0  502 -0.27096033572E+03  0.22604509113E+03 -0.80829374851E+03  0.88196069677E+03  0.00000000000E+00 0.  1.
<mgrwt>
<rscale>  0 0.18246327E+04</rscale>
<asrwt>0</asrwt>
<pdfrwt beam="1">  1        1 0.20906977E+00 0.18246327E+04</pdfrwt>
<pdfrwt beam="2">  1       -1 0.94226477E-01 0.18246327E+04</pdfrwt>
<totfact> 0.84340753E+00</totfact>
</mgrwt>
</event>
<event>
12    1  0.1541840E-007  0.1452933E+04  0.7818608E-02  0.8916370E-01
          1   -1    0    0  501    0  0.00000000000E+00  0.00000000000E+00  0.38265068304E+03  0.38265068304E+03  0.00000000000E+00 0. -1.
         -1   -1    0    0    0  501 -0.00000000000E+00 -0.00000000000E+00 -0.13792044429E+04  0.13792044429E+04  0.00000000000E+00 0.  1.
         23    2    1    2    0    0 -0.17978380438E+03  0.36349614515E+03 -0.52563936541E+03  0.67023807702E+03  0.92036262207E+02 0.  0.
        254    2    1    2    0    0  0.17978380438E+03 -0.36349614515E+03 -0.47091439448E+03  0.10916170489E+04  0.89744958118E+03 0.  0.
        -24    2    4    4    0    0  0.44353872286E+03 -0.50191648370E+03 -0.36685114215E+03  0.76852073183E+03  0.86009298790E+02 0.  0.
         24    2    4    4    0    0 -0.26375491848E+03  0.13842033855E+03 -0.10406325233E+03  0.32309631711E+03  0.69535764139E+02 0.  0.
         13    1    3    3    0    0 -0.18620023486E+03  0.32369952304E+03 -0.45218407951E+03  0.58644893251E+03  0.00000000000E+00 0.  1.
        -13    1    3    3    0    0  0.64164304739E+01  0.39796622111E+02 -0.73455285902E+02  0.83789144514E+02  0.00000000000E+00 0. -1.
          2    1    6    6  502    0 -0.78178095777E+02  0.27542376502E+02  0.65625735839E+00  0.82890456848E+02  0.00000000000E+00 0. -1.
          3    1    5    5  503    0  0.93329125981E+02 -0.95418848361E+02 -0.11330052159E+03  0.17507738452E+03  0.00000000000E+00 0. -1.
         -4    1    5    5    0  503  0.35020959688E+03 -0.40649763534E+03 -0.25355062055E+03  0.59344334731E+03  0.00000000000E+00 0.  1.
         -1    1    6    6    0  502 -0.18557682271E+03  0.11087796205E+03 -0.10471950969E+03  0.24020586026E+03  0.00000000000E+00 0.  1.
<mgrwt>
<rscale>  0 0.14529329E+04</rscale>
<asrwt>0</asrwt>
<pdfrwt beam="1">  1        1 0.58869335E-01 0.14529329E+04</pdfrwt>
<pdfrwt beam="2">  1       -1 0.21218530E+00 0.14529329E+04</pdfrwt>
<totfact> 0.76781171E+00</totfact>
</mgrwt>
</event>
<event>
12    1  0.1541840E-007  0.1822648E+04  0.7818608E-02  0.8694347E-01
         -1   -1    0    0    0  501 -0.00000000000E+00  0.00000000000E+00  0.35574809518E+03  0.35574809518E+03  0.00000000000E+00 0.  1.
          1   -1    0    0  501    0  0.00000000000E+00 -0.00000000000E+00 -0.23345500691E+04  0.23345500691E+04  0.00000000000E+00 0. -1.
         23    2    1    2    0    0 -0.43692278941E+03  0.50867050773E+03 -0.56587529270E+03  0.88188327632E+03  0.88634399836E+02 0.  0.
        254    2    1    2    0    0  0.43692278941E+03 -0.50867050773E+03 -0.14129266812E+04  0.18084148880E+04  0.90794019139E+03 0.  0.
        -24    2    4    4    0    0 -0.69671487016E+01 -0.64668196469E+03 -0.90423463189E+03  0.11146554432E+04  0.81057898659E+02 0.  0.
         24    2    4    4    0    0  0.44388993811E+03  0.13801145696E+03 -0.50869204934E+03  0.69375944476E+03  0.80306455104E+02 0.  0.
         13    1    3    3    0    0 -0.39920365717E+01  0.18324513124E+02 -0.31378487873E+01  0.19015000191E+02  0.00000000000E+00 0. -1.
        -13    1    3    3    0    0 -0.43293075284E+03  0.49034599461E+03 -0.56273744391E+03  0.86286827613E+03  0.00000000000E+00 0.  1.
          4    1    6    6  502    0  0.22630432228E+03  0.28339015715E+02 -0.24518211073E+03  0.33485969228E+03  0.00000000000E+00 0. -1.
          3    1    5    5  503    0 -0.29357485877E+02 -0.10540931917E+03 -0.13429327931E+03  0.17322722480E+03  0.00000000000E+00 0. -1.
         -4    1    5    5    0  503  0.22390337176E+02 -0.54127264552E+03 -0.76994135258E+03  0.94142821840E+03  0.00000000000E+00 0.  1.
         -3    1    6    6    0  502  0.21758561583E+03  0.10967244124E+03 -0.26350993861E+03  0.35889975248E+03  0.00000000000E+00 0.  1.
<mgrwt>
<rscale>  0 0.18226483E+04</rscale>
<asrwt>0</asrwt>
<pdfrwt beam="1">  1        1 0.35916156E+00 0.18226483E+04</pdfrwt>
<pdfrwt beam="2">  1       -1 0.54730475E-01 0.18226483E+04</pdfrwt>
<totfact> 0.56017215E+00</totfact>
</mgrwt>
</event>
<event>
12    1  0.1541840E-007  0.4010583E+04  0.7818608E-02  0.8002415E-01
         -2   -1    0    0    0  501 -0.00000000000E+00  0.00000000000E+00  0.19729683486E+04  0.19729683486E+04  0.00000000000E+00 0.  1.
          2   -1    0    0  501    0  0.00000000000E+00 -0.00000000000E+00 -0.20381441496E+04  0.20381441496E+04  0.00000000000E+00 0. -1.
         23    2    1    2    0    0  0.84796223983E+03  0.11840404574E+04 -0.11962186153E+04  0.18869099194E+04  0.92186242229E+02 0.  0.
        254    2    1    2    0    0 -0.84796223983E+03 -0.11840404574E+04  0.11310428143E+04  0.21242025788E+04  0.10545079341E+04 0.  0.
        -24    2    4    4    0    0  0.15198211134E+03 -0.51806683579E+03  0.13909497508E+03  0.56407761727E+03  0.85699111437E+02 0.  0.
         24    2    4    4    0    0 -0.99994435117E+03 -0.66597362164E+03  0.99194783921E+03  0.15601249616E+04  0.81362213835E+02 0.  0.
         11    1    3    3    0    0  0.37238328974E+03  0.59793103524E+03 -0.58761739091E+03  0.91732493451E+03  0.00000000000E+00 0. -1.
        -11    1    3    3    0    0  0.47557895010E+03  0.58610942219E+03 -0.60860122440E+03  0.96958498488E+03  0.00000000000E+00 0.  1.
          4    1    6    6  502    0 -0.70427282661E+03 -0.49910550509E+03  0.67674751656E+03  0.10968562899E+04  0.00000000000E+00 0. -1.
          3    1    5    5  503    0  0.14857606578E+03 -0.50317190304E+03  0.14956928736E+03  0.54555273169E+03  0.00000000000E+00 0. -1.
         -4    1    5    5    0  503  0.34060455567E+01 -0.14894932755E+02 -0.10474312284E+02  0.18524885585E+02  0.00000000000E+00 0.  1.
         -3    1    6    6    0  502 -0.29567152456E+03 -0.16686811656E+03  0.31520032265E+03  0.46326867168E+03  0.00000000000E+00 0.  1.
<mgrwt>
<rscale>  0 0.40105829E+04</rscale>
<asrwt>0</asrwt>
<pdfrwt beam="1">  1        2 0.31356064E+00 0.40105829E+04</pdfrwt>
<pdfrwt beam="2">  1       -2 0.30353359E+00 0.40105829E+04</pdfrwt>
<totfact> 0.15163721E-01</totfact>
</mgrwt>
</event>
<event>
12    1  0.1541840E-007  0.2365864E+04  0.7818608E-02  0.8452395E-01
         -2   -1    0    0    0  501 -0.00000000000E+00  0.00000000000E+00  0.13617673942E+04  0.13617673942E+04  0.00000000000E+00 0.  1.
          2   -1    0    0  501    0  0.00000000000E+00 -0.00000000000E+00 -0.10275821625E+04  0.10275821625E+04  0.00000000000E+00 0. -1.
         23    2    1    2    0    0 -0.44123423783E+03 -0.77914775846E+03  0.61017309477E+03  0.10874044414E+04  0.91533225680E+02 0.  0.
        254    2    1    2    0    0  0.44123423783E+03  0.77914775846E+03 -0.27598786305E+03  0.13019451153E+04  0.90395403672E+03 0.  0.
        -24    2    4    4    0    0  0.48953413603E+03  0.93085035926E+03 -0.34727601832E+03  0.11102984865E+04  0.77691920936E+02 0.  0.
         24    2    4    4    0    0 -0.48299898192E+02 -0.15170260080E+03  0.71288155274E+02  0.19164662877E+03  0.79371720272E+02 0.  0.
         11    1    3    3    0    0 -0.37962109856E+03 -0.64789894635E+03  0.54814090192E+03  0.92970085056E+03  0.00000000000E+00 0. -1.
        -11    1    3    3    0    0 -0.61613139269E+02 -0.13124881210E+03  0.62032192845E+02  0.15770359082E+03  0.00000000000E+00 0.  1.
          2    1    6    6  502    0 -0.13235496356E+02  0.18374388313E+01 -0.77354831796E+01  0.15439956129E+02  0.00000000000E+00 0. -1.
          3    1    5    5  503    0 -0.21617850906E+01  0.24755456304E+01  0.11481991093E+01  0.34813793446E+01  0.00000000000E+00 0. -1.
         -4    1    5    5    0  503  0.49169592112E+03  0.92837481363E+03 -0.34842421743E+03  0.11068171072E+04  0.00000000000E+00 0.  1.
         -1    1    6    6    0  502 -0.35064401836E+02 -0.15354003964E+03  0.79023638454E+02  0.17620667264E+03  0.00000000000E+00 0.  1.
<mgrwt>
<rscale>  0 0.23658638E+04</rscale>
<asrwt>0</asrwt>
<pdfrwt beam="1">  1        2 0.15808956E+00 0.23658638E+04</pdfrwt>
<pdfrwt beam="2">  1       -2 0.20950268E+00 0.23658638E+04</pdfrwt>
<totfact> 0.25153779E+00</totfact>
</mgrwt>
</event>
<event>
12    1  0.1541840E-007  0.1580802E+04  0.7818608E-02  0.8832430E-01
         -2   -1    0    0    0  501 -0.00000000000E+00  0.00000000000E+00  0.25500165957E+03  0.25500165957E+03  0.00000000000E+00 0.  1.
          2   -1    0    0  501    0  0.00000000000E+00 -0.00000000000E+00 -0.24499207013E+04  0.24499207013E+04  0.00000000000E+00 0. -1.
         23    2    1    2    0    0  0.40158590375E+03 -0.34447305660E+03 -0.65550756346E+03  0.84742192049E+03  0.92199895613E+02 0.  0.
        254    2    1    2    0    0 -0.40158590375E+03  0.34447305660E+03 -0.15394114783E+04  0.18575004404E+04  0.89475542007E+03 0.  0.
        -24    2    4    4    0    0 -0.23104249396E+03 -0.28838557897E+03 -0.61527113269E+03  0.72187857818E+03  0.77480570115E+02 0.  0.
         24    2    4    4    0    0 -0.17054340978E+03  0.63285863557E+03 -0.92414034557E+03  0.11356218622E+04  0.77501795605E+02 0.  0.
         11    1    3    3    0    0  0.11612929424E+03 -0.10436947083E+03 -0.13105313785E+03  0.20384779705E+03  0.00000000000E+00 0.  1.
        -11    1    3    3    0    0  0.28545660951E+03 -0.24010358577E+03 -0.52445442561E+03  0.64357412344E+03  0.00000000000E+00 0. -1.
          2    1    6    6  502    0 -0.11065587448E+03  0.43591192389E+03 -0.69258648780E+03  0.82579656758E+03  0.00000000000E+00 0. -1.
          1    1    5    5  503    0 -0.15534389053E+03 -0.17016309513E+03 -0.31358876428E+03  0.38913380263E+03  0.00000000000E+00 0. -1.
         -2    1    5    5    0  503 -0.75698603437E+02 -0.11822248383E+03 -0.30168236841E+03  0.33274477555E+03  0.00000000000E+00 0.  1.
         -1    1    6    6    0  502 -0.59887535310E+02  0.19694671168E+03 -0.23155385777E+03  0.30982529460E+03  0.00000000000E+00 0.  1.
<mgrwt>
<rscale>  0 0.15808021E+04</rscale>
<asrwt>0</asrwt>
<pdfrwt beam="1">  1        2 0.37691089E+00 0.15808021E+04</pdfrwt>
<pdfrwt beam="2">  1       -2 0.39231023E-01 0.15808021E+04</pdfrwt>
<totfact> 0.21996988E+01</totfact>
</mgrwt>
</event>
<event>
12    1  0.1541840E-007  0.1063590E+04  0.7818608E-02  0.9241425E-01
         -1   -1    0    0    0  501 -0.00000000000E+00  0.00000000000E+00  0.21735850495E+04  0.21735850495E+04  0.00000000000E+00 0.  1.
          1   -1    0    0  501    0  0.00000000000E+00 -0.00000000000E+00 -0.13011037041E+03  0.13011037041E+03  0.00000000000E+00 0. -1.
         23    2    1    2    0    0  0.80698887484E+02  0.77669158420E+02  0.31026374330E+03  0.34855248665E+03  0.11260744619E+03 0.  0.
        254    2    1    2    0    0 -0.80698887484E+02 -0.77669158420E+02  0.17332109358E+04  0.19551429333E+04  0.89778557179E+03 0.  0.
        -24    2    4    4    0    0 -0.70298580343E+02 -0.47972334981E+03  0.99798788672E+03  0.11130654489E+04  0.88648117907E+02 0.  0.
         24    2    4    4    0    0 -0.10400307141E+02  0.40205419139E+03  0.73522304911E+03  0.84207748436E+03  0.82376079807E+02 0.  0.
         13    1    3    3    0    0  0.21871818898E+02  0.65875572132E+02  0.26348328009E+03  0.27247276259E+03  0.00000000000E+00 0.  1.
        -13    1    3    3    0    0  0.58827068587E+02  0.11793586287E+02  0.46780463202E+02  0.76079724062E+02  0.00000000000E+00 0. -1.
          2    1    6    6  502    0 -0.15445248859E+02  0.26915422407E+03  0.40982521004E+03  0.49054995141E+03  0.00000000000E+00 0. -1.
          3    1    5    5  503    0 -0.97910064160E+01 -0.33604760044E+03  0.71067056020E+03  0.78617841404E+03  0.00000000000E+00 0. -1.
         -4    1    5    5    0  503 -0.60507573927E+02 -0.14367574937E+03  0.28731732652E+03  0.32688703489E+03  0.00000000000E+00 0.  1.
         -1    1    6    6    0  502  0.50449417176E+01  0.13289996733E+03  0.32539783906E+03  0.35152753295E+03  0.00000000000E+00 0.  1.
<mgrwt>
<rscale>  0 0.10635901E+04</rscale>
<asrwt>0</asrwt>
<pdfrwt beam="1">  1        1 0.20016982E-01 0.10635901E+04</pdfrwt>
<pdfrwt beam="2">  1       -1 0.33439767E+00 0.10635901E+04</pdfrwt>
<totfact> 0.52323415E+00</totfact>
</mgrwt>
</event>
<event>
12    1  0.1541840E-007  0.1518915E+04  0.7818608E-02  0.8871971E-01
          2   -1    0    0  501    0  0.00000000000E+00  0.00000000000E+00  0.12232090271E+04  0.12232090271E+04  0.00000000000E+00 0. -1.
         -2   -1    0    0    0  501 -0.00000000000E+00 -0.00000000000E+00 -0.47152666832E+03  0.47152666832E+03  0.00000000000E+00 0.  1.
         23    2    1    2    0    0 -0.13322975335E+03 -0.16670780525E+03 -0.24496866185E+03  0.33745580836E+03  0.91242083493E+02 0.  0.
        254    2    1    2    0    0  0.13322975335E+03  0.16670780525E+03  0.99665102063E+03  0.13572798871E+04  0.89630004764E+03 0.  0.
        -24    2    4    4    0    0 -0.82970048360E+02  0.44054499981E+03  0.22672147103E+03  0.50834531042E+03  0.77771482038E+02 0.  0.
         24    2    4    4    0    0  0.21619980171E+03 -0.27383719457E+03  0.76992954960E+03  0.84893457664E+03  0.78544514037E+02 0.  0.
         11    1    3    3    0    0 -0.86601356259E+02 -0.37713791153E+02 -0.89417953960E+02  0.13006804158E+03  0.00000000000E+00 0.  1.
        -11    1    3    3    0    0 -0.46628397095E+02 -0.12899401409E+03 -0.15555070789E+03  0.20738776678E+03  0.00000000000E+00 0. -1.
          2    1    6    6  502    0  0.21733229467E+03 -0.26693358191E+03  0.71480823215E+03  0.79337108103E+03  0.00000000000E+00 0. -1.
          1    1    5    5  503    0 -0.83396984765E+02  0.43461588914E+03  0.20854379997E+03  0.48922034367E+03  0.00000000000E+00 0. -1.
         -2    1    5    5    0  503  0.42693640541E+00  0.59291106770E+01  0.18177671057E+02  0.19124966749E+02  0.00000000000E+00 0.  1.
         -1    1    6    6    0  502 -0.11324929551E+01 -0.69036126559E+01  0.55121317445E+02  0.55563495615E+02  0.00000000000E+00 0.  1.
<mgrwt>
<rscale>  0 0.15189150E+04</rscale>
<asrwt>0</asrwt>
<pdfrwt beam="1">  1        2 0.18818600E+00 0.15189150E+04</pdfrwt>
<pdfrwt beam="2">  1       -2 0.72542565E-01 0.15189150E+04</pdfrwt>
<totfact> 0.30428863E+01</totfact>
</mgrwt>
</event>
<event>
12    1  0.1541840E-007  0.3051962E+04  0.7818608E-02  0.8229047E-01
         -2   -1    0    0    0  501 -0.00000000000E+00  0.00000000000E+00  0.65894528093E+03  0.65894528093E+03  0.00000000000E+00 0. -1.
          2   -1    0    0  501    0  0.00000000000E+00 -0.00000000000E+00 -0.35338563129E+04  0.35338563129E+04  0.00000000000E+00 0.  1.
         23    2    1    2    0    0  0.54612183805E+03  0.40686796864E+03 -0.29856538170E+04  0.30636514026E+04  0.89669366948E+02 0.  0.
        254    2    1    2    0    0 -0.54612183805E+03 -0.40686796864E+03  0.11074278501E+03  0.11291501913E+04  0.89382637253E+03 0.  0.
        -24    2    4    4    0    0 -0.55587490288E+03 -0.27781882828E+03  0.44012241872E+03  0.76571963978E+03  0.80240976328E+02 0.  0.
         24    2    4    4    0    0  0.97530648339E+01 -0.12904914036E+03 -0.32937963372E+03  0.36343055154E+03  0.82716502500E+02 0.  0.
         13    1    3    3    0    0  0.12143547498E+03  0.94691486830E+02 -0.52166573058E+03  0.54391928327E+03  0.00000000000E+00 0. -1.
        -13    1    3    3    0    0  0.42468636307E+03  0.31217648181E+03 -0.24639880864E+04  0.25197321193E+04  0.00000000000E+00 0.  1.
          2    1    6    6  502    0 -0.15785939878E+02 -0.76850329748E+02 -0.10165983710E+03  0.12841297271E+03  0.00000000000E+00 0. -1.
          1    1    5    5  503    0 -0.19640083822E+02 -0.25075950227E+02  0.37030487773E+02  0.48844582064E+02  0.00000000000E+00 0. -1.
         -2    1    5    5    0  503 -0.53623481906E+03 -0.25274287805E+03  0.40309193095E+03  0.71687505772E+03  0.00000000000E+00 0.  1.
         -1    1    6    6    0  502  0.25539004711E+02 -0.52198810613E+02 -0.22771979661E+03  0.23501757883E+03  0.00000000000E+00 0.  1.
<mgrwt>
<rscale>  0 0.30519620E+04</rscale>
<asrwt>0</asrwt>
<pdfrwt beam="1">  1        2 0.54367022E+00 0.30519620E+04</pdfrwt>
<pdfrwt beam="2">  1       -2 0.10137619E+00 0.30519620E+04</pdfrwt>
<totfact> 0.52399606E-01</totfact>
</mgrwt>
</event>
<event>
12    1  0.1541840E-007  0.1720119E+04  0.7818608E-02  0.8749972E-01
         -2   -1    0    0    0  501 -0.00000000000E+00  0.00000000000E+00  0.66877091865E+03  0.66877091865E+03  0.00000000000E+00 0.  1.
          2   -1    0    0  501    0  0.00000000000E+00 -0.00000000000E+00 -0.11060625912E+04  0.11060625912E+04  0.00000000000E+00 0. -1.
         23    2    1    2    0    0 -0.12971099286E+03  0.60508723157E+03 -0.15383244183E+03  0.64445190170E+03  0.93264859240E+02 0.  0.
        254    2    1    2    0    0  0.12971099286E+03 -0.60508723157E+03 -0.28345923074E+03  0.11303816082E+04  0.90247323791E+03 0.  0.
        -24    2    4    4    0    0  0.31368883422E+03 -0.56739246394E+02  0.18922522289E+03  0.37893648730E+03  0.78528018144E+02 0.  0.
         24    2    4    4    0    0 -0.18397784137E+03 -0.54834798517E+03 -0.47268445363E+03  0.75144512088E+03  0.81889059298E+02 0.  0.
         11    1    3    3    0    0  0.26823018507E+01  0.19221724038E+03 -0.45670963943E+02  0.19758668779E+03  0.00000000000E+00 0. -1.
        -11    1    3    3    0    0 -0.13239329471E+03  0.41286999119E+03 -0.10816147789E+03  0.44686521391E+03  0.00000000000E+00 0.  1.
          2    1    6    6  502    0 -0.15253754105E+03 -0.51774000162E+03 -0.42827859618E+03  0.68901739213E+03  0.00000000000E+00 0. -1.
          3    1    5    5  503    0  0.31752836582E+03 -0.56626098446E+02  0.19084241971E+03  0.37476873841E+03  0.00000000000E+00 0. -1.
         -4    1    5    5    0  503 -0.38395315922E+01 -0.11314794789E+00 -0.16171968250E+01  0.41677488979E+01  0.00000000000E+00 0.  1.
         -1    1    6    6    0  502 -0.31440300322E+02 -0.30607983551E+02 -0.44405857445E+02  0.62427728749E+02  0.00000000000E+00 0.  1.
<mgrwt>
<rscale>  0 0.17201192E+04</rscale>
<asrwt>0</asrwt>
<pdfrwt beam="1">  1        2 0.17016347E+00 0.17201192E+04</pdfrwt>
<pdfrwt beam="2">  1       -2 0.10288784E+00 0.17201192E+04</pdfrwt>
<totfact> 0.15840172E+01</totfact>
</mgrwt>
</event>
<event>
12    1  0.1541840E-007  0.1930591E+04  0.7818608E-02  0.8639777E-01
         -1   -1    0    0    0  501 -0.00000000000E+00  0.00000000000E+00  0.42543956476E+03  0.42543956476E+03  0.00000000000E+00 0.  1.
          1   -1    0    0  501    0  0.00000000000E+00 -0.00000000000E+00 -0.21901947390E+04  0.21901947390E+04  0.00000000000E+00 0. -1.
         23    2    1    2    0    0  0.38033076686E+02 -0.34033051402E+03 -0.16016778039E+04  0.16404978275E+04  0.92682043128E+02 0.  0.
        254    2    1    2    0    0 -0.38033076686E+02  0.34033051402E+03 -0.16307737038E+03  0.97513647622E+03  0.89834600507E+03 0.  0.
        -24    2    4    4    0    0  0.39690169272E+03  0.65875163872E+01 -0.10450976907E+03  0.41836127533E+03  0.80805419407E+02 0.  0.
         24    2    4    4    0    0 -0.43493476941E+03  0.33374299763E+03 -0.58567601309E+02  0.55677520089E+03  0.77561706404E+02 0.  0.
         11    1    3    3    0    0  0.71956682773E+01  0.34100486854E+01 -0.68220690227E+02  0.68683831060E+02  0.00000000000E+00 0.  1.
        -11    1    3    3    0    0  0.30837408409E+02 -0.34374056271E+03 -0.15334571136E+04  0.15718139965E+04  0.00000000000E+00 0. -1.
          4    1    6    6  502    0 -0.35411124742E+03  0.25049440205E+03 -0.18944888851E+02  0.43416716806E+03  0.00000000000E+00 0. -1.
          3    1    5    5  503    0  0.77428231446E+02  0.22859580484E+02 -0.46779802059E+02  0.93306169814E+02  0.00000000000E+00 0. -1.
         -4    1    5    5    0  503  0.31947346127E+03 -0.16272064097E+02 -0.57729967012E+02  0.32505510551E+03  0.00000000000E+00 0.  1.
         -3    1    6    6    0  502 -0.80823521983E+02  0.83248595582E+02 -0.39622712459E+02  0.12260803283E+03  0.00000000000E+00 0.  1.
<mgrwt>
<rscale>  0 0.19305911E+04</rscale>
<asrwt>0</asrwt>
<pdfrwt beam="1">  1        1 0.33695303E+00 0.19305911E+04</pdfrwt>
<pdfrwt beam="2">  1       -1 0.65452242E-01 0.19305911E+04</pdfrwt>
<totfact> 0.48859801E+00</totfact>
</mgrwt>
</event>
<event>
12    1  0.1541840E-007  0.2334621E+04  0.7818608E-02  0.8464394E-01
          2   -1    0    0  501    0  0.00000000000E+00  0.00000000000E+00  0.11656746418E+04  0.11656746418E+04  0.00000000000E+00 0. -1.
         -2   -1    0    0    0  501 -0.00000000000E+00 -0.00000000000E+00 -0.11689490045E+04  0.11689490045E+04  0.00000000000E+00 0.  1.
         23    2    1    2    0    0 -0.83465731532E+02  0.31185493282E+03  0.93529287402E+03  0.99380478925E+03  0.93033174031E+02 0.  0.
        254    2    1    2    0    0  0.83465731532E+02 -0.31185493282E+03 -0.93856723675E+03  0.13408188570E+04  0.90148029487E+03 0.  0.
        -24    2    4    4    0    0 -0.16491421357E+02  0.15445776114E+03 -0.82618450520E+03  0.84446205060E+03  0.80038436532E+02 0.  0.
         24    2    4    4    0    0  0.99957152889E+02 -0.46631269396E+03 -0.11238273155E+03  0.49635680643E+03  0.79380350133E+02 0.  0.
         13    1    3    3    0    0 -0.16415219603E+02 -0.28007698826E+00  0.55517823599E+02  0.57894443731E+02  0.00000000000E+00 0.  1.
        -13    1    3    3    0    0 -0.67050511929E+02  0.31213500981E+03  0.87977505043E+03  0.93591034552E+03  0.00000000000E+00 0. -1.
          2    1    6    6  502    0  0.31570597257E+02 -0.95953992415E+02 -0.56123965240E+02  0.11555851654E+03  0.00000000000E+00 0. -1.
          1    1    5    5  503    0  0.43497221827E+01  0.39702843356E+02 -0.82185082745E+02  0.91376275255E+02  0.00000000000E+00 0. -1.
         -2    1    5    5    0  503 -0.20841143540E+02  0.11475491778E+03 -0.74399942246E+03  0.75308577535E+03  0.00000000000E+00 0.  1.
         -1    1    6    6    0  502  0.68386555632E+02 -0.37035870154E+03 -0.56258766306E+02  0.38079828989E+03  0.00000000000E+00 0.  1.
<mgrwt>
<rscale>  0 0.23346214E+04</rscale>
<asrwt>0</asrwt>
<pdfrwt beam="1">  1        2 0.17933456E+00 0.23346214E+04</pdfrwt>
<pdfrwt beam="2">  1       -2 0.17983831E+00 0.23346214E+04</pdfrwt>
<totfact> 0.32644707E+00</totfact>
</mgrwt>
</event>
<event>
12    1  0.1541840E-007  0.1652569E+04  0.7818608E-02  0.8788888E-01
         -1   -1    0    0    0  501 -0.00000000000E+00  0.00000000000E+00  0.27442944485E+03  0.27442944485E+03  0.00000000000E+00 0.  1.
          1   -1    0    0  501    0  0.00000000000E+00 -0.00000000000E+00 -0.24878738004E+04  0.24878738004E+04  0.00000000000E+00 0. -1.
         23    2    1    2    0    0 -0.27921746249E+03  0.68740852036E+02 -0.15952291456E+04  0.16234361357E+04  0.90006463509E+02 0.  0.
        254    2    1    2    0    0  0.27921746249E+03 -0.68740852036E+02 -0.61821520990E+03  0.11388671095E+04  0.91221738163E+03 0.  0.
        -24    2    4    4    0    0 -0.10216790939E+03 -0.10071690830E+03 -0.71676224495E+03  0.73552269781E+03  0.81629320019E+02 0.  0.
         24    2    4    4    0    0  0.38138537189E+03  0.31976056264E+02  0.98547035052E+02  0.40334441173E+03  0.80609715859E+02 0.  0.
         13    1    3    3    0    0 -0.62902834878E+01  0.12794075815E+02 -0.20910881947E+03  0.20959426143E+03  0.00000000000E+00 0.  1.
        -13    1    3    3    0    0 -0.27292717901E+03  0.55946776221E+02 -0.13861203261E+04  0.14138418742E+04  0.00000000000E+00 0. -1.
          2    1    6    6  502    0  0.26322062065E+03 -0.10635209922E+02  0.47142803524E+02  0.26762034068E+03  0.00000000000E+00 0. -1.
          3    1    5    5  503    0 -0.10681968799E+03 -0.98926979235E+02 -0.71578725772E+03  0.73044396861E+03  0.00000000000E+00 0. -1.
         -4    1    5    5    0  503  0.46517786005E+01 -0.17899290657E+01 -0.97498722646E+00  0.50787292013E+01  0.00000000000E+00 0.  1.
         -1    1    6    6    0  502  0.11816475124E+03  0.42611266186E+02  0.51404231528E+02  0.13572407104E+03  0.00000000000E+00 0.  1.
<mgrwt>
<rscale>  0 0.16525687E+04</rscale>
<asrwt>0</asrwt>
<pdfrwt beam="1">  1        1 0.38274983E+00 0.16525687E+04</pdfrwt>
<pdfrwt beam="2">  1       -1 0.42219913E-01 0.16525687E+04</pdfrwt>
<totfact> 0.72890914E+00</totfact>
</mgrwt>
</event>
<event>
12    1  0.1541840E-007  0.2326089E+04  0.7818608E-02  0.8467705E-01
          1   -1    0    0  501    0  0.00000000000E+00  0.00000000000E+00  0.24856069672E+04  0.24856069672E+04  0.00000000000E+00 0. -1.
         -1   -1    0    0    0  501 -0.00000000000E+00 -0.00000000000E+00 -0.54420188447E+03  0.54420188447E+03  0.00000000000E+00 0.  1.
         23    2    1    2    0    0  0.77802378136E+03 -0.35688236299E+03  0.14637194162E+04  0.16981157565E+04  0.91850789502E+02 0.  0.
        254    2    1    2    0    0 -0.77802378136E+03  0.35688236299E+03  0.47768566655E+03  0.13316930952E+04  0.90140827516E+03 0.  0.
        -24    2    4    4    0    0 -0.34695142070E+03  0.16619856280E+03  0.70119872409E+03  0.80390460974E+03  0.81152451024E+02 0.  0.
         24    2    4    4    0    0 -0.43107236067E+03  0.19068380019E+03 -0.22351305754E+03  0.52778848550E+03  0.80118080075E+02 0.  0.
         11    1    3    3    0    0  0.43571066321E+03 -0.15351638106E+03  0.82149413221E+03  0.94247741116E+03  0.00000000000E+00 0. -1.
        -11    1    3    3    0    0  0.34231311815E+03 -0.20336598193E+03  0.64222528403E+03  0.75563834531E+03  0.00000000000E+00 0.  1.
          4    1    6    6  502    0 -0.69692336298E+02  0.10639117789E+02 -0.10444397485E+02  0.71269193940E+02  0.00000000000E+00 0. -1.
          1    1    5    5  503    0 -0.39293176301E+02  0.49020217291E+02  0.91354661706E+02  0.11087204166E+03  0.00000000000E+00 0. -1.
         -4    1    5    5    0  503 -0.30765824439E+03  0.11717834551E+03  0.60984406238E+03  0.69303256808E+03  0.00000000000E+00 0.  1.
         -3    1    6    6    0  502 -0.36138002437E+03  0.18004468240E+03 -0.21306866005E+03  0.45651929156E+03  0.00000000000E+00 0.  1.
<mgrwt>
<rscale>  0 0.23260886E+04</rscale>
<asrwt>0</asrwt>
<pdfrwt beam="1">  1        1 0.38240107E+00 0.23260886E+04</pdfrwt>
<pdfrwt beam="2">  1       -1 0.83723368E-01 0.23260886E+04</pdfrwt>
<totfact> 0.17684351E+00</totfact>
</mgrwt>
</event>
<event>
12    1  0.1541840E-007  0.3118408E+04  0.7818608E-02  0.8210704E-01
          2   -1    0    0  501    0  0.00000000000E+00  0.00000000000E+00  0.37836643500E+04  0.37836643500E+04  0.00000000000E+00 0.  1.
         -2   -1    0    0    0  501 -0.00000000000E+00 -0.00000000000E+00 -0.64252978268E+03  0.64252978268E+03  0.00000000000E+00 0. -1.
         23    2    1    2    0    0 -0.94068668948E+02  0.11787622670E+04  0.25653094850E+04  0.28261894292E+04  0.90578912147E+02 0.  0.
        254    2    1    2    0    0  0.94068668948E+02 -0.11787622670E+04  0.57582508230E+03  0.16000047034E+04  0.91110434583E+03 0.  0.
        -24    2    4    4    0    0  0.17066100808E+03 -0.11827586147E+03 -0.18609346267E+03  0.28947250583E+03  0.77776575495E+02 0.  0.
         24    2    4    4    0    0 -0.76592339132E+02 -0.10604864056E+04  0.76191854497E+03  0.13105321976E+04  0.80479618669E+02 0.  0.
         13    1    3    3    0    0 -0.78280431005E+02  0.11025818583E+04  0.24399443182E+04  0.26786457130E+04  0.00000000000E+00 0.  1.
        -13    1    3    3    0    0 -0.15788237943E+02  0.76180408768E+02  0.12536516680E+03  0.14754371618E+03  0.00000000000E+00 0. -1.
          2    1    6    6  502    0 -0.33550731580E+02 -0.31408671351E+03  0.18388920716E+03  0.36550151258E+03  0.00000000000E+00 0. -1.
          1    1    5    5  503    0  0.21949874584E+02 -0.40222386431E+02 -0.11565053329E+02  0.47258732769E+02  0.00000000000E+00 0. -1.
         -2    1    5    5    0  503  0.14871113350E+03 -0.78053475035E+02 -0.17452840935E+03  0.24221377306E+03  0.00000000000E+00 0.  1.
         -1    1    6    6    0  502 -0.43041607551E+02 -0.74639969205E+03  0.57802933782E+03  0.94503068503E+03  0.00000000000E+00 0.  1.
<mgrwt>
<rscale>  0 0.31184079E+04</rscale>
<asrwt>0</asrwt>
<pdfrwt beam="1">  1        2 0.58210219E+00 0.31184079E+04</pdfrwt>
<pdfrwt beam="2">  1       -2 0.98850738E-01 0.31184079E+04</pdfrwt>
<totfact> 0.36323282E-01</totfact>
</mgrwt>
</event>
<event>
12    1  0.1541840E-007  0.1413199E+04  0.7818608E-02  0.8944319E-01
         -1   -1    0    0    0  501 -0.00000000000E+00  0.00000000000E+00  0.14173832391E+04  0.14173832391E+04  0.00000000000E+00 0.  1.
          1   -1    0    0  501    0  0.00000000000E+00 -0.00000000000E+00 -0.35225679120E+03  0.35225679120E+03  0.00000000000E+00 0. -1.
         23    2    1    2    0    0 -0.34832309988E+03  0.10614598508E+03  0.77928421721E+02  0.38260165891E+03  0.87836429940E+02 0.  0.
        254    2    1    2    0    0  0.34832309988E+03 -0.10614598508E+03  0.98719802613E+03  0.13870383714E+04  0.90372537241E+03 0.  0.
        -24    2    4    4    0    0  0.40484104598E+03 -0.21307686407E+03  0.83571984238E+02  0.47160253054E+03  0.78272905592E+02 0.  0.
         24    2    4    4    0    0 -0.56517946096E+02  0.10693087899E+03  0.90362604190E+03  0.91543584081E+03  0.82790482166E+02 0.  0.
         11    1    3    3    0    0 -0.23305542788E+03  0.32078449251E+02  0.69613589964E+02  0.24533632279E+03  0.00000000000E+00 0. -1.
        -11    1    3    3    0    0 -0.11526767200E+03  0.74067535829E+02  0.83148317564E+01  0.13726533612E+03  0.00000000000E+00 0.  1.
          2    1    6    6  502    0 -0.39128715164E+02  0.10530802420E+03  0.54881730692E+03  0.56019753006E+03  0.00000000000E+00 0. -1.
          3    1    5    5  503    0  0.63154668257E+02 -0.68111449080E+02  0.13086777258E+02  0.93802693764E+02  0.00000000000E+00 0. -1.
         -4    1    5    5    0  503  0.34168637772E+03 -0.14496541499E+03  0.70485206980E+02  0.37779983678E+03  0.00000000000E+00 0.  1.
         -1    1    6    6    0  502 -0.17389230932E+02  0.16228547936E+01  0.35480873497E+03  0.35523831075E+03  0.00000000000E+00 0.  1.
<mgrwt>
<rscale>  0 0.14131990E+04</rscale>
<asrwt>0</asrwt>
<pdfrwt beam="1">  1        1 0.54193353E-01 0.14131990E+04</pdfrwt>
<pdfrwt beam="2">  1       -1 0.21805896E+00 0.14131990E+04</pdfrwt>
<totfact> 0.78453111E+00</totfact>
</mgrwt>
</event>
<event>
12    1  0.1541840E-007  0.1429453E+04  0.7818608E-02  0.8932771E-01
         -2   -1    0    0    0  501 -0.00000000000E+00  0.00000000000E+00  0.37056682258E+03  0.37056682258E+03  0.00000000000E+00 0.  1.
          2   -1    0    0  501    0  0.00000000000E+00 -0.00000000000E+00 -0.13785195914E+04  0.13785195914E+04  0.00000000000E+00 0. -1.
         23    2    1    2    0    0 -0.29928943867E+03 -0.14644248040E+03  0.14423129983E+02  0.34585655137E+03  0.91592353860E+02 0.  0.
        254    2    1    2    0    0  0.29928943867E+03  0.14644248040E+03 -0.10223758988E+04  0.14032298626E+04  0.90154423113E+03 0.  0.
        -24    2    4    4    0    0  0.11023235028E+03  0.22948403802E+03 -0.11274350461E+04  0.11583716049E+04  0.76817297141E+02 0.  0.
         24    2    4    4    0    0  0.18905708838E+03 -0.83041557623E+02  0.10505914726E+03  0.24485825773E+03  0.79244299456E+02 0.  0.
         13    1    3    3    0    0 -0.50801048505E+02 -0.49853448364E+02  0.33314615742E+02  0.78587381080E+02  0.00000000000E+00 0.  1.
        -13    1    3    3    0    0 -0.24848839016E+03 -0.96589032037E+02 -0.18891485758E+02  0.26726917029E+03  0.00000000000E+00 0. -1.
          2    1    6    6  502    0  0.16304416653E+03 -0.64249552911E+02  0.51911304466E+02  0.18277359990E+03  0.00000000000E+00 0. -1.
          1    1    5    5  503    0  0.84734021306E+02  0.18842336397E+03 -0.10177755823E+04  0.10385327893E+04  0.00000000000E+00 0. -1.
         -2    1    5    5    0  503  0.25498328979E+02  0.41060674049E+02 -0.10965946376E+03  0.11983881561E+03  0.00000000000E+00 0.  1.
         -1    1    6    6    0  502  0.26012921847E+02 -0.18792004712E+02  0.53147842790E+02  0.62084657826E+02  0.00000000000E+00 0.  1.
<mgrwt>
<rscale>  0 0.14294525E+04</rscale>
<asrwt>0</asrwt>
<pdfrwt beam="1">  1        2 0.21207993E+00 0.14294525E+04</pdfrwt>
<pdfrwt beam="2">  1       -2 0.57010281E-01 0.14294525E+04</pdfrwt>
<totfact> 0.41699681E+01</totfact>
</mgrwt>
</event>
<event>
12    1  0.1541840E-007  0.2705496E+04  0.7818608E-02  0.8333224E-01
         -2   -1    0    0    0  501 -0.00000000000E+00  0.00000000000E+00  0.51938089450E+03  0.51938089450E+03  0.00000000000E+00 0.  1.
          2   -1    0    0  501    0  0.00000000000E+00 -0.00000000000E+00 -0.35232849215E+04  0.35232849215E+04  0.00000000000E+00 0. -1.
         23    2    1    2    0    0 -0.43481882864E+03 -0.10246447038E+04 -0.71582538304E+03  0.13267859504E+04  0.94819811025E+02 0.  0.
        254    2    1    2    0    0  0.43481882864E+03  0.10246447038E+04 -0.22880786440E+04  0.27158798656E+04  0.94959748349E+03 0.  0.
        -24    2    4    4    0    0  0.22868739952E+03 -0.10742385852E+02 -0.10925505221E+04  0.11189473860E+04  0.77222300875E+02 0.  0.
         24    2    4    4    0    0  0.20613142911E+03  0.10353870896E+04 -0.11955281219E+04  0.15969324796E+04  0.79932864046E+02 0.  0.
         13    1    3    3    0    0 -0.34617581785E+03 -0.81791610463E+03 -0.52433712675E+03  0.10313844451E+04  0.00000000000E+00 0. -1.
        -13    1    3    3    0    0 -0.88643010785E+02 -0.20672859913E+03 -0.19148825630E+03  0.29540150535E+03  0.00000000000E+00 0.  1.
          2    1    6    6  502    0  0.18969230705E+03  0.98393753479E+03 -0.11568716709E+04  0.15305124327E+04  0.00000000000E+00 0. -1.
          1    1    5    5  503    0  0.21747888172E+03  0.54259898823E+01 -0.10464631507E+04  0.10688365783E+04  0.00000000000E+00 0. -1.
         -2    1    5    5    0  503  0.11208517802E+02 -0.16168375734E+02 -0.46087371386E+02  0.50110807681E+02  0.00000000000E+00 0.  1.
         -1    1    6    6    0  502  0.16439122061E+02  0.51449554829E+02 -0.38656450962E+02  0.66420046877E+02  0.00000000000E+00 0.  1.
<mgrwt>
<rscale>  0 0.27054958E+04</rscale>
<asrwt>0</asrwt>
<pdfrwt beam="1">  1        2 0.54204385E+00 0.27054958E+04</pdfrwt>
<pdfrwt beam="2">  1       -2 0.79904751E-01 0.27054958E+04</pdfrwt>
<totfact> 0.95177037E-01</totfact>
</mgrwt>
</event>
<event>
12    1  0.1541840E-007  0.1404969E+04  0.7818608E-02  0.8950229E-01
         -2   -1    0    0    0  501 -0.00000000000E+00  0.00000000000E+00  0.55586877689E+03  0.55586877689E+03  0.00000000000E+00 0. -1.
          2   -1    0    0  501    0  0.00000000000E+00 -0.00000000000E+00 -0.88777183424E+03  0.88777183424E+03  0.00000000000E+00 0.  1.
         23    2    1    2    0    0  0.15908406306E+03 -0.70261176402E+02  0.26199221742E+03  0.32780858036E+03  0.92596821399E+02 0.  0.
        254    2    1    2    0    0 -0.15908406306E+03  0.70261176402E+02 -0.59389527478E+03  0.11158320308E+04  0.92850694745E+03 0.  0.
        -24    2    4    4    0    0 -0.39002100330E+03 -0.26271043430E+03 -0.13028866388E+03  0.49488339248E+03  0.82469878850E+02 0.  0.
         24    2    4    4    0    0  0.23093694023E+03  0.33297161070E+03 -0.46360661090E+03  0.62094863829E+03  0.80275512041E+02 0.  0.
         11    1    3    3    0    0  0.53717670830E+02 -0.21054947729E+02  0.23163763897E+02  0.62172815130E+02  0.00000000000E+00 0.  1.
        -11    1    3    3    0    0  0.10536639223E+03 -0.49206228673E+02  0.23882845353E+03  0.26563576523E+03  0.00000000000E+00 0. -1.
          2    1    6    6  502    0  0.54111726353E+02  0.73884167100E+02 -0.16028595909E+03  0.18460373170E+03  0.00000000000E+00 0. -1.
          1    1    5    5  503    0 -0.15898214448E+02 -0.46259812273E+01  0.98469931649E+01  0.19264376432E+02  0.00000000000E+00 0. -1.
         -2    1    5    5    0  503 -0.37412278885E+03 -0.25808445307E+03 -0.14013565704E+03  0.47561901605E+03  0.00000000000E+00 0.  1.
         -1    1    6    6    0  502  0.17682521388E+03  0.25908744360E+03 -0.30332065181E+03  0.43634490659E+03  0.00000000000E+00 0.  1.
<mgrwt>
<rscale>  0 0.14049692E+04</rscale>
<asrwt>0</asrwt>
<pdfrwt beam="1">  1        2 0.13658028E+00 0.14049692E+04</pdfrwt>
<pdfrwt beam="2">  1       -2 0.85518274E-01 0.14049692E+04</pdfrwt>
<totfact> 0.34567586E+01</totfact>
</mgrwt>
</event>
<event>
12    1  0.1541840E-007  0.2648435E+04  0.7818608E-02  0.8351932E-01
         -1   -1    0    0    0  501 -0.00000000000E+00  0.00000000000E+00  0.10899484224E+04  0.10899484224E+04  0.00000000000E+00 0.  1.
          1   -1    0    0  501    0  0.00000000000E+00 -0.00000000000E+00 -0.16088398911E+04  0.16088398911E+04  0.00000000000E+00 0. -1.
         23    2    1    2    0    0  0.10207802411E+04 -0.42912916983E+03  0.15746897920E+03  0.11222714148E+04  0.92479749327E+02 0.  0.
        254    2    1    2    0    0 -0.10207802411E+04  0.42912916983E+03 -0.67636044787E+03  0.15765168987E+04  0.89543170112E+03 0.  0.
        -24    2    4    4    0    0 -0.11705482453E+04  0.37394860936E+03 -0.51896356229E+03  0.13362898148E+04  0.79539507407E+02 0.  0.
         24    2    4    4    0    0  0.14976800422E+03  0.55180560468E+02 -0.15739688558E+03  0.24022708383E+03  0.86370845021E+02 0.  0.
         13    1    3    3    0    0  0.22898913071E+02 -0.42936121876E+01 -0.90826465751E+01  0.25005795214E+02  0.00000000000E+00 0. -1.
        -13    1    3    3    0    0  0.99788132802E+03 -0.42483555764E+03  0.16655162578E+03  0.10972656196E+04  0.00000000000E+00 0.  1.
          4    1    6    6  502    0  0.40698515034E+01  0.31797967932E+02 -0.15890461683E+02  0.35779620294E+02  0.00000000000E+00 0. -1.
          1    1    5    5  503    0 -0.51985161476E+03  0.15055228244E+03 -0.26834317139E+03  0.60408587862E+03  0.00000000000E+00 0. -1.
         -4    1    5    5    0  503 -0.65069663055E+03  0.22339632692E+03 -0.25062039089E+03  0.73220393623E+03  0.00000000000E+00 0.  1.
         -3    1    6    6    0  502  0.14569815272E+03  0.23382592536E+02 -0.14150642390E+03  0.20444746353E+03  0.00000000000E+00 0.  1.
<mgrwt>
<rscale>  0 0.26484354E+04</rscale>
<asrwt>0</asrwt>
<pdfrwt beam="1">  1        1 0.24751383E+00 0.26484354E+04</pdfrwt>
<pdfrwt beam="2">  1       -1 0.16768437E+00 0.26484354E+04</pdfrwt>
<totfact> 0.12352541E+00</totfact>
</mgrwt>
</event>
<event>
12    1  0.1541840E-007  0.1663598E+04  0.7818608E-02  0.8782403E-01
         -2   -1    0    0    0  501 -0.00000000000E+00  0.00000000000E+00  0.14055938696E+04  0.14055938696E+04  0.00000000000E+00 0. -1.
          2   -1    0    0  501    0  0.00000000000E+00 -0.00000000000E+00 -0.49223981543E+03  0.49223981543E+03  0.00000000000E+00 0.  1.
         23    2    1    2    0    0  0.40705782682E+03  0.39709700175E+03  0.53027943709E+03  0.78284617770E+03  0.90938184250E+02 0.  0.
        254    2    1    2    0    0 -0.40705782682E+03 -0.39709700175E+03  0.38307461710E+03  0.11149875074E+04  0.87924335433E+03 0.  0.
        -24    2    4    4    0    0 -0.62601844926E+03 -0.10096139363E+03  0.10646982935E+03  0.64804271095E+03  0.80816018438E+02 0.  0.
         24    2    4    4    0    0  0.21896062245E+03 -0.29613560812E+03  0.27660478775E+03  0.46694479641E+03  0.76727972110E+02 0.  0.
         13    1    3    3    0    0  0.38015803991E+02  0.14114340229E+02  0.62756288508E+02  0.74717920878E+02  0.00000000000E+00 0. -1.
        -13    1    3    3    0    0  0.36904202283E+03  0.38298266152E+03  0.46752314858E+03  0.70812825682E+03  0.00000000000E+00 0.  1.
          4    1    6    6  502    0  0.48647061190E+02 -0.26132955005E+02  0.57713780579E+02  0.79877082874E+02  0.00000000000E+00 0. -1.
          1    1    5    5  503    0 -0.19867553846E+03 -0.52627389784E+02  0.66977470152E+02  0.21616566158E+03  0.00000000000E+00 0. -1.
         -2    1    5    5    0  503 -0.42734291080E+03 -0.48334003845E+02  0.39492359199E+02  0.43187704937E+03  0.00000000000E+00 0.  1.
         -3    1    6    6    0  502  0.17031356126E+03 -0.27000265312E+03  0.21889100717E+03  0.38706771353E+03  0.00000000000E+00 0.  1.
<mgrwt>
<rscale>  0 0.16635976E+04</rscale>
<asrwt>0</asrwt>
<pdfrwt beam="1">  1        2 0.75729203E-01 0.16635976E+04</pdfrwt>
<pdfrwt beam="2">  1       -2 0.21624521E+00 0.16635976E+04</pdfrwt>
<totfact> 0.62439634E+00</totfact>
</mgrwt>
</event>
<event>
12    1  0.1541840E-007  0.2245738E+04  0.7818608E-02  0.8499629E-01
          2   -1    0    0  501    0  0.00000000000E+00  0.00000000000E+00  0.22345598145E+04  0.22345598145E+04  0.00000000000E+00 0. -1.
         -2   -1    0    0    0  501 -0.00000000000E+00 -0.00000000000E+00 -0.56424283331E+03  0.56424283331E+03  0.00000000000E+00 0.  1.
         23    2    1    2    0    0 -0.84779402325E+03  0.40966962059E+03  0.72437612618E+03  0.11909348445E+04  0.83792170233E+02 0.  0.
        254    2    1    2    0    0  0.84779402325E+03 -0.40966962059E+03  0.94594085502E+03  0.16078678033E+04  0.89657730724E+03 0.  0.
        -24    2    4    4    0    0  0.91071983657E+03 -0.20502274957E+03  0.10027328431E+04  0.13724303410E+04  0.81528754582E+02 0.  0.
         24    2    4    4    0    0 -0.62925813319E+02 -0.20464687103E+03 -0.56791988062E+02  0.23543746229E+03  0.79783888968E+02 0.  0.
         13    1    3    3    0    0 -0.49675528931E+02  0.37871416334E+02  0.70689864161E+02  0.94334295168E+02  0.00000000000E+00 0. -1.
        -13    1    3    3    0    0 -0.79811849432E+03  0.37179820426E+03  0.65368626201E+03  0.10966005493E+04  0.00000000000E+00 0.  1.
          2    1    6    6  502    0 -0.19666196733E+02 -0.94333137593E+02 -0.65673117236E+02  0.11661242845E+03  0.00000000000E+00 0. -1.
          1    1    5    5  503    0  0.22204142478E+03 -0.15631483682E+02  0.25128610100E+03  0.33569546043E+03  0.00000000000E+00 0. -1.
         -2    1    5    5    0  503  0.68867841179E+03 -0.18939126589E+03  0.75144674208E+03  0.10367348806E+04  0.00000000000E+00 0.  1.
         -1    1    6    6    0  502 -0.43259616586E+02 -0.11031373343E+03  0.88811291739E+01  0.11882503384E+03  0.00000000000E+00 0.  1.
<mgrwt>
<rscale>  0 0.22457376E+04</rscale>
<asrwt>0</asrwt>
<pdfrwt beam="1">  1        2 0.34377843E+00 0.22457376E+04</pdfrwt>
<pdfrwt beam="2">  1       -2 0.86806591E-01 0.22457376E+04</pdfrwt>
<totfact> 0.51624990E+00</totfact>
</mgrwt>
</event>
<event>
12    1  0.1541840E-007  0.1537788E+04  0.7818608E-02  0.8859706E-01
         -2   -1    0    0    0  501 -0.00000000000E+00  0.00000000000E+00  0.11343802604E+04  0.11343802604E+04  0.00000000000E+00 0.  1.
          2   -1    0    0  501    0  0.00000000000E+00 -0.00000000000E+00 -0.52116375564E+03  0.52116375564E+03  0.00000000000E+00 0. -1.
         23    2    1    2    0    0  0.29464436195E+03  0.40346853217E+03  0.26213143816E+03  0.57171253043E+03  0.92413040748E+02 0.  0.
        254    2    1    2    0    0 -0.29464436195E+03 -0.40346853217E+03  0.35108506661E+03  0.10838314856E+04  0.89544838418E+03 0.  0.
        -24    2    4    4    0    0 -0.41156981877E+02 -0.28949986462E+03 -0.26536200653E+03  0.40280918334E+03  0.79587529783E+02 0.  0.
         24    2    4    4    0    0 -0.25348738007E+03 -0.11396866754E+03  0.61644707314E+03  0.68102230227E+03  0.80868245754E+02 0.  0.
         13    1    3    3    0    0  0.89011537249E+02  0.16230995681E+03  0.55040492441E+02  0.19312439425E+03  0.00000000000E+00 0. -1.
        -13    1    3    3    0    0  0.20563282470E+03  0.24115857535E+03  0.20709094572E+03  0.37858813618E+03  0.00000000000E+00 0.  1.
          4    1    6    6  502    0 -0.24392164228E+03 -0.10481473904E+03  0.52182718739E+03  0.58548058088E+03  0.00000000000E+00 0. -1.
          1    1    5    5  503    0  0.15211244172E+02 -0.17108085553E+03 -0.14434021327E+03  0.22435270946E+03  0.00000000000E+00 0. -1.
         -2    1    5    5    0  503 -0.56368226049E+02 -0.11841900910E+03 -0.12102179326E+03  0.17845647388E+03  0.00000000000E+00 0.  1.
         -3    1    6    6    0  502 -0.95657377945E+01 -0.91539284987E+01  0.94619885748E+02  0.95541721386E+02  0.00000000000E+00 0.  1.
<mgrwt>
<rscale>  0 0.15377879E+04</rscale>
<asrwt>0</asrwt>
<pdfrwt beam="1">  1        2 0.80179040E-01 0.15377879E+04</pdfrwt>
<pdfrwt beam="2">  1       -2 0.17452004E+00 0.15377879E+04</pdfrwt>
<totfact> 0.11180204E+01</totfact>
</mgrwt>
</event>
<event>
12    1  0.1541840E-007  0.1132545E+04  0.7818608E-02  0.9174039E-01
         -1   -1    0    0    0  501 -0.00000000000E+00  0.00000000000E+00  0.18418308387E+03  0.18418308387E+03  0.00000000000E+00 0.  1.
          1   -1    0    0  501    0  0.00000000000E+00 -0.00000000000E+00 -0.17410091030E+04  0.17410091030E+04  0.00000000000E+00 0. -1.
         23    2    1    2    0    0 -0.66515480930E+02 -0.53272975345E+02 -0.59379029210E+03  0.60684134743E+03  0.91690734797E+02 0.  0.
        254    2    1    2    0    0  0.66515480930E+02  0.53272975345E+02 -0.96303572703E+03  0.13183508394E+04  0.89629727502E+03 0.  0.
        -24    2    4    4    0    0 -0.12086095847E+02 -0.25256558227E+03  0.35985673189E+02  0.26742782527E+03  0.79292029796E+02 0.  0.
         24    2    4    4    0    0  0.78601576777E+02  0.30583855762E+03 -0.99902140022E+03  0.10509230142E+04  0.81731220631E+02 0.  0.
         11    1    3    3    0    0 -0.82551437869E+02 -0.20939877468E+02 -0.34032998151E+03  0.35082433593E+03  0.00000000000E+00 0.  1.
        -11    1    3    3    0    0  0.16035956939E+02 -0.32333097877E+02 -0.25346031059E+03  0.25601701150E+03  0.00000000000E+00 0. -1.
          4    1    6    6  502    0  0.62747432409E+02  0.97996916563E+02 -0.40530323596E+03  0.42167683006E+03  0.00000000000E+00 0. -1.
          3    1    5    5  503    0  0.32354577851E+02 -0.96591854094E+02  0.24914077527E+02  0.10486904331E+03  0.00000000000E+00 0. -1.
         -4    1    5    5    0  503 -0.44440673698E+02 -0.15597372818E+03  0.11071595662E+02  0.16255878196E+03  0.00000000000E+00 0.  1.
         -3    1    6    6    0  502  0.15854144368E+02  0.20784164106E+03 -0.59371816426E+03  0.62924618412E+03  0.00000000000E+00 0.  1.
<mgrwt>
<rscale>  0 0.11325448E+04</rscale>
<asrwt>0</asrwt>
<pdfrwt beam="1">  1        1 0.26784756E+00 0.11325448E+04</pdfrwt>
<pdfrwt beam="2">  1       -1 0.28335858E-01 0.11325448E+04</pdfrwt>
<totfact> 0.50143717E+01</totfact>
</mgrwt>
</event>
<event>
12    1  0.1541840E-007  0.3503733E+04  0.7818608E-02  0.8112906E-01
          2   -1    0    0  501    0  0.00000000000E+00  0.00000000000E+00  0.17787110119E+04  0.17787110119E+04  0.00000000000E+00 0. -1.
         -2   -1    0    0    0  501 -0.00000000000E+00 -0.00000000000E+00 -0.17254273001E+04  0.17254273001E+04  0.00000000000E+00 0.  1.
         23    2    1    2    0    0  0.14321235911E+04 -0.75758157029E+03  0.24214453022E+03  0.16407608093E+04  0.92489157288E+02 0.  0.
        254    2    1    2    0    0 -0.14321235911E+04  0.75758157029E+03 -0.18886081844E+03  0.18633775027E+04  0.90088816905E+03 0.  0.
        -24    2    4    4    0    0 -0.15176836950E+04  0.80327098382E+03 -0.22152853866E+03  0.17332524978E+04  0.80506250628E+02 0.  0.
         24    2    4    4    0    0  0.85560103915E+02 -0.45689413526E+02  0.32667720218E+02  0.13012500487E+03  0.80357221563E+02 0.  0.
         11    1    3    3    0    0  0.82698333388E+03 -0.45675565490E+03  0.98343578369E+02  0.94984136686E+03  0.00000000000E+00 0.  1.
        -11    1    3    3    0    0  0.60514025719E+03 -0.30082591540E+03  0.14380095185E+03  0.69091944248E+03  0.00000000000E+00 0. -1.
          2    1    6    6  502    0  0.31823063693E+02 -0.62030220749E+02  0.20308015443E+02  0.72614538215E+02  0.00000000000E+00 0. -1.
          3    1    5    5  503    0 -0.85887709505E+03  0.47869610812E+03 -0.16071061155E+03  0.99631708256E+03  0.00000000000E+00 0. -1.
         -4    1    5    5    0  503 -0.65880659992E+03  0.32457487570E+03 -0.60817927103E+02  0.73693541528E+03  0.00000000000E+00 0.  1.
         -1    1    6    6    0  502  0.53737040221E+02  0.16340807223E+02  0.12359704776E+02  0.57510466653E+02  0.00000000000E+00 0.  1.
<mgrwt>
<rscale>  0 0.35037332E+04</rscale>
<asrwt>0</asrwt>
<pdfrwt beam="1">  1        2 0.27364785E+00 0.35037332E+04</pdfrwt>
<pdfrwt beam="2">  1       -2 0.26545035E+00 0.35037332E+04</pdfrwt>
<totfact> 0.37637881E-01</totfact>
</mgrwt>
</event>
<event>
12    1  0.1541840E-007  0.1478332E+04  0.7818608E-02  0.8898991E-01
         -1   -1    0    0    0  501 -0.00000000000E+00  0.00000000000E+00  0.40634116207E+03  0.40634116207E+03  0.00000000000E+00 0.  1.
          1   -1    0    0  501    0  0.00000000000E+00 -0.00000000000E+00 -0.13446003428E+04  0.13446003428E+04  0.00000000000E+00 0. -1.
         23    2    1    2    0    0  0.19623644906E+03  0.36712252656E+03  0.67637292300E+01  0.42463079501E+03  0.83533649426E+02 0.  0.
        254    2    1    2    0    0 -0.19623644906E+03 -0.36712252656E+03 -0.94502290991E+03  0.13263107098E+04  0.83231250456E+03 0.  0.
        -24    2    4    4    0    0 -0.42349104916E+03 -0.49162105246E+03 -0.59780362491E+03  0.88587525004E+03  0.79811382197E+02 0.  0.
         24    2    4    4    0    0  0.22725460009E+03  0.12449852590E+03 -0.34721928500E+03  0.44043545978E+03  0.79231471898E+02 0.  0.
         13    1    3    3    0    0  0.10126676335E+03  0.19803247887E+03  0.45085524218E+02  0.22694608290E+03  0.00000000000E+00 0.  1.
        -13    1    3    3    0    0  0.94969685712E+02  0.16909004769E+03 -0.38321794988E+02  0.19768471212E+03  0.00000000000E+00 0. -1.
          4    1    6    6  502    0  0.66780026653E+02  0.33857616429E+02 -0.47769610688E+02  0.88813545450E+02  0.00000000000E+00 0. -1.
          3    1    5    5  503    0 -0.87036527593E+02 -0.89822971968E+02 -0.76112114442E+02  0.14641235397E+03  0.00000000000E+00 0. -1.
         -4    1    5    5    0  503 -0.33645452156E+03 -0.40179808049E+03 -0.52169151047E+03  0.73946289607E+03  0.00000000000E+00 0.  1.
         -3    1    6    6    0  502  0.16047457344E+03  0.90640909469E+02 -0.29944967431E+03  0.35162191433E+03  0.00000000000E+00 0.  1.
<mgrwt>
<rscale>  0 0.14783321E+04</rscale>
<asrwt>0</asrwt>
<pdfrwt beam="1">  1        1 0.20686159E+00 0.14783321E+04</pdfrwt>
<pdfrwt beam="2">  1       -1 0.62514026E-01 0.14783321E+04</pdfrwt>
<totfact> 0.21143784E+01</totfact>
</mgrwt>
</event>
<event>
12    1  0.1541840E-007  0.1853736E+04  0.7818608E-02  0.8678234E-01
         -1   -1    0    0    0  501 -0.00000000000E+00  0.00000000000E+00  0.17805671026E+04  0.17805671026E+04  0.00000000000E+00 0.  1.
          1   -1    0    0  501    0  0.00000000000E+00 -0.00000000000E+00 -0.48247791210E+03  0.48247791210E+03  0.00000000000E+00 0. -1.
         23    2    1    2    0    0  0.59704669087E+02  0.28143780838E+03 -0.28933221831E+03  0.41824252511E+03  0.91879212895E+02 0.  0.
        254    2    1    2    0    0 -0.59704669087E+02 -0.28143780838E+03  0.15874214088E+04  0.18448024896E+04  0.89477237829E+03 0.  0.
        -24    2    4    4    0    0  0.29520025567E+03  0.10764287367E+03  0.10009650988E+04  0.10521516701E+04  0.79761072218E+02 0.  0.
         24    2    4    4    0    0 -0.35490492476E+03 -0.38908068205E+03  0.58645631008E+03  0.79265081957E+03  0.83803552222E+02 0.  0.
         13    1    3    3    0    0  0.69185600874E+02  0.22295646081E+03 -0.26765721805E+03  0.35515717247E+03  0.00000000000E+00 0. -1.
        -13    1    3    3    0    0 -0.94809317869E+01  0.58481347572E+02 -0.21675000263E+02  0.63085352640E+02  0.00000000000E+00 0.  1.
          2    1    6    6  502    0 -0.28356444575E+03 -0.25526472718E+03  0.42575423335E+03  0.57169532362E+03  0.00000000000E+00 0. -1.
          3    1    5    5  503    0  0.14773252822E+03  0.77590899239E+02  0.41808769333E+03  0.45015837974E+03  0.00000000000E+00 0. -1.
         -4    1    5    5    0  503  0.14746772745E+03  0.30051974433E+02  0.58287740544E+03  0.60199329032E+03  0.00000000000E+00 0.  1.
         -3    1    6    6    0  502 -0.71340479012E+02 -0.13381595487E+03  0.16070207673E+03  0.22095549595E+03  0.00000000000E+00 0.  1.
<mgrwt>
<rscale>  0 0.18537360E+04</rscale>
<asrwt>0</asrwt>
<pdfrwt beam="1">  1        1 0.74227372E-01 0.18537360E+04</pdfrwt>
<pdfrwt beam="2">  1       -1 0.27393340E+00 0.18537360E+04</pdfrwt>
<totfact> 0.21315647E+00</totfact>
</mgrwt>
</event>
<event>
12    1  0.1541840E-007  0.1288772E+04  0.7818608E-02  0.9038517E-01
         -2   -1    0    0    0  501 -0.00000000000E+00  0.00000000000E+00  0.60024401793E+03  0.60024401793E+03  0.00000000000E+00 0.  1.
          2   -1    0    0  501    0  0.00000000000E+00 -0.00000000000E+00 -0.69177437546E+03  0.69177437546E+03  0.00000000000E+00 0. -1.
         23    2    1    2    0    0  0.15281898496E+03 -0.17703435494E+03  0.17986765762E+03  0.30986290936E+03  0.94698697702E+02 0.  0.
        254    2    1    2    0    0 -0.15281898496E+03  0.17703435494E+03 -0.27139801515E+03  0.98215548403E+03  0.91448220714E+03 0.  0.
        -24    2    4    4    0    0 -0.13627084887E+03 -0.31815416350E+03 -0.31936721422E+03  0.47792204219E+03  0.81377176640E+02 0.  0.
         24    2    4    4    0    0 -0.16548136089E+02  0.49518851844E+03  0.47969199079E+02  0.50423344184E+03  0.80404043451E+02 0.  0.
         11    1    3    3    0    0  0.45458455023E+02 -0.83849853607E+02  0.12556797948E+03  0.15768508665E+03  0.00000000000E+00 0. -1.
        -11    1    3    3    0    0  0.10736052994E+03 -0.93184501332E+02  0.54299678140E+02  0.15217782271E+03  0.00000000000E+00 0.  1.
          2    1    6    6  502    0 -0.17315728342E+00 -0.30738154867E+01  0.18060975311E+01  0.35693575589E+01  0.00000000000E+00 0. -1.
          3    1    5    5  503    0 -0.44398854162E+02 -0.32261872238E+02 -0.57507776041E+02  0.79493590663E+02  0.00000000000E+00 0. -1.
         -4    1    5    5    0  503 -0.91871994712E+02 -0.28589229127E+03 -0.26185943818E+03  0.39842845152E+03  0.00000000000E+00 0.  1.
         -1    1    6    6    0  502 -0.16374978806E+02  0.49826233393E+03  0.46163101548E+02  0.50066408428E+03  0.00000000000E+00 0.  1.
<mgrwt>
<rscale>  0 0.12887722E+04</rscale>
<asrwt>0</asrwt>
<pdfrwt beam="1">  1        2 0.10642683E+00 0.12887722E+04</pdfrwt>
<pdfrwt beam="2">  1       -2 0.92345234E-01 0.12887722E+04</pdfrwt>
<totfact> 0.40635893E+01</totfact>
</mgrwt>
</event>
<event>
12    1  0.1541840E-007  0.2540201E+04  0.7818608E-02  0.8388802E-01
          1   -1    0    0  501    0  0.00000000000E+00  0.00000000000E+00  0.62114362592E+03  0.62114362592E+03  0.00000000000E+00 0. -1.
         -1   -1    0    0    0  501 -0.00000000000E+00 -0.00000000000E+00 -0.25970724761E+04  0.25970724761E+04  0.00000000000E+00 0.  1.
         23    2    1    2    0    0  0.38179426102E+03 -0.75024690244E+03 -0.17682632323E+04  0.19606446216E+04  0.93462296748E+02 0.  0.
        254    2    1    2    0    0 -0.38179426102E+03  0.75024690244E+03 -0.20766561789E+03  0.12575714805E+04  0.91089173193E+03 0.  0.
        -24    2    4    4    0    0 -0.10783175015E+02  0.79110475908E+03 -0.32369392579E+03  0.85851954378E+03  0.79467180392E+02 0.  0.
         24    2    4    4    0    0 -0.37101108601E+03 -0.40857856641E+02  0.11602830791E+03  0.39905193670E+03  0.80382147010E+02 0.  0.
         11    1    3    3    0    0 -0.36620358634E+01 -0.10808029038E+02 -0.42102356251E+02  0.43621467195E+02  0.00000000000E+00 0. -1.
        -11    1    3    3    0    0  0.38545629688E+03 -0.73943887340E+03 -0.17261608761E+04  0.19170231544E+04  0.00000000000E+00 0.  1.
          4    1    6    6  502    0 -0.12361497736E+03  0.13345649277E+02  0.66464369426E+02  0.14098326633E+03  0.00000000000E+00 0. -1.
          3    1    5    5  503    0  0.28549371894E+02  0.19308467924E+03 -0.64565039395E+02  0.20558551579E+03  0.00000000000E+00 0. -1.
         -4    1    5    5    0  503 -0.39332546910E+02  0.59802007984E+03 -0.25912888640E+03  0.65293402799E+03  0.00000000000E+00 0.  1.
         -1    1    6    6    0  502 -0.24739610865E+03 -0.54203505918E+02  0.49563938483E+02  0.25806867037E+03  0.00000000000E+00 0.  1.
<mgrwt>
<rscale>  0 0.25402008E+04</rscale>
<asrwt>0</asrwt>
<pdfrwt beam="1">  1        1 0.95560556E-01 0.25402008E+04</pdfrwt>
<pdfrwt beam="2">  1       -1 0.39954962E+00 0.25402008E+04</pdfrwt>
<totfact> 0.20770174E-01</totfact>
</mgrwt>
</event>
<event>
12    1  0.1541840E-007  0.3547418E+04  0.7818608E-02  0.8102644E-01
          2   -1    0    0  501    0  0.00000000000E+00  0.00000000000E+00  0.23011835306E+04  0.23011835306E+04  0.00000000000E+00 0. -1.
         -2   -1    0    0    0  501 -0.00000000000E+00 -0.00000000000E+00 -0.13671415384E+04  0.13671415384E+04  0.00000000000E+00 0.  1.
         23    2    1    2    0    0 -0.36059305145E+03 -0.15261282109E+04 -0.12439836382E+03  0.15757460809E+04  0.91684752563E+02 0.  0.
        254    2    1    2    0    0  0.36059305145E+03  0.15261282109E+04  0.10584403559E+04  0.20925789881E+04  0.89414549679E+03 0.  0.
        -24    2    4    4    0    0  0.61943072712E+03  0.91003449054E+03  0.47386433851E+03  0.12011494409E+04  0.79720564212E+02 0.  0.
         24    2    4    4    0    0 -0.25883767566E+03  0.61609372035E+03  0.58457601742E+03  0.89142954719E+03  0.79681257864E+02 0.  0.
         11    1    3    3    0    0 -0.33643006860E+03 -0.13755240943E+04 -0.13708620682E+03  0.14226891273E+04  0.00000000000E+00 0. -1.
        -11    1    3    3    0    0 -0.24162982849E+02 -0.15060411662E+03  0.12687843000E+02  0.15305695360E+03  0.00000000000E+00 0.  1.
          2    1    6    6  502    0 -0.22368621103E+03  0.55655537828E+03  0.49145293888E+03  0.77544529223E+03  0.00000000000E+00 0. -1.
          3    1    5    5  503    0  0.57382899375E+03  0.79939637268E+03  0.42520931863E+03  0.10719688612E+04  0.00000000000E+00 0. -1.
         -4    1    5    5    0  503  0.45601733364E+02  0.11063811785E+03  0.48655019883E+02  0.12918057968E+03  0.00000000000E+00 0.  1.
         -1    1    6    6    0  502 -0.35151464637E+02  0.59538342070E+02  0.93123078541E+02  0.11598425496E+03  0.00000000000E+00 0.  1.
<mgrwt>
<rscale>  0 0.35474180E+04</rscale>
<asrwt>0</asrwt>
<pdfrwt beam="1">  1        2 0.35402824E+00 0.35474180E+04</pdfrwt>
<pdfrwt beam="2">  1       -2 0.21032947E+00 0.35474180E+04</pdfrwt>
<totfact> 0.42221546E-01</totfact>
</mgrwt>
</event>
<event>
12    1  0.1541840E-007  0.1578412E+04  0.7818608E-02  0.8833921E-01
          1   -1    0    0  501    0  0.00000000000E+00  0.00000000000E+00  0.68587703659E+03  0.68587703659E+03  0.00000000000E+00 0. -1.
         -1   -1    0    0    0  501 -0.00000000000E+00 -0.00000000000E+00 -0.90810190623E+03  0.90810190623E+03  0.00000000000E+00 0.  1.
         23    2    1    2    0    0 -0.30815320147E+03 -0.64322220873E+02  0.35024527514E+03  0.47905641549E+03  0.87906500278E+02 0.  0.
        254    2    1    2    0    0  0.30815320147E+03  0.64322220873E+02 -0.57247014479E+03  0.11149225273E+04  0.90345693400E+03 0.  0.
        -24    2    4    4    0    0  0.53658059647E+02 -0.35628817579E+03 -0.48522204054E+03  0.60947203687E+03  0.78710123353E+02 0.  0.
         24    2    4    4    0    0  0.25449514182E+03  0.42061039666E+03 -0.87248104244E+02  0.50545049046E+03  0.78658016884E+02 0.  0.
         13    1    3    3    0    0 -0.14161830035E+02  0.16585596805E+02  0.20404194064E+02  0.29865876627E+02  0.00000000000E+00 0.  1.
        -13    1    3    3    0    0 -0.29399137144E+03 -0.80907817677E+02  0.32984108108E+03  0.44919053887E+03  0.00000000000E+00 0. -1.
          2    1    6    6  502    0  0.11357408344E+03  0.16067486676E+03 -0.71510720895E+02  0.20935440870E+03  0.00000000000E+00 0. -1.
          3    1    5    5  503    0  0.33298852633E+02 -0.46837812382E+02 -0.58947367129E+02  0.82324882915E+02  0.00000000000E+00 0. -1.
         -4    1    5    5    0  503  0.20359207014E+02 -0.30945036341E+03 -0.42627467342E+03  0.52714715395E+03  0.00000000000E+00 0.  1.
         -1    1    6    6    0  502  0.14092105839E+03  0.25993552990E+03 -0.15737383349E+02  0.29609608176E+03  0.00000000000E+00 0.  1.
<mgrwt>
<rscale>  0 0.15784122E+04</rscale>
<asrwt>0</asrwt>
<pdfrwt beam="1">  1        1 0.10551954E+00 0.15784122E+04</pdfrwt>
<pdfrwt beam="2">  1       -1 0.13970798E+00 0.15784122E+04</pdfrwt>
<totfact> 0.11385622E+01</totfact>
</mgrwt>
</event>
<event>
12    1  0.1541840E-007  0.2178350E+04  0.7818608E-02  0.8527494E-01
          2   -1    0    0  501    0  0.00000000000E+00  0.00000000000E+00  0.29493933855E+04  0.29493933855E+04  0.00000000000E+00 0. -1.
         -2   -1    0    0    0  501 -0.00000000000E+00 -0.00000000000E+00 -0.40221906253E+03  0.40221906253E+03  0.00000000000E+00 0.  1.
         23    2    1    2    0    0  0.31447069791E+03 -0.59728202862E+03  0.20125166343E+04  0.21247199308E+04  0.92595569060E+02 0.  0.
        254    2    1    2    0    0 -0.31447069791E+03  0.59728202862E+03  0.53465768865E+03  0.12268925172E+04  0.87393864958E+03 0.  0.
        -24    2    4    4    0    0 -0.11651674275E+03  0.55776184254E+03  0.73270315492E+03  0.93219926134E+03  0.86412529702E+02 0.  0.
         24    2    4    4    0    0 -0.19795395516E+03  0.39520186084E+02 -0.19804546626E+03  0.29469325588E+03  0.82912573746E+02 0.  0.
         13    1    3    3    0    0  0.28804953476E+03 -0.58520682210E+03  0.19302238255E+04  0.20374502633E+04  0.00000000000E+00 0. -1.
        -13    1    3    3    0    0  0.26421163146E+02 -0.12075206520E+02  0.82292808820E+02  0.87269667457E+02  0.00000000000E+00 0.  1.
          4    1    6    6  502    0 -0.47246000125E+02  0.44653875726E+02 -0.40403834294E+02  0.76541642070E+02  0.00000000000E+00 0. -1.
          3    1    5    5  503    0 -0.63845129667E+02  0.33420586480E+03  0.36792746810E+03  0.50113908491E+03  0.00000000000E+00 0. -1.
         -4    1    5    5    0  503 -0.52671613084E+02  0.22355597774E+03  0.36477568682E+03  0.43106017643E+03  0.00000000000E+00 0.  1.
         -3    1    6    6    0  502 -0.15070795503E+03 -0.51336896419E+01 -0.15764163197E+03  0.21815161381E+03  0.00000000000E+00 0.  1.
<mgrwt>
<rscale>  0 0.21783501E+04</rscale>
<asrwt>0</asrwt>
<pdfrwt beam="1">  1        2 0.45375282E+00 0.21783501E+04</pdfrwt>
<pdfrwt beam="2">  1       -2 0.61879858E-01 0.21783501E+04</pdfrwt>
<totfact> 0.41640560E+00</totfact>
</mgrwt>
</event>
<event>
12    1  0.1541840E-007  0.2115671E+04  0.7818608E-02  0.8554371E-01
         -2   -1    0    0    0  501 -0.00000000000E+00  0.00000000000E+00  0.13285275351E+04  0.13285275351E+04  0.00000000000E+00 0.  1.
          2   -1    0    0  501    0  0.00000000000E+00 -0.00000000000E+00 -0.84229812338E+03  0.84229812338E+03  0.00000000000E+00 0. -1.
         23    2    1    2    0    0  0.43113035844E+03  0.65440191287E+03 -0.17867613420E+03  0.80891040035E+03  0.91080323439E+02 0.  0.
        254    2    1    2    0    0 -0.43113035844E+03 -0.65440191287E+03  0.66490554593E+03  0.13619152581E+04  0.89364340529E+03 0.  0.
        -24    2    4    4    0    0 -0.18526489935E+03 -0.14141172584E+03  0.74246563328E+03  0.78231716621E+03  0.80278096725E+02 0.  0.
         24    2    4    4    0    0 -0.24586545909E+03 -0.51299018703E+03 -0.77560087347E+02  0.57959809193E+03  0.79433148355E+02 0.  0.
         11    1    3    3    0    0  0.11131337621E+03  0.14108191655E+03 -0.54346057266E+01  0.17978962662E+03  0.00000000000E+00 0.  1.
        -11    1    3    3    0    0  0.31981698222E+03  0.51331999632E+03 -0.17324152847E+03  0.62912077372E+03  0.00000000000E+00 0. -1.
          4    1    6    6  502    0 -0.10011126635E+03 -0.25816710886E+03 -0.71466995385E+02  0.28597211958E+03  0.00000000000E+00 0. -1.
          1    1    5    5  503    0 -0.12190428284E+03 -0.11872445212E+03  0.42507834249E+03  0.45787306861E+03  0.00000000000E+00 0. -1.
         -4    1    5    5    0  503 -0.63360616506E+02 -0.22687273721E+02  0.31738729079E+03  0.32444409760E+03  0.00000000000E+00 0.  1.
         -3    1    6    6    0  502 -0.14575419274E+03 -0.25482307817E+03 -0.60930919621E+01  0.29362597235E+03  0.00000000000E+00 0.  1.
<mgrwt>
<rscale>  0 0.21156713E+04</rscale>
<asrwt>0</asrwt>
<pdfrwt beam="1">  1        2 0.12958433E+00 0.21156713E+04</pdfrwt>
<pdfrwt beam="2">  1       -2 0.20438885E+00 0.21156713E+04</pdfrwt>
<totfact> 0.36805489E+00</totfact>
</mgrwt>
</event>
<event>
12    1  0.1541840E-007  0.2962191E+04  0.7818608E-02  0.8254611E-01
          2   -1    0    0  501    0  0.00000000000E+00  0.00000000000E+00  0.28231820389E+04  0.28231820389E+04  0.00000000000E+00 0. -1.
         -2   -1    0    0    0  501 -0.00000000000E+00 -0.00000000000E+00 -0.77701131856E+03  0.77701131856E+03  0.00000000000E+00 0.  1.
         23    2    1    2    0    0 -0.76068792378E+03  0.94981156979E+03  0.16218169817E+04  0.20295512872E+04  0.89442551344E+02 0.  0.
        254    2    1    2    0    0  0.76068792378E+03 -0.94981156979E+03  0.42435373868E+03  0.15706420702E+04  0.89780414445E+03 0.  0.
        -24    2    4    4    0    0  0.31197233145E+03 -0.43868842197E+03 -0.25966421407E+03  0.60283023063E+03  0.78768748452E+02 0.  0.
         24    2    4    4    0    0  0.44871559232E+03 -0.51112314782E+03  0.68401795275E+03  0.96781183961E+03  0.78655210720E+02 0.  0.
         13    1    3    3    0    0 -0.53129571996E+03  0.67784081499E+03  0.10799554298E+04  0.13813207603E+04  0.00000000000E+00 0.  1.
        -13    1    3    3    0    0 -0.22939220381E+03  0.27197075481E+03  0.54186155187E+03  0.64823052692E+03  0.00000000000E+00 0. -1.
          4    1    6    6  502    0  0.37526482269E+03 -0.38125202824E+03  0.51902690727E+03  0.74536281545E+03  0.00000000000E+00 0. -1.
          1    1    5    5  503    0  0.10066004563E+03 -0.20564985828E+03 -0.12213837495E+03  0.25950354840E+03  0.00000000000E+00 0. -1.
         -2    1    5    5    0  503  0.21131228583E+03 -0.23303856370E+03 -0.13752583912E+03  0.34332668224E+03  0.00000000000E+00 0.  1.
         -3    1    6    6    0  502  0.73450769630E+02 -0.12987111959E+03  0.16499104547E+03  0.22244902416E+03  0.00000000000E+00 0.  1.
<mgrwt>
<rscale>  0 0.29621914E+04</rscale>
<asrwt>0</asrwt>
<pdfrwt beam="1">  1        2 0.43433569E+00 0.29621914E+04</pdfrwt>
<pdfrwt beam="2">  1       -2 0.11954020E+00 0.29621914E+04</pdfrwt>
<totfact> 0.10300905E+00</totfact>
</mgrwt>
</event>
<event>
12    1  0.1541840E-007  0.1743913E+04  0.7818608E-02  0.8736708E-01
          2   -1    0    0  501    0  0.00000000000E+00  0.00000000000E+00  0.15987794188E+04  0.15987794188E+04  0.00000000000E+00 0. -1.
         -2   -1    0    0    0  501 -0.00000000000E+00 -0.00000000000E+00 -0.47555561373E+03  0.47555561373E+03  0.00000000000E+00 0.  1.
         23    2    1    2    0    0  0.16977976073E+03 -0.51748763641E+03  0.19928953275E+02  0.55454741678E+03  0.10250391840E+03 0.  0.
        254    2    1    2    0    0 -0.16977976073E+03  0.51748763641E+03  0.11032948518E+04  0.15197876157E+04  0.89211896402E+03 0.  0.
        -24    2    4    4    0    0  0.89957107763E+01 -0.20677508696E+03  0.53344070433E+03  0.57792151485E+03  0.81224583047E+02 0.  0.
         24    2    4    4    0    0 -0.17877547151E+03  0.72426272337E+03  0.56985414742E+03  0.94186610086E+03  0.76556129309E+02 0.  0.
         13    1    3    3    0    0  0.13955787069E+03 -0.26438983058E+03  0.20311227849E+02  0.29965134367E+03  0.00000000000E+00 0. -1.
        -13    1    3    3    0    0  0.30221890040E+02 -0.25309780583E+03 -0.38227457415E+00  0.25489607311E+03  0.00000000000E+00 0.  1.
          2    1    6    6  502    0 -0.53449123353E+02  0.22191238013E+03  0.13119171631E+03  0.26327396315E+03  0.00000000000E+00 0. -1.
          1    1    5    5  503    0  0.23327839369E+02 -0.87756582500E+02  0.32520930418E+03  0.33764848199E+03  0.00000000000E+00 0. -1.
         -2    1    5    5    0  503 -0.14332128593E+02 -0.11901850446E+03  0.20823140015E+03  0.24027303287E+03  0.00000000000E+00 0.  1.
         -1    1    6    6    0  502 -0.12532634815E+03  0.50235034324E+03  0.43866243111E+03  0.67859213771E+03  0.00000000000E+00 0.  1.
<mgrwt>
<rscale>  0 0.17439134E+04</rscale>
<asrwt>0</asrwt>
<pdfrwt beam="1">  1        2 0.24596606E+00 0.17439134E+04</pdfrwt>
<pdfrwt beam="2">  1       -2 0.73162403E-01 0.17439134E+04</pdfrwt>
<totfact> 0.17866232E+01</totfact>
</mgrwt>
</event>
<event>
12    1  0.1541840E-007  0.1873672E+04  0.7818608E-02  0.8668074E-01
          1   -1    0    0  501    0  0.00000000000E+00  0.00000000000E+00  0.17727565100E+04  0.17727565100E+04  0.00000000000E+00 0. -1.
         -1   -1    0    0    0  501 -0.00000000000E+00 -0.00000000000E+00 -0.49508310823E+03  0.49508310823E+03  0.00000000000E+00 0.  1.
         23    2    1    2    0    0  0.42787520182E+03  0.38952836976E+03  0.10057997917E+04  0.11639521793E+04  0.91334087162E+02 0.  0.
        254    2    1    2    0    0 -0.42787520182E+03 -0.38952836976E+03  0.27187361009E+03  0.11038874390E+04  0.89991259514E+03 0.  0.
        -24    2    4    4    0    0 -0.67046377601E+03 -0.11060032074E+03  0.11164782381E+03  0.69309004028E+03  0.78450375970E+02 0.  0.
         24    2    4    4    0    0  0.24258857419E+03 -0.27892804902E+03  0.16022578628E+03  0.41079739870E+03  0.80200544457E+02 0.  0.
         13    1    3    3    0    0  0.90216550037E+01  0.25838117589E+02  0.81507524301E+02  0.85979503937E+02  0.00000000000E+00 0.  1.
        -13    1    3    3    0    0  0.41885354682E+03  0.36369025217E+03  0.92429226740E+03  0.10779726753E+04  0.00000000000E+00 0. -1.
          4    1    6    6  502    0  0.10902867177E+03 -0.78414275515E+02  0.82648447488E+02  0.15769215499E+03  0.00000000000E+00 0. -1.
          1    1    5    5  503    0 -0.96772147033E+00 -0.28750209477E+01 -0.41765908413E+01  0.51619900572E+01  0.00000000000E+00 0. -1.
         -2    1    5    5    0  503 -0.66949605454E+03 -0.10772529979E+03  0.11582441465E+03  0.68792805022E+03  0.00000000000E+00 0.  1.
         -3    1    6    6    0  502  0.13355990241E+03 -0.20051377351E+03  0.77577338792E+02  0.25310524371E+03  0.00000000000E+00 0.  1.
<mgrwt>
<rscale>  0 0.18736721E+04</rscale>
<asrwt>0</asrwt>
<pdfrwt beam="1">  1        1 0.27273177E+00 0.18736721E+04</pdfrwt>
<pdfrwt beam="2">  1       -1 0.76166633E-01 0.18736721E+04</pdfrwt>
<totfact> 0.69002133E+00</totfact>
</mgrwt>
</event>
<event>
12    1  0.1541840E-007  0.1583417E+04  0.7818608E-02  0.8830801E-01
          2   -1    0    0  501    0  0.00000000000E+00  0.00000000000E+00  0.90519766991E+03  0.90519766991E+03  0.00000000000E+00 0. -1.
         -2   -1    0    0    0  501 -0.00000000000E+00 -0.00000000000E+00 -0.69244842131E+03  0.69244842131E+03  0.00000000000E+00 0.  1.
         23    2    1    2    0    0 -0.29593723481E+03  0.43865770360E+03 -0.93513771123E+01  0.53692540725E+03  0.90564986685E+02 0.  0.
        254    2    1    2    0    0  0.29593723481E+03 -0.43865770360E+03  0.22210062571E+03  0.10607206840E+04  0.89207637206E+03 0.  0.
        -24    2    4    4    0    0 -0.21298367532E+03 -0.42585209454E+03 -0.36940387184E+02  0.48426419096E+03  0.80219461908E+02 0.  0.
         24    2    4    4    0    0  0.50892091013E+03 -0.12805609068E+02  0.25904101289E+03  0.57645649302E+03  0.77687615439E+02 0.  0.
         11    1    3    3    0    0 -0.16673279357E+03  0.24531098129E+03  0.39728358145E+02  0.29925849100E+03  0.00000000000E+00 0. -1.
        -11    1    3    3    0    0 -0.12920444124E+03  0.19334672231E+03 -0.49079735257E+02  0.23766691624E+03  0.00000000000E+00 0.  1.
          4    1    6    6  502    0  0.30666668183E+03 -0.20057177986E+02  0.11537884477E+03  0.32826669333E+03  0.00000000000E+00 0. -1.
          1    1    5    5  503    0 -0.14769985850E+03 -0.22370723447E+03  0.31647114530E+01  0.26808616219E+03  0.00000000000E+00 0. -1.
         -2    1    5    5    0  503 -0.65283816812E+02 -0.20214486006E+03 -0.40105098637E+02  0.21617802877E+03  0.00000000000E+00 0.  1.
         -3    1    6    6    0  502  0.20225422830E+03  0.72515689182E+01  0.14366216812E+03  0.24818979968E+03  0.00000000000E+00 0.  1.
<mgrwt>
<rscale>  0 0.15834174E+04</rscale>
<asrwt>0</asrwt>
<pdfrwt beam="1">  1        2 0.13926118E+00 0.15834174E+04</pdfrwt>
<pdfrwt beam="2">  1       -2 0.10653053E+00 0.15834174E+04</pdfrwt>
<totfact> 0.19828290E+01</totfact>
</mgrwt>
</event>
<event>
12    1  0.1541840E-007  0.1901510E+04  0.7818608E-02  0.8654105E-01
          2   -1    0    0  501    0  0.00000000000E+00  0.00000000000E+00  0.10008647874E+04  0.10008647874E+04  0.00000000000E+00 0. -1.
         -2   -1    0    0    0  501 -0.00000000000E+00 -0.00000000000E+00 -0.90315398716E+03  0.90315398716E+03  0.00000000000E+00 0.  1.
         23    2    1    2    0    0  0.40578608193E+03  0.27283864096E+03  0.61770441738E+03  0.79276222655E+03  0.88373821394E+02 0.  0.
        254    2    1    2    0    0 -0.40578608193E+03 -0.27283864096E+03 -0.51999361715E+03  0.11112565480E+04  0.85170093652E+03 0.  0.
        -24    2    4    4    0    0  0.11644161352E+03 -0.38517797430E+03 -0.87357549766E+02  0.41896975339E+03  0.77353678032E+02 0.  0.
         24    2    4    4    0    0 -0.52222769545E+03  0.11233933334E+03 -0.43263606739E+03  0.69228679460E+03  0.82128846721E+02 0.  0.
         11    1    3    3    0    0  0.90644076969E+02  0.96619769720E+02  0.12689949763E+03  0.18345356657E+03  0.00000000000E+00 0.  1.
        -11    1    3    3    0    0  0.31514200496E+03  0.17621887124E+03  0.49080491975E+03  0.60930865998E+03  0.00000000000E+00 0. -1.
          2    1    6    6  502    0 -0.14183068921E+03  0.49535005915E+01 -0.81946429486E+02  0.16387708466E+03  0.00000000000E+00 0. -1.
          3    1    5    5  503    0  0.37017637613E+02 -0.83999911264E+02 -0.51985795697E+02  0.10549319192E+03  0.00000000000E+00 0. -1.
         -4    1    5    5    0  503  0.79423975903E+02 -0.30117806304E+03 -0.35371754069E+02  0.31347656147E+03  0.00000000000E+00 0.  1.
         -1    1    6    6    0  502 -0.38039700623E+03  0.10738583275E+03 -0.35068963790E+03  0.52840970994E+03  0.00000000000E+00 0.  1.
<mgrwt>
<rscale>  0 0.19015100E+04</rscale>
<asrwt>0</asrwt>
<pdfrwt beam="1">  1        2 0.15397920E+00 0.19015100E+04</pdfrwt>
<pdfrwt beam="2">  1       -2 0.13894677E+00 0.19015100E+04</pdfrwt>
<totfact> 0.86281774E+00</totfact>
</mgrwt>
</event>
<event>
12    1  0.1541840E-007  0.1270684E+04  0.7818608E-02  0.9053142E-01
         -1   -1    0    0    0  501 -0.00000000000E+00  0.00000000000E+00  0.12799787827E+03  0.12799787827E+03  0.00000000000E+00 0.  1.
          1   -1    0    0  501    0  0.00000000000E+00 -0.00000000000E+00 -0.31536394098E+04  0.31536394098E+04  0.00000000000E+00 0. -1.
         23    2    1    2    0    0 -0.26320791412E+03  0.15619330448E+03 -0.71621814152E+03  0.78446628200E+03  0.93510250407E+02 0.  0.
        254    2    1    2    0    0  0.26320791412E+03 -0.15619330448E+03 -0.23094233900E+04  0.24971710061E+04  0.89930633537E+03 0.  0.
        -24    2    4    4    0    0  0.17186095313E+02  0.10236416828E+03 -0.20371456112E+04  0.20413783035E+04  0.80556514877E+02 0.  0.
         24    2    4    4    0    0  0.24602181881E+03 -0.25855747276E+03 -0.27227777885E+03  0.45579270258E+03  0.78949964019E+02 0.  0.
         11    1    3    3    0    0 -0.24987828577E+02  0.54082056401E+02 -0.16294163380E+03  0.17349131513E+03  0.00000000000E+00 0. -1.
        -11    1    3    3    0    0 -0.23822008555E+03  0.10211124808E+03 -0.55327650772E+03  0.61097496687E+03  0.00000000000E+00 0.  1.
          2    1    6    6  502    0  0.88587529702E+02 -0.13752317507E+03 -0.92530968260E+02  0.18794242253E+03  0.00000000000E+00 0. -1.
          1    1    5    5  503    0  0.43536402960E+02  0.64762946527E+02 -0.15817656419E+04  0.15836894277E+04  0.00000000000E+00 0. -1.
         -2    1    5    5    0  503 -0.26350307646E+02  0.37601221753E+02 -0.45537996931E+03  0.45768887580E+03  0.00000000000E+00 0.  1.
         -1    1    6    6    0  502  0.15743428911E+03 -0.12103429769E+03 -0.17974681059E+03  0.26785028005E+03  0.00000000000E+00 0.  1.
<mgrwt>
<rscale>  0 0.12706835E+04</rscale>
<asrwt>0</asrwt>
<pdfrwt beam="1">  1        1 0.48517523E+00 0.12706835E+04</pdfrwt>
<pdfrwt beam="2">  1       -1 0.19691984E-01 0.12706835E+04</pdfrwt>
<totfact> 0.96431999E+00</totfact>
</mgrwt>
</event>
<event>
12    1  0.1541840E-007  0.2790128E+04  0.7818608E-02  0.8306340E-01
         -2   -1    0    0    0  501 -0.00000000000E+00  0.00000000000E+00  0.38801009359E+03  0.38801009359E+03  0.00000000000E+00 0. -1.
          2   -1    0    0  501    0  0.00000000000E+00 -0.00000000000E+00 -0.50158587680E+04  0.50158587680E+04  0.00000000000E+00 0.  1.
         23    2    1    2    0    0 -0.53639320658E+03 -0.10751628963E+04 -0.14193179555E+04  0.18618896722E+04  0.92069359555E+02 0.  0.
        254    2    1    2    0    0  0.53639320658E+03  0.10751628963E+04 -0.32085307189E+04  0.35419791894E+04  0.89847330406E+03 0.  0.
        -24    2    4    4    0    0  0.62319970688E+01  0.85280601083E+03 -0.13861797416E+04  0.16295092237E+04  0.80554976838E+02 0.  0.
         24    2    4    4    0    0  0.53016120951E+03  0.22235688551E+03 -0.18223509774E+04  0.19124699657E+04  0.77876777131E+02 0.  0.
         11    1    3    3    0    0 -0.21044530326E+03 -0.45087644271E+03 -0.52112406851E+03  0.72051862365E+03  0.00000000000E+00 0.  1.
        -11    1    3    3    0    0 -0.32594790332E+03 -0.62428645363E+03 -0.89819388699E+03  0.11413710486E+04  0.00000000000E+00 0. -1.
          4    1    6    6  502    0  0.28146177789E+03  0.84927188929E+02 -0.84701036974E+03  0.89658235889E+03  0.00000000000E+00 0. -1.
          3    1    5    5  503    0 -0.26674843336E+02  0.24613095914E+03 -0.44584993912E+03  0.50997467047E+03  0.00000000000E+00 0. -1.
         -4    1    5    5    0  503  0.32906840405E+02  0.60667505169E+03 -0.94032980245E+03  0.11195345532E+04  0.00000000000E+00 0.  1.
         -3    1    6    6    0  502  0.24869943163E+03  0.13742969658E+03 -0.97534060764E+03  0.10158876068E+04  0.00000000000E+00 0.  1.
<mgrwt>
<rscale>  0 0.27901282E+04</rscale>
<asrwt>0</asrwt>
<pdfrwt beam="1">  1        2 0.77167054E+00 0.27901282E+04</pdfrwt>
<pdfrwt beam="2">  1       -2 0.59693864E-01 0.27901282E+04</pdfrwt>
<totfact> 0.74971067E-02</totfact>
</mgrwt>
</event>
<event>
12    1  0.1541840E-007  0.1827843E+04  0.7818608E-02  0.8691631E-01
         -2   -1    0    0    0  501 -0.00000000000E+00  0.00000000000E+00  0.55581182030E+03  0.55581182030E+03  0.00000000000E+00 0.  1.
          2   -1    0    0  501    0  0.00000000000E+00 -0.00000000000E+00 -0.15027614243E+04  0.15027614243E+04  0.00000000000E+00 0. -1.
         23    2    1    2    0    0 -0.28148374967E+03  0.46999531638E+03 -0.83209897509E+03  0.10008707638E+04  0.96046252847E+02 0.  0.
        254    2    1    2    0    0  0.28148374967E+03 -0.46999531638E+03 -0.11485062890E+03  0.10577024808E+04  0.89744925886E+03 0.  0.
        -24    2    4    4    0    0  0.57284312907E+02 -0.11747065366E+03  0.37717541369E+03  0.40736362714E+03  0.81258753660E+02 0.  0.
         24    2    4    4    0    0  0.22419943676E+03 -0.35252466272E+03 -0.49202604259E+03  0.65033885368E+03  0.79447924825E+02 0.  0.
         13    1    3    3    0    0 -0.17608668064E+03  0.31099864248E+03 -0.45795634168E+03  0.58090505731E+03  0.00000000000E+00 0. -1.
        -13    1    3    3    0    0 -0.10539706902E+03  0.15899667390E+03 -0.37414263341E+03  0.41996570646E+03  0.00000000000E+00 0.  1.
          2    1    6    6  502    0  0.24128670426E+02 -0.52976708282E+02 -0.33233905005E+02  0.67031461261E+02  0.00000000000E+00 0. -1.
          3    1    5    5  503    0  0.12102593688E+02  0.82016923614E+01  0.83215966413E+02  0.84490458618E+02  0.00000000000E+00 0. -1.
         -4    1    5    5    0  503  0.45181719219E+02 -0.12567234602E+03  0.29395944727E+03  0.32287316852E+03  0.00000000000E+00 0.  1.
         -1    1    6    6    0  502  0.20007076633E+03 -0.29954795444E+03 -0.45879213758E+03  0.58330739242E+03  0.00000000000E+00 0.  1.
<mgrwt>
<rscale>  0 0.18278431E+04</rscale>
<asrwt>0</asrwt>
<pdfrwt beam="1">  1        2 0.23119406E+00 0.18278431E+04</pdfrwt>
<pdfrwt beam="2">  1       -2 0.85509511E-01 0.18278431E+04</pdfrwt>
<totfact> 0.14161601E+01</totfact>
</mgrwt>
</event>
<event>
12    1  0.1541840E-007  0.2417147E+04  0.7818608E-02  0.8433112E-01
          2   -1    0    0  501    0  0.00000000000E+00  0.00000000000E+00  0.39887730661E+04  0.39887730661E+04  0.00000000000E+00 0. -1.
         -2   -1    0    0    0  501 -0.00000000000E+00 -0.00000000000E+00 -0.36619026850E+03  0.36619026850E+03  0.00000000000E+00 0.  1.
         23    2    1    2    0    0  0.58309278439E+03 -0.52760558135E+03  0.34667313125E+03  0.86420932944E+03  0.91162823996E+02 0.  0.
        254    2    1    2    0    0 -0.58309278439E+03  0.52760558135E+03  0.32759096663E+04  0.34907540052E+04  0.91401014095E+03 0.  0.
        -24    2    4    4    0    0 -0.39726480738E+03  0.28821675164E+03  0.52847669430E+03  0.72556621974E+03  0.79186486875E+02 0.  0.
         24    2    4    4    0    0 -0.18582797701E+03  0.23938882972E+03  0.27474329720E+04  0.27651877854E+04  0.77694941218E+02 0.  0.
         13    1    3    3    0    0  0.64357013413E+02 -0.54538611679E+02  0.69950408259E+02  0.10958715689E+03  0.00000000000E+00 0. -1.
        -13    1    3    3    0    0  0.51873577098E+03 -0.47306696967E+03  0.27672272299E+03  0.75462217255E+03  0.00000000000E+00 0.  1.
          4    1    6    6  502    0 -0.15428776000E+03  0.14242269833E+03  0.17476775400E+04  0.17602459265E+04  0.00000000000E+00 0. -1.
          1    1    5    5  503    0 -0.11321345494E+03  0.11121773948E+03  0.12974506138E+03  0.20498890923E+03  0.00000000000E+00 0. -1.
         -2    1    5    5    0  503 -0.28405135244E+03  0.17699901215E+03  0.39873163292E+03  0.52057731051E+03  0.00000000000E+00 0.  1.
         -3    1    6    6    0  502 -0.31540217007E+02  0.96966131386E+02  0.99975543199E+03  0.10049418589E+04  0.00000000000E+00 0.  1.
<mgrwt>
<rscale>  0 0.24171470E+04</rscale>
<asrwt>0</asrwt>
<pdfrwt beam="1">  1        2 0.61365736E+00 0.24171470E+04</pdfrwt>
<pdfrwt beam="2">  1       -2 0.56336967E-01 0.24171470E+04</pdfrwt>
<totfact> 0.93164780E-01</totfact>
</mgrwt>
</event>
<event>
12    1  0.1541840E-007  0.1427390E+04  0.7818608E-02  0.8934227E-01
         -2   -1    0    0    0  501 -0.00000000000E+00  0.00000000000E+00  0.87319972217E+03  0.87319972217E+03  0.00000000000E+00 0. -1.
          2   -1    0    0  501    0  0.00000000000E+00 -0.00000000000E+00 -0.58332684786E+03  0.58332684786E+03  0.00000000000E+00 0.  1.
         23    2    1    2    0    0  0.17187833475E+03 -0.15426315511E+03 -0.27194082217E+03  0.37373655364E+03  0.11130102328E+03 0.  0.
        254    2    1    2    0    0 -0.17187833475E+03  0.15426315511E+03  0.56181369648E+03  0.10827900164E+04  0.89635947425E+03 0.  0.
        -24    2    4    4    0    0  0.13620917727E+03 -0.27685033486E+03  0.42290704034E+03  0.52900315976E+03  0.76124440094E+02 0.  0.
         24    2    4    4    0    0 -0.30808751203E+03  0.43111348997E+03  0.13890665614E+03  0.55378685664E+03  0.81290018799E+02 0.  0.
         13    1    3    3    0    0  0.76770429897E+02 -0.79475409633E+02 -0.50703766287E+02  0.12157677228E+03  0.00000000000E+00 0. -1.
        -13    1    3    3    0    0  0.95107904857E+02 -0.74787745476E+02 -0.22123705588E+03  0.25215978136E+03  0.00000000000E+00 0.  1.
          2    1    6    6  502    0 -0.22693473421E+03  0.26864943632E+03  0.11821167262E+03  0.37100659397E+03  0.00000000000E+00 0. -1.
          3    1    5    5  503    0  0.11373954686E+02 -0.18800534840E+02  0.55167604989E+01  0.22655277572E+02  0.00000000000E+00 0. -1.
         -4    1    5    5    0  503  0.12483522259E+03 -0.25804980002E+03  0.41739027984E+03  0.50634788219E+03  0.00000000000E+00 0.  1.
         -1    1    6    6    0  502 -0.81152777818E+02  0.16246405365E+03  0.20694983528E+02  0.18278026267E+03  0.00000000000E+00 0.  1.
<mgrwt>
<rscale>  0 0.14273904E+04</rscale>
<asrwt>0</asrwt>
<pdfrwt beam="1">  1        2 0.89742592E-01 0.14273904E+04</pdfrwt>
<pdfrwt beam="2">  1       -2 0.13433842E+00 0.14273904E+04</pdfrwt>
<totfact> 0.19902801E+01</totfact>
</mgrwt>
</event>
<event>
12    1  0.1541840E-007  0.1789799E+04  0.7818608E-02  0.8711743E-01
         -1   -1    0    0    0  501 -0.00000000000E+00  0.00000000000E+00  0.55181906460E+03  0.55181906460E+03  0.00000000000E+00 0.  1.
          1   -1    0    0  501    0  0.00000000000E+00 -0.00000000000E+00 -0.14512817781E+04  0.14512817781E+04  0.00000000000E+00 0. -1.
         23    2    1    2    0    0  0.18103544280E+02 -0.66199012546E+03 -0.37509774012E+03  0.76654518752E+03  0.91293731114E+02 0.  0.
        254    2    1    2    0    0 -0.18103544280E+02  0.66199012546E+03 -0.52436497340E+03  0.12365556552E+04  0.90307950845E+03 0.  0.
        -24    2    4    4    0    0  0.24523748400E+03  0.43355477675E+03 -0.68103955073E+03  0.84768409238E+03  0.81500201317E+02 0.  0.
         24    2    4    4    0    0 -0.26334102828E+03  0.22843534871E+03  0.15667457733E+03  0.38887156283E+03  0.71714457937E+02 0.  0.
         11    1    3    3    0    0  0.34471050656E+02 -0.60959205663E+03 -0.36303153408E+03  0.71033979445E+03  0.00000000000E+00 0. -1.
        -11    1    3    3    0    0 -0.16367506376E+02 -0.52398068825E+02 -0.12066206044E+02  0.56205393067E+02  0.00000000000E+00 0.  1.
          4    1    6    6  502    0 -0.41556966297E+01  0.45137949025E+01 -0.69565613605E+01  0.92756619636E+01  0.00000000000E+00 0. -1.
          3    1    5    5  503    0  0.72076193066E+01  0.36344402681E+02 -0.86372365417E+02  0.93984311936E+02  0.00000000000E+00 0. -1.
         -4    1    5    5    0  503  0.23802986470E+03  0.39721037406E+03 -0.59466718531E+03  0.75369978044E+03  0.00000000000E+00 0.  1.
         -3    1    6    6    0  502 -0.25918533165E+03  0.22392155381E+03  0.16363113869E+03  0.37959590087E+03  0.00000000000E+00 0.  1.
<mgrwt>
<rscale>  0 0.17897988E+04</rscale>
<asrwt>0</asrwt>
<pdfrwt beam="1">  1        1 0.22327412E+00 0.17897988E+04</pdfrwt>
<pdfrwt beam="2">  1       -1 0.84895241E-01 0.17897988E+04</pdfrwt>
<totfact> 0.91695536E+00</totfact>
</mgrwt>
</event>
<event>
12    1  0.1541840E-007  0.1090303E+04  0.7818608E-02  0.9214695E-01
         -2   -1    0    0    0  501 -0.00000000000E+00  0.00000000000E+00  0.15756408030E+03  0.15756408030E+03  0.00000000000E+00 0.  1.
          2   -1    0    0  501    0  0.00000000000E+00 -0.00000000000E+00 -0.18861531562E+04  0.18861531562E+04  0.00000000000E+00 0. -1.
         23    2    1    2    0    0  0.69696829905E+02 -0.88928246792E+02 -0.89928346432E+02  0.17004605502E+03  0.89792383635E+02 0.  0.
        254    2    1    2    0    0 -0.69696829905E+02  0.88928246792E+02 -0.16386607295E+04  0.18736711815E+04  0.90148146341E+03 0.  0.
        -24    2    4    4    0    0 -0.21789204708E+03  0.83759460684E+02 -0.16828584047E+04  0.17008251744E+04  0.79380553676E+02 0.  0.
         24    2    4    4    0    0  0.14819521717E+03  0.51687861074E+01  0.44197675195E+02  0.17284600709E+03  0.77030960860E+02 0.  0.
         11    1    3    3    0    0 -0.93319308025E+01  0.81747638443E+01  0.45349846921E+01  0.13209003845E+02  0.00000000000E+00 0. -1.
        -11    1    3    3    0    0  0.79028760708E+02 -0.97103010636E+02 -0.94463331124E+02  0.15683705117E+03  0.00000000000E+00 0.  1.
          4    1    6    6  502    0  0.12425519818E+03 -0.17369247714E+02  0.56685421923E+02  0.13767455138E+03  0.00000000000E+00 0. -1.
          3    1    5    5  503    0 -0.12995449595E+03  0.76956418206E+02 -0.12485258266E+04  0.12576276082E+04  0.00000000000E+00 0. -1.
         -4    1    5    5    0  503 -0.87937551130E+02  0.68030424788E+01 -0.43433257809E+03  0.44319756619E+03  0.00000000000E+00 0.  1.
         -3    1    6    6    0  502  0.23940018995E+02  0.22538033821E+02 -0.12487746727E+02  0.35171455704E+02  0.00000000000E+00 0.  1.
<mgrwt>
<rscale>  0 0.10903027E+04</rscale>
<asrwt>0</asrwt>
<pdfrwt beam="1">  1        2 0.29017740E+00 0.10903027E+04</pdfrwt>
<pdfrwt beam="2">  1       -2 0.24240629E-01 0.10903027E+04</pdfrwt>
<totfact> 0.11663096E+02</totfact>
</mgrwt>
</event>
<event>
12    1  0.1541840E-007  0.1930941E+04  0.7818608E-02  0.8639607E-01
         -2   -1    0    0    0  501 -0.00000000000E+00  0.00000000000E+00  0.54511082639E+03  0.54511082639E+03  0.00000000000E+00 0.  1.
          2   -1    0    0  501    0  0.00000000000E+00 -0.00000000000E+00 -0.17099882927E+04  0.17099882927E+04  0.00000000000E+00 0. -1.
         23    2    1    2    0    0 -0.64119102835E+02  0.23263552331E+03  0.37774758213E+03  0.45742423175E+03  0.91176454933E+02 0.  0.
        254    2    1    2    0    0  0.64119102835E+02 -0.23263552331E+03 -0.15426250485E+04  0.17976748874E+04  0.89090539028E+03 0.  0.
        -24    2    4    4    0    0  0.26977189864E+03 -0.28307658212E+02 -0.14587179203E+04  0.14859273449E+04  0.80894391837E+02 0.  0.
         24    2    4    4    0    0 -0.20565279580E+03 -0.20432786510E+03 -0.83907128195E+02  0.31174754244E+03  0.78122821135E+02 0.  0.
         11    1    3    3    0    0 -0.77532353709E+02  0.18637143220E+03  0.34315063479E+03  0.39811799101E+03  0.00000000000E+00 0.  1.
        -11    1    3    3    0    0  0.13413250874E+02  0.46264091110E+02  0.34596947343E+02  0.59306240740E+02  0.00000000000E+00 0. -1.
          4    1    6    6  502    0 -0.14232017572E+03 -0.13439299466E+03 -0.17821861256E+02  0.19655566176E+03  0.00000000000E+00 0. -1.
          3    1    5    5  503    0  0.25749837499E+03 -0.44665933485E+02 -0.13841280864E+04  0.14085847573E+04  0.00000000000E+00 0. -1.
         -2    1    5    5    0  503  0.12273523647E+02  0.16358275273E+02 -0.74589833861E+02  0.77342587673E+02  0.00000000000E+00 0.  1.
         -3    1    6    6    0  502 -0.63332620078E+02 -0.69934870437E+02 -0.66085266939E+02  0.11519188068E+03  0.00000000000E+00 0.  1.
<mgrwt>
<rscale>  0 0.19309408E+04</rscale>
<asrwt>0</asrwt>
<pdfrwt beam="1">  1        2 0.26307512E+00 0.19309408E+04</pdfrwt>
<pdfrwt beam="2">  1       -2 0.83863204E-01 0.19309408E+04</pdfrwt>
<totfact> 0.11237687E+01</totfact>
</mgrwt>
</event>
<event>
12    1  0.1541840E-007  0.1663746E+04  0.7818608E-02  0.8782316E-01
          2   -1    0    0  501    0  0.00000000000E+00  0.00000000000E+00  0.11983580587E+04  0.11983580587E+04  0.00000000000E+00 0. -1.
         -2   -1    0    0    0  501 -0.00000000000E+00 -0.00000000000E+00 -0.57746723685E+03  0.57746723685E+03  0.00000000000E+00 0.  1.
         23    2    1    2    0    0  0.45973296464E+03  0.35219664258E+03  0.28201541317E+03  0.65405975780E+03  0.11342221863E+03 0.  0.
        254    2    1    2    0    0 -0.45973296464E+03 -0.35219664258E+03  0.33887540863E+03  0.11217655377E+04  0.89895745461E+03 0.  0.
        -24    2    4    4    0    0  0.12284126862E+03  0.20664041726E+03  0.12523331356E+03  0.28281302378E+03  0.80681994726E+02 0.  0.
         24    2    4    4    0    0 -0.58257423326E+03 -0.55883705984E+03  0.21364209508E+03  0.83895251394E+03  0.80664608987E+02 0.  0.
         11    1    3    3    0    0  0.53408581521E+02  0.82472805732E+02  0.77812092228E+02  0.12533539788E+03  0.00000000000E+00 0. -1.
        -11    1    3    3    0    0  0.40632438312E+03  0.26972383685E+03  0.20420332095E+03  0.52872435992E+03  0.00000000000E+00 0.  1.
          2    1    6    6  502    0 -0.22774912008E+03 -0.16565146586E+03  0.69506429882E+02  0.29007104929E+03  0.00000000000E+00 0. -1.
          3    1    5    5  503    0  0.28531920949E+02  0.26428490748E+01  0.10876153328E+02  0.30648749982E+02  0.00000000000E+00 0. -1.
         -4    1    5    5    0  503  0.94309347667E+02  0.20399756819E+03  0.11435716023E+03  0.25216427380E+03  0.00000000000E+00 0.  1.
         -1    1    6    6    0  502 -0.35482511318E+03 -0.39318559398E+03  0.14413566520E+03  0.54888146465E+03  0.00000000000E+00 0.  1.
<mgrwt>
<rscale>  0 0.16637458E+04</rscale>
<asrwt>0</asrwt>
<pdfrwt beam="1">  1        2 0.18436278E+00 0.16637458E+04</pdfrwt>
<pdfrwt beam="2">  1       -2 0.88841113E-01 0.16637458E+04</pdfrwt>
<totfact> 0.19728093E+01</totfact>
</mgrwt>
</event>
<event>
12    1  0.1541840E-007  0.1832430E+04  0.7818608E-02  0.8689241E-01
          2   -1    0    0  501    0  0.00000000000E+00  0.00000000000E+00  0.21655995730E+04  0.21655995730E+04  0.00000000000E+00 0. -1.
         -2   -1    0    0    0  501 -0.00000000000E+00 -0.00000000000E+00 -0.38762954243E+03  0.38762954243E+03  0.00000000000E+00 0.  1.
         23    2    1    2    0    0 -0.10167014211E+03 -0.46789888335E+02 -0.27469431039E+03  0.30992007151E+03  0.89818567755E+02 0.  0.
        254    2    1    2    0    0  0.10167014211E+03  0.46789888335E+02  0.20526643409E+04  0.22433090439E+04  0.89804145695E+03 0.  0.
        -24    2    4    4    0    0 -0.20631760376E+02  0.28708450780E+03  0.17553002357E+03  0.34527270633E+03  0.74560501680E+02 0.  0.
         24    2    4    4    0    0  0.12230190249E+03 -0.24029461946E+03  0.18771343174E+04  0.18980363376E+04  0.78799960300E+02 0.  0.
         13    1    3    3    0    0 -0.81690159688E+02 -0.34090740219E+01 -0.10189944282E+03  0.13064608843E+03  0.00000000000E+00 0. -1.
        -13    1    3    3    0    0 -0.19979982425E+02 -0.43380814313E+02 -0.17279486758E+03  0.17927398308E+03  0.00000000000E+00 0.  1.
          2    1    6    6  502    0  0.11655528545E+03 -0.24475213656E+03  0.17682484961E+04  0.17889079034E+04  0.00000000000E+00 0. -1.
          3    1    5    5  503    0  0.17331932264E+02  0.11460890035E+03  0.10041297719E+03  0.15335697540E+03  0.00000000000E+00 0. -1.
         -4    1    5    5    0  503 -0.37963692640E+02  0.17247560745E+03  0.75117046379E+02  0.19191573093E+03  0.00000000000E+00 0.  1.
         -3    1    6    6    0  502  0.57466170408E+01  0.44575170976E+01  0.10888582127E+03  0.10912843415E+03  0.00000000000E+00 0.  1.
<mgrwt>
<rscale>  0 0.18324305E+04</rscale>
<asrwt>0</asrwt>
<pdfrwt beam="1">  1        2 0.33316916E+00 0.18324305E+04</pdfrwt>
<pdfrwt beam="2">  1       -2 0.59635315E-01 0.18324305E+04</pdfrwt>
<totfact> 0.13340031E+01</totfact>
</mgrwt>
</event>
<event>
12    1  0.1816739E-007  0.1711516E+04  0.7818608E-02  0.8754823E-01
          1   -1    0    0  501    0  0.00000000000E+00  0.00000000000E+00  0.24747224401E+04  0.24747224401E+04  0.00000000000E+00 0. -1.
         -1   -1    0    0    0  501 -0.00000000000E+00 -0.00000000000E+00 -0.29592085268E+03  0.29592085268E+03  0.00000000000E+00 0.  1.
         23    2    1    2    0    0 -0.12008714543E+03  0.25607144627E+03 -0.87666065918E+02  0.30911404722E+03  0.88727938001E+02 0.  0.
        254    2    1    2    0    0  0.12008714543E+03 -0.25607144627E+03  0.22664676534E+04  0.24615292456E+04  0.91774565925E+03 0.  0.
        -24    2    4    4    0    0 -0.53628978661E+02 -0.31517930318E+03  0.22326866444E+04  0.22568895981E+04  0.80292873446E+02 0.  0.
         24    2    4    4    0    0  0.17371612409E+03  0.59107856907E+02  0.33781008928E+02  0.20463964744E+03  0.84054733493E+02 0.  0.
         13    1    3    3    0    0 -0.68019520998E+02  0.22631396517E+03 -0.66130715786E+02  0.24539343438E+03  0.00000000000E+00 0.  1.
        -13    1    3    3    0    0 -0.52067624427E+02  0.29757481106E+02 -0.21535350132E+02  0.63720612839E+02  0.00000000000E+00 0. -1.
          2    1    6    6  502    0  0.15529219985E+03  0.36792256077E+02 -0.74122118444E+00  0.15959287844E+03  0.00000000000E+00 0. -1.
          1    1    5    5  503    0 -0.35115308859E+02 -0.27806125950E+03  0.20748450510E+04  0.20936888820E+04  0.00000000000E+00 0. -1.
         -2    1    5    5    0  503 -0.18513669802E+02 -0.37118043676E+02  0.15784159343E+03  0.16320071615E+03  0.00000000000E+00 0.  1.
         -1    1    6    6    0  502  0.18423924239E+02  0.22315600830E+02  0.34522230113E+02  0.45046768994E+02  0.00000000000E+00 0.  1.
<mgrwt>
<rscale>  0 0.17115163E+04</rscale>
<asrwt>0</asrwt>
<pdfrwt beam="1">  1        1 0.38072652E+00 0.17115163E+04</pdfrwt>
<pdfrwt beam="2">  1       -1 0.45526287E-01 0.17115163E+04</pdfrwt>
<totfact> 0.64350185E+00</totfact>
</mgrwt>
</event>
<event>
12    1  0.1541840E-007  0.2623667E+04  0.7818608E-02  0.8360206E-01
         -1   -1    0    0    0  501 -0.00000000000E+00  0.00000000000E+00  0.13808105515E+04  0.13808105515E+04  0.00000000000E+00 0.  1.
          1   -1    0    0  501    0  0.00000000000E+00 -0.00000000000E+00 -0.12463020012E+04  0.12463020012E+04  0.00000000000E+00 0. -1.
         23    2    1    2    0    0 -0.57924372281E+02  0.92051260502E+03  0.76164641097E+03  0.11995887492E+04  0.90604762029E+02 0.  0.
        254    2    1    2    0    0  0.57924372281E+02 -0.92051260502E+03 -0.62713786066E+03  0.14275238036E+04  0.89096780225E+03 0.  0.
        -24    2    4    4    0    0  0.11176745074E+03 -0.10136678898E+03  0.19753141253E+03  0.26111573808E+03  0.79972375129E+02 0.  0.
         24    2    4    4    0    0 -0.53843078459E+02 -0.81914581605E+03 -0.82466927318E+03  0.11664080655E+04  0.80804827372E+02 0.  0.
         11    1    3    3    0    0 -0.58610481154E+02  0.89909060473E+03  0.72228548444E+03  0.11547707240E+04  0.00000000000E+00 0.  1.
        -11    1    3    3    0    0  0.68610887303E+00  0.21422000293E+02  0.39360926536E+02  0.44818025165E+02  0.00000000000E+00 0. -1.
          4    1    6    6  502    0  0.21245112175E+02 -0.22565940553E+03 -0.22463564319E+03  0.31911548739E+03  0.00000000000E+00 0. -1.
          3    1    5    5  503    0  0.15192550804E+02  0.27363072967E+01 -0.26714529286E+01  0.15666449448E+02  0.00000000000E+00 0. -1.
         -4    1    5    5    0  503  0.96574899935E+02 -0.10410309627E+03  0.20020286545E+03  0.24544928863E+03  0.00000000000E+00 0.  1.
         -3    1    6    6    0  502 -0.75088190635E+02 -0.59348641051E+03 -0.60003362999E+03  0.84729257813E+03  0.00000000000E+00 0.  1.
<mgrwt>
<rscale>  0 0.26236669E+04</rscale>
<asrwt>0</asrwt>
<pdfrwt beam="1">  1        1 0.19173877E+00 0.26236669E+04</pdfrwt>
<pdfrwt beam="2">  1       -1 0.21243239E+00 0.26236669E+04</pdfrwt>
<totfact> 0.10756006E+00</totfact>
</mgrwt>
</event>
<event>
12    1  0.1541840E-007  0.1609856E+04  0.7818608E-02  0.8814516E-01
          2   -1    0    0  501    0  0.00000000000E+00  0.00000000000E+00  0.37961742510E+04  0.37961742510E+04  0.00000000000E+00 0. -1.
         -2   -1    0    0    0  501 -0.00000000000E+00 -0.00000000000E+00 -0.17067417526E+03  0.17067417526E+03  0.00000000000E+00 0.  1.
         23    2    1    2    0    0 -0.99158346236E+02 -0.34129399434E+03  0.22037704539E+03  0.42721725468E+03  0.87376039968E+02 0.  0.
        254    2    1    2    0    0  0.99158346236E+02  0.34129399434E+03  0.34051230303E+04  0.35396311715E+04  0.89878362847E+03 0.  0.
        -24    2    4    4    0    0  0.18502068764E+03  0.50089070059E+03  0.10931324362E+04  0.12192491865E+04  0.80659203211E+02 0.  0.
         24    2    4    4    0    0 -0.85862341409E+02 -0.15959670625E+03  0.23119905941E+04  0.23203819850E+04  0.77644050915E+02 0.  0.
         13    1    3    3    0    0 -0.58185709070E+02 -0.26345350509E+03  0.20277755253E+03  0.33750861010E+03  0.00000000000E+00 0.  1.
        -13    1    3    3    0    0 -0.40972637166E+02 -0.77840489253E+02  0.17599492866E+02  0.89708644582E+02  0.00000000000E+00 0. -1.
          4    1    6    6  502    0 -0.44628353589E+02 -0.21355854310E+02  0.42108926191E+03  0.42398576504E+03  0.00000000000E+00 0. -1.
          3    1    5    5  503    0  0.31043000406E+01  0.92601474009E+02  0.20572117746E+03  0.22562329783E+03  0.00000000000E+00 0. -1.
         -4    1    5    5    0  503  0.18191638760E+03  0.40828922658E+03  0.88741125872E+03  0.99362588872E+03  0.00000000000E+00 0.  1.
         -3    1    6    6    0  502 -0.41233987820E+02 -0.13824085194E+03  0.18909013322E+04  0.18963962200E+04  0.00000000000E+00 0.  1.
<mgrwt>
<rscale>  0 0.16098558E+04</rscale>
<asrwt>0</asrwt>
<pdfrwt beam="1">  1        2 0.58402675E+00 0.16098558E+04</pdfrwt>
<pdfrwt beam="2">  1       -2 0.26257568E-01 0.16098558E+04</pdfrwt>
<totfact> 0.63169711E+00</totfact>
</mgrwt>
</event>
<event>
12    1  0.1541840E-007  0.1623938E+04  0.7818608E-02  0.8805976E-01
          2   -1    0    0  501    0  0.00000000000E+00  0.00000000000E+00  0.13833917888E+04  0.13833917888E+04  0.00000000000E+00 0. -1.
         -2   -1    0    0    0  501 -0.00000000000E+00 -0.00000000000E+00 -0.47657761173E+03  0.47657761173E+03  0.00000000000E+00 0.  1.
         23    2    1    2    0    0 -0.47894202637E+03 -0.28944392438E+03  0.35339505162E+03  0.66814770490E+03  0.91487939464E+02 0.  0.
        254    2    1    2    0    0  0.47894202637E+03  0.28944392438E+03  0.55341912549E+03  0.11918216957E+04  0.89498769591E+03 0.  0.
        -24    2    4    4    0    0  0.37961354351E+03  0.25547942037E+02  0.74604859442E+03  0.84136484923E+03  0.80914550821E+02 0.  0.
         24    2    4    4    0    0  0.99328482865E+02  0.26389598234E+03 -0.19262946893E+03  0.35045684644E+03  0.78782307118E+02 0.  0.
         13    1    3    3    0    0 -0.48166764783E+03 -0.28777805932E+03  0.35558519169E+03  0.66427461411E+03  0.00000000000E+00 0. -1.
        -13    1    3    3    0    0  0.27256214591E+01 -0.16658650637E+01 -0.21901400762E+01  0.38730907945E+01  0.00000000000E+00 0.  1.
          4    1    6    6  502    0  0.30432066841E+02  0.81557187056E+02 -0.18301973943E+02  0.88953064606E+02  0.00000000000E+00 0. -1.
          3    1    5    5  503    0  0.14254771994E+03  0.41687541285E+02  0.23874462343E+03  0.28117023095E+03  0.00000000000E+00 0. -1.
         -4    1    5    5    0  503  0.23706582357E+03 -0.16139599248E+02  0.50730397099E+03  0.56019461828E+03  0.00000000000E+00 0.  1.
         -3    1    6    6    0  502  0.68896416024E+02  0.18233879529E+03 -0.17432749498E+03  0.26150378184E+03  0.00000000000E+00 0.  1.
<mgrwt>
<rscale>  0 0.16239379E+04</rscale>
<asrwt>0</asrwt>
<pdfrwt beam="1">  1        2 0.21282951E+00 0.16239379E+04</pdfrwt>
<pdfrwt beam="2">  1       -2 0.73319633E-01 0.16239379E+04</pdfrwt>
<totfact> 0.23771187E+01</totfact>
</mgrwt>
</event>
<event>
12    1  0.1541840E-007  0.1888889E+04  0.7818608E-02  0.8660407E-01
         -2   -1    0    0    0  501 -0.00000000000E+00  0.00000000000E+00  0.44980027852E+03  0.44980027852E+03  0.00000000000E+00 0.  1.
          2   -1    0    0  501    0  0.00000000000E+00 -0.00000000000E+00 -0.19830470657E+04  0.19830470657E+04  0.00000000000E+00 0. -1.
         23    2    1    2    0    0  0.70392244669E+03 -0.81228135281E+02 -0.38351780602E+03  0.81080949851E+03  0.90671464218E+02 0.  0.
        254    2    1    2    0    0 -0.70392244669E+03  0.81228135281E+02 -0.11497289811E+04  0.16220378457E+04  0.89834582530E+03 0.  0.
        -24    2    4    4    0    0 -0.80172613515E+03  0.30198685177E+01 -0.48350357676E+03  0.93961643369E+03  0.79557641581E+02 0.  0.
         24    2    4    4    0    0  0.97803688452E+02  0.78208266763E+02 -0.66622540437E+03  0.68242141199E+03  0.78489487470E+02 0.  0.
         13    1    3    3    0    0  0.46647932085E+03 -0.77637025304E+02 -0.29507341306E+03  0.55740360922E+03  0.00000000000E+00 0. -1.
        -13    1    3    3    0    0  0.23744312584E+03 -0.35911099770E+01 -0.88444392958E+02  0.25340588929E+03  0.00000000000E+00 0.  1.
          2    1    6    6  502    0  0.36399622817E+02  0.55442031586E+02 -0.18046486441E+03  0.19226627030E+03  0.00000000000E+00 0. -1.
          1    1    5    5  503    0 -0.11703541932E+03 -0.20610632528E+02 -0.50284388479E+02  0.12903723212E+03  0.00000000000E+00 0. -1.
         -2    1    5    5    0  503 -0.68469071582E+03  0.23630501046E+02 -0.43321918828E+03  0.81057920157E+03  0.00000000000E+00 0.  1.
         -1    1    6    6    0  502  0.61404065635E+02  0.22766235177E+02 -0.48576053996E+03  0.49015514169E+03  0.00000000000E+00 0.  1.
<mgrwt>
<rscale>  0 0.18888887E+04</rscale>
<asrwt>0</asrwt>
<pdfrwt beam="1">  1        2 0.30508416E+00 0.18888887E+04</pdfrwt>
<pdfrwt beam="2">  1       -2 0.69200044E-01 0.18888887E+04</pdfrwt>
<totfact> 0.12199595E+01</totfact>
</mgrwt>
</event>
<event>
12    1  0.1541840E-007  0.1319917E+04  0.7818608E-02  0.9013918E-01
         -2   -1    0    0    0  501 -0.00000000000E+00  0.00000000000E+00  0.50686312684E+03  0.50686312684E+03  0.00000000000E+00 0.  1.
          2   -1    0    0  501    0  0.00000000000E+00 -0.00000000000E+00 -0.85929524769E+03  0.85929524769E+03  0.00000000000E+00 0. -1.
         23    2    1    2    0    0 -0.60565585974E+00  0.21874574905E+02  0.25550378400E+03  0.27227485669E+03  0.91501639883E+02 0.  0.
        254    2    1    2    0    0  0.60565585974E+00 -0.21874574905E+02 -0.60793590485E+03  0.10938835178E+04  0.90912937601E+03 0.  0.
        -24    2    4    4    0    0  0.20855631927E+03 -0.21955859881E+03  0.97650563978E+02  0.32797388046E+03  0.79558261660E+02 0.  0.
         24    2    4    4    0    0 -0.20795066341E+03  0.19768402391E+03 -0.70558646883E+03  0.76590963737E+03  0.80267402457E+02 0.  0.
         13    1    3    3    0    0 -0.11727358347E+02  0.51671092228E+00  0.24616900670E+03  0.24644873256E+03  0.00000000000E+00 0.  1.
        -13    1    3    3    0    0  0.11121702487E+02  0.21357863983E+02  0.93347773035E+01  0.25826124127E+02  0.00000000000E+00 0. -1.
          4    1    6    6  502    0 -0.14590455354E+03  0.91307413935E+02 -0.46068535746E+03  0.49178875664E+03  0.00000000000E+00 0. -1.
          3    1    5    5  503    0  0.16563874722E+03 -0.12620892769E+03  0.83078484947E+02  0.22420286053E+03  0.00000000000E+00 0. -1.
         -4    1    5    5    0  503  0.42917572047E+02 -0.93349671124E+02  0.14572079031E+02  0.10377101993E+03  0.00000000000E+00 0.  1.
         -3    1    6    6    0  502 -0.62046109871E+02  0.10637660997E+03 -0.24490111137E+03  0.27412088073E+03  0.00000000000E+00 0.  1.
<mgrwt>
<rscale>  0 0.13199168E+04</rscale>
<asrwt>0</asrwt>
<pdfrwt beam="1">  1        2 0.13219927E+00 0.13199168E+04</pdfrwt>
<pdfrwt beam="2">  1       -2 0.77978943E-01 0.13199168E+04</pdfrwt>
<totfact> 0.44826059E+01</totfact>
</mgrwt>
</event>
<event>
12    1  0.1541840E-007  0.1285502E+04  0.7818608E-02  0.9041141E-01
          1   -1    0    0  501    0  0.00000000000E+00  0.00000000000E+00  0.15045655705E+04  0.15045655705E+04  0.00000000000E+00 0. -1.
         -1   -1    0    0    0  501 -0.00000000000E+00 -0.00000000000E+00 -0.27458368061E+03  0.27458368061E+03  0.00000000000E+00 0.  1.
         23    2    1    2    0    0 -0.24155354710E+03 -0.17398110768E+03  0.49528762726E+03  0.58487351223E+03  0.90275410005E+02 0.  0.
        254    2    1    2    0    0  0.24155354710E+03  0.17398110768E+03  0.73469426258E+03  0.11942757388E+04  0.89325323338E+03 0.  0.
        -24    2    4    4    0    0  0.44578645852E+03 -0.10977061453E+03  0.69186927261E+03  0.83367420139E+03  0.74528043590E+02 0.  0.
         24    2    4    4    0    0 -0.20423291142E+03  0.28375172222E+03  0.42824989979E+02  0.36060153744E+03  0.77287560896E+02 0.  0.
         13    1    3    3    0    0 -0.21629391625E+03 -0.18361786798E+03  0.45922798305E+03  0.53980452023E+03  0.00000000000E+00 0. -1.
        -13    1    3    3    0    0 -0.25259630846E+02  0.96367602959E+01  0.36059644207E+02  0.45068991999E+02  0.00000000000E+00 0.  1.
          4    1    6    6  502    0 -0.13937010335E+03  0.13739430978E+03  0.34209240900E+01  0.19573687642E+03  0.00000000000E+00 0. -1.
          1    1    5    5  503    0  0.60498769707E+01 -0.32651049531E+00  0.35869195246E+02  0.36377283957E+02  0.00000000000E+00 0. -1.
         -2    1    5    5    0  503  0.43973658155E+03 -0.10944410404E+03  0.65600007736E+03  0.79729691744E+03  0.00000000000E+00 0.  1.
         -1    1    6    6    0  502 -0.64862808070E+02  0.14635741243E+03  0.39404065889E+02  0.16486466102E+03  0.00000000000E+00 0.  1.
<mgrwt>
<rscale>  0 0.12855025E+04</rscale>
<asrwt>0</asrwt>
<pdfrwt beam="1">  1        1 0.23147162E+00 0.12855025E+04</pdfrwt>
<pdfrwt beam="2">  1       -1 0.42243644E-01 0.12855025E+04</pdfrwt>
<totfact> 0.35179922E+01</totfact>
</mgrwt>
</event>
<event>
12    1  0.1541840E-007  0.2310688E+04  0.7818608E-02  0.8473719E-01
         -2   -1    0    0    0  501 -0.00000000000E+00  0.00000000000E+00  0.11976733346E+04  0.11976733346E+04  0.00000000000E+00 0. -1.
          2   -1    0    0  501    0  0.00000000000E+00 -0.00000000000E+00 -0.11145110158E+04  0.11145110158E+04  0.00000000000E+00 0.  1.
         23    2    1    2    0    0 -0.16415029268E+03  0.80228658968E+03 -0.49339450489E+03  0.96062762113E+03  0.93585246994E+02 0.  0.
        254    2    1    2    0    0  0.16415029268E+03 -0.80228658968E+03  0.57655682367E+03  0.13515567293E+04  0.90756748010E+03 0.  0.
        -24    2    4    4    0    0  0.35462216303E+03 -0.58553148787E+03  0.73878654615E+03  0.10102521825E+04  0.78739505369E+02 0.  0.
         24    2    4    4    0    0 -0.19047187035E+03 -0.21675510181E+03 -0.16222972248E+03  0.34130454675E+03  0.83114398383E+02 0.  0.
         11    1    3    3    0    0 -0.80056655019E+02  0.38651051581E+03 -0.18344127367E+03  0.43525871356E+03  0.00000000000E+00 0.  1.
        -11    1    3    3    0    0 -0.84093637660E+02  0.41577607387E+03 -0.30995323122E+03  0.52536890757E+03  0.00000000000E+00 0. -1.
          2    1    6    6  502    0 -0.17653823292E+03 -0.16093955734E+03 -0.15123348020E+03  0.28273460052E+03  0.00000000000E+00 0. -1.
          1    1    5    5  503    0  0.18440627117E+03 -0.23234541675E+03  0.33455002797E+03  0.44711719576E+03  0.00000000000E+00 0. -1.
         -2    1    5    5    0  503  0.17021589186E+03 -0.35318607112E+03  0.40423651818E+03  0.56313498676E+03  0.00000000000E+00 0.  1.
         -1    1    6    6    0  502 -0.13933637426E+02 -0.55815544470E+02 -0.10996242287E+02  0.58569946225E+02  0.00000000000E+00 0.  1.
<mgrwt>
<rscale>  0 0.23106883E+04</rscale>
<asrwt>0</asrwt>
<pdfrwt beam="1">  1        2 0.17146323E+00 0.23106883E+04</pdfrwt>
<pdfrwt beam="2">  1       -2 0.18425744E+00 0.23106883E+04</pdfrwt>
<totfact> 0.32768488E+00</totfact>
</mgrwt>
</event>
<event>
12    1  0.1541840E-007  0.1524403E+04  0.7818608E-02  0.8868386E-01
         -2   -1    0    0    0  501 -0.00000000000E+00  0.00000000000E+00  0.86661940488E+03  0.86661940488E+03  0.00000000000E+00 0.  1.
          2   -1    0    0  501    0  0.00000000000E+00 -0.00000000000E+00 -0.67036439756E+03  0.67036439756E+03  0.00000000000E+00 0. -1.
         23    2    1    2    0    0 -0.40092983469E+03 -0.27878919074E+03 -0.11306810974E+02  0.49666294821E+03  0.89878222774E+02 0.  0.
        254    2    1    2    0    0  0.40092983469E+03  0.27878919074E+03  0.20756181830E+03  0.10403208542E+04  0.89482815451E+03 0.  0.
        -24    2    4    4    0    0  0.33760952379E+03  0.29574691544E+03 -0.28471731489E+03  0.53730493970E+03  0.78652528719E+02 0.  0.
         24    2    4    4    0    0  0.63320310901E+02 -0.16957724700E+02  0.49227913319E+03  0.50301591453E+03  0.79932716070E+02 0.  0.
         13    1    3    3    0    0 -0.65677363223E+02 -0.84935055935E+02 -0.20423476116E+02  0.10929134524E+03  0.00000000000E+00 0. -1.
        -13    1    3    3    0    0 -0.33525247147E+03 -0.19385413481E+03  0.91166651415E+01  0.38737160297E+03  0.00000000000E+00 0.  1.
          4    1    6    6  502    0  0.58975845168E+02  0.22329842363E+02  0.33188795863E+03  0.33782597481E+03  0.00000000000E+00 0. -1.
          3    1    5    5  503    0  0.15092217281E+03  0.14952524461E+03 -0.17843174766E+03  0.27744042530E+03  0.00000000000E+00 0. -1.
         -4    1    5    5    0  503  0.18668735098E+03  0.14622167083E+03 -0.10628556724E+03  0.25986451439E+03  0.00000000000E+00 0.  1.
         -3    1    6    6    0  502  0.43444657323E+01 -0.39287567064E+02  0.16039117456E+03  0.16518993972E+03  0.00000000000E+00 0.  1.
<mgrwt>
<rscale>  0 0.15244026E+04</rscale>
<asrwt>0</asrwt>
<pdfrwt beam="1">  1        2 0.10313298E+00 0.15244026E+04</pdfrwt>
<pdfrwt beam="2">  1       -2 0.13332606E+00 0.15244026E+04</pdfrwt>
<totfact> 0.16989071E+01</totfact>
</mgrwt>
</event>
<event>
12    1  0.1541840E-007  0.1938741E+04  0.7818608E-02  0.8635809E-01
          1   -1    0    0  501    0  0.00000000000E+00  0.00000000000E+00  0.22957951996E+04  0.22957951996E+04  0.00000000000E+00 0. -1.
         -1   -1    0    0    0  501 -0.00000000000E+00 -0.00000000000E+00 -0.40930463920E+03  0.40930463920E+03  0.00000000000E+00 0.  1.
         23    2    1    2    0    0  0.13949614362E+03 -0.71009797455E+03  0.10406493822E+04  0.12707247812E+04  0.89955685776E+02 0.  0.
        254    2    1    2    0    0 -0.13949614362E+03  0.71009797455E+03  0.84584117824E+03  0.14343750576E+04  0.90459173086E+03 0.  0.
        -24    2    4    4    0    0 -0.51292923462E+03  0.33448402658E+03  0.38657320408E+03  0.72823579393E+03  0.76893209615E+02 0.  0.
         24    2    4    4    0    0  0.37343309100E+03  0.37561394798E+03  0.45926797416E+03  0.70613926368E+03  0.84660948831E+02 0.  0.
         13    1    3    3    0    0  0.23202167252E+02 -0.30865455008E+02  0.75609936227E+02  0.84899230469E+02  0.00000000000E+00 0.  1.
        -13    1    3    3    0    0  0.11629397636E+03 -0.67923251955E+03  0.96503944598E+03  0.11858255508E+04  0.00000000000E+00 0. -1.
          2    1    6    6  502    0  0.18479385056E+03  0.13170010611E+03  0.21729948031E+03  0.31418585152E+03  0.00000000000E+00 0. -1.
          3    1    5    5  503    0 -0.41921738416E+03  0.29460749224E+03  0.29476784375E+03  0.59112170606E+03  0.00000000000E+00 0. -1.
         -4    1    5    5    0  503 -0.93711850459E+02  0.39876534340E+02  0.91805360329E+02  0.13711408787E+03  0.00000000000E+00 0.  1.
         -1    1    6    6    0  502  0.18863924044E+03  0.24391384187E+03  0.24196849385E+03  0.39195341217E+03  0.00000000000E+00 0.  1.
<mgrwt>
<rscale>  0 0.19387415E+04</rscale>
<asrwt>0</asrwt>
<pdfrwt beam="1">  1        1 0.35319925E+00 0.19387415E+04</pdfrwt>
<pdfrwt beam="2">  1       -1 0.62969946E-01 0.19387415E+04</pdfrwt>
<totfact> 0.44702547E+00</totfact>
</mgrwt>
</event>
<event>
12    1  0.1541840E-007  0.2461321E+04  0.7818608E-02  0.8416896E-01
         -2   -1    0    0    0  501 -0.00000000000E+00  0.00000000000E+00  0.64058016406E+03  0.64058016406E+03  0.00000000000E+00 0.  1.
          2   -1    0    0  501    0  0.00000000000E+00 -0.00000000000E+00 -0.23643017445E+04  0.23643017445E+04  0.00000000000E+00 0. -1.
         23    2    1    2    0    0  0.18433087743E+03  0.23707401910E+02 -0.20276669880E+04  0.20387502286E+04  0.10261173089E+03 0.  0.
        254    2    1    2    0    0 -0.18433087743E+03 -0.23707401910E+02  0.30394540759E+03  0.96613167988E+03  0.89804660168E+03 0.  0.
        -24    2    4    4    0    0  0.12958096500E+03  0.30851067137E+03  0.36240527446E+03  0.50000418568E+03  0.81832401347E+02 0.  0.
         24    2    4    4    0    0 -0.31391184242E+03 -0.33221807328E+03 -0.58459866864E+02  0.46612749419E+03  0.70340541533E+02 0.  0.
         13    1    3    3    0    0  0.13491819753E+03 -0.15211368127E+02 -0.10020701115E+04  0.10112263911E+04  0.00000000000E+00 0.  1.
        -13    1    3    3    0    0  0.49412679895E+02  0.38918770036E+02 -0.10255968765E+04  0.10275238375E+04  0.00000000000E+00 0. -1.
          4    1    6    6  502    0 -0.19617707682E+03 -0.25330589593E+03 -0.48553041290E+02  0.32404740426E+03  0.00000000000E+00 0. -1.
          1    1    5    5  503    0  0.48141539716E+02  0.87282462435E+02  0.16383984612E+03  0.19177938177E+03  0.00000000000E+00 0. -1.
         -2    1    5    5    0  503  0.81439425280E+02  0.22122820893E+03  0.19856542833E+03  0.30822480391E+03  0.00000000000E+00 0.  1.
         -3    1    6    6    0  502 -0.11773476560E+03 -0.78912177345E+02 -0.99068255736E+01  0.14208008994E+03  0.00000000000E+00 0.  1.
<mgrwt>
<rscale>  0 0.24613206E+04</rscale>
<asrwt>0</asrwt>
<pdfrwt beam="1">  1        2 0.36373874E+00 0.24613206E+04</pdfrwt>
<pdfrwt beam="2">  1       -2 0.98550793E-01 0.24613206E+04</pdfrwt>
<totfact> 0.31872714E+00</totfact>
</mgrwt>
</event>
<event>
12    1  0.1541840E-007  0.1530201E+04  0.7818608E-02  0.8864614E-01
         -1   -1    0    0    0  501 -0.00000000000E+00  0.00000000000E+00  0.25662157973E+03  0.25662157973E+03  0.00000000000E+00 0.  1.
          1   -1    0    0  501    0  0.00000000000E+00 -0.00000000000E+00 -0.22810983703E+04  0.22810983703E+04  0.00000000000E+00 0. -1.
         23    2    1    2    0    0 -0.36879226370E+03 -0.10341327268E+03 -0.16189869206E+03  0.42546766124E+03  0.90052793088E+02 0.  0.
        254    2    1    2    0    0  0.36879226370E+03  0.10341327268E+03 -0.18625780985E+04  0.21122522888E+04  0.91962520610E+03 0.  0.
        -24    2    4    4    0    0 -0.50719189741E+02 -0.10339840911E+03 -0.15197293102E+04  0.15257016046E+04  0.70175086275E+02 0.  0.
         24    2    4    4    0    0  0.41951145344E+03  0.20681168179E+03 -0.34284878827E+03  0.58655068416E+03  0.87951589979E+02 0.  0.
         13    1    3    3    0    0 -0.27610499578E+02  0.13037362792E+02 -0.64866265427E+00  0.30540682356E+02  0.00000000000E+00 0. -1.
        -13    1    3    3    0    0 -0.34118176412E+03 -0.11645063547E+03 -0.16125002941E+03  0.39492697889E+03  0.00000000000E+00 0.  1.
          2    1    6    6  502    0  0.31405293892E+03  0.11185528379E+03 -0.25410249640E+03  0.41917649223E+03  0.00000000000E+00 0. -1.
          3    1    5    5  503    0 -0.42031906742E+02 -0.98610011147E+02 -0.14978252399E+04  0.15016561074E+04  0.00000000000E+00 0. -1.
         -4    1    5    5    0  503 -0.86872829992E+01 -0.47883979651E+01 -0.21904070259E+02  0.24045497186E+02  0.00000000000E+00 0.  1.
         -1    1    6    6    0  502  0.10545851452E+03  0.94956398001E+02 -0.88746291863E+02  0.16737419193E+03  0.00000000000E+00 0.  1.
<mgrwt>
<rscale>  0 0.15302014E+04</rscale>
<asrwt>0</asrwt>
<pdfrwt beam="1">  1        1 0.35093820E+00 0.15302014E+04</pdfrwt>
<pdfrwt beam="2">  1       -1 0.39480245E-01 0.15302014E+04</pdfrwt>
<totfact> 0.11560196E+01</totfact>
</mgrwt>
</event>
<event>
12    1  0.1541840E-007  0.2903825E+04  0.7818608E-02  0.8271740E-01
          2   -1    0    0  501    0  0.00000000000E+00  0.00000000000E+00  0.22313311782E+04  0.22313311782E+04  0.00000000000E+00 0. -1.
         -2   -1    0    0    0  501 -0.00000000000E+00 -0.00000000000E+00 -0.94474979829E+03  0.94474979829E+03  0.00000000000E+00 0.  1.
         23    2    1    2    0    0 -0.45504842517E+03  0.12254871409E+04  0.66296697944E+03  0.14686455762E+04  0.92232375483E+02 0.  0.
        254    2    1    2    0    0  0.45504842517E+03 -0.12254871409E+04  0.62361440051E+03  0.17074354003E+04  0.90418633251E+03 0.  0.
        -24    2    4    4    0    0 -0.82974498623E+02 -0.99001037085E+03  0.38213643129E+03  0.10673761797E+04  0.79109765230E+02 0.  0.
         24    2    4    4    0    0  0.53802292380E+03 -0.23547677003E+03  0.24147796922E+03  0.64005922063E+03  0.80288358681E+02 0.  0.
         11    1    3    3    0    0 -0.49797606783E+02  0.19608609204E+03  0.13166338302E+03  0.24138103397E+03  0.00000000000E+00 0.  1.
        -11    1    3    3    0    0 -0.40525081839E+03  0.10294010488E+04  0.53130359643E+03  0.12272645423E+04  0.00000000000E+00 0. -1.
          2    1    6    6  502    0  0.10445356816E+03 -0.23963788006E+02  0.70350767856E+02  0.12819532587E+03  0.00000000000E+00 0. -1.
          3    1    5    5  503    0 -0.29480098801E+02 -0.19916756114E+03  0.10924542938E+03  0.22906627311E+03  0.00000000000E+00 0. -1.
         -4    1    5    5    0  503 -0.53494399821E+02 -0.79084280971E+03  0.27289100191E+03  0.83830990654E+03  0.00000000000E+00 0.  1.
         -1    1    6    6    0  502  0.43356935564E+03 -0.21151298202E+03  0.17112720137E+03  0.51186389476E+03  0.00000000000E+00 0.  1.
<mgrwt>
<rscale>  0 0.29038248E+04</rscale>
<asrwt>0</asrwt>
<pdfrwt beam="1">  1        2 0.34328172E+00 0.29038248E+04</pdfrwt>
<pdfrwt beam="2">  1       -2 0.14534612E+00 0.29038248E+04</pdfrwt>
<totfact> 0.13929005E+00</totfact>
</mgrwt>
</event>
<event>
12    1  0.1541840E-007  0.1304655E+04  0.7818608E-02  0.9025882E-01
          2   -1    0    0  501    0  0.00000000000E+00  0.00000000000E+00  0.36574508008E+04  0.36574508008E+04  0.00000000000E+00 0.  1.
         -2   -1    0    0    0  501 -0.00000000000E+00 -0.00000000000E+00 -0.11634634508E+03  0.11634634508E+03  0.00000000000E+00 0. -1.
         23    2    1    2    0    0  0.26439186810E+03 -0.98800602957E+02  0.42311612450E+03  0.51657362210E+03  0.90312973430E+02 0.  0.
        254    2    1    2    0    0 -0.26439186810E+03  0.98800602957E+02  0.31179883312E+04  0.32572235238E+04  0.89888221205E+03 0.  0.
        -24    2    4    4    0    0 -0.48125607361E+03  0.29491558802E+03  0.25555370586E+04  0.26183221466E+04  0.79111269040E+02 0.  0.
         24    2    4    4    0    0  0.21686420551E+03 -0.19611498506E+03  0.56245127261E+03  0.63890137720E+03  0.79701723487E+02 0.  0.
         11    1    3    3    0    0  0.20437632341E+03 -0.11354968470E+03  0.34892598275E+03  0.42001494486E+03  0.00000000000E+00 0. -1.
        -11    1    3    3    0    0  0.60015544690E+02  0.14749081744E+02  0.74190141754E+02  0.96558677239E+02  0.00000000000E+00 0.  1.
          2    1    6    6  502    0 -0.70006593158E+01 -0.68707589344E+01  0.15326835948E+02  0.18196935439E+02  0.00000000000E+00 0. -1.
          1    1    5    5  503    0 -0.15998071229E+03  0.10468362907E+03  0.70299302825E+03  0.72852706763E+03  0.00000000000E+00 0. -1.
         -2    1    5    5    0  503 -0.32127536132E+03  0.19023195895E+03  0.18525440304E+04  0.18897950790E+04  0.00000000000E+00 0.  1.
         -1    1    6    6    0  502  0.22386486482E+03 -0.18924422612E+03  0.54712443666E+03  0.62070444176E+03  0.00000000000E+00 0.  1.
<mgrwt>
<rscale>  0 0.13046548E+04</rscale>
<asrwt>0</asrwt>
<pdfrwt beam="1">  1        2 0.56268465E+00 0.13046548E+04</pdfrwt>
<pdfrwt beam="2">  1       -2 0.17899441E-01 0.13046548E+04</pdfrwt>
<totfact> 0.16338472E+01</totfact>
</mgrwt>
</event>
<event>
12    1  0.1541840E-007  0.1726744E+04  0.7818608E-02  0.8746257E-01
          2   -1    0    0  501    0  0.00000000000E+00  0.00000000000E+00  0.80905968871E+03  0.80905968871E+03  0.00000000000E+00 0. -1.
         -2   -1    0    0    0  501 -0.00000000000E+00 -0.00000000000E+00 -0.92133030343E+03  0.92133030343E+03  0.00000000000E+00 0.  1.
         23    2    1    2    0    0  0.55091239187E+03  0.12689505409E+03  0.23229011228E+03  0.61796407903E+03  0.91181623383E+02 0.  0.
        254    2    1    2    0    0 -0.55091239187E+03 -0.12689505409E+03 -0.34456072700E+03  0.11124259131E+04  0.89395889128E+03 0.  0.
        -24    2    4    4    0    0 -0.74345624450E+02 -0.27920269761E+03 -0.49956478192E+03  0.58259060861E+03  0.79783630335E+02 0.  0.
         24    2    4    4    0    0 -0.47656676742E+03  0.15230764352E+03  0.15500405492E+03  0.52983530450E+03  0.79910517268E+02 0.  0.
         13    1    3    3    0    0  0.18308656519E+02  0.20341187680E+02  0.23453267081E+02  0.36042010994E+02  0.00000000000E+00 0.  1.
        -13    1    3    3    0    0  0.53260373535E+03  0.10655386641E+03  0.20883684520E+03  0.58192206804E+03  0.00000000000E+00 0. -1.
          4    1    6    6  502    0 -0.24049078040E+03  0.62302933523E+02  0.11604854999E+03  0.27419835327E+03  0.00000000000E+00 0. -1.
          3    1    5    5  503    0 -0.14622430540E+02 -0.10302333091E+02 -0.90986702499E+01  0.20068366708E+02  0.00000000000E+00 0. -1.
         -4    1    5    5    0  503 -0.59723193911E+02 -0.26890036452E+03 -0.49046611167E+03  0.56252224190E+03  0.00000000000E+00 0.  1.
         -3    1    6    6    0  502 -0.23607598702E+03  0.90004709996E+02  0.38955504935E+02  0.25563695123E+03  0.00000000000E+00 0.  1.
<mgrwt>
<rscale>  0 0.17267440E+04</rscale>
<asrwt>0</asrwt>
<pdfrwt beam="1">  1        2 0.12447072E+00 0.17267440E+04</pdfrwt>
<pdfrwt beam="2">  1       -2 0.14174312E+00 0.17267440E+04</pdfrwt>
<totfact> 0.11201587E+01</totfact>
</mgrwt>
</event>
<event>
12    1  0.1541840E-007  0.1980406E+04  0.7818608E-02  0.8615837E-01
         -2   -1    0    0    0  501 -0.00000000000E+00  0.00000000000E+00  0.19509031459E+04  0.19509031459E+04  0.00000000000E+00 0.  1.
          2   -1    0    0  501    0  0.00000000000E+00 -0.00000000000E+00 -0.50258863545E+03  0.50258863545E+03  0.00000000000E+00 0. -1.
         23    2    1    2    0    0 -0.21937754240E+03 -0.11332784923E+03 -0.34111621449E+03  0.42947178590E+03  0.84356597696E+02 0.  0.
        254    2    1    2    0    0  0.21937754240E+03  0.11332784923E+03  0.17894307250E+04  0.20240199955E+04  0.91303062112E+03 0.  0.
        -24    2    4    4    0    0 -0.32768681839E+03 -0.75483233141E+01  0.39839023760E+03  0.52214860676E+03  0.80552827327E+02 0.  0.
         24    2    4    4    0    0  0.54706436078E+03  0.12087617254E+03  0.13910404874E+04  0.15018713887E+04  0.82058313670E+02 0.  0.
         13    1    3    3    0    0 -0.78827681584E+02 -0.10580867730E+01 -0.13079213426E+03  0.15271380198E+03  0.00000000000E+00 0.  1.
        -13    1    3    3    0    0 -0.14054986081E+03 -0.11226976246E+03 -0.21032408023E+03  0.27675798392E+03  0.00000000000E+00 0. -1.
          2    1    6    6  502    0  0.41720130700E+03  0.89704197354E+02  0.95898330285E+03  0.10496441057E+04  0.00000000000E+00 0. -1.
          3    1    5    5  503    0 -0.21752514748E+03 -0.18650860048E+01  0.20178188050E+03  0.29670961499E+03  0.00000000000E+00 0. -1.
         -4    1    5    5    0  503 -0.11016167091E+03 -0.56832373093E+01  0.19660835711E+03  0.22543899177E+03  0.00000000000E+00 0.  1.
         -1    1    6    6    0  502  0.12986305379E+03  0.31171975189E+02  0.43205718451E+03  0.45222728297E+03  0.00000000000E+00 0.  1.
<mgrwt>
<rscale>  0 0.19804058E+04</rscale>
<asrwt>0</asrwt>
<pdfrwt beam="1">  1        2 0.77321329E-01 0.19804058E+04</pdfrwt>
<pdfrwt beam="2">  1       -2 0.30013894E+00 0.19804058E+04</pdfrwt>
<totfact> 0.18087700E+00</totfact>
</mgrwt>
</event>
<event>
12    1  0.1541840E-007  0.2873447E+04  0.7818608E-02  0.8280822E-01
          1   -1    0    0  501    0  0.00000000000E+00  0.00000000000E+00  0.18780652536E+04  0.18780652536E+04  0.00000000000E+00 0. -1.
         -1   -1    0    0    0  501 -0.00000000000E+00 -0.00000000000E+00 -0.10990960611E+04  0.10990960611E+04  0.00000000000E+00 0.  1.
         23    2    1    2    0    0  0.10205101943E+04 -0.75144124926E+03  0.61661169957E+03  0.14124849528E+04  0.93801631803E+02 0.  0.
        254    2    1    2    0    0 -0.10205101943E+04  0.75144124926E+03  0.16235749292E+03  0.15646763618E+04  0.90318721978E+03 0.  0.
        -24    2    4    4    0    0 -0.92797336436E+03  0.93884007547E+03  0.20098064977E+03  0.13377933019E+04  0.82112390831E+02 0.  0.
         24    2    4    4    0    0 -0.92536829968E+02 -0.18739882621E+03 -0.38623156851E+02  0.22688305995E+03  0.79390110715E+02 0.  0.
         13    1    3    3    0    0  0.57304036447E+02 -0.71413958510E+02  0.50246764735E+02  0.10444349396E+03  0.00000000000E+00 0.  1.
        -13    1    3    3    0    0  0.96320615788E+03 -0.68002729075E+03  0.56636493483E+03  0.13080414589E+04  0.00000000000E+00 0. -1.
          2    1    6    6  502    0  0.15384342090E+01 -0.26571037544E+02  0.18019716614E+02  0.32141826377E+02  0.00000000000E+00 0. -1.
          1    1    5    5  503    0 -0.36267754953E+03  0.34889353697E+03  0.38438793188E+02  0.50471699584E+03  0.00000000000E+00 0. -1.
         -2    1    5    5    0  503 -0.56529581483E+03  0.58994653850E+03  0.16254185659E+03  0.83307630605E+03  0.00000000000E+00 0.  1.
         -1    1    6    6    0  502 -0.94075264177E+02 -0.16082778867E+03 -0.56642873466E+02  0.19474123357E+03  0.00000000000E+00 0.  1.
<mgrwt>
<rscale>  0 0.28734468E+04</rscale>
<asrwt>0</asrwt>
<pdfrwt beam="1">  1        1 0.28893312E+00 0.28734468E+04</pdfrwt>
<pdfrwt beam="2">  1       -1 0.16909170E+00 0.28734468E+04</pdfrwt>
<totfact> 0.77513089E-01</totfact>
</mgrwt>
</event>
<event>
12    1  0.1541840E-007  0.1298184E+04  0.7818608E-02  0.9031007E-01
          2   -1    0    0  501    0  0.00000000000E+00  0.00000000000E+00  0.21873584261E+03  0.21873584261E+03  0.00000000000E+00 0. -1.
         -2   -1    0    0    0  501 -0.00000000000E+00 -0.00000000000E+00 -0.19261602854E+04  0.19261602854E+04  0.00000000000E+00 0.  1.
         23    2    1    2    0    0 -0.16229452552E+03  0.27420459165E+03 -0.32309574321E+03  0.46289931508E+03  0.91417971577E+02 0.  0.
        254    2    1    2    0    0  0.16229452552E+03 -0.27420459165E+03 -0.13843286995E+04  0.16819968129E+04  0.90067733350E+03 0.  0.
        -24    2    4    4    0    0 -0.40160740965E+02  0.30052459866E+03 -0.66879719949E+03  0.73875882533E+03  0.80913462672E+02 0.  0.
         24    2    4    4    0    0  0.20245526648E+03 -0.57472919031E+03 -0.71553150004E+03  0.94323798755E+03  0.80067449541E+02 0.  0.
         11    1    3    3    0    0 -0.13087718405E+03  0.23588636363E+03 -0.21846560215E+03  0.34712884232E+03  0.00000000000E+00 0. -1.
        -11    1    3    3    0    0 -0.31417341468E+02  0.38318228019E+02 -0.10463014107E+03  0.11577047276E+03  0.00000000000E+00 0.  1.
          2    1    6    6  502    0  0.68365130992E+02 -0.31254085054E+03 -0.38349685383E+03  0.49942508075E+03  0.00000000000E+00 0. -1.
          1    1    5    5  503    0  0.24864150086E+02  0.85688672918E+02 -0.18101134836E+03  0.20180654811E+03  0.00000000000E+00 0. -1.
         -2    1    5    5    0  503 -0.65024891051E+02  0.21483592575E+03 -0.48778585114E+03  0.53695227722E+03  0.00000000000E+00 0.  1.
         -1    1    6    6    0  502  0.13409013549E+03 -0.26218833978E+03 -0.33203464621E+03  0.44381290679E+03  0.00000000000E+00 0.  1.
<mgrwt>
<rscale>  0 0.12981838E+04</rscale>
<asrwt>0</asrwt>
<pdfrwt beam="1">  1        2 0.33651667E-01 0.12981838E+04</pdfrwt>
<pdfrwt beam="2">  1       -2 0.29633236E+00 0.12981838E+04</pdfrwt>
<totfact> 0.51619660E+00</totfact>
</mgrwt>
</event>
<event>
12    1  0.1541840E-007  0.1191231E+04  0.7818608E-02  0.9120567E-01
          1   -1    0    0  501    0  0.00000000000E+00  0.00000000000E+00  0.83628944309E+03  0.83628944309E+03  0.00000000000E+00 0. -1.
         -1   -1    0    0    0  501 -0.00000000000E+00 -0.00000000000E+00 -0.42420475357E+03  0.42420475357E+03  0.00000000000E+00 0.  1.
         23    2    1    2    0    0  0.30815491961E+02  0.97477587562E+02 -0.14750571998E+03  0.20141672335E+03  0.91429122243E+02 0.  0.
        254    2    1    2    0    0 -0.30815491961E+02 -0.97477587562E+02  0.55959040950E+03  0.10590774733E+04  0.89333767046E+03 0.  0.
        -24    2    4    4    0    0 -0.13514074317E+03 -0.41443152936E+03  0.52353028527E+02  0.44651955131E+03  0.81377866250E+02 0.  0.
         24    2    4    4    0    0  0.10432525121E+03  0.31695394179E+03  0.50723738097E+03  0.61255792201E+03  0.81202757957E+02 0.  0.
         11    1    3    3    0    0  0.53714435793E+02  0.92531386699E+02 -0.91769555085E+02  0.14095726082E+03  0.00000000000E+00 0. -1.
        -11    1    3    3    0    0 -0.22898943832E+02  0.49462008628E+01 -0.55736164897E+02  0.60459462527E+02  0.00000000000E+00 0.  1.
          2    1    6    6  502    0  0.64722603605E+02  0.80815393668E+02  0.13906106274E+03  0.17337278460E+03  0.00000000000E+00 0. -1.
          3    1    5    5  503    0 -0.54596370456E+02 -0.28585072167E+03  0.22505588256E+02  0.29188679355E+03  0.00000000000E+00 0. -1.
         -4    1    5    5    0  503 -0.80544372713E+02 -0.12858080768E+03  0.29847440270E+02  0.15463275776E+03  0.00000000000E+00 0.  1.
         -1    1    6    6    0  502  0.39602647602E+02  0.23613854813E+03  0.36817631824E+03  0.43918513741E+03  0.00000000000E+00 0.  1.
<mgrwt>
<rscale>  0 0.11912312E+04</rscale>
<asrwt>0</asrwt>
<pdfrwt beam="1">  1        1 0.12865991E+00 0.11912312E+04</pdfrwt>
<pdfrwt beam="2">  1       -1 0.65262270E-01 0.11912312E+04</pdfrwt>
<totfact> 0.48501805E+01</totfact>
</mgrwt>
</event>
<event>
12    1  0.1541840E-007  0.2225778E+04  0.7818608E-02  0.8507775E-01
          2   -1    0    0  501    0  0.00000000000E+00  0.00000000000E+00  0.19434187228E+04  0.19434187228E+04  0.00000000000E+00 0.  1.
         -2   -1    0    0    0  501 -0.00000000000E+00 -0.00000000000E+00 -0.63729028916E+03  0.63729028916E+03  0.00000000000E+00 0. -1.
         23    2    1    2    0    0 -0.47290367561E+02 -0.70995449314E+03 -0.14467307731E+03  0.73155259916E+03  0.89258864300E+02 0.  0.
        254    2    1    2    0    0  0.47290367561E+02  0.70995449314E+03  0.14508015109E+04  0.18491564128E+04  0.89904541241E+03 0.  0.
        -24    2    4    4    0    0 -0.30929391970E+03 -0.28927183214E+02  0.36251941511E+03  0.48398452804E+03  0.79505888843E+02 0.  0.
         24    2    4    4    0    0  0.35658428726E+03  0.73888167635E+03  0.10882820958E+04  0.13651718847E+04  0.78980182321E+02 0.  0.
         13    1    3    3    0    0  0.47418363561E+00 -0.55276985731E+03 -0.11525301490E+03  0.56465741600E+03  0.00000000000E+00 0. -1.
        -13    1    3    3    0    0 -0.47764551197E+02 -0.15718463582E+03 -0.29420062411E+02  0.16689518316E+03  0.00000000000E+00 0.  1.
          2    1    6    6  502    0  0.34851114187E+03  0.72316001663E+03  0.10799653981E+04  0.13456395085E+04  0.00000000000E+00 0. -1.
          3    1    5    5  503    0 -0.30498069116E+03 -0.15227020007E+02  0.33752676703E+03  0.45515865649E+03  0.00000000000E+00 0. -1.
         -4    1    5    5    0  503 -0.43132285341E+01 -0.13700163207E+02  0.24992648083E+02  0.28825871548E+02  0.00000000000E+00 0.  1.
         -1    1    6    6    0  502  0.80731453937E+01  0.15721659721E+02  0.83166976910E+01  0.19532376236E+02  0.00000000000E+00 0.  1.
<mgrwt>
<rscale>  0 0.22257780E+04</rscale>
<asrwt>0</asrwt>
<pdfrwt beam="1">  1        2 0.29898749E+00 0.22257780E+04</pdfrwt>
<pdfrwt beam="2">  1       -2 0.98044661E-01 0.22257780E+04</pdfrwt>
<totfact> 0.56701709E+00</totfact>
</mgrwt>
</event>
<event>
12    1  0.1541840E-007  0.2635968E+04  0.7818608E-02  0.8356085E-01
          2   -1    0    0  501    0  0.00000000000E+00  0.00000000000E+00  0.37529683193E+04  0.37529683193E+04  0.00000000000E+00 0. -1.
         -2   -1    0    0    0  501 -0.00000000000E+00 -0.00000000000E+00 -0.46285559941E+03  0.46285559941E+03  0.00000000000E+00 0.  1.
         23    2    1    2    0    0 -0.10726369586E+04  0.24573137619E+03  0.86113649800E+03  0.14002865592E+04  0.91172503280E+02 0.  0.
        254    2    1    2    0    0  0.10726369586E+04 -0.24573137619E+03  0.24289762219E+04  0.28155373595E+04  0.90354368023E+03 0.  0.
        -24    2    4    4    0    0  0.11394419057E+04 -0.30287160752E+03  0.16611188691E+04  0.20385907336E+04  0.80481144891E+02 0.  0.
         24    2    4    4    0    0 -0.66804947026E+02  0.57140231329E+02  0.76785735275E+03  0.77694662592E+03  0.79455889512E+02 0.  0.
         13    1    3    3    0    0 -0.77140678005E+03  0.14059776017E+03  0.63917201336E+03  0.10116209829E+04  0.00000000000E+00 0.  1.
        -13    1    3    3    0    0 -0.30123017858E+03  0.10513361602E+03  0.22196448464E+03  0.38866557623E+03  0.00000000000E+00 0. -1.
          4    1    6    6  502    0  0.55101524074E+01  0.38496169500E+02  0.16710832153E+03  0.17157362260E+03  0.00000000000E+00 0. -1.
          1    1    5    5  503    0  0.71506029570E+03 -0.15191111946E+03  0.10500553513E+04  0.12794547493E+04  0.00000000000E+00 0. -1.
         -2    1    5    5    0  503  0.42438160996E+03 -0.15096048806E+03  0.61106351785E+03  0.75913598431E+03  0.00000000000E+00 0.  1.
         -3    1    6    6    0  502 -0.72315099433E+02  0.18644061829E+02  0.60074903122E+03  0.60537300332E+03  0.00000000000E+00 0.  1.
<mgrwt>
<rscale>  0 0.26359684E+04</rscale>
<asrwt>0</asrwt>
<pdfrwt beam="1">  1        2 0.57737972E+00 0.26359684E+04</pdfrwt>
<pdfrwt beam="2">  1       -2 0.71208556E-01 0.26359684E+04</pdfrwt>
<totfact> 0.84268169E-01</totfact>
</mgrwt>
</event>
<event>
12    1  0.1541840E-007  0.2100969E+04  0.7818608E-02  0.8560817E-01
          1   -1    0    0  501    0  0.00000000000E+00  0.00000000000E+00  0.30589010871E+04  0.30589010871E+04  0.00000000000E+00 0. -1.
         -1   -1    0    0    0  501 -0.00000000000E+00 -0.00000000000E+00 -0.36075635291E+03  0.36075635291E+03  0.00000000000E+00 0.  1.
         23    2    1    2    0    0  0.34681133836E+03 -0.31748218306E+02 -0.16761259590E+03  0.40092915152E+03  0.10660276005E+03 0.  0.
        254    2    1    2    0    0 -0.34681133836E+03  0.31748218306E+02  0.28657573301E+04  0.30187282885E+04  0.88253575050E+03 0.  0.
        -24    2    4    4    0    0 -0.23474829650E+03 -0.41094344694E+03  0.16032195520E+04  0.16735673805E+04  0.80830476089E+02 0.  0.
         24    2    4    4    0    0 -0.11206304186E+03  0.44269166524E+03  0.12625377781E+04  0.13451609080E+04  0.83199708108E+02 0.  0.
         13    1    3    3    0    0  0.35416519617E+03 -0.32617321916E+02 -0.16833503491E+03  0.39348895772E+03  0.00000000000E+00 0.  1.
        -13    1    3    3    0    0 -0.73538578068E+01  0.86910360994E+00  0.72243900650E+00  0.74401938043E+01  0.00000000000E+00 0. -1.
          4    1    6    6  502    0 -0.30751641855E+01  0.10435969863E+02  0.91480871203E+02  0.92125544220E+02  0.00000000000E+00 0. -1.
          1    1    5    5  503    0 -0.71859149661E+02 -0.12332052809E+03  0.62208299677E+03  0.63824677430E+03  0.00000000000E+00 0. -1.
         -4    1    5    5    0  503 -0.16288914684E+03 -0.28762291885E+03  0.98113655524E+03  0.10353206062E+04  0.00000000000E+00 0.  1.
         -3    1    6    6    0  502 -0.10898787768E+03  0.43225569538E+03  0.11710569069E+04  0.12530353638E+04  0.00000000000E+00 0.  1.
<mgrwt>
<rscale>  0 0.21009693E+04</rscale>
<asrwt>0</asrwt>
<pdfrwt beam="1">  1        1 0.47060015E+00 0.21009693E+04</pdfrwt>
<pdfrwt beam="2">  1       -1 0.55500980E-01 0.21009693E+04</pdfrwt>
<totfact> 0.16362206E+00</totfact>
</mgrwt>
</event>
<event>
12    1  0.1541840E-007  0.2106024E+04  0.7818608E-02  0.8558594E-01
          1   -1    0    0  501    0  0.00000000000E+00  0.00000000000E+00  0.15902496961E+04  0.15902496961E+04  0.00000000000E+00 0. -1.
         -1   -1    0    0    0  501 -0.00000000000E+00 -0.00000000000E+00 -0.69727083937E+03  0.69727083937E+03  0.00000000000E+00 0.  1.
         23    2    1    2    0    0 -0.69282297468E+03 -0.32427812897E+01 -0.18309792760E+03  0.72247691443E+03  0.91836000102E+02 0.  0.
        254    2    1    2    0    0  0.69282297468E+03  0.32427812897E+01  0.10760767843E+04  0.15650436210E+04  0.90078082801E+03 0.  0.
        -24    2    4    4    0    0  0.65720682942E+02 -0.34588396848E+02  0.89992897996E+03  0.90745146506E+03  0.89891195939E+02 0.  0.
         24    2    4    4    0    0  0.62710229174E+03  0.37831178138E+02  0.17614780436E+03  0.65759215598E+03  0.81920157948E+02 0.  0.
         13    1    3    3    0    0 -0.61460074772E+03  0.19744505790E+02 -0.14167498173E+03  0.63102751529E+03  0.00000000000E+00 0.  1.
        -13    1    3    3    0    0 -0.78222226959E+02 -0.22987287080E+02 -0.41422945869E+02  0.91449399135E+02  0.00000000000E+00 0. -1.
          4    1    6    6  502    0  0.58671183242E+03  0.14520728489E+02  0.16136783148E+03  0.60867167084E+03  0.00000000000E+00 0. -1.
          3    1    5    5  503    0  0.68057754993E+02 -0.59360400442E+02  0.64111457687E+03  0.64744375495E+03  0.00000000000E+00 0. -1.
         -4    1    5    5    0  503 -0.23370720509E+01  0.24772003594E+02  0.25881440309E+03  0.26000771011E+03  0.00000000000E+00 0.  1.
         -3    1    6    6    0  502  0.40390459321E+02  0.23310449649E+02  0.14779972886E+02  0.48920485132E+02  0.00000000000E+00 0.  1.
<mgrwt>
<rscale>  0 0.21060244E+04</rscale>
<asrwt>0</asrwt>
<pdfrwt beam="1">  1        1 0.24465380E+00 0.21060244E+04</pdfrwt>
<pdfrwt beam="2">  1       -1 0.10727244E+00 0.21060244E+04</pdfrwt>
<totfact> 0.42177081E+00</totfact>
</mgrwt>
</event>
<event>
12    1  0.1903758E-007  0.2254798E+04  0.7818608E-02  0.8495960E-01
         -1   -1    0    0    0  501 -0.00000000000E+00  0.00000000000E+00  0.53428075578E+03  0.53428075578E+03  0.00000000000E+00 0.  1.
          1   -1    0    0  501    0  0.00000000000E+00 -0.00000000000E+00 -0.23789520204E+04  0.23789520204E+04  0.00000000000E+00 0. -1.
         23    2    1    2    0    0 -0.45139792396E+02  0.45376919438E+03 -0.18502064700E+04  0.19077563015E+04  0.91247145331E+02 0.  0.
        254    2    1    2    0    0  0.45139792396E+02 -0.45376919438E+03  0.55352054281E+01  0.10054764747E+04  0.89610725920E+03 0.  0.
        -24    2    4    4    0    0 -0.41244483978E+03 -0.28949601599E+03 -0.35411986303E+02  0.51143614562E+03  0.79963949017E+02 0.  0.
         24    2    4    4    0    0  0.45758463218E+03 -0.16427317839E+03  0.40947191731E+02  0.49404032905E+03  0.77651796314E+02 0.  0.
         11    1    3    3    0    0 -0.41934434267E+02  0.12722716161E+03 -0.42480688596E+03  0.44542803884E+03  0.00000000000E+00 0.  1.
        -11    1    3    3    0    0 -0.32053581296E+01  0.32654203277E+03 -0.14253995841E+04  0.14623282627E+04  0.00000000000E+00 0. -1.
          2    1    6    6  502    0  0.44344761512E+03 -0.14729236422E+03  0.50456019385E+02  0.46998578468E+03  0.00000000000E+00 0. -1.
          1    1    5    5  503    0 -0.41592367473E+03 -0.28922175735E+03 -0.36086827834E+02  0.50788186349E+03  0.00000000000E+00 0. -1.
         -2    1    5    5    0  503  0.34788349448E+01 -0.27425863683E+00  0.67484153105E+00  0.35542821307E+01  0.00000000000E+00 0.  1.
         -1    1    6    6    0  502  0.14137017062E+02 -0.16980814172E+02 -0.95088276547E+01  0.24054544367E+02  0.00000000000E+00 0.  1.
<mgrwt>
<rscale>  0 0.22547978E+04</rscale>
<asrwt>0</asrwt>
<pdfrwt beam="1">  1        1 0.36599262E+00 0.22547978E+04</pdfrwt>
<pdfrwt beam="2">  1       -1 0.82197038E-01 0.22547978E+04</pdfrwt>
<totfact> 0.21937646E+00</totfact>
</mgrwt>
</event>
<event>
12    1  0.1541840E-007  0.2587963E+04  0.7818608E-02  0.8372301E-01
          2   -1    0    0  501    0  0.00000000000E+00  0.00000000000E+00  0.11476304409E+04  0.11476304409E+04  0.00000000000E+00 0. -1.
         -2   -1    0    0    0  501 -0.00000000000E+00 -0.00000000000E+00 -0.14589959755E+04  0.14589959755E+04  0.00000000000E+00 0.  1.
         23    2    1    2    0    0 -0.75341862306E+03 -0.48878433534E+03 -0.82391572551E+03  0.12220192871E+04  0.89130619751E+02 0.  0.
        254    2    1    2    0    0  0.75341862306E+03  0.48878433534E+03  0.51255019099E+03  0.13846071292E+04  0.92080370113E+03 0.  0.
        -24    2    4    4    0    0 -0.67828318313E+02  0.33781322758E+03 -0.73877668913E+02  0.36112295922E+03  0.78952037465E+02 0.  0.
         24    2    4    4    0    0  0.82124694138E+03  0.15097110776E+03  0.58642785990E+03  0.10234841700E+04  0.79896165863E+02 0.  0.
         11    1    3    3    0    0 -0.81454056769E+02 -0.39475942355E+02 -0.52401495274E+02  0.10458981832E+03  0.00000000000E+00 0. -1.
        -11    1    3    3    0    0 -0.67196456629E+03 -0.44930839298E+03 -0.77151423023E+03  0.11174294688E+04  0.00000000000E+00 0.  1.
          4    1    6    6  502    0  0.67887301508E+03  0.10322798356E+03  0.45330014846E+03  0.82280350739E+03  0.00000000000E+00 0. -1.
          3    1    5    5  503    0 -0.32227727015E+02  0.24789140950E+03 -0.20897532627E+02  0.25084952493E+03  0.00000000000E+00 0. -1.
         -4    1    5    5    0  503 -0.35600591298E+02  0.89921818080E+02 -0.52980136286E+02  0.11027343428E+03  0.00000000000E+00 0.  1.
         -3    1    6    6    0  502  0.14237392630E+03  0.47743124202E+02  0.13312771144E+03  0.20068066263E+03  0.00000000000E+00 0.  1.
<mgrwt>
<rscale>  0 0.25879631E+04</rscale>
<asrwt>0</asrwt>
<pdfrwt beam="1">  1        2 0.17655853E+00 0.25879631E+04</pdfrwt>
<pdfrwt beam="2">  1       -2 0.22446092E+00 0.25879631E+04</pdfrwt>
<totfact> 0.16704968E+00</totfact>
</mgrwt>
</event>
<event>
12    1  0.1541840E-007  0.2188444E+04  0.7818608E-02  0.8523254E-01
         -2   -1    0    0    0  501 -0.00000000000E+00  0.00000000000E+00  0.93335422897E+03  0.93335422897E+03  0.00000000000E+00 0.  1.
          2   -1    0    0  501    0  0.00000000000E+00 -0.00000000000E+00 -0.12828156624E+04  0.12828156624E+04  0.00000000000E+00 0. -1.
         23    2    1    2    0    0  0.42603985591E+03 -0.46412179179E+03  0.51145312133E+03  0.81620986957E+03  0.87722627735E+02 0.  0.
        254    2    1    2    0    0 -0.42603985591E+03  0.46412179179E+03 -0.86091455472E+03  0.13999600218E+04  0.90652920281E+03 0.  0.
        -24    2    4    4    0    0  0.26537505632E+03  0.90612190750E+02 -0.36625385182E+03  0.46780700726E+03  0.77891093470E+02 0.  0.
         24    2    4    4    0    0 -0.69141491224E+03  0.37350960104E+03 -0.49466070290E+03  0.93215301450E+03  0.81584486908E+02 0.  0.
         13    1    3    3    0    0  0.37169404209E+03 -0.44016780789E+03  0.47352618561E+03  0.74574205224E+03  0.00000000000E+00 0.  1.
        -13    1    3    3    0    0  0.54345813827E+02 -0.23953983904E+02  0.37926935720E+02  0.70467817325E+02  0.00000000000E+00 0. -1.
          4    1    6    6  502    0 -0.31634914011E+03  0.13722684473E+03 -0.24912213240E+03  0.42540547977E+03  0.00000000000E+00 0. -1.
          1    1    5    5  503    0  0.16023275291E+03  0.58626741435E+02 -0.15902257081E+03  0.23323766408E+03  0.00000000000E+00 0. -1.
         -2    1    5    5    0  503  0.10514230341E+03  0.31985449316E+02 -0.20723128101E+03  0.23456934318E+03  0.00000000000E+00 0.  1.
         -3    1    6    6    0  502 -0.37506577212E+03  0.23628275631E+03 -0.24553857050E+03  0.50674753473E+03  0.00000000000E+00 0.  1.
<mgrwt>
<rscale>  0 0.21884437E+04</rscale>
<asrwt>0</asrwt>
<pdfrwt beam="1">  1        2 0.19735626E+00 0.21884437E+04</pdfrwt>
<pdfrwt beam="2">  1       -2 0.14359296E+00 0.21884437E+04</pdfrwt>
<totfact> 0.52042806E+00</totfact>
</mgrwt>
</event>
<event>
12    1  0.1541840E-007  0.1765447E+04  0.7818608E-02  0.8724893E-01
         -1   -1    0    0    0  501 -0.00000000000E+00  0.00000000000E+00  0.77146031886E+03  0.77146031886E+03  0.00000000000E+00 0.  1.
          1   -1    0    0  501    0  0.00000000000E+00 -0.00000000000E+00 -0.10100330150E+04  0.10100330150E+04  0.00000000000E+00 0. -1.
         23    2    1    2    0    0  0.29988694444E+03 -0.54544117066E+03 -0.27407069551E+03  0.68704841371E+03  0.97378265276E+02 0.  0.
        254    2    1    2    0    0 -0.29988694444E+03  0.54544117066E+03  0.35497999328E+02  0.10944449202E+04  0.89950615634E+03 0.  0.
        -24    2    4    4    0    0 -0.20758950321E+03  0.62201775194E+03  0.35072584218E+03  0.74794066098E+03  0.80044552526E+02 0.  0.
         24    2    4    4    0    0 -0.92297441234E+02 -0.76576581287E+02 -0.31522784285E+03  0.34650425922E+03  0.79459538676E+02 0.  0.
         11    1    3    3    0    0  0.31001446789E+02 -0.13656181686E+03 -0.73715921080E+02  0.15825377262E+03  0.00000000000E+00 0.  1.
        -11    1    3    3    0    0  0.26888549765E+03 -0.40887935380E+03 -0.20035477443E+03  0.52879464109E+03  0.00000000000E+00 0. -1.
          2    1    6    6  502    0 -0.65149939382E+02 -0.25736352716E+02 -0.24921248032E+03  0.25887011183E+03  0.00000000000E+00 0. -1.
          1    1    5    5  503    0 -0.20429643190E+03  0.56918906252E+03  0.30182593478E+03  0.67587877307E+03  0.00000000000E+00 0. -1.
         -2    1    5    5    0  503 -0.32930713131E+01  0.52828689428E+02  0.48899907400E+02  0.72061887909E+02  0.00000000000E+00 0.  1.
         -1    1    6    6    0  502 -0.27147501852E+02 -0.50840228571E+02 -0.66015362539E+02  0.87634147392E+02  0.00000000000E+00 0.  1.
<mgrwt>
<rscale>  0 0.17654466E+04</rscale>
<asrwt>0</asrwt>
<pdfrwt beam="1">  1        1 0.15538970E+00 0.17654466E+04</pdfrwt>
<pdfrwt beam="2">  1       -1 0.11868620E+00 0.17654466E+04</pdfrwt>
<totfact> 0.89460361E+00</totfact>
</mgrwt>
</event>
<event>
12    1  0.1541840E-007  0.1369373E+04  0.7818608E-02  0.8976291E-01
         -2   -1    0    0    0  501 -0.00000000000E+00  0.00000000000E+00  0.30219231953E+03  0.30219231953E+03  0.00000000000E+00 0.  1.
          2   -1    0    0  501    0  0.00000000000E+00 -0.00000000000E+00 -0.15513157504E+04  0.15513157504E+04  0.00000000000E+00 0. -1.
         23    2    1    2    0    0 -0.43880902890E+02  0.91402192092E+02  0.15507454715E+03  0.20704670013E+03  0.92413886963E+02 0.  0.
        254    2    1    2    0    0  0.43880902890E+02 -0.91402192092E+02 -0.14041979781E+04  0.16464613698E+04  0.85368799128E+03 0.  0.
        -24    2    4    4    0    0 -0.23418316721E+03  0.41248826920E+02 -0.50081130504E+02  0.25552891084E+03  0.79016979923E+02 0.  0.
         24    2    4    4    0    0  0.27806407010E+03 -0.13265101901E+03 -0.13541168476E+04  0.13909324590E+04  0.78388447953E+02 0.  0.
         13    1    3    3    0    0  0.27404566969E+01  0.24405011239E+02 -0.70368155335E+01  0.25546652409E+02  0.00000000000E+00 0. -1.
        -13    1    3    3    0    0 -0.46621359587E+02  0.66997180853E+02  0.16211136268E+03  0.18150004772E+03  0.00000000000E+00 0.  1.
          4    1    6    6  502    0  0.90918730244E+02 -0.55903172659E+02 -0.63511961595E+03  0.64402508242E+03  0.00000000000E+00 0. -1.
          1    1    5    5  503    0 -0.16849262599E+03  0.14469389002E+02 -0.73451366516E+00  0.16911436291E+03  0.00000000000E+00 0. -1.
         -2    1    5    5    0  503 -0.65690541214E+02  0.26779437918E+02 -0.49346616839E+02  0.86414547928E+02  0.00000000000E+00 0.  1.
         -3    1    6    6    0  502  0.18714533985E+03 -0.76747846352E+02 -0.71899723160E+03  0.74690737659E+03  0.00000000000E+00 0.  1.
<mgrwt>
<rscale>  0 0.13693731E+04</rscale>
<asrwt>0</asrwt>
<pdfrwt beam="1">  1        2 0.23866396E+00 0.13693731E+04</pdfrwt>
<pdfrwt beam="2">  1       -2 0.46491126E-01 0.13693731E+04</pdfrwt>
<totfact> 0.50798594E+01</totfact>
</mgrwt>
</event>
<event>
12    1  0.1541840E-007  0.1390072E+04  0.7818608E-02  0.8961036E-01
          1   -1    0    0  501    0  0.00000000000E+00  0.00000000000E+00  0.32867528677E+03  0.32867528677E+03  0.00000000000E+00 0. -1.
         -1   -1    0    0    0  501 -0.00000000000E+00 -0.00000000000E+00 -0.14697642510E+04  0.14697642510E+04  0.00000000000E+00 0.  1.
         23    2    1    2    0    0  0.13787313028E+03 -0.11710771408E+03  0.11849706384E+03  0.23738340261E+03  0.97908676570E+02 0.  0.
        254    2    1    2    0    0 -0.13787313028E+03  0.11710771408E+03 -0.12595860281E+04  0.15610561352E+04  0.90422125513E+03 0.  0.
        -24    2    4    4    0    0 -0.46494347839E+03  0.13571354728E+03 -0.10635725670E+04  0.11713064163E+04  0.78622583578E+02 0.  0.
         24    2    4    4    0    0  0.32707034812E+03 -0.18605833205E+02 -0.19601346111E+03  0.38974971886E+03  0.78500807424E+02 0.  0.
         13    1    3    3    0    0  0.12609108097E+03 -0.48081706621E+02  0.87302390798E+02  0.16072497830E+03  0.00000000000E+00 0. -1.
        -13    1    3    3    0    0  0.11782049308E+02 -0.69026007456E+02  0.31194673043E+02  0.76658424309E+02  0.00000000000E+00 0.  1.
          2    1    6    6  502    0  0.92111246826E+02 -0.26472459384E+02 -0.25026091626E+02  0.99053410641E+02  0.00000000000E+00 0. -1.
          1    1    5    5  503    0 -0.63342378634E+02  0.48362376440E+02 -0.17270312957E+03  0.19020396250E+03  0.00000000000E+00 0. -1.
         -2    1    5    5    0  503 -0.40160109976E+03  0.87351170842E+02 -0.89086943739E+03  0.98110245380E+03  0.00000000000E+00 0.  1.
         -1    1    6    6    0  502  0.23495910129E+03  0.78666261789E+01 -0.17098736949E+03  0.29069630822E+03  0.00000000000E+00 0.  1.
<mgrwt>
<rscale>  0 0.13900722E+04</rscale>
<asrwt>0</asrwt>
<pdfrwt beam="1">  1        1 0.50565429E-01 0.13900722E+04</pdfrwt>
<pdfrwt beam="2">  1       -1 0.22611757E+00 0.13900722E+04</pdfrwt>
<totfact> 0.76066344E+00</totfact>
</mgrwt>
</event>
<event>
12    1  0.1541840E-007  0.1356668E+04  0.7818608E-02  0.8985796E-01
          2   -1    0    0  501    0  0.00000000000E+00  0.00000000000E+00  0.70729554012E+03  0.70729554012E+03  0.00000000000E+00 0. -1.
         -2   -1    0    0    0  501 -0.00000000000E+00 -0.00000000000E+00 -0.65055799383E+03  0.65055799383E+03  0.00000000000E+00 0.  1.
         23    2    1    2    0    0  0.18866319811E+03 -0.18847579323E+03  0.23627330517E+03  0.36776155277E+03  0.91140320403E+02 0.  0.
        254    2    1    2    0    0 -0.18866319811E+03  0.18847579323E+03 -0.17953575888E+03  0.99009198119E+03  0.93644653640E+03 0.  0.
        -24    2    4    4    0    0  0.14677902467E+03  0.45506231510E+02  0.32139276744E+03  0.36551251782E+03  0.81799697622E+02 0.  0.
         24    2    4    4    0    0 -0.33544222278E+03  0.14296956172E+03 -0.50092852633E+03  0.62457946337E+03  0.78793002048E+02 0.  0.
         11    1    3    3    0    0  0.33567703227E+02 -0.93847906788E+02  0.73688513723E+02  0.12395248026E+03  0.00000000000E+00 0.  1.
        -11    1    3    3    0    0  0.15509549489E+03 -0.94627886438E+02  0.16258479145E+03  0.24380907251E+03  0.00000000000E+00 0. -1.
          4    1    6    6  502    0 -0.27284984012E+03  0.99459249164E+02 -0.43899931905E+03  0.52636449313E+03  0.00000000000E+00 0. -1.
          1    1    5    5  503    0  0.14558491429E+03  0.35818335561E+02  0.32254167872E+03  0.35568392562E+03  0.00000000000E+00 0. -1.
         -2    1    5    5    0  503  0.11941103759E+01  0.96878959489E+01 -0.11489112807E+01  0.98285922002E+01  0.00000000000E+00 0.  1.
         -3    1    6    6    0  502 -0.62592382664E+02  0.43510312551E+02 -0.61929207274E+02  0.98214970241E+02  0.00000000000E+00 0.  1.
<mgrwt>
<rscale>  0 0.13566676E+04</rscale>
<asrwt>0</asrwt>
<pdfrwt beam="1">  1        2 0.10881470E+00 0.13566676E+04</pdfrwt>
<pdfrwt beam="2">  1       -2 0.10008585E+00 0.13566676E+04</pdfrwt>
<totfact> 0.32551490E+01</totfact>
</mgrwt>
</event>
<event>
12    1  0.1541840E-007  0.1334768E+04  0.7818608E-02  0.9002439E-01
         -1   -1    0    0    0  501 -0.00000000000E+00  0.00000000000E+00  0.60886923168E+03  0.60886923168E+03  0.00000000000E+00 0.  1.
          1   -1    0    0  501    0  0.00000000000E+00 -0.00000000000E+00 -0.73152281539E+03  0.73152281539E+03  0.00000000000E+00 0. -1.
         23    2    1    2    0    0  0.31449337801E+03  0.14802250871E+03  0.10412840927E+02  0.35939375354E+03  0.90767256905E+02 0.  0.
        254    2    1    2    0    0 -0.31449337801E+03 -0.14802250871E+03 -0.13306642464E+03  0.98099829354E+03  0.90765314447E+03 0.  0.
        -24    2    4    4    0    0 -0.85925855785E+01 -0.20075232080E+03  0.34385279685E+03  0.40632804856E+03  0.80575494473E+02 0.  0.
         24    2    4    4    0    0 -0.30590079243E+03  0.52729812086E+02 -0.47691922149E+03  0.57467024498E+03  0.80238511650E+02 0.  0.
         13    1    3    3    0    0  0.22835140978E+03  0.13976410470E+03 -0.17945027851E+02  0.26832889396E+03  0.00000000000E+00 0. -1.
        -13    1    3    3    0    0  0.86141968230E+02  0.82584040162E+01  0.28357868779E+02  0.91064859573E+02  0.00000000000E+00 0.  1.
          2    1    6    6  502    0 -0.38230878468E+02 -0.16419760522E+02 -0.89796438114E+02  0.98967716464E+02  0.00000000000E+00 0. -1.
          1    1    5    5  503    0 -0.17702802698E+02 -0.19721038949E+02  0.93910945514E+02  0.97578554447E+02  0.00000000000E+00 0. -1.
         -4    1    5    5    0  503  0.91102171194E+01 -0.18103128185E+03  0.24994185134E+03  0.30874949411E+03  0.00000000000E+00 0.  1.
         -1    1    6    6    0  502 -0.26766991396E+03  0.69149572608E+02 -0.38712278337E+03  0.47570252852E+03  0.00000000000E+00 0.  1.
<mgrwt>
<rscale>  0 0.13347685E+04</rscale>
<asrwt>0</asrwt>
<pdfrwt beam="1">  1        1 0.11254197E+00 0.13347685E+04</pdfrwt>
<pdfrwt beam="2">  1       -1 0.93672189E-01 0.13347685E+04</pdfrwt>
<totfact> 0.27587824E+01</totfact>
</mgrwt>
</event>
<event>
12    1  0.1541840E-007  0.1353183E+04  0.7818608E-02  0.8988422E-01
          2   -1    0    0  501    0  0.00000000000E+00  0.00000000000E+00  0.10098654566E+04  0.10098654566E+04  0.00000000000E+00 0. -1.
         -2   -1    0    0    0  501 -0.00000000000E+00 -0.00000000000E+00 -0.45330389221E+03  0.45330389221E+03  0.00000000000E+00 0.  1.
         23    2    1    2    0    0 -0.24576784478E+03  0.15330445409E+03  0.40203774855E+03  0.50335031970E+03  0.88448312089E+02 0.  0.
        254    2    1    2    0    0  0.24576784478E+03 -0.15330445409E+03  0.15452381589E+03  0.95981902916E+03  0.90192619980E+03 0.  0.
        -24    2    4    4    0    0 -0.73592125780E+02  0.29922854181E+03  0.23093112564E+03  0.39374303770E+03  0.82163700883E+02 0.  0.
         24    2    4    4    0    0  0.31935997056E+03 -0.45253299589E+03 -0.76407309753E+02  0.56607599145E+03  0.88470604988E+02 0.  0.
         11    1    3    3    0    0 -0.23058775281E+03  0.16512688822E+03  0.37553755028E+03  0.47060179837E+03  0.00000000000E+00 0. -1.
        -11    1    3    3    0    0 -0.15180091968E+02 -0.11822434129E+02  0.26500198271E+02  0.32748521330E+02  0.00000000000E+00 0.  1.
          4    1    6    6  502    0  0.61675907205E+00 -0.55307025417E+01  0.88845523301E+01  0.10483526719E+02  0.00000000000E+00 0. -1.
          3    1    5    5  503    0 -0.18172972621E+02  0.82561584804E+02  0.11236528394E+03  0.14061518145E+03  0.00000000000E+00 0. -1.
         -4    1    5    5    0  503 -0.55419153160E+02  0.21666695700E+03  0.11856584170E+03  0.25312785625E+03  0.00000000000E+00 0.  1.
         -3    1    6    6    0  502  0.31874321149E+03 -0.44700229335E+03 -0.85291862083E+02  0.55559246473E+03  0.00000000000E+00 0.  1.
<mgrwt>
<rscale>  0 0.13531828E+04</rscale>
<asrwt>0</asrwt>
<pdfrwt beam="1">  1        2 0.15536392E+00 0.13531828E+04</pdfrwt>
<pdfrwt beam="2">  1       -2 0.69739061E-01 0.13531828E+04</pdfrwt>
<totfact> 0.45443131E+01</totfact>
</mgrwt>
</event>
<event>
12    1  0.1541840E-007  0.1653281E+04  0.7818608E-02  0.8788468E-01
         -2   -1    0    0    0  501 -0.00000000000E+00  0.00000000000E+00  0.74327509225E+03  0.74327509225E+03  0.00000000000E+00 0. -1.
          2   -1    0    0  501    0  0.00000000000E+00 -0.00000000000E+00 -0.91935644285E+03  0.91935644285E+03  0.00000000000E+00 0.  1.
         23    2    1    2    0    0  0.48052305288E+03  0.29637609675E+03 -0.16294589775E+03  0.59509683691E+03  0.94062131744E+02 0.  0.
        254    2    1    2    0    0 -0.48052305288E+03 -0.29637609675E+03 -0.13135452852E+02  0.10675346982E+04  0.90593410171E+03 0.  0.
        -24    2    4    4    0    0  0.18707238202E+03  0.84768527646E+02  0.16391382375E+03  0.27469418236E+03  0.80046066793E+02 0.  0.
         24    2    4    4    0    0 -0.66759543490E+03 -0.38114462439E+03 -0.17704927660E+03  0.79284051583E+03  0.79339446621E+02 0.  0.
         11    1    3    3    0    0  0.30868515291E+03  0.13604916765E+03 -0.96353515111E+02  0.35082744978E+03  0.00000000000E+00 0.  1.
        -11    1    3    3    0    0  0.17183789997E+03  0.16032692910E+03 -0.66592382641E+02  0.24426938712E+03  0.00000000000E+00 0. -1.
          4    1    6    6  502    0 -0.12952075837E+03 -0.49485355330E+02 -0.97366299921E+01  0.13899363009E+03  0.00000000000E+00 0. -1.
          1    1    5    5  503    0  0.14007450945E+03  0.22666969422E+02  0.11579002132E+03  0.18314472075E+03  0.00000000000E+00 0. -1.
         -2    1    5    5    0  503  0.46997872569E+02  0.62101558225E+02  0.48123802428E+02  0.91549461604E+02  0.00000000000E+00 0.  1.
         -3    1    6    6    0  502 -0.53807467653E+03 -0.33165926906E+03 -0.16731264661E+03  0.65384688574E+03  0.00000000000E+00 0.  1.
<mgrwt>
<rscale>  0 0.16532813E+04</rscale>
<asrwt>0</asrwt>
<pdfrwt beam="1">  1        2 0.14143945E+00 0.16532813E+04</pdfrwt>
<pdfrwt beam="2">  1       -2 0.11435001E+00 0.16532813E+04</pdfrwt>
<totfact> 0.16247528E+01</totfact>
</mgrwt>
</event>
<event>
12    1  0.1541840E-007  0.3416527E+04  0.7818608E-02  0.8133862E-01
         -2   -1    0    0    0  501 -0.00000000000E+00  0.00000000000E+00  0.15108095351E+04  0.15108095351E+04  0.00000000000E+00 0.  1.
          2   -1    0    0  501    0  0.00000000000E+00 -0.00000000000E+00 -0.19315237518E+04  0.19315237518E+04  0.00000000000E+00 0. -1.
         23    2    1    2    0    0 -0.98275983987E+03 -0.92018022201E+03 -0.10452096478E+04  0.17069789480E+04  0.93623592451E+02 0.  0.
        254    2    1    2    0    0  0.98275983987E+03  0.92018022201E+03  0.62449543110E+03  0.17353543390E+04  0.89939512704E+03 0.  0.
        -24    2    4    4    0    0 -0.10201181292E+03  0.45839109643E+02 -0.93473138933E+02  0.16597825116E+03  0.79397217884E+02 0.  0.
         24    2    4    4    0    0  0.10847716528E+04  0.87434111236E+03  0.71796857003E+03  0.15693760878E+04  0.79123435217E+02 0.  0.
         11    1    3    3    0    0 -0.60689633045E+03 -0.52139161884E+03 -0.58125054275E+03  0.98895124731E+03  0.00000000000E+00 0. -1.
        -11    1    3    3    0    0 -0.37586350942E+03 -0.39878860317E+03 -0.46395910506E+03  0.71802770065E+03  0.00000000000E+00 0.  1.
          4    1    6    6  502    0  0.80658350146E+03  0.62302237023E+03  0.49301991003E+03  0.11321671477E+04  0.00000000000E+00 0. -1.
          3    1    5    5  503    0 -0.11202026905E+03  0.43775889139E+02 -0.97667908706E+02  0.15493188677E+03  0.00000000000E+00 0. -1.
         -4    1    5    5    0  503  0.10008456123E+02  0.20632205041E+01  0.41947697729E+01  0.11046364391E+02  0.00000000000E+00 0.  1.
         -3    1    6    6    0  502  0.27818815133E+03  0.25131874213E+03  0.22494866000E+03  0.43720894013E+03  0.00000000000E+00 0.  1.
<mgrwt>
<rscale>  0 0.34165272E+04</rscale>
<asrwt>0</asrwt>
<pdfrwt beam="1">  1        2 0.29715750E+00 0.34165272E+04</pdfrwt>
<pdfrwt beam="2">  1       -2 0.23243224E+00 0.34165272E+04</pdfrwt>
<totfact> 0.49817655E-01</totfact>
</mgrwt>
</event>
<event>
12    1  0.1541840E-007  0.1836107E+04  0.7818608E-02  0.8687331E-01
          2   -1    0    0  501    0  0.00000000000E+00  0.00000000000E+00  0.11733085214E+04  0.11733085214E+04  0.00000000000E+00 0. -1.
         -2   -1    0    0    0  501 -0.00000000000E+00 -0.00000000000E+00 -0.71832921770E+03  0.71832921770E+03  0.00000000000E+00 0.  1.
         23    2    1    2    0    0 -0.41132751748E+03  0.34785295910E+03  0.61852119989E+03  0.82446649704E+03  0.83573454164E+02 0.  0.
        254    2    1    2    0    0  0.41132751748E+03 -0.34785295910E+03 -0.16354189624E+03  0.10671712420E+04  0.90659610641E+03 0.  0.
        -24    2    4    4    0    0  0.53185191401E+03 -0.31459037757E+02 -0.37860786181E+03  0.65833823742E+03  0.78798428447E+02 0.  0.
         24    2    4    4    0    0 -0.12052439653E+03 -0.31639392134E+03  0.21506596557E+03  0.40883300459E+03  0.79118976704E+02 0.  0.
         13    1    3    3    0    0 -0.27695000089E+03  0.28241229466E+03  0.45674802974E+03  0.60421583051E+03  0.00000000000E+00 0. -1.
        -13    1    3    3    0    0 -0.13437751659E+03  0.65440664437E+02  0.16177317016E+03  0.22025066653E+03  0.00000000000E+00 0.  1.
          4    1    6    6  502    0 -0.10985599402E+03 -0.18197616795E+03  0.12342966686E+03  0.24580184659E+03  0.00000000000E+00 0. -1.
          1    1    5    5  503    0  0.69520135892E+02  0.11085646197E+02 -0.78803206826E+02  0.10566875722E+03  0.00000000000E+00 0. -1.
         -2    1    5    5    0  503  0.46233177812E+03 -0.42544683953E+02 -0.29980465498E+03  0.55266948020E+03  0.00000000000E+00 0.  1.
         -3    1    6    6    0  502 -0.10668402511E+02 -0.13441775339E+03  0.91636298713E+02  0.16303115800E+03  0.00000000000E+00 0.  1.
<mgrwt>
<rscale>  0 0.18361065E+04</rscale>
<asrwt>0</asrwt>
<pdfrwt beam="1">  1        2 0.18050900E+00 0.18361065E+04</pdfrwt>
<pdfrwt beam="2">  1       -2 0.11051219E+00 0.18361065E+04</pdfrwt>
<totfact> 0.12021215E+01</totfact>
</mgrwt>
</event>
<event>
12    1  0.1541840E-007  0.2411573E+04  0.7818608E-02  0.8435184E-01
          2   -1    0    0  501    0  0.00000000000E+00  0.00000000000E+00  0.38305886493E+04  0.38305886493E+04  0.00000000000E+00 0.  1.
         -2   -1    0    0    0  501 -0.00000000000E+00 -0.00000000000E+00 -0.37955551352E+03  0.37955551352E+03  0.00000000000E+00 0. -1.
         23    2    1    2    0    0  0.40854299397E+03  0.78396881978E+03  0.55548580198E+03  0.10479658804E+04  0.90296855311E+02 0.  0.
        254    2    1    2    0    0 -0.40854299397E+03 -0.78396881978E+03  0.28955473338E+04  0.31621782823E+04  0.91305127942E+03 0.  0.
        -24    2    4    4    0    0 -0.57821390298E+03 -0.88078170109E+03  0.24535869892E+04  0.26714550411E+04  0.80468630754E+02 0.  0.
         24    2    4    4    0    0  0.16967090901E+03  0.96812881315E+02  0.44196034462E+03  0.49072324127E+03  0.85553503438E+02 0.  0.
         11    1    3    3    0    0  0.16562836297E+03  0.30767040759E+03  0.16836169322E+03  0.38786530403E+03  0.00000000000E+00 0. -1.
        -11    1    3    3    0    0  0.24291463100E+03  0.47629841219E+03  0.38712410876E+03  0.66010057642E+03  0.00000000000E+00 0.  1.
          2    1    6    6  502    0  0.14948445574E+03  0.72300887438E+02  0.27881462851E+03  0.32451597481E+03  0.00000000000E+00 0. -1.
          3    1    5    5  503    0 -0.56598015914E+03 -0.85037099120E+03  0.24038482864E+04  0.26118864728E+04  0.00000000000E+00 0. -1.
         -4    1    5    5    0  503 -0.12233743837E+02 -0.30410709890E+02  0.49738702806E+02  0.59568568232E+02  0.00000000000E+00 0.  1.
         -1    1    6    6    0  502  0.20186453266E+02  0.24511993877E+02  0.16314571612E+03  0.16620726647E+03  0.00000000000E+00 0.  1.
<mgrwt>
<rscale>  0 0.24115730E+04</rscale>
<asrwt>0</asrwt>
<pdfrwt beam="1">  1        2 0.58932130E+00 0.24115730E+04</pdfrwt>
<pdfrwt beam="2">  1       -2 0.58393159E-01 0.24115730E+04</pdfrwt>
<totfact> 0.11506573E+00</totfact>
</mgrwt>
</event>
<event>
12    1  0.1541840E-007  0.1672445E+04  0.7818608E-02  0.8777238E-01
         -2   -1    0    0    0  501 -0.00000000000E+00  0.00000000000E+00  0.38011109983E+03  0.38011109983E+03  0.00000000000E+00 0.  1.
          2   -1    0    0  501    0  0.00000000000E+00 -0.00000000000E+00 -0.18396410610E+04  0.18396410610E+04  0.00000000000E+00 0. -1.
         23    2    1    2    0    0  0.47455202705E+03 -0.82472229485E+02 -0.98006787035E+03  0.10959450547E+04  0.92526955150E+02 0.  0.
        254    2    1    2    0    0 -0.47455202705E+03  0.82472229485E+02 -0.47946209078E+03  0.11238071061E+04  0.89501799992E+03 0.  0.
        -24    2    4    4    0    0 -0.62325590389E+03 -0.19490950554E+03 -0.17897350570E+03  0.68176989182E+03  0.79630600717E+02 0.  0.
         24    2    4    4    0    0  0.14870387684E+03  0.27738173503E+03 -0.30048858508E+03  0.44203721426E+03  0.77781997381E+02 0.  0.
         11    1    3    3    0    0  0.26369681534E+03 -0.88991334724E+02 -0.51909600593E+03  0.58899586709E+03  0.00000000000E+00 0. -1.
        -11    1    3    3    0    0  0.21085521171E+03  0.65191052387E+01 -0.46097186442E+03  0.50694918761E+03  0.00000000000E+00 0.  1.
          4    1    6    6  502    0  0.96260825776E+02  0.23459899023E+03 -0.25993163457E+03  0.36313535692E+03  0.00000000000E+00 0. -1.
          3    1    5    5  503    0 -0.51137469368E+03 -0.16566528055E+03 -0.11532831741E+03  0.54977239228E+03  0.00000000000E+00 0. -1.
         -4    1    5    5    0  503 -0.11188121021E+03 -0.29244224991E+02 -0.63645188291E+02  0.13199749954E+03  0.00000000000E+00 0.  1.
         -3    1    6    6    0  502  0.52443051064E+02  0.42782744793E+02 -0.40556950507E+02  0.78901857338E+02  0.00000000000E+00 0.  1.
<mgrwt>
<rscale>  0 0.16724449E+04</rscale>
<asrwt>0</asrwt>
<pdfrwt beam="1">  1        2 0.28302170E+00 0.16724449E+04</pdfrwt>
<pdfrwt beam="2">  1       -2 0.58478631E-01 0.16724449E+04</pdfrwt>
<totfact> 0.21385972E+01</totfact>
</mgrwt>
</event>
<event>
12    1  0.1541840E-007  0.1434736E+04  0.7818608E-02  0.8929051E-01
         -2   -1    0    0    0  501 -0.00000000000E+00  0.00000000000E+00  0.62906464611E+03  0.62906464611E+03  0.00000000000E+00 0.  1.
          2   -1    0    0  501    0  0.00000000000E+00 -0.00000000000E+00 -0.81806718830E+03  0.81806718830E+03  0.00000000000E+00 0. -1.
         23    2    1    2    0    0  0.29384821916E+02 -0.87560845459E+02 -0.50424938806E+03  0.52070372981E+03  0.91293808420E+02 0.  0.
        254    2    1    2    0    0 -0.29384821916E+02  0.87560845459E+02  0.31524684587E+03  0.92642810461E+03  0.86623212233E+03 0.  0.
        -24    2    4    4    0    0 -0.25577147025E+03  0.39465028427E+03  0.21985275252E+03  0.52511736024E+03  0.79026055014E+02 0.  0.
         24    2    4    4    0    0  0.22638664833E+03 -0.30708943881E+03  0.95394093348E+02  0.40131074437E+03  0.79971510721E+02 0.  0.
         13    1    3    3    0    0  0.28306123350E+02 -0.60019004196E+02 -0.47818900964E+03  0.48277142254E+03  0.00000000000E+00 0. -1.
        -13    1    3    3    0    0  0.10786985652E+01 -0.27541841262E+02 -0.26060378421E+02  0.37932307261E+02  0.00000000000E+00 0.  1.
          4    1    6    6  502    0  0.18757969848E+03 -0.20642152109E+03  0.46136894856E+02  0.28270939269E+03  0.00000000000E+00 0. -1.
          1    1    5    5  503    0 -0.15553447115E+03  0.30150926667E+03  0.14287493376E+03  0.36811962227E+03  0.00000000000E+00 0. -1.
         -2    1    5    5    0  503 -0.10023699909E+03  0.93141017598E+02  0.76977818756E+02  0.15699773797E+03  0.00000000000E+00 0.  1.
         -3    1    6    6    0  502  0.38806949850E+02 -0.10066791772E+03  0.49257198492E+02  0.11860135167E+03  0.00000000000E+00 0.  1.
<mgrwt>
<rscale>  0 0.14347364E+04</rscale>
<asrwt>0</asrwt>
<pdfrwt beam="1">  1        2 0.12585649E+00 0.14347364E+04</pdfrwt>
<pdfrwt beam="2">  1       -2 0.96779177E-01 0.14347364E+04</pdfrwt>
<totfact> 0.28969895E+01</totfact>
</mgrwt>
</event>
<event>
12    1  0.1541840E-007  0.1861195E+04  0.7818608E-02  0.8674417E-01
         -1   -1    0    0    0  501 -0.00000000000E+00  0.00000000000E+00  0.21647762894E+04  0.21647762894E+04  0.00000000000E+00 0.  1.
          1   -1    0    0  501    0  0.00000000000E+00 -0.00000000000E+00 -0.40004654578E+03  0.40004654578E+03  0.00000000000E+00 0. -1.
         23    2    1    2    0    0 -0.34673673575E+03  0.60243587713E+03  0.54447542271E+03  0.88768875870E+03  0.91555974255E+02 0.  0.
        254    2    1    2    0    0  0.34673673575E+03 -0.60243587713E+03  0.12202543209E+04  0.16771340765E+04  0.91684390862E+03 0.  0.
        -24    2    4    4    0    0  0.48374854890E+03 -0.61570266817E+03  0.48429545617E+03  0.92419139935E+03  0.80530861199E+02 0.  0.
         24    2    4    4    0    0 -0.13701181314E+03  0.13266791043E+02  0.73595886472E+03  0.75294267711E+03  0.79617710103E+02 0.  0.
         13    1    3    3    0    0 -0.24397089365E+03  0.43403255557E+03  0.33601656870E+03  0.60067727665E+03  0.00000000000E+00 0. -1.
        -13    1    3    3    0    0 -0.10276584210E+03  0.16840332156E+03  0.20845885401E+03  0.28701148205E+03  0.00000000000E+00 0.  1.
          4    1    6    6  502    0 -0.90304780841E+02 -0.17474284494E+02  0.31086896434E+03  0.32419101939E+03  0.00000000000E+00 0. -1.
          3    1    5    5  503    0  0.31852682655E+01 -0.24016719602E+01  0.12976442731E+02  0.13575788304E+02  0.00000000000E+00 0. -1.
         -4    1    5    5    0  503  0.48056328063E+03 -0.61330099621E+03  0.47131901344E+03  0.91061561105E+03  0.00000000000E+00 0.  1.
         -3    1    6    6    0  502 -0.46707032303E+02  0.30741075537E+02  0.42508990038E+03  0.42875165772E+03  0.00000000000E+00 0.  1.
<mgrwt>
<rscale>  0 0.18611945E+04</rscale>
<asrwt>0</asrwt>
<pdfrwt beam="1">  1        1 0.61545624E-01 0.18611945E+04</pdfrwt>
<pdfrwt beam="2">  1       -1 0.33304250E+00 0.18611945E+04</pdfrwt>
<totfact> 0.11341472E+00</totfact>
</mgrwt>
</event>
<event>
12    1  0.1541840E-007  0.1226654E+04  0.7818608E-02  0.9089841E-01
         -2   -1    0    0    0  501 -0.00000000000E+00  0.00000000000E+00  0.28175732117E+03  0.28175732117E+03  0.00000000000E+00 0.  1.
          2   -1    0    0  501    0  0.00000000000E+00 -0.00000000000E+00 -0.13350849284E+04  0.13350849284E+04  0.00000000000E+00 0. -1.
         23    2    1    2    0    0 -0.15240552336E+03 -0.16052340911E+03 -0.48094694412E+03  0.53700238448E+03  0.89813080673E+02 0.  0.
        254    2    1    2    0    0  0.15240552336E+03  0.16052340911E+03 -0.57238066309E+03  0.10798398651E+04  0.88850396863E+03 0.  0.
        -24    2    4    4    0    0  0.26845311531E+03  0.13478600503E+03 -0.77321779189E+03  0.83332144157E+03  0.79526907435E+02 0.  0.
         24    2    4    4    0    0 -0.11604759194E+03  0.25737404084E+02  0.20083712880E+03  0.24651842349E+03  0.79412362071E+02 0.  0.
         11    1    3    3    0    0 -0.88285688461E+01 -0.66590259829E+02 -0.14334505885E+03  0.15830354458E+03  0.00000000000E+00 0.  1.
        -11    1    3    3    0    0 -0.14357695452E+03 -0.93933149282E+02 -0.33760188527E+03  0.37869883990E+03  0.00000000000E+00 0. -1.
          4    1    6    6  502    0 -0.12298539219E+03  0.15195761734E+02  0.19800340445E+03  0.23358438741E+03  0.00000000000E+00 0. -1.
          1    1    5    5  503    0  0.17781673427E+03  0.11824278808E+03 -0.46624097966E+03  0.51281653546E+03  0.00000000000E+00 0. -1.
         -2    1    5    5    0  503  0.90636381036E+02  0.16543216946E+02 -0.30697681223E+03  0.32050490611E+03  0.00000000000E+00 0.  1.
         -3    1    6    6    0  502  0.69378002445E+01  0.10541642350E+02  0.28337243502E+01  0.12934036082E+02  0.00000000000E+00 0.  1.
<mgrwt>
<rscale>  0 0.12266539E+04</rscale>
<asrwt>0</asrwt>
<pdfrwt beam="1">  1        2 0.20539768E+00 0.12266539E+04</pdfrwt>
<pdfrwt beam="2">  1       -2 0.43347281E-01 0.12266539E+04</pdfrwt>
<totfact> 0.78362011E+01</totfact>
</mgrwt>
</event>
<event>
12    1  0.1541840E-007  0.3325142E+04  0.7818608E-02  0.8156527E-01
          2   -1    0    0  501    0  0.00000000000E+00  0.00000000000E+00  0.17818315504E+04  0.17818315504E+04  0.00000000000E+00 0. -1.
         -2   -1    0    0    0  501 -0.00000000000E+00 -0.00000000000E+00 -0.15512931097E+04  0.15512931097E+04  0.00000000000E+00 0.  1.
         23    2    1    2    0    0  0.22764975038E+03  0.27518011761E+03  0.16059591606E+04  0.16477298738E+04  0.91435251820E+02 0.  0.
        254    2    1    2    0    0 -0.22764975038E+03 -0.27518011761E+03 -0.13754207199E+04  0.16853947864E+04  0.90621461211E+03 0.  0.
        -24    2    4    4    0    0  0.14307810824E+03  0.65954138360E+02  0.39629047161E+02  0.18123190257E+03  0.80332108808E+02 0.  0.
         24    2    4    4    0    0 -0.37072785862E+03 -0.34113425597E+03 -0.14150497671E+04  0.15041628838E+04  0.79551316450E+02 0.  0.
         13    1    3    3    0    0  0.16074941524E+03  0.24968261606E+03  0.13095862268E+04  0.13428320329E+04  0.00000000000E+00 0. -1.
        -13    1    3    3    0    0  0.66900335133E+02  0.25497501545E+02  0.29637293385E+03  0.30489784083E+03  0.00000000000E+00 0.  1.
          2    1    6    6  502    0 -0.18245113962E+03 -0.13733168748E+03 -0.54388230946E+03  0.58987827327E+03  0.00000000000E+00 0. -1.
          1    1    5    5  503    0  0.93583539222E+02  0.36215668399E+02 -0.15336363772E+02  0.10151185894E+03  0.00000000000E+00 0. -1.
         -2    1    5    5    0  503  0.49494569022E+02  0.29738469961E+02  0.54965410933E+02  0.79720043636E+02  0.00000000000E+00 0.  1.
         -1    1    6    6    0  502 -0.18827671900E+03 -0.20380256849E+03 -0.87116745764E+03  0.91428461055E+03  0.00000000000E+00 0.  1.
<mgrwt>
<rscale>  0 0.33251424E+04</rscale>
<asrwt>0</asrwt>
<pdfrwt beam="1">  1        2 0.27412793E+00 0.33251424E+04</pdfrwt>
<pdfrwt beam="2">  1       -2 0.23866048E+00 0.33251424E+04</pdfrwt>
<totfact> 0.55584246E-01</totfact>
</mgrwt>
</event>
<event>
12    1  0.1541840E-007  0.1393319E+04  0.7818608E-02  0.8958669E-01
          2   -1    0    0  501    0  0.00000000000E+00  0.00000000000E+00  0.11293877122E+04  0.11293877122E+04  0.00000000000E+00 0. -1.
         -2   -1    0    0    0  501 -0.00000000000E+00 -0.00000000000E+00 -0.42973260756E+03  0.42973260756E+03  0.00000000000E+00 0.  1.
         23    2    1    2    0    0 -0.45236345134E+02 -0.13124313732E+03 -0.20356999809E+03  0.26326320503E+03  0.92712906270E+02 0.  0.
        254    2    1    2    0    0  0.45236345134E+02  0.13124313732E+03  0.90322510277E+03  0.12958571148E+04  0.91878125123E+03 0.  0.
        -24    2    4    4    0    0  0.74414731486E+02 -0.38399332738E+03  0.31276191876E+03  0.50712741270E+03  0.79810821018E+02 0.  0.
         24    2    4    4    0    0 -0.29178386352E+02  0.51523646470E+03  0.59046318402E+03  0.78872970207E+03  0.84426171702E+02 0.  0.
         13    1    3    3    0    0 -0.31665922687E+02  0.28557110159E+01 -0.45877497271E+02  0.55817833180E+02  0.00000000000E+00 0. -1.
        -13    1    3    3    0    0 -0.13570422448E+02 -0.13409884834E+03 -0.15769250082E+03  0.20744537185E+03  0.00000000000E+00 0.  1.
          2    1    6    6  502    0  0.17982364754E+00  0.45336479967E+02  0.94893743341E+02  0.10516772926E+03  0.00000000000E+00 0. -1.
          1    1    5    5  503    0 -0.88092515573E+01 -0.35943354793E+01  0.47233940096E+01  0.10622269603E+02  0.00000000000E+00 0. -1.
         -2    1    5    5    0  503  0.83223983043E+02 -0.38039899190E+03  0.30803852475E+03  0.49650514310E+03  0.00000000000E+00 0.  1.
         -1    1    6    6    0  502 -0.29358209999E+02  0.46989998473E+03  0.49556944067E+03  0.68356197281E+03  0.00000000000E+00 0.  1.
<mgrwt>
<rscale>  0 0.13933194E+04</rscale>
<asrwt>0</asrwt>
<pdfrwt beam="1">  1        2 0.17375196E+00 0.13933194E+04</pdfrwt>
<pdfrwt beam="2">  1       -2 0.66112709E-01 0.13933194E+04</pdfrwt>
<totfact> 0.42835647E+01</totfact>
</mgrwt>
</event>
<event>
12    1  0.1541840E-007  0.1603662E+04  0.7818608E-02  0.8818301E-01
          2   -1    0    0  501    0  0.00000000000E+00  0.00000000000E+00  0.14486302134E+04  0.14486302134E+04  0.00000000000E+00 0. -1.
         -2   -1    0    0    0  501 -0.00000000000E+00 -0.00000000000E+00 -0.44382155661E+03  0.44382155661E+03  0.00000000000E+00 0.  1.
         23    2    1    2    0    0  0.72150632160E+02 -0.12076902498E+03 -0.24484469158E+03  0.29804056541E+03  0.95333019058E+02 0.  0.
        254    2    1    2    0    0 -0.72150632160E+02  0.12076902498E+03  0.12496533484E+04  0.15944112046E+04  0.98016464288E+03 0.  0.
        -24    2    4    4    0    0  0.70581302748E+02  0.61319398754E+02  0.13748917335E+04  0.13803569190E+04  0.79474248709E+02 0.  0.
         24    2    4    4    0    0 -0.14273193491E+03  0.59449626227E+02 -0.12523838508E+03  0.21405428558E+03  0.78917176702E+02 0.  0.
         13    1    3    3    0    0 -0.73181114874E+01 -0.80103871079E+02 -0.12385294485E+03  0.14768120011E+03  0.00000000000E+00 0.  1.
        -13    1    3    3    0    0  0.79468743647E+02 -0.40665153902E+02 -0.12099174672E+03  0.15035936530E+03  0.00000000000E+00 0. -1.
          2    1    6    6  502    0 -0.33148662402E+02  0.29499456605E+02  0.79136924289E+00  0.44381054791E+02  0.00000000000E+00 0. -1.
          1    1    5    5  503    0  0.25003350196E+02 -0.16352445616E+02  0.23067760132E+03  0.23260422557E+03  0.00000000000E+00 0. -1.
         -2    1    5    5    0  503  0.45577952552E+02  0.77671844371E+02  0.11442141321E+04  0.11477526935E+04  0.00000000000E+00 0.  1.
         -1    1    6    6    0  502 -0.10958327251E+03  0.29950169621E+02 -0.12602975432E+03  0.16967323079E+03  0.00000000000E+00 0.  1.
<mgrwt>
<rscale>  0 0.16036625E+04</rscale>
<asrwt>0</asrwt>
<pdfrwt beam="1">  1        2 0.22286618E+00 0.16036625E+04</pdfrwt>
<pdfrwt beam="2">  1       -2 0.68280240E-01 0.16036625E+04</pdfrwt>
<totfact> 0.25537734E+01</totfact>
</mgrwt>
</event>
<event>
12    1  0.1541840E-007  0.2182168E+04  0.7818608E-02  0.8525887E-01
         -2   -1    0    0    0  501 -0.00000000000E+00  0.00000000000E+00  0.38772135355E+03  0.38772135355E+03  0.00000000000E+00 0.  1.
          2   -1    0    0  501    0  0.00000000000E+00 -0.00000000000E+00 -0.30704132677E+04  0.30704132677E+04  0.00000000000E+00 0. -1.
         23    2    1    2    0    0 -0.52233634457E+03 -0.33417600274E+03 -0.21544725806E+04  0.22437214371E+04  0.89581968531E+02 0.  0.
        254    2    1    2    0    0  0.52233634457E+03  0.33417600274E+03 -0.52821933352E+03  0.12144131841E+04  0.90070797698E+03 0.  0.
        -24    2    4    4    0    0  0.38634026799E+03  0.30174110002E+03 -0.77416837519E+03  0.91984568175E+03  0.80454403061E+02 0.  0.
         24    2    4    4    0    0  0.13599607658E+03  0.32434902719E+02  0.24594904167E+03  0.29456750237E+03  0.82049537443E+02 0.  0.
         11    1    3    3    0    0 -0.25913626832E+03 -0.20819491730E+03 -0.10506043541E+04  0.11019374928E+04  0.00000000000E+00 0.  1.
        -11    1    3    3    0    0 -0.26320007625E+03 -0.12598108544E+03 -0.11038682265E+04  0.11417839443E+04  0.00000000000E+00 0. -1.
          4    1    6    6  502    0  0.11944760420E+02  0.26516886283E+02  0.15923508887E+02  0.33156910214E+02  0.00000000000E+00 0. -1.
          1    1    5    5  503    0  0.86388353531E+02  0.83980481825E+02 -0.25397554706E+03  0.28110362406E+03  0.00000000000E+00 0. -1.
         -2    1    5    5    0  503  0.29995191446E+03  0.21776061820E+03 -0.52019282813E+03  0.63874205769E+03  0.00000000000E+00 0.  1.
         -3    1    6    6    0  502  0.12405131616E+03  0.59180164363E+01  0.23002553278E+03  0.26141059216E+03  0.00000000000E+00 0.  1.
<mgrwt>
<rscale>  0 0.21821685E+04</rscale>
<asrwt>0</asrwt>
<pdfrwt beam="1">  1        2 0.47237127E+00 0.21821685E+04</pdfrwt>
<pdfrwt beam="2">  1       -2 0.59649439E-01 0.21821685E+04</pdfrwt>
<totfact> 0.37785836E+00</totfact>
</mgrwt>
</event>
<event>
12    1  0.1541840E-007  0.3612997E+04  0.7818608E-02  0.8087521E-01
          2   -1    0    0  501    0  0.00000000000E+00  0.00000000000E+00  0.16639448334E+04  0.16639448334E+04  0.00000000000E+00 0. -1.
         -2   -1    0    0    0  501 -0.00000000000E+00 -0.00000000000E+00 -0.19612653011E+04  0.19612653011E+04  0.00000000000E+00 0.  1.
         23    2    1    2    0    0  0.66449762161E+03  0.95637607846E+03 -0.13832040412E+04  0.18104273050E+04  0.90450619286E+02 0.  0.
        254    2    1    2    0    0 -0.66449762161E+03 -0.95637607846E+03  0.10858835735E+04  0.18147828295E+04  0.87067863790E+03 0.  0.
        -24    2    4    4    0    0 -0.48091832215E+03 -0.55564217582E+02  0.18188758623E+03  0.52336303114E+03  0.80348948192E+02 0.  0.
         24    2    4    4    0    0 -0.18357929946E+03 -0.90081186087E+03  0.90399598731E+03  0.12914197984E+04  0.73436930300E+02 0.  0.
         11    1    3    3    0    0  0.60172633200E+03  0.81233170443E+03 -0.12012434400E+04  0.15700137512E+04  0.00000000000E+00 0.  1.
        -11    1    3    3    0    0  0.62771289615E+02  0.14404437403E+03 -0.18196060121E+03  0.24041355386E+03  0.00000000000E+00 0. -1.
          4    1    6    6  502    0 -0.10219472763E+03 -0.51011678378E+03  0.56210893689E+03  0.76591732738E+03  0.00000000000E+00 0. -1.
          3    1    5    5  503    0 -0.51064516223E+02 -0.77227613471E+01  0.48256323536E+02  0.70681671040E+02  0.00000000000E+00 0. -1.
         -4    1    5    5    0  503 -0.42985380593E+03 -0.47841456235E+02  0.13363126270E+03  0.45268136009E+03  0.00000000000E+00 0.  1.
         -3    1    6    6    0  502 -0.81384571830E+02 -0.39069507710E+03  0.34188705042E+03  0.52550247102E+03  0.00000000000E+00 0.  1.
<mgrwt>
<rscale>  0 0.36129972E+04</rscale>
<asrwt>0</asrwt>
<pdfrwt beam="1">  1        2 0.25599151E+00 0.36129972E+04</pdfrwt>
<pdfrwt beam="2">  1       -2 0.30173312E+00 0.36129972E+04</pdfrwt>
<totfact> 0.25935244E-01</totfact>
</mgrwt>
</event>
<event>
12    1  0.1541840E-007  0.2561362E+04  0.7818608E-02  0.8381445E-01
          2   -1    0    0  501    0  0.00000000000E+00  0.00000000000E+00  0.18940196033E+04  0.18940196033E+04  0.00000000000E+00 0. -1.
         -2   -1    0    0    0  501 -0.00000000000E+00 -0.00000000000E+00 -0.86595925947E+03  0.86595925947E+03  0.00000000000E+00 0.  1.
         23    2    1    2    0    0  0.50242600293E+03  0.13767191583E+03  0.15221192363E+04  0.16113247033E+04  0.90193599419E+02 0.  0.
        254    2    1    2    0    0 -0.50242600293E+03 -0.13767191583E+03 -0.49405889240E+03  0.11486541595E+04  0.89661962060E+03 0.  0.
        -24    2    4    4    0    0 -0.37656782742E+03 -0.81497137872E+02 -0.74989212361E+03  0.84708195539E+03  0.82246762691E+02 0.  0.
         24    2    4    4    0    0 -0.12585817550E+03 -0.56174777960E+02  0.25583323120E+03  0.30157220406E+03  0.80618025629E+02 0.  0.
         11    1    3    3    0    0  0.50255422246E+03  0.12818274714E+03  0.14831957046E+04  0.15712609781E+04  0.00000000000E+00 0. -1.
        -11    1    3    3    0    0 -0.12821953262E+00  0.94891686898E+01  0.38923531678E+02  0.40063725251E+02  0.00000000000E+00 0.  1.
          2    1    6    6  502    0 -0.12366813720E+03 -0.71358064928E+02  0.21637831314E+03  0.25923995831E+03  0.00000000000E+00 0. -1.
          3    1    5    5  503    0 -0.33820340859E+03 -0.88342585331E+02 -0.62327296292E+03  0.71460138838E+03  0.00000000000E+00 0. -1.
         -4    1    5    5    0  503 -0.38364418831E+02  0.68454474597E+01 -0.12661916069E+03  0.13248056701E+03  0.00000000000E+00 0.  1.
         -1    1    6    6    0  502 -0.21900383027E+01  0.15183286968E+02  0.39454918065E+02  0.42332245752E+02  0.00000000000E+00 0.  1.
<mgrwt>
<rscale>  0 0.25613620E+04</rscale>
<asrwt>0</asrwt>
<pdfrwt beam="1">  1        2 0.29138763E+00 0.25613620E+04</pdfrwt>
<pdfrwt beam="2">  1       -2 0.13322450E+00 0.25613620E+04</pdfrwt>
<totfact> 0.27710932E+00</totfact>
</mgrwt>
</event>
<event>
12    1  0.1541840E-007  0.1843633E+04  0.7818608E-02  0.8683434E-01
          2   -1    0    0  501    0  0.00000000000E+00  0.00000000000E+00  0.16107077262E+04  0.16107077262E+04  0.00000000000E+00 0. -1.
         -2   -1    0    0    0  501 -0.00000000000E+00 -0.00000000000E+00 -0.52756041183E+03  0.52756041183E+03  0.00000000000E+00 0.  1.
         23    2    1    2    0    0  0.38792184933E+03 -0.50663925385E+03  0.69376453466E+03  0.94696500672E+03  0.90921942676E+02 0.  0.
        254    2    1    2    0    0 -0.38792184933E+03  0.50663925385E+03  0.38938277971E+03  0.11913031313E+04  0.92758692683E+03 0.  0.
        -24    2    4    4    0    0 -0.20652216083E+03  0.18530332004E+03  0.66434150405E+03  0.72427140552E+03  0.78934856169E+02 0.  0.
         24    2    4    4    0    0 -0.18139968851E+03  0.32133593381E+03 -0.27495872434E+03  0.46703172580E+03  0.79710121517E+02 0.  0.
         13    1    3    3    0    0  0.16449498532E+03 -0.15939387269E+03  0.20781065022E+03  0.30927378355E+03  0.00000000000E+00 0. -1.
        -13    1    3    3    0    0  0.22342686402E+03 -0.34724538116E+03  0.48595388445E+03  0.63769122317E+03  0.00000000000E+00 0.  1.
          4    1    6    6  502    0 -0.15632117637E+03  0.28484181271E+03 -0.20482529773E+03  0.38408927483E+03  0.00000000000E+00 0. -1.
          3    1    5    5  503    0 -0.21041326238E+03  0.17712496442E+03  0.65812879131E+03  0.71328851103E+03  0.00000000000E+00 0. -1.
         -4    1    5    5    0  503  0.38911015503E+01  0.81783556186E+01  0.62127127360E+01  0.10982894493E+02  0.00000000000E+00 0.  1.
         -3    1    6    6    0  502 -0.25078512137E+02  0.36494121095E+02 -0.70133426609E+02  0.82942450973E+02  0.00000000000E+00 0.  1.
<mgrwt>
<rscale>  0 0.18436330E+04</rscale>
<asrwt>0</asrwt>
<pdfrwt beam="1">  1        2 0.24780119E+00 0.18436330E+04</pdfrwt>
<pdfrwt beam="2">  1       -2 0.81163141E-01 0.18436330E+04</pdfrwt>
<totfact> 0.13845018E+01</totfact>
</mgrwt>
</event>
<event>
12    1  0.1541840E-007  0.2138784E+04  0.7818608E-02  0.8544349E-01
         -2   -1    0    0    0  501 -0.00000000000E+00  0.00000000000E+00  0.20935888125E+04  0.20935888125E+04  0.00000000000E+00 0.  1.
          2   -1    0    0  501    0  0.00000000000E+00 -0.00000000000E+00 -0.54623870703E+03  0.54623870703E+03  0.00000000000E+00 0. -1.
         23    2    1    2    0    0  0.12825210444E+03  0.83101362601E+03  0.88574321635E+03  0.12246777019E+04  0.90896531204E+02 0.  0.
        254    2    1    2    0    0 -0.12825210444E+03 -0.83101362601E+03  0.66160688912E+03  0.14151498176E+04  0.92622517867E+03 0.  0.
        -24    2    4    4    0    0 -0.21549851544E+03 -0.29505119419E+03 -0.17616609776E+03  0.41360120676E+03  0.80849532344E+02 0.  0.
         24    2    4    4    0    0  0.87246411007E+02 -0.53596243181E+03  0.83777298688E+03  0.10015486108E+04  0.79802116285E+02 0.  0.
         13    1    3    3    0    0  0.41541953567E+02  0.46101862276E+03  0.53605722217E+03  0.70825225017E+03  0.00000000000E+00 0. -1.
        -13    1    3    3    0    0  0.86710150871E+02  0.36999500325E+03  0.34968599419E+03  0.51642545176E+03  0.00000000000E+00 0.  1.
          4    1    6    6  502    0  0.93053958184E+02 -0.53010588023E+03  0.80945420896E+03  0.97205318774E+03  0.00000000000E+00 0. -1.
          3    1    5    5  503    0 -0.16108747662E+03 -0.18467719453E+03 -0.15146087334E+03  0.28808894019E+03  0.00000000000E+00 0. -1.
         -4    1    5    5    0  503 -0.54411038827E+02 -0.11037399966E+03 -0.24705224417E+02  0.12551226657E+03  0.00000000000E+00 0.  1.
         -3    1    6    6    0  502 -0.58075471769E+01 -0.58565515879E+01  0.28318777923E+02  0.29495423099E+02  0.00000000000E+00 0.  1.
<mgrwt>
<rscale>  0 0.21387840E+04</rscale>
<asrwt>0</asrwt>
<pdfrwt beam="1">  1        2 0.84036725E-01 0.21387840E+04</pdfrwt>
<pdfrwt beam="2">  1       -2 0.32209058E+00 0.21387840E+04</pdfrwt>
<totfact> 0.11863805E+00</totfact>
</mgrwt>
</event>
<event>
12    1  0.1541840E-007  0.1969720E+04  0.7818608E-02  0.8620910E-01
          2   -1    0    0  501    0  0.00000000000E+00  0.00000000000E+00  0.10212737457E+04  0.10212737457E+04  0.00000000000E+00 0. -1.
         -2   -1    0    0    0  501 -0.00000000000E+00 -0.00000000000E+00 -0.94974479840E+03  0.94974479840E+03  0.00000000000E+00 0.  1.
         23    2    1    2    0    0 -0.32961297883E+03 -0.26851188597E+03 -0.61955914469E+03  0.75702329855E+03  0.92127043031E+02 0.  0.
        254    2    1    2    0    0  0.32961297883E+03  0.26851188597E+03  0.69108809196E+03  0.12139952455E+04  0.90301625488E+03 0.  0.
        -24    2    4    4    0    0  0.49784208864E+03 -0.13680103313E+03  0.22357073258E+03  0.56816027154E+03  0.79126189087E+02 0.  0.
         24    2    4    4    0    0 -0.16822910981E+03  0.40531291910E+03  0.46751735938E+03  0.64583497398E+03  0.77141017102E+02 0.  0.
         11    1    3    3    0    0 -0.26100268365E+03 -0.16584241837E+03 -0.40630717286E+03  0.51059928253E+03  0.00000000000E+00 0. -1.
        -11    1    3    3    0    0 -0.68610295181E+02 -0.10266946760E+03 -0.21325197183E+03  0.24642401602E+03  0.00000000000E+00 0.  1.
          4    1    6    6  502    0 -0.17469328027E+03  0.36469170826E+03  0.42741399367E+03  0.58838805752E+03  0.00000000000E+00 0. -1.
          3    1    5    5  503    0  0.32505393581E+03 -0.67244740664E+02  0.17693150604E+03  0.37614714429E+03  0.00000000000E+00 0. -1.
         -2    1    5    5    0  503  0.17278815283E+03 -0.69556292469E+02  0.46639226537E+02  0.19201312724E+03  0.00000000000E+00 0.  1.
         -3    1    6    6    0  502  0.64641704607E+01  0.40621210842E+02  0.40103365712E+02  0.57446916466E+02  0.00000000000E+00 0.  1.
<mgrwt>
<rscale>  0 0.19697202E+04</rscale>
<asrwt>0</asrwt>
<pdfrwt beam="1">  1        2 0.15711904E+00 0.19697202E+04</pdfrwt>
<pdfrwt beam="2">  1       -2 0.14611459E+00 0.19697202E+04</pdfrwt>
<totfact> 0.73004704E+00</totfact>
</mgrwt>
</event>
<event>
12    1  0.1541840E-007  0.1278841E+04  0.7818608E-02  0.9046514E-01
          1   -1    0    0  501    0  0.00000000000E+00  0.00000000000E+00  0.39299555400E+03  0.39299555400E+03  0.00000000000E+00 0. -1.
         -1   -1    0    0    0  501 -0.00000000000E+00 -0.00000000000E+00 -0.10403649574E+04  0.10403649574E+04  0.00000000000E+00 0.  1.
         23    2    1    2    0    0 -0.29544509518E+03 -0.34080209871E+02 -0.73410434852E+02  0.31994666830E+03  0.92344537693E+02 0.  0.
        254    2    1    2    0    0  0.29544509518E+03  0.34080209871E+02 -0.57395896856E+03  0.11134138431E+04  0.90653859458E+03 0.  0.
        -24    2    4    4    0    0  0.29666404258E+03  0.26906765609E+03 -0.71828195776E+03  0.82624094252E+03  0.79612602946E+02 0.  0.
         24    2    4    4    0    0 -0.12189473984E+01 -0.23498744622E+03  0.14432298920E+03  0.28717290059E+03  0.80115940390E+02 0.  0.
         11    1    3    3    0    0 -0.21429869976E+03  0.14499608797E+02 -0.33893950751E+02  0.21744647909E+03  0.00000000000E+00 0. -1.
        -11    1    3    3    0    0 -0.81146395421E+02 -0.48579818668E+02 -0.39516484102E+02  0.10250018921E+03  0.00000000000E+00 0.  1.
          2    1    6    6  502    0  0.70527101129E+01 -0.39386535794E+02 -0.58442464210E+01  0.40437546143E+02  0.00000000000E+00 0. -1.
          1    1    5    5  503    0  0.11908165032E+03  0.57852559990E+02 -0.23089507016E+03  0.26615764420E+03  0.00000000000E+00 0. -1.
         -2    1    5    5    0  503  0.17758239226E+03  0.21121509610E+03 -0.48738688759E+03  0.56008329832E+03  0.00000000000E+00 0.  1.
         -1    1    6    6    0  502 -0.82716575114E+01 -0.19560091043E+03  0.15016723562E+03  0.24673535444E+03  0.00000000000E+00 0.  1.
<mgrwt>
<rscale>  0 0.12788414E+04</rscale>
<asrwt>0</asrwt>
<pdfrwt beam="1">  1        1 0.60460855E-01 0.12788414E+04</pdfrwt>
<pdfrwt beam="2">  1       -1 0.16005615E+00 0.12788414E+04</pdfrwt>
<totfact> 0.17647909E+01</totfact>
</mgrwt>
</event>
<event>
12    1  0.1541840E-007  0.1155734E+04  0.7818608E-02  0.9152510E-01
          2   -1    0    0  501    0  0.00000000000E+00  0.00000000000E+00  0.94174429097E+03  0.94174429097E+03  0.00000000000E+00 0. -1.
         -2   -1    0    0    0  501 -0.00000000000E+00 -0.00000000000E+00 -0.35458725484E+03  0.35458725484E+03  0.00000000000E+00 0.  1.
         23    2    1    2    0    0  0.62647396628E+02 -0.49249369208E+02  0.30778871812E+03  0.33082790639E+03  0.91449505057E+02 0.  0.
        254    2    1    2    0    0 -0.62647396628E+02  0.49249369208E+02  0.27936831801E+03  0.96550363941E+03  0.92076078540E+03 0.  0.
        -24    2    4    4    0    0 -0.46232758416E+03  0.13568028050E+02 -0.19182567080E+00  0.46862782567E+03  0.75373176534E+02 0.  0.
         24    2    4    4    0    0  0.39968018753E+03  0.35681341158E+02  0.27956014368E+03  0.49687581374E+03  0.87831030561E+02 0.  0.
         11    1    3    3    0    0  0.31965124480E+02  0.19897778897E+02  0.52770924222E+02  0.64826393015E+02  0.00000000000E+00 0.  1.
        -11    1    3    3    0    0  0.30682272148E+02 -0.69147148105E+02  0.25501779390E+03  0.26600151338E+03  0.00000000000E+00 0. -1.
          2    1    6    6  502    0  0.15454787044E+03 -0.45896709144E+01  0.61742546486E+02  0.16648799171E+03  0.00000000000E+00 0. -1.
          1    1    5    5  503    0 -0.42163809062E+03  0.22149425424E+02 -0.19733896873E+02  0.42268037948E+03  0.00000000000E+00 0. -1.
         -2    1    5    5    0  503 -0.40689493537E+02 -0.85813973738E+01  0.19542071203E+02  0.45947446198E+02  0.00000000000E+00 0.  1.
         -1    1    6    6    0  502  0.24513231709E+03  0.40271012072E+02  0.21781759720E+03  0.33038782202E+03  0.00000000000E+00 0.  1.
<mgrwt>
<rscale>  0 0.11557344E+04</rscale>
<asrwt>0</asrwt>
<pdfrwt beam="1">  1        2 0.14488374E+00 0.11557344E+04</pdfrwt>
<pdfrwt beam="2">  1       -2 0.54551886E-01 0.11557344E+04</pdfrwt>
<totfact> 0.86033652E+01</totfact>
</mgrwt>
</event>
<event>
12    1  0.1541840E-007  0.2119202E+04  0.7818608E-02  0.8552832E-01
         -3   -1    0    0    0  501 -0.00000000000E+00  0.00000000000E+00  0.14686912792E+04  0.14686912792E+04  0.00000000000E+00 0.  1.
          3   -1    0    0  501    0  0.00000000000E+00 -0.00000000000E+00 -0.76445914246E+03  0.76445914246E+03  0.00000000000E+00 0. -1.
         23    2    1    2    0    0  0.30609707370E+03  0.21554158196E+03  0.11194577124E+04  0.11839214248E+04  0.91273096229E+02 0.  0.
        254    2    1    2    0    0 -0.30609707370E+03 -0.21554158196E+03 -0.41522557563E+03  0.10492289969E+04  0.88787139679E+03 0.  0.
        -24    2    4    4    0    0  0.89694696343E+02  0.64882614419E+02  0.21222382808E+03  0.25203665892E+03  0.78921682881E+02 0.  0.
         24    2    4    4    0    0 -0.39579177004E+03 -0.28042419638E+03 -0.62744940372E+03  0.79719233800E+03  0.80833250537E+02 0.  0.
         13    1    3    3    0    0  0.27670814224E+03  0.21321273457E+03  0.95591769343E+03  0.10177454017E+04  0.00000000000E+00 0.  1.
        -13    1    3    3    0    0  0.29388931456E+02  0.23288473852E+01  0.16354001896E+03  0.16617602301E+03  0.00000000000E+00 0. -1.
          2    1    6    6  502    0 -0.34317921729E+03 -0.22900962403E+03 -0.48401367902E+03  0.63599262933E+03  0.00000000000E+00 0. -1.
          1    1    5    5  503    0  0.95746112524E+02  0.50959931588E+02  0.13420679107E+03  0.17255635445E+03  0.00000000000E+00 0. -1.
         -2    1    5    5    0  503 -0.60514161814E+01  0.13922682830E+02  0.78017037016E+02  0.79480304477E+02  0.00000000000E+00 0.  1.
         -1    1    6    6    0  502 -0.52612552748E+02 -0.51414572344E+02 -0.14343572469E+03  0.16119970867E+03  0.00000000000E+00 0.  1.
<mgrwt>
<rscale>  0 0.21192022E+04</rscale>
<asrwt>0</asrwt>
<pdfrwt beam="1">  1        3 0.11760910E+00 0.21192022E+04</pdfrwt>
<pdfrwt beam="2">  1       -3 0.22595250E+00 0.21192022E+04</pdfrwt>
<totfact> 0.14485177E-01</totfact>
</mgrwt>
</event>
<event>
12    1  0.1541840E-007  0.2592092E+04  0.7818608E-02  0.8370892E-01
         -1   -1    0    0    0  501 -0.00000000000E+00  0.00000000000E+00  0.13826945536E+04  0.13826945536E+04  0.00000000000E+00 0.  1.
          1   -1    0    0  501    0  0.00000000000E+00 -0.00000000000E+00 -0.12148269607E+04  0.12148269607E+04  0.00000000000E+00 0. -1.
         23    2    1    2    0    0 -0.73244322301E+03  0.83533573563E+03 -0.11694340523E+03  0.11208245695E+04  0.91176145453E+02 0.  0.
        254    2    1    2    0    0  0.73244322301E+03 -0.83533573563E+03  0.28481099817E+03  0.14766969448E+04  0.93019228981E+03 0.  0.
        -24    2    4    4    0    0  0.12342199839E+03 -0.81137253385E+03  0.79466635289E+02  0.82815782379E+03  0.77279082607E+02 0.  0.
         24    2    4    4    0    0  0.60902122462E+03 -0.23963201773E+02  0.20534436288E+03  0.64853912103E+03  0.83400222164E+02 0.  0.
         11    1    3    3    0    0 -0.43278151704E+03  0.55596696165E+03 -0.58350406430E+02  0.70696808547E+03  0.00000000000E+00 0. -1.
        -11    1    3    3    0    0 -0.29966170597E+03  0.27936877398E+03 -0.58592998803E+02  0.41385648407E+03  0.00000000000E+00 0.  1.
          2    1    6    6  502    0  0.44478122035E+03 -0.20562575491E+02  0.11016352400E+03  0.45868197643E+03  0.00000000000E+00 0. -1.
          1    1    5    5  503    0  0.10987054618E+03 -0.73260394866E+03  0.48298281735E+02  0.74236972361E+03  0.00000000000E+00 0. -1.
         -2    1    5    5    0  503  0.13551452206E+02 -0.78768585194E+02  0.31168353554E+02  0.85788100186E+02  0.00000000000E+00 0.  1.
         -1    1    6    6    0  502  0.16424000427E+03 -0.34006262818E+01  0.95180838882E+02  0.18985714459E+03  0.00000000000E+00 0.  1.
<mgrwt>
<rscale>  0 0.25920915E+04</rscale>
<asrwt>0</asrwt>
<pdfrwt beam="1">  1        1 0.18689646E+00 0.25920915E+04</pdfrwt>
<pdfrwt beam="2">  1       -1 0.21272224E+00 0.25920915E+04</pdfrwt>
<totfact> 0.11317445E+00</totfact>
</mgrwt>
</event>
<event>
12    1  0.1541840E-007  0.1526456E+04  0.7818608E-02  0.8867048E-01
          2   -1    0    0  501    0  0.00000000000E+00  0.00000000000E+00  0.40368041028E+03  0.40368041028E+03  0.00000000000E+00 0. -1.
         -2   -1    0    0    0  501 -0.00000000000E+00 -0.00000000000E+00 -0.14430151674E+04  0.14430151674E+04  0.00000000000E+00 0.  1.
         23    2    1    2    0    0 -0.18531858114E+03  0.20465556937E+03 -0.82368463764E+03  0.87339342149E+03  0.90182081492E+02 0.  0.
        254    2    1    2    0    0  0.18531858114E+03 -0.20465556937E+03 -0.21565011952E+03  0.97330215623E+03  0.90806675673E+03 0.  0.
        -24    2    4    4    0    0 -0.28777011732E+03  0.56052435882E+02  0.12651037760E+03  0.32872043329E+03  0.78094376443E+02 0.  0.
         24    2    4    4    0    0  0.47308869847E+03 -0.26070800525E+03 -0.34216049712E+03  0.64458172293E+03  0.81426108419E+02 0.  0.
         11    1    3    3    0    0 -0.16238342933E+03  0.19811655657E+03 -0.79904742229E+03  0.83910388581E+03  0.00000000000E+00 0.  1.
        -11    1    3    3    0    0 -0.22935151808E+02  0.65390128061E+01 -0.24637215346E+02  0.34289535677E+02  0.00000000000E+00 0. -1.
          4    1    6    6  502    0  0.37810274464E+03 -0.20085058243E+03 -0.30735068783E+03  0.52703613470E+03  0.00000000000E+00 0. -1.
          3    1    5    5  503    0 -0.19672108767E+03  0.25625390448E+02  0.12141099388E+03  0.23258649231E+03  0.00000000000E+00 0. -1.
         -4    1    5    5    0  503 -0.91049029655E+02  0.30427045434E+02  0.50993837158E+01  0.96133940985E+02  0.00000000000E+00 0.  1.
         -3    1    6    6    0  502  0.94985953824E+02 -0.59857422819E+02 -0.34809809287E+02  0.11754558823E+03  0.00000000000E+00 0.  1.
<mgrwt>
<rscale>  0 0.15264560E+04</rscale>
<asrwt>0</asrwt>
<pdfrwt beam="1">  1        2 0.62104679E-01 0.15264560E+04</pdfrwt>
<pdfrwt beam="2">  1       -2 0.22200233E+00 0.15264560E+04</pdfrwt>
<totfact> 0.72805721E+00</totfact>
</mgrwt>
</event>
<event>
12    1  0.1541840E-007  0.1242218E+04  0.7818608E-02  0.9076685E-01
         -2   -1    0    0    0  501 -0.00000000000E+00  0.00000000000E+00  0.77498034412E+03  0.77498034412E+03  0.00000000000E+00 0. -1.
          2   -1    0    0  501    0  0.00000000000E+00 -0.00000000000E+00 -0.49778885305E+03  0.49778885305E+03  0.00000000000E+00 0.  1.
         23    2    1    2    0    0 -0.15530567705E+03  0.20034939590E+03 -0.61825162374E+02  0.27613079206E+03  0.90366641291E+02 0.  0.
        254    2    1    2    0    0  0.15530567705E+03 -0.20034939590E+03  0.33901665345E+03  0.99663840511E+03  0.90227273341E+03 0.  0.
        -24    2    4    4    0    0  0.83008025457E+02  0.30359374317E+03  0.35542133332E+03  0.48142031662E+03  0.79885567500E+02 0.  0.
         24    2    4    4    0    0  0.72297651595E+02 -0.50394313907E+03 -0.16404679872E+02  0.51521808849E+03  0.77426916113E+02 0.  0.
         13    1    3    3    0    0 -0.72740406060E+02  0.40801928187E+02 -0.47343145033E+02  0.95902749696E+02  0.00000000000E+00 0. -1.
        -13    1    3    3    0    0 -0.82565270991E+02  0.15954746771E+03 -0.14482017341E+02  0.18022804236E+03  0.00000000000E+00 0.  1.
          4    1    6    6  502    0  0.71954774233E+02 -0.50405746739E+03 -0.21969899140E+02  0.50964114476E+03  0.00000000000E+00 0. -1.
          1    1    5    5  503    0  0.95830141404E+02  0.27314884674E+03  0.33429966100E+03  0.44221032532E+03  0.00000000000E+00 0. -1.
         -2    1    5    5    0  503 -0.12822115947E+02  0.30444896433E+02  0.21121672316E+02  0.39209991298E+02  0.00000000000E+00 0.  1.
         -3    1    6    6    0  502  0.34287736199E+00  0.11432831447E+00  0.55652192679E+01  0.55769437283E+01  0.00000000000E+00 0.  1.
<mgrwt>
<rscale>  0 0.12422183E+04</rscale>
<asrwt>0</asrwt>
<pdfrwt beam="1">  1        2 0.76582901E-01 0.12422183E+04</pdfrwt>
<pdfrwt beam="2">  1       -2 0.11922774E+00 0.12422183E+04</pdfrwt>
<totfact> 0.32856688E+01</totfact>
</mgrwt>
</event>
<event>
12    1  0.1541840E-007  0.1459321E+04  0.7818608E-02  0.8911964E-01
          2   -1    0    0  501    0  0.00000000000E+00  0.00000000000E+00  0.20212833069E+04  0.20212833069E+04  0.00000000000E+00 0. -1.
         -2   -1    0    0    0  501 -0.00000000000E+00 -0.00000000000E+00 -0.26339925297E+03  0.26339925297E+03  0.00000000000E+00 0.  1.
         23    2    1    2    0    0 -0.12967896956E+03 -0.12088334701E+03  0.11911489490E+04  0.12076389824E+04  0.90148069239E+02 0.  0.
        254    2    1    2    0    0  0.12967896956E+03  0.12088334701E+03  0.56673510500E+03  0.10770435775E+04  0.89855704881E+03 0.  0.
        -24    2    4    4    0    0  0.25468001130E+03 -0.32537849112E+03  0.14536090450E+03  0.44559150670E+03  0.81785864613E+02 0.  0.
         24    2    4    4    0    0 -0.12500104174E+03  0.44626183813E+03  0.42137420051E+03  0.63145207085E+03  0.80003826895E+02 0.  0.
         13    1    3    3    0    0 -0.11273390574E+03 -0.12981416597E+03  0.11423383824E+04  0.11552045841E+04  0.00000000000E+00 0. -1.
        -13    1    3    3    0    0 -0.16945063822E+02  0.89308189562E+01  0.48810566596E+02  0.52434398314E+02  0.00000000000E+00 0.  1.
          2    1    6    6  502    0  0.20912082218E+01  0.48391081477E+02  0.72754977737E+02  0.87403413571E+02  0.00000000000E+00 0. -1.
          3    1    5    5  503    0  0.72477704134E+02 -0.91428698205E+02  0.81346273008E+02  0.14223023794E+03  0.00000000000E+00 0. -1.
         -4    1    5    5    0  503  0.18220230717E+03 -0.23394979291E+03  0.64014631490E+02  0.30336126876E+03  0.00000000000E+00 0.  1.
         -1    1    6    6    0  502 -0.12709224996E+03  0.39787075665E+03  0.34861922277E+03  0.54404865727E+03  0.00000000000E+00 0.  1.
<mgrwt>
<rscale>  0 0.14593211E+04</rscale>
<asrwt>0</asrwt>
<pdfrwt beam="1">  1        2 0.31096665E+00 0.14593211E+04</pdfrwt>
<pdfrwt beam="2">  1       -2 0.40522963E-01 0.14593211E+04</pdfrwt>
<totfact> 0.36344587E+01</totfact>
</mgrwt>
</event>
<event>
12    1  0.1541840E-007  0.1270349E+04  0.7818608E-02  0.9053415E-01
          2   -1    0    0  501    0  0.00000000000E+00  0.00000000000E+00  0.23065196036E+04  0.23065196036E+04  0.00000000000E+00 0. -1.
         -2   -1    0    0    0  501 -0.00000000000E+00 -0.00000000000E+00 -0.17491569845E+03  0.17491569845E+03  0.00000000000E+00 0.  1.
         23    2    1    2    0    0 -0.14663495640E+02 -0.16042805022E+03  0.28317609579E+02  0.18704373815E+03  0.90726487685E+02 0.  0.
        254    2    1    2    0    0  0.14663495640E+02  0.16042805022E+03  0.21032862955E+04  0.22943915639E+04  0.90247838199E+03 0.  0.
        -24    2    4    4    0    0  0.42350189947E+03 -0.62336004296E+02  0.84708699410E+03  0.95248032545E+03  0.80142114434E+02 0.  0.
         24    2    4    4    0    0 -0.40883840383E+03  0.22276405452E+03  0.12561993014E+04  0.13419112384E+04  0.76918284160E+02 0.  0.
         11    1    3    3    0    0  0.89475045997E+01 -0.14968992708E+03  0.18259577140E+01  0.14996821740E+03  0.00000000000E+00 0.  1.
        -11    1    3    3    0    0 -0.23611000240E+02 -0.10738123146E+02  0.26491651865E+02  0.37075520759E+02  0.00000000000E+00 0. -1.
          2    1    6    6  502    0 -0.22515023103E+02  0.14480862605E+02  0.13976948627E+03  0.14230998187E+03  0.00000000000E+00 0. -1.
          3    1    5    5  503    0  0.31049009851E+02 -0.11172596124E+01  0.26573878307E+02  0.40883496549E+02  0.00000000000E+00 0. -1.
         -4    1    5    5    0  503  0.39245288962E+03 -0.61218744683E+02  0.82051311580E+03  0.91159682890E+03  0.00000000000E+00 0.  1.
         -3    1    6    6    0  502 -0.38632338073E+03  0.20828319192E+03  0.11164298152E+04  0.11996012566E+04  0.00000000000E+00 0.  1.
<mgrwt>
<rscale>  0 0.12703488E+04</rscale>
<asrwt>0</asrwt>
<pdfrwt beam="1">  1        2 0.35484915E+00 0.12703488E+04</pdfrwt>
<pdfrwt beam="2">  1       -2 0.26910109E-01 0.12703488E+04</pdfrwt>
<totfact> 0.55548101E+01</totfact>
</mgrwt>
</event>
<event>
12    1  0.1541840E-007  0.2000508E+04  0.7818608E-02  0.8606383E-01
          2   -1    0    0  501    0  0.00000000000E+00  0.00000000000E+00  0.15728157808E+04  0.15728157808E+04  0.00000000000E+00 0. -1.
         -2   -1    0    0    0  501 -0.00000000000E+00 -0.00000000000E+00 -0.63612566044E+03  0.63612566044E+03  0.00000000000E+00 0.  1.
         23    2    1    2    0    0  0.35552015289E+03 -0.70935769766E+03  0.36276628742E+03  0.87821300277E+03  0.10037816796E+03 0.  0.
        254    2    1    2    0    0 -0.35552015289E+03  0.70935769766E+03  0.57392383295E+03  0.13307284385E+04  0.90103645244E+03 0.  0.
        -24    2    4    4    0    0 -0.54803942208E+03  0.75757433209E+03  0.29996545965E+03  0.98517327940E+03  0.79504947428E+02 0.  0.
         24    2    4    4    0    0  0.19251926919E+03 -0.48216634431E+02  0.27395837330E+03  0.34555515908E+03  0.70474568641E+02 0.  0.
         11    1    3    3    0    0  0.22891923482E+03 -0.50451897103E+03  0.20706123229E+03  0.59145393914E+03  0.00000000000E+00 0.  1.
        -11    1    3    3    0    0  0.12660091807E+03 -0.20483872663E+03  0.15570505513E+03  0.28675906363E+03  0.00000000000E+00 0. -1.
          4    1    6    6  502    0  0.18517841596E+02 -0.26620236133E+02  0.66066567015E+02  0.73595779134E+02  0.00000000000E+00 0. -1.
          3    1    5    5  503    0 -0.81322441577E+01  0.37571502284E+02  0.13093332765E+02  0.40610177811E+02  0.00000000000E+00 0. -1.
         -4    1    5    5    0  503 -0.53990717792E+03  0.72000282981E+03  0.28687212688E+03  0.94456310159E+03  0.00000000000E+00 0.  1.
         -3    1    6    6    0  502  0.17400142759E+03 -0.21596398298E+02  0.20789180628E+03  0.27195937995E+03  0.00000000000E+00 0.  1.
<mgrwt>
<rscale>  0 0.20005084E+04</rscale>
<asrwt>0</asrwt>
<pdfrwt beam="1">  1        2 0.24197166E+00 0.20005084E+04</pdfrwt>
<pdfrwt beam="2">  1       -2 0.97865487E-01 0.20005084E+04</pdfrwt>
<totfact> 0.93275982E+00</totfact>
</mgrwt>
</event>
<event>
12    1  0.1556357E-007  0.1394133E+04  0.7818608E-02  0.8958076E-01
          2   -1    0    0  501    0  0.00000000000E+00  0.00000000000E+00  0.14836452977E+04  0.14836452977E+04  0.00000000000E+00 0. -1.
         -2   -1    0    0    0  501 -0.00000000000E+00 -0.00000000000E+00 -0.32750547334E+03  0.32750547334E+03  0.00000000000E+00 0.  1.
         23    2    1    2    0    0 -0.24014723600E+01  0.12201389932E+03  0.82570733265E+03  0.83926641795E+03  0.87649086834E+02 0.  0.
        254    2    1    2    0    0  0.24014723600E+01 -0.12201389932E+03  0.33043249167E+03  0.97188435304E+03  0.90580373450E+03 0.  0.
        -24    2    4    4    0    0  0.13269217947E+03 -0.85689389610E+02  0.61942470541E+03  0.64348918307E+03  0.73766368174E+02 0.  0.
         24    2    4    4    0    0 -0.13029070711E+03 -0.36324509714E+02 -0.28899221374E+03  0.32839516997E+03  0.77664339909E+02 0.  0.
         13    1    3    3    0    0  0.18216122660E+02  0.30145345405E+02  0.46970939676E+03  0.47102811634E+03  0.00000000000E+00 0. -1.
        -13    1    3    3    0    0 -0.20617595020E+02  0.91868553920E+02  0.35599793588E+03  0.36823830162E+03  0.00000000000E+00 0.  1.
          2    1    6    6  502    0 -0.13307796061E+03 -0.22297127372E+02 -0.22116792736E+03  0.25907944261E+03  0.00000000000E+00 0. -1.
          3    1    5    5  503    0  0.11284994379E+03 -0.76423011499E+02  0.59615131148E+03  0.61153247884E+03  0.00000000000E+00 0. -1.
         -4    1    5    5    0  503  0.19842235683E+02 -0.92663781114E+01  0.23273393930E+02  0.31956704230E+02  0.00000000000E+00 0.  1.
         -1    1    6    6    0  502  0.27872534960E+01 -0.14027382342E+02 -0.67824286377E+02  0.69315727363E+02  0.00000000000E+00 0.  1.
<mgrwt>
<rscale>  0 0.13941334E+04</rscale>
<asrwt>0</asrwt>
<pdfrwt beam="1">  1        2 0.22825312E+00 0.13941334E+04</pdfrwt>
<pdfrwt beam="2">  1       -2 0.50385458E-01 0.13941334E+04</pdfrwt>
<totfact> 0.47026142E+01</totfact>
</mgrwt>
</event>
<event>
12    1  0.1541840E-007  0.2276949E+04  0.7818608E-02  0.8487066E-01
         -2   -1    0    0    0  501 -0.00000000000E+00  0.00000000000E+00  0.90340017916E+03  0.90340017916E+03  0.00000000000E+00 0. -1.
          2   -1    0    0  501    0  0.00000000000E+00 -0.00000000000E+00 -0.14347178734E+04  0.14347178734E+04  0.00000000000E+00 0.  1.
         23    2    1    2    0    0  0.25186075820E+03 -0.89036526730E+03  0.29051864927E+02  0.93033787925E+03  0.92197657074E+02 0.  0.
        254    2    1    2    0    0 -0.25186075820E+03  0.89036526730E+03 -0.56036955916E+03  0.14077801733E+04  0.90091443699E+03 0.  0.
        -24    2    4    4    0    0 -0.48711655751E+03  0.16239793409E+03 -0.17956612545E+03  0.54993275765E+03  0.80786229802E+02 0.  0.
         24    2    4    4    0    0  0.23525579932E+03  0.72796733321E+03 -0.38080343372E+03  0.85784741566E+03  0.74894619890E+02 0.  0.
         13    1    3    3    0    0  0.24709415728E+03 -0.86457726744E+03  0.43782668980E+02  0.90025901609E+03  0.00000000000E+00 0. -1.
        -13    1    3    3    0    0  0.47666009119E+01 -0.25787999860E+02 -0.14730804053E+02  0.30078863161E+02  0.00000000000E+00 0.  1.
          4    1    6    6  502    0  0.70710959781E+02  0.31059461876E+03 -0.18477277754E+03  0.36825268004E+03  0.00000000000E+00 0. -1.
          3    1    5    5  503    0 -0.26557159090E+03  0.82954482593E+02 -0.54879649975E+02  0.28358683336E+03  0.00000000000E+00 0. -1.
         -4    1    5    5    0  503 -0.22154496661E+03  0.79443451500E+02 -0.12468647547E+03  0.26634592428E+03  0.00000000000E+00 0.  1.
         -3    1    6    6    0  502  0.16454483954E+03  0.41737271445E+03 -0.19603065617E+03  0.48959473562E+03  0.00000000000E+00 0.  1.
<mgrwt>
<rscale>  0 0.22769492E+04</rscale>
<asrwt>0</asrwt>
<pdfrwt beam="1">  1        2 0.22072583E+00 0.22769492E+04</pdfrwt>
<pdfrwt beam="2">  1       -2 0.13898464E+00 0.22769492E+04</pdfrwt>
<totfact> 0.45968815E+00</totfact>
</mgrwt>
</event>
<event>
12    1  0.1541840E-007  0.1903582E+04  0.7818608E-02  0.8653075E-01
          2   -1    0    0  501    0  0.00000000000E+00  0.00000000000E+00  0.11836929023E+04  0.11836929023E+04  0.00000000000E+00 0.  1.
         -2   -1    0    0    0  501 -0.00000000000E+00 -0.00000000000E+00 -0.76532219900E+03  0.76532219900E+03  0.00000000000E+00 0. -1.
         23    2    1    2    0    0  0.12462225320E+02 -0.71819275511E+03  0.35498059505E+03  0.80646701605E+03  0.91769736594E+02 0.  0.
        254    2    1    2    0    0 -0.12462225320E+02  0.71819275511E+03  0.63390108286E+02  0.11425480853E+04  0.88625147718E+03 0.  0.
        -24    2    4    4    0    0 -0.36622763223E+03  0.12861925484E+03  0.18910068634E+03  0.43889917734E+03  0.78789764363E+02 0.  0.
         24    2    4    4    0    0  0.35376540691E+03  0.58957350027E+03 -0.12571057806E+03  0.70364890795E+03  0.81066398007E+02 0.  0.
         11    1    3    3    0    0 -0.17781656765E+02 -0.48133801272E+03  0.19839260972E+03  0.52092427223E+03  0.00000000000E+00 0. -1.
        -11    1    3    3    0    0  0.30243882084E+02 -0.23685474239E+03  0.15658798533E+03  0.28554274381E+03  0.00000000000E+00 0.  1.
          2    1    6    6  502    0  0.58450911437E+02  0.53793968367E+02 -0.18439659610E+01  0.79458796184E+02  0.00000000000E+00 0. -1.
          1    1    5    5  503    0 -0.63397163038E+01  0.18719217795E+02  0.10264753887E+02  0.22270300627E+02  0.00000000000E+00 0. -1.
         -2    1    5    5    0  503 -0.35988791592E+03  0.10990003705E+03  0.17883593246E+03  0.41662887671E+03  0.00000000000E+00 0.  1.
         -1    1    6    6    0  502  0.29531449547E+03  0.53577953190E+03 -0.12386661209E+03  0.62419011177E+03  0.00000000000E+00 0.  1.
<mgrwt>
<rscale>  0 0.19035824E+04</rscale>
<asrwt>0</asrwt>
<pdfrwt beam="1">  1        2 0.18210660E+00 0.19035824E+04</pdfrwt>
<pdfrwt beam="2">  1       -2 0.11774188E+00 0.19035824E+04</pdfrwt>
<totfact> 0.10096966E+01</totfact>
</mgrwt>
</event>
<event>
12    1  0.1541840E-007  0.2625619E+04  0.7818608E-02  0.8359551E-01
          2   -1    0    0  501    0  0.00000000000E+00  0.00000000000E+00  0.29826021161E+04  0.29826021161E+04  0.00000000000E+00 0. -1.
         -2   -1    0    0    0  501 -0.00000000000E+00 -0.00000000000E+00 -0.57784057868E+03  0.57784057868E+03  0.00000000000E+00 0.  1.
         23    2    1    2    0    0  0.17732869615E+03 -0.41338827133E+03  0.23499964419E+04  0.23942361914E+04  0.86881145615E+02 0.  0.
        254    2    1    2    0    0 -0.17732869615E+03  0.41338827133E+03  0.54765095482E+02  0.11662065034E+04  0.10745711068E+04 0.  0.
        -24    2    4    4    0    0 -0.18798871929E+03  0.77093523830E+03  0.19509527030E+02  0.79783201065E+03  0.80463627443E+02 0.  0.
         24    2    4    4    0    0  0.10660023146E+02 -0.35754696697E+03  0.35255568452E+02  0.36837449279E+03  0.80643301951E+02 0.  0.
         13    1    3    3    0    0  0.16739423325E+02 -0.13921282933E+03  0.68967821459E+03  0.70378722624E+03  0.00000000000E+00 0.  1.
        -13    1    3    3    0    0  0.16058927282E+03 -0.27417544200E+03  0.16603182274E+04  0.16904489651E+04  0.00000000000E+00 0. -1.
          2    1    6    6  502    0  0.26127755969E+02 -0.90446440032E+02 -0.17279871132E+02  0.95717355233E+02  0.00000000000E+00 0. -1.
          3    1    5    5  503    0 -0.91727195368E+02  0.29263357942E+03 -0.26274156162E+02  0.30779639611E+03  0.00000000000E+00 0. -1.
         -4    1    5    5    0  503 -0.96261523924E+02  0.47830165888E+03  0.45783683192E+02  0.49003561455E+03  0.00000000000E+00 0.  1.
         -1    1    6    6    0  502 -0.15467732824E+02 -0.26710052694E+03  0.52535439584E+02  0.27265713756E+03  0.00000000000E+00 0.  1.
<mgrwt>
<rscale>  0 0.26256188E+04</rscale>
<asrwt>0</asrwt>
<pdfrwt beam="1">  1        2 0.45886185E+00 0.26256188E+04</pdfrwt>
<pdfrwt beam="2">  1       -2 0.88898553E-01 0.26256188E+04</pdfrwt>
<totfact> 0.17131941E+00</totfact>
</mgrwt>
</event>
<event>
12    1  0.1541840E-007  0.2378675E+04  0.7818608E-02  0.8447531E-01
          2   -1    0    0  501    0  0.00000000000E+00  0.00000000000E+00  0.12913795635E+04  0.12913795635E+04  0.00000000000E+00 0. -1.
         -2   -1    0    0    0  501 -0.00000000000E+00 -0.00000000000E+00 -0.10953587166E+04  0.10953587166E+04  0.00000000000E+00 0.  1.
         23    2    1    2    0    0  0.15069472734E+03  0.20298031529E+03  0.10720818967E+04  0.11060895588E+04  0.10081968922E+03 0.  0.
        254    2    1    2    0    0 -0.15069472734E+03 -0.20298031529E+03 -0.87606104987E+03  0.12806487213E+04  0.89925984838E+03 0.  0.
        -24    2    4    4    0    0 -0.46082977851E+03  0.11111261525E+03 -0.51999443688E+03  0.70813570529E+03  0.79698586523E+02 0.  0.
         24    2    4    4    0    0  0.31013505116E+03 -0.31409293054E+03 -0.35606661299E+03  0.57251301597E+03  0.78419395507E+02 0.  0.
         13    1    3    3    0    0  0.13642807201E+03  0.19065351109E+03  0.10547139567E+04  0.10804549553E+04  0.00000000000E+00 0. -1.
        -13    1    3    3    0    0  0.14266655332E+02  0.12326804204E+02  0.17367940005E+02  0.25634603493E+02  0.00000000000E+00 0.  1.
          2    1    6    6  502    0  0.10700069257E+03 -0.13565152829E+03 -0.18200424118E+03  0.25095025233E+03  0.00000000000E+00 0. -1.
          1    1    5    5  503    0 -0.23463236605E+03  0.31397995383E+02 -0.21200309779E+03  0.31777900306E+03  0.00000000000E+00 0. -1.
         -2    1    5    5    0  503 -0.22619741246E+03  0.79714619862E+02 -0.30799133909E+03  0.39035670223E+03  0.00000000000E+00 0.  1.
         -1    1    6    6    0  502  0.20313435859E+03 -0.17844140225E+03 -0.17406237181E+03  0.32156276363E+03  0.00000000000E+00 0.  1.
<mgrwt>
<rscale>  0 0.23786751E+04</rscale>
<asrwt>0</asrwt>
<pdfrwt beam="1">  1        2 0.19867378E+00 0.23786751E+04</pdfrwt>
<pdfrwt beam="2">  1       -2 0.16851673E+00 0.23786751E+04</pdfrwt>
<totfact> 0.32904625E+00</totfact>
</mgrwt>
</event>
<event>
12    1  0.1541840E-007  0.1335719E+04  0.7818608E-02  0.9001710E-01
          2   -1    0    0  501    0  0.00000000000E+00  0.00000000000E+00  0.11149515703E+04  0.11149515703E+04  0.00000000000E+00 0.  1.
         -2   -1    0    0    0  501 -0.00000000000E+00 -0.00000000000E+00 -0.40004965240E+03  0.40004965240E+03  0.00000000000E+00 0. -1.
         23    2    1    2    0    0  0.16084095126E+03 -0.31298079420E+03  0.24618169986E+03  0.43897406778E+03  0.90917620418E+02 0.  0.
        254    2    1    2    0    0 -0.16084095126E+03  0.31298079420E+03  0.46872021806E+03  0.10760271549E+04  0.90239071704E+03 0.  0.
        -24    2    4    4    0    0 -0.27473209858E+02 -0.25978306735E+03  0.39136218811E+03  0.47740738147E+03  0.80693409008E+02 0.  0.
         24    2    4    4    0    0 -0.13336774140E+03  0.57276386155E+03  0.77358029947E+02  0.59861977346E+03  0.80721576072E+02 0.  0.
         13    1    3    3    0    0  0.20757729408E+02 -0.21755992230E+02 -0.39339370991E+01  0.30326265666E+02  0.00000000000E+00 0. -1.
        -13    1    3    3    0    0  0.14008322185E+03 -0.29122480197E+03  0.25011563696E+03  0.40864780212E+03  0.00000000000E+00 0.  1.
          2    1    6    6  502    0 -0.67818277400E+02  0.13840668243E+03  0.13359616803E+02  0.15470684488E+03  0.00000000000E+00 0. -1.
          1    1    5    5  503    0  0.31350259130E+01  0.48140328081E+01  0.30059265188E+01  0.64837407096E+01  0.00000000000E+00 0. -1.
         -2    1    5    5    0  503 -0.30608235772E+02 -0.26459710016E+03  0.38835626159E+03  0.47092364076E+03  0.00000000000E+00 0.  1.
         -1    1    6    6    0  502 -0.65549464002E+02  0.43435717912E+03  0.63998413144E+02  0.44391292859E+03  0.00000000000E+00 0.  1.
<mgrwt>
<rscale>  0 0.13357185E+04</rscale>
<asrwt>0</asrwt>
<pdfrwt beam="1">  1        2 0.17153101E+00 0.13357185E+04</pdfrwt>
<pdfrwt beam="2">  1       -2 0.61546101E-01 0.13357185E+04</pdfrwt>
<totfact> 0.51174998E+01</totfact>
</mgrwt>
</event>
<event>
12    1  0.1541840E-007  0.1674962E+04  0.7818608E-02  0.8775775E-01
         -2   -1    0    0    0  501 -0.00000000000E+00  0.00000000000E+00  0.87793873667E+03  0.87793873667E+03  0.00000000000E+00 0. -1.
          2   -1    0    0  501    0  0.00000000000E+00 -0.00000000000E+00 -0.79888761460E+03  0.79888761460E+03  0.00000000000E+00 0.  1.
         23    2    1    2    0    0 -0.57988835524E+03  0.16110653622E+02 -0.10370162508E+03  0.59617265458E+03  0.90209474706E+02 0.  0.
        254    2    1    2    0    0  0.57988835524E+03 -0.16110653622E+02  0.18275274716E+03  0.10806536967E+04  0.89324340908E+03 0.  0.
        -24    2    4    4    0    0  0.75605289227E+03  0.17501095625E+03  0.59117081570E+02  0.78249681230E+03  0.81003834482E+02 0.  0.
         24    2    4    4    0    0 -0.17616453703E+03 -0.19112160987E+03  0.12363566559E+03  0.29815688438E+03  0.77783906001E+02 0.  0.
         11    1    3    3    0    0 -0.28591196413E+03  0.26862865698E+01 -0.56348773679E+01  0.28598010282E+03  0.00000000000E+00 0.  1.
        -11    1    3    3    0    0 -0.29397639111E+03  0.13424367052E+02 -0.98066747713E+02  0.31019255176E+03  0.00000000000E+00 0. -1.
          2    1    6    6  502    0 -0.58805894281E+02 -0.11642802283E+03  0.76829194256E+02  0.15138144798E+03  0.00000000000E+00 0. -1.
          1    1    5    5  503    0  0.25796832165E+03  0.21148666207E+02  0.26048704457E+02  0.26014122330E+03  0.00000000000E+00 0. -1.
         -2    1    5    5    0  503  0.49808457062E+03  0.15386229004E+03  0.33068377113E+02  0.52235558900E+03  0.00000000000E+00 0.  1.
         -1    1    6    6    0  502 -0.11735864275E+03 -0.74693587047E+02  0.46806471330E+02  0.14677543641E+03  0.00000000000E+00 0.  1.
<mgrwt>
<rscale>  0 0.16749619E+04</rscale>
<asrwt>0</asrwt>
<pdfrwt beam="1">  1        2 0.12290579E+00 0.16749619E+04</pdfrwt>
<pdfrwt beam="2">  1       -2 0.13506750E+00 0.16749619E+04</pdfrwt>
<totfact> 0.12960547E+01</totfact>
</mgrwt>
</event>
<event>
12    1  0.1541840E-007  0.1411164E+04  0.7818608E-02  0.8945777E-01
          1   -1    0    0  501    0  0.00000000000E+00  0.00000000000E+00  0.14887804352E+04  0.14887804352E+04  0.00000000000E+00 0. -1.
         -1   -1    0    0    0  501 -0.00000000000E+00 -0.00000000000E+00 -0.33439838296E+03  0.33439838296E+03  0.00000000000E+00 0.  1.
         23    2    1    2    0    0 -0.90014149693E+02 -0.10611842119E+03 -0.15361456826E+03  0.22668298660E+03  0.91782756396E+02 0.  0.
        254    2    1    2    0    0  0.90014149693E+02  0.10611842119E+03  0.13079966205E+04  0.15964958316E+04  0.90475417352E+03 0.  0.
        -24    2    4    4    0    0  0.14966351339E+03 -0.24177766530E+03  0.62319945963E+02  0.29964663739E+03  0.71054380261E+02 0.  0.
         24    2    4    4    0    0 -0.59649363700E+02  0.34789608649E+03  0.12456766745E+04  0.12968491942E+04  0.74281366157E+02 0.  0.
         13    1    3    3    0    0 -0.42950711663E+02 -0.69673947691E+01 -0.78433410580E+01  0.44213416755E+02  0.00000000000E+00 0. -1.
        -13    1    3    3    0    0 -0.47063438029E+02 -0.99151026418E+02 -0.14577122720E+03  0.18246956984E+03  0.00000000000E+00 0.  1.
          4    1    6    6  502    0 -0.30206997637E+02  0.10063947080E+03  0.26544180126E+03  0.28548225102E+03  0.00000000000E+00 0. -1.
          3    1    5    5  503    0  0.51233747135E+02 -0.53326747194E+02 -0.10973059278E+02  0.74759928048E+02  0.00000000000E+00 0. -1.
         -4    1    5    5    0  503  0.98429766258E+02 -0.18845091811E+03  0.73293005242E+02  0.22488670934E+03  0.00000000000E+00 0.  1.
         -3    1    6    6    0  502 -0.29442366063E+02  0.24725661569E+03  0.98023487329E+03  0.10113669432E+04  0.00000000000E+00 0.  1.
<mgrwt>
<rscale>  0 0.14111637E+04</rscale>
<asrwt>0</asrwt>
<pdfrwt beam="1">  1        1 0.22904314E+00 0.14111637E+04</pdfrwt>
<pdfrwt beam="2">  1       -1 0.51445906E-01 0.14111637E+04</pdfrwt>
<totfact> 0.24659686E+01</totfact>
</mgrwt>
</event>
<event>
12    1  0.1541840E-007  0.2053001E+04  0.7818608E-02  0.8582234E-01
          2   -1    0    0  501    0  0.00000000000E+00  0.00000000000E+00  0.46557716032E+03  0.46557716032E+03  0.00000000000E+00 0. -1.
         -2   -1    0    0    0  501 -0.00000000000E+00 -0.00000000000E+00 -0.22632194666E+04  0.22632194666E+04  0.00000000000E+00 0.  1.
         23    2    1    2    0    0 -0.81354488712E+03  0.16976304005E+03 -0.78464249976E+03  0.11464844879E+04  0.89933616896E+02 0.  0.
        254    2    1    2    0    0  0.81354488712E+03 -0.16976304005E+03 -0.10129998065E+04  0.15823121390E+04  0.88705598705E+03 0.  0.
        -24    2    4    4    0    0  0.62439806638E+03  0.10706159694E+03 -0.15412880845E+03  0.65690507802E+03  0.80208859213E+02 0.  0.
         24    2    4    4    0    0  0.18914682074E+03 -0.27682463699E+03 -0.85887099807E+03  0.92540706101E+03  0.79438263982E+02 0.  0.
         13    1    3    3    0    0 -0.59353956412E+03  0.12632023252E+03 -0.51610387904E+03  0.79662364343E+03  0.00000000000E+00 0. -1.
        -13    1    3    3    0    0 -0.22000532300E+03  0.43442807529E+02 -0.26853862072E+03  0.34986084447E+03  0.00000000000E+00 0.  1.
          2    1    6    6  502    0  0.67119697549E+01 -0.45556597278E+02 -0.17160408777E+03  0.17767503211E+03  0.00000000000E+00 0. -1.
          3    1    5    5  503    0  0.50382636729E+03  0.60739795959E+02 -0.14313679729E+03  0.52727457167E+03  0.00000000000E+00 0. -1.
         -4    1    5    5    0  503  0.12057169908E+03  0.46321800980E+02 -0.10992011157E+02  0.12963050635E+03  0.00000000000E+00 0.  1.
         -3    1    6    6    0  502  0.18243485099E+03 -0.23126803972E+03 -0.68726691030E+03  0.74773202890E+03  0.00000000000E+00 0.  1.
<mgrwt>
<rscale>  0 0.20530010E+04</rscale>
<asrwt>0</asrwt>
<pdfrwt beam="1">  1        2 0.71627256E-01 0.20530010E+04</pdfrwt>
<pdfrwt beam="2">  1       -2 0.34818761E+00 0.20530010E+04</pdfrwt>
<totfact> 0.99031079E-01</totfact>
</mgrwt>
</event>
<event>
12    1  0.1541840E-007  0.1259305E+04  0.7818608E-02  0.9062474E-01
         -1   -1    0    0    0  501 -0.00000000000E+00  0.00000000000E+00  0.96404362187E+03  0.96404362187E+03  0.00000000000E+00 0.  1.
          1   -1    0    0  501    0  0.00000000000E+00 -0.00000000000E+00 -0.41124939898E+03  0.41124939898E+03  0.00000000000E+00 0. -1.
         23    2    1    2    0    0  0.28993604385E+03 -0.30049806182E+02  0.28853959344E+03  0.41984296695E+03  0.89705738622E+02 0.  0.
        254    2    1    2    0    0 -0.28993604385E+03  0.30049806182E+02  0.26425462945E+03  0.95545005390E+03  0.87068271830E+03 0.  0.
        -24    2    4    4    0    0 -0.20406781888E+03 -0.79269519629E+02  0.56736270696E+03  0.61337727393E+03  0.80024417986E+02 0.  0.
         24    2    4    4    0    0 -0.85868224964E+02  0.10931932581E+03 -0.30310807752E+03  0.34207277997E+03  0.76257544463E+02 0.  0.
         11    1    3    3    0    0  0.62789508303E+02 -0.19573979579E+02  0.21694414801E+02  0.69255401689E+02  0.00000000000E+00 0. -1.
        -11    1    3    3    0    0  0.22714653554E+03 -0.10475826603E+02  0.26684517864E+03  0.35058756526E+03  0.00000000000E+00 0.  1.
          4    1    6    6  502    0 -0.90942407408E+02  0.10350710336E+03 -0.30450963096E+03  0.33423099387E+03  0.00000000000E+00 0. -1.
          3    1    5    5  503    0 -0.10983802484E+03 -0.70782897258E+02  0.40387021758E+03  0.42448293592E+03  0.00000000000E+00 0. -1.
         -4    1    5    5    0  503 -0.94229794042E+02 -0.84866223707E+01  0.16349248939E+03  0.18889433800E+03  0.00000000000E+00 0.  1.
         -3    1    6    6    0  502  0.50741824443E+01  0.58122224464E+01  0.14015534466E+01  0.78417861045E+01  0.00000000000E+00 0.  1.
<mgrwt>
<rscale>  0 0.12593051E+04</rscale>
<asrwt>0</asrwt>
<pdfrwt beam="1">  1        1 0.63269138E-01 0.12593051E+04</pdfrwt>
<pdfrwt beam="2">  1       -1 0.14831440E+00 0.12593051E+04</pdfrwt>
<totfact> 0.20493939E+01</totfact>
</mgrwt>
</event>
<event>
12    1  0.1541840E-007  0.1095780E+04  0.7818608E-02  0.9209315E-01
         -1   -1    0    0    0  501 -0.00000000000E+00  0.00000000000E+00  0.32393692705E+03  0.32393692705E+03  0.00000000000E+00 0.  1.
          1   -1    0    0  501    0  0.00000000000E+00 -0.00000000000E+00 -0.92667241714E+03  0.92667241714E+03  0.00000000000E+00 0. -1.
         23    2    1    2    0    0  0.12576921152E+03  0.94033273500E+02 -0.76802367685E+02  0.19741205306E+03  0.91721120365E+02 0.  0.
        254    2    1    2    0    0 -0.12576921152E+03 -0.94033273500E+02 -0.52593312241E+03  0.10531972911E+04  0.89886524780E+03 0.  0.
        -24    2    4    4    0    0 -0.29227516360E+03 -0.11923989156E+01  0.15622216862E+03  0.33996429052E+03  0.75790235446E+02 0.  0.
         24    2    4    4    0    0  0.16650595208E+03 -0.92840874584E+02 -0.68215529103E+03  0.71323300060E+03  0.83796252877E+02 0.  0.
         11    1    3    3    0    0  0.99860822737E+02  0.68840954099E+02 -0.97631103106E+02  0.15570193696E+03  0.00000000000E+00 0. -1.
        -11    1    3    3    0    0  0.25908388786E+02  0.25192319401E+02  0.20828735422E+02  0.41710116106E+02  0.00000000000E+00 0.  1.
          2    1    6    6  502    0  0.39971924515E+02  0.39672377853E+01 -0.70210410484E+02  0.80888784546E+02  0.00000000000E+00 0. -1.
          3    1    5    5  503    0 -0.12017627262E+03  0.30693061978E+01  0.23262721983E+02  0.12244554453E+03  0.00000000000E+00 0. -1.
         -4    1    5    5    0  503 -0.17209889098E+03 -0.42617051134E+01  0.13295944664E+03  0.21751874599E+03  0.00000000000E+00 0.  1.
         -1    1    6    6    0  502  0.12653402756E+03 -0.96808112369E+02 -0.61194488055E+03  0.63234421606E+03  0.00000000000E+00 0.  1.
<mgrwt>
<rscale>  0 0.10957799E+04</rscale>
<asrwt>0</asrwt>
<pdfrwt beam="1">  1        1 0.14256499E+00 0.10957799E+04</pdfrwt>
<pdfrwt beam="2">  1       -1 0.49836451E-01 0.10957799E+04</pdfrwt>
<totfact> 0.69654041E+01</totfact>
</mgrwt>
</event>
<event>
12    1  0.1541840E-007  0.2566676E+04  0.7818608E-02  0.8379609E-01
         -2   -1    0    0    0  501 -0.00000000000E+00  0.00000000000E+00  0.71351342932E+03  0.71351342932E+03  0.00000000000E+00 0.  1.
          2   -1    0    0  501    0  0.00000000000E+00 -0.00000000000E+00 -0.23082349565E+04  0.23082349565E+04  0.00000000000E+00 0. -1.
         23    2    1    2    0    0 -0.45117439960E+03  0.40285673720E+03  0.40323421272E+03  0.73302589325E+03  0.94219107989E+02 0.  0.
        254    2    1    2    0    0  0.45117439960E+03 -0.40285673720E+03 -0.19979557399E+04  0.22887224926E+04  0.93838777690E+03 0.  0.
        -24    2    4    4    0    0 -0.11495472096E+02 -0.38899753344E+03 -0.16680848379E+04  0.17147810054E+04  0.80719532568E+02 0.  0.
         24    2    4    4    0    0  0.46266987170E+03 -0.13859203753E+02 -0.32987090193E+03  0.57394148717E+03  0.79614892098E+02 0.  0.
         11    1    3    3    0    0 -0.42728835354E+02  0.68978982990E+01  0.28195315255E+02  0.51655688689E+02  0.00000000000E+00 0. -1.
        -11    1    3    3    0    0 -0.40844556425E+03  0.39595883890E+03  0.37503889747E+03  0.68137020456E+03  0.00000000000E+00 0.  1.
          2    1    6    6  502    0  0.42189762857E+03 -0.29497326157E+02 -0.27789737627E+03  0.50605795417E+03  0.00000000000E+00 0. -1.
          3    1    5    5  503    0 -0.28729836802E+02 -0.27496915784E+03 -0.10355693949E+04  0.10718383334E+04  0.00000000000E+00 0. -1.
         -4    1    5    5    0  503  0.17234364706E+02 -0.11402837560E+03 -0.63251544308E+03  0.64294267202E+03  0.00000000000E+00 0.  1.
         -1    1    6    6    0  502  0.40772243132E+02  0.15638122405E+02 -0.51973525666E+02  0.67883533000E+02  0.00000000000E+00 0.  1.
<mgrwt>
<rscale>  0 0.25666762E+04</rscale>
<asrwt>0</asrwt>
<pdfrwt beam="1">  1        2 0.35511307E+00 0.25666762E+04</pdfrwt>
<pdfrwt beam="2">  1       -2 0.10977130E+00 0.25666762E+04</pdfrwt>
<totfact> 0.26265551E+00</totfact>
</mgrwt>
</event>
<event>
12    1  0.1541840E-007  0.1424763E+04  0.7818608E-02  0.8936086E-01
         -2   -1    0    0    0  501 -0.00000000000E+00  0.00000000000E+00  0.39493565205E+03  0.39493565205E+03  0.00000000000E+00 0.  1.
          2   -1    0    0  501    0  0.00000000000E+00 -0.00000000000E+00 -0.12849879899E+04  0.12849879899E+04  0.00000000000E+00 0. -1.
         23    2    1    2    0    0  0.25486036524E+03  0.33358510108E+03 -0.30096032773E+03  0.52476976120E+03  0.92592429310E+02 0.  0.
        254    2    1    2    0    0 -0.25486036524E+03 -0.33358510108E+03 -0.58909201011E+03  0.11551538807E+04  0.90062104482E+03 0.  0.
        -24    2    4    4    0    0 -0.50955051965E+03 -0.71150747586E+02 -0.85498561916E+02  0.52773360969E+03  0.80551832699E+02 0.  0.
         24    2    4    4    0    0  0.25469015441E+03 -0.26243435350E+03 -0.50359344819E+03  0.62742027105E+03  0.79441618919E+02 0.  0.
         13    1    3    3    0    0  0.18140573227E+03  0.25722115177E+03 -0.17486714781E+03  0.36006843795E+03  0.00000000000E+00 0. -1.
        -13    1    3    3    0    0  0.73454632967E+02  0.76363949307E+02 -0.12609317992E+03  0.16470132325E+03  0.00000000000E+00 0.  1.
          2    1    6    6  502    0  0.18454396129E+03 -0.21949611854E+03 -0.43121822561E+03  0.51786501890E+03  0.00000000000E+00 0. -1.
          1    1    5    5  503    0 -0.11028611653E+03 -0.21621736506E+01  0.12085308354E+02  0.11096736985E+03  0.00000000000E+00 0. -1.
         -2    1    5    5    0  503 -0.39926440312E+03 -0.68988573935E+02 -0.97583870270E+02  0.41676623984E+03  0.00000000000E+00 0.  1.
         -1    1    6    6    0  502  0.70146193117E+02 -0.42938234955E+02 -0.72375222586E+02  0.10955525215E+03  0.00000000000E+00 0.  1.
<mgrwt>
<rscale>  0 0.14247632E+04</rscale>
<asrwt>0</asrwt>
<pdfrwt beam="1">  1        2 0.19769046E+00 0.14247632E+04</pdfrwt>
<pdfrwt beam="2">  1       -2 0.60759332E-01 0.14247632E+04</pdfrwt>
<totfact> 0.41328881E+01</totfact>
</mgrwt>
</event>
<event>
12    1  0.1541840E-007  0.1149095E+04  0.7818608E-02  0.9158619E-01
         -1   -1    0    0    0  501 -0.00000000000E+00  0.00000000000E+00  0.31207528413E+03  0.31207528413E+03  0.00000000000E+00 0.  1.
          1   -1    0    0  501    0  0.00000000000E+00 -0.00000000000E+00 -0.10577737307E+04  0.10577737307E+04  0.00000000000E+00 0. -1.
         23    2    1    2    0    0  0.75133287486E+02  0.12245712057E+03  0.19213765051E+02  0.17118813850E+03  0.91079375984E+02 0.  0.
        254    2    1    2    0    0 -0.75133287486E+02 -0.12245712057E+03 -0.76491221157E+03  0.11986608763E+04  0.91162297451E+03 0.  0.
        -24    2    4    4    0    0  0.32251286892E+03 -0.19117430644E+03 -0.67664960183E+03  0.77776565280E+03  0.80638458299E+02 0.  0.
         24    2    4    4    0    0 -0.39764615640E+03  0.68717185866E+02 -0.88262609739E+02  0.42089522348E+03  0.80734029612E+02 0.  0.
         11    1    3    3    0    0  0.85693643524E+02  0.11779944052E+03  0.36712086891E+02  0.15022611641E+03  0.00000000000E+00 0.  1.
        -11    1    3    3    0    0 -0.10560356038E+02  0.46576800529E+01 -0.17498321840E+02  0.20962022096E+02  0.00000000000E+00 0. -1.
          4    1    6    6  502    0 -0.19212481681E+03  0.72256859137E+02 -0.31642641439E+02  0.20768788045E+03  0.00000000000E+00 0. -1.
          3    1    5    5  503    0  0.30055719611E+03 -0.16922104457E+03 -0.65383467053E+03  0.73923620477E+03  0.00000000000E+00 0. -1.
         -4    1    5    5    0  503  0.21955672811E+02 -0.21953261866E+02 -0.22814931304E+02  0.38529448031E+02  0.00000000000E+00 0.  1.
         -3    1    6    6    0  502 -0.20552133959E+03 -0.35396732708E+01 -0.56619968300E+02  0.21320734303E+03  0.00000000000E+00 0.  1.
<mgrwt>
<rscale>  0 0.11490954E+04</rscale>
<asrwt>0</asrwt>
<pdfrwt beam="1">  1        1 0.16273442E+00 0.11490954E+04</pdfrwt>
<pdfrwt beam="2">  1       -1 0.48011582E-01 0.11490954E+04</pdfrwt>
<totfact> 0.58758945E+01</totfact>
</mgrwt>
</event>
<event>
12    1  0.1541840E-007  0.2006484E+04  0.7818608E-02  0.8603595E-01
         -2   -1    0    0    0  501 -0.00000000000E+00  0.00000000000E+00  0.69918581733E+03  0.69918581733E+03  0.00000000000E+00 0.  1.
          2   -1    0    0  501    0  0.00000000000E+00 -0.00000000000E+00 -0.14395229642E+04  0.14395229642E+04  0.00000000000E+00 0. -1.
         23    2    1    2    0    0  0.24365070369E+03  0.43824496974E+03 -0.92170607751E+03  0.10535616687E+04  0.95004092360E+02 0.  0.
        254    2    1    2    0    0 -0.24365070369E+03 -0.43824496974E+03  0.18136893068E+03  0.10851471128E+04  0.94510594561E+03 0.  0.
        -24    2    4    4    0    0 -0.87485505913E+02 -0.65439042191E+03 -0.11929256089E+03  0.67547764763E+03  0.78478018111E+02 0.  0.
         24    2    4    4    0    0 -0.15616519778E+03  0.21614545217E+03  0.30066149157E+03  0.40966946515E+03  0.79531834327E+02 0.  0.
         13    1    3    3    0    0  0.22799721008E+02  0.93200451784E+02 -0.23656932152E+03  0.25528649666E+03  0.00000000000E+00 0.  1.
        -13    1    3    3    0    0  0.22085098268E+03  0.34504451796E+03 -0.68513675599E+03  0.79827517206E+03  0.00000000000E+00 0. -1.
          4    1    6    6  502    0 -0.22083803979E+01  0.31566604274E+02  0.11530522224E+02  0.33679079443E+02  0.00000000000E+00 0. -1.
          3    1    5    5  503    0 -0.48529515551E+02 -0.16326960907E+03 -0.52935626772E+02  0.17836552276E+03  0.00000000000E+00 0. -1.
         -4    1    5    5    0  503 -0.38955990362E+02 -0.49112081284E+03 -0.66356934114E+02  0.49711212487E+03  0.00000000000E+00 0.  1.
         -3    1    6    6    0  502 -0.15395681738E+03  0.18457884790E+03  0.28913096934E+03  0.37599038570E+03  0.00000000000E+00 0.  1.
<mgrwt>
<rscale>  0 0.20064835E+04</rscale>
<asrwt>0</asrwt>
<pdfrwt beam="1">  1        2 0.22146507E+00 0.20064835E+04</pdfrwt>
<pdfrwt beam="2">  1       -2 0.10756705E+00 0.20064835E+04</pdfrwt>
<totfact> 0.88483489E+00</totfact>
</mgrwt>
</event>
<event>
12    1  0.1541840E-007  0.2169775E+04  0.7818608E-02  0.8531115E-01
         -2   -1    0    0    0  501 -0.00000000000E+00  0.00000000000E+00  0.74233988817E+03  0.74233988817E+03  0.00000000000E+00 0.  1.
          2   -1    0    0  501    0  0.00000000000E+00 -0.00000000000E+00 -0.15855008245E+04  0.15855008245E+04  0.00000000000E+00 0. -1.
         23    2    1    2    0    0  0.60538759933E+03 -0.47819550314E+03 -0.86582641283E+03  0.11631716207E+04  0.90264928986E+02 0.  0.
        254    2    1    2    0    0 -0.60538759933E+03  0.47819550314E+03  0.22665476479E+02  0.11646690920E+04  0.87222433203E+03 0.  0.
        -24    2    4    4    0    0 -0.10487956998E+03  0.15582168342E+03  0.40381368422E+03  0.45276561088E+03  0.81554188164E+02 0.  0.
         24    2    4    4    0    0 -0.50050802935E+03  0.32237381972E+03 -0.38114820774E+03  0.71190348112E+03  0.84258192983E+02 0.  0.
         13    1    3    3    0    0  0.41444549359E+03 -0.34721611475E+03 -0.54676325805E+03  0.76894353359E+03  0.00000000000E+00 0. -1.
        -13    1    3    3    0    0  0.19094210575E+03 -0.13097938839E+03 -0.31906315479E+03  0.39422808712E+03  0.00000000000E+00 0.  1.
          4    1    6    6  502    0 -0.18504637361E+00  0.66674779898E+01 -0.14334044958E+02  0.15809944648E+02  0.00000000000E+00 0. -1.
          1    1    5    5  503    0 -0.73509624594E+02  0.59275825034E+02  0.12951890371E+03  0.16028859835E+03  0.00000000000E+00 0. -1.
         -2    1    5    5    0  503 -0.31369945388E+02  0.96545858387E+02  0.27429478050E+03  0.29247701253E+03  0.00000000000E+00 0.  1.
         -3    1    6    6    0  502 -0.50032298298E+03  0.31570634173E+03 -0.36681416278E+03  0.69609353647E+03  0.00000000000E+00 0.  1.
<mgrwt>
<rscale>  0 0.21697746E+04</rscale>
<asrwt>0</asrwt>
<pdfrwt beam="1">  1        2 0.24392320E+00 0.21697746E+04</pdfrwt>
<pdfrwt beam="2">  1       -2 0.11420614E+00 0.21697746E+04</pdfrwt>
<totfact> 0.62447238E+00</totfact>
</mgrwt>
</event>
<event>
12    1  0.1541840E-007  0.1488245E+04  0.7818608E-02  0.8892308E-01
         -2   -1    0    0    0  501 -0.00000000000E+00  0.00000000000E+00  0.34285760195E+03  0.34285760195E+03  0.00000000000E+00 0.  1.
          2   -1    0    0  501    0  0.00000000000E+00 -0.00000000000E+00 -0.16150098258E+04  0.16150098258E+04  0.00000000000E+00 0. -1.
         23    2    1    2    0    0  0.38231752617E+03  0.21075585821E+03 -0.53407208138E+03  0.69580288135E+03  0.91235623521E+02 0.  0.
        254    2    1    2    0    0 -0.38231752617E+03 -0.21075585821E+03 -0.73808014246E+03  0.12620645464E+04  0.92599130664E+03 0.  0.
        -24    2    4    4    0    0  0.15277889110E+03  0.25368145944E+03 -0.18119177071E+03  0.35737256043E+03  0.84788069629E+02 0.  0.
         24    2    4    4    0    0 -0.53509641727E+03 -0.46443731765E+03 -0.55688837176E+03  0.90469198596E+03  0.79452709619E+02 0.  0.
         13    1    3    3    0    0  0.95701137112E+02  0.49549621040E+02 -0.19910697701E+03  0.22640110619E+03  0.00000000000E+00 0. -1.
        -13    1    3    3    0    0  0.28661638906E+03  0.16120623717E+03 -0.33496510437E+03  0.46940177516E+03  0.00000000000E+00 0.  1.
          4    1    6    6  502    0 -0.23385369263E+02 -0.46728404247E+02 -0.35694051276E+02  0.63280996796E+02  0.00000000000E+00 0. -1.
          3    1    5    5  503    0 -0.10700845955E+02  0.13355836395E+02 -0.68260513721E+01  0.18425022315E+02  0.00000000000E+00 0. -1.
         -4    1    5    5    0  503  0.16347973705E+03  0.24032562304E+03 -0.17436571933E+03  0.33894753812E+03  0.00000000000E+00 0.  1.
         -3    1    6    6    0  502 -0.51171104800E+03 -0.41770891340E+03 -0.52119432048E+03  0.84141098916E+03  0.00000000000E+00 0.  1.
<mgrwt>
<rscale>  0 0.14882451E+04</rscale>
<asrwt>0</asrwt>
<pdfrwt beam="1">  1        2 0.24846305E+00 0.14882451E+04</pdfrwt>
<pdfrwt beam="2">  1       -2 0.52747323E-01 0.14882451E+04</pdfrwt>
<totfact> 0.35858420E+01</totfact>
</mgrwt>
</event>
<event>
12    1  0.1541840E-007  0.1262869E+04  0.7818608E-02  0.9059540E-01
         -2   -1    0    0    0  501 -0.00000000000E+00  0.00000000000E+00  0.18615352390E+03  0.18615352390E+03  0.00000000000E+00 0.  1.
          2   -1    0    0  501    0  0.00000000000E+00 -0.00000000000E+00 -0.21418329423E+04  0.21418329423E+04  0.00000000000E+00 0. -1.
         23    2    1    2    0    0 -0.10573688659E+02 -0.25456475197E+03 -0.77847896807E+03  0.82309633817E+03  0.80889197974E+02 0.  0.
        254    2    1    2    0    0  0.10573688659E+02  0.25456475197E+03 -0.11772004503E+04  0.15048901280E+04  0.90220750459E+03 0.  0.
        -24    2    4    4    0    0 -0.25246563332E+02 -0.25332466789E+03 -0.59056756502E+02  0.27372210339E+03  0.81396026165E+02 0.  0.
         24    2    4    4    0    0  0.35820251991E+02  0.50788941986E+03 -0.11181436938E+04  0.12311680246E+04  0.79338714229E+02 0.  0.
         13    1    3    3    0    0 -0.43809352368E+02 -0.18638585652E+03 -0.55929570224E+03  0.59116040920E+03  0.00000000000E+00 0. -1.
        -13    1    3    3    0    0  0.33235663709E+02 -0.68178895452E+02 -0.21918326583E+03  0.23193592897E+03  0.00000000000E+00 0.  1.
          4    1    6    6  502    0  0.13413584240E+02  0.99459977861E+01 -0.31287298332E+02  0.35464660594E+02  0.00000000000E+00 0. -1.
          3    1    5    5  503    0  0.21674044040E+02 -0.23212257975E+02 -0.85180501147E+00  0.31769461392E+02  0.00000000000E+00 0. -1.
         -4    1    5    5    0  503 -0.46920607372E+02 -0.23011240991E+03 -0.58204951490E+02  0.24195264200E+03  0.00000000000E+00 0.  1.
         -3    1    6    6    0  502  0.22406667751E+02  0.49794342208E+03 -0.10868563955E+04  0.11957033641E+04  0.00000000000E+00 0.  1.
<mgrwt>
<rscale>  0 0.12628694E+04</rscale>
<asrwt>0</asrwt>
<pdfrwt beam="1">  1        2 0.32951277E+00 0.12628694E+04</pdfrwt>
<pdfrwt beam="2">  1       -2 0.28639003E-01 0.12628694E+04</pdfrwt>
<totfact> 0.61281852E+01</totfact>
</mgrwt>
</event>
<event>
12    1  0.1541840E-007  0.1349670E+04  0.7818608E-02  0.8991078E-01
         -2   -1    0    0    0  501 -0.00000000000E+00  0.00000000000E+00  0.43191883408E+03  0.43191883408E+03  0.00000000000E+00 0.  1.
          2   -1    0    0  501    0  0.00000000000E+00 -0.00000000000E+00 -0.10543707125E+04  0.10543707125E+04  0.00000000000E+00 0. -1.
         23    2    1    2    0    0 -0.28617229947E+02 -0.36061000871E+03 -0.14549408171E+03  0.40067815816E+03  0.92281820399E+02 0.  0.
        254    2    1    2    0    0  0.28617229947E+02  0.36061000871E+03 -0.47695779675E+03  0.10856113885E+04  0.90565160113E+03 0.  0.
        -24    2    4    4    0    0 -0.29857374981E+03  0.46947472000E+03 -0.10490935651E+03  0.57200856094E+03  0.81455656095E+02 0.  0.
         24    2    4    4    0    0  0.32719097976E+03 -0.10886471129E+03 -0.37204844024E+03  0.51360282751E+03  0.80388804859E+02 0.  0.
         11    1    3    3    0    0 -0.26221870172E+02 -0.22783490083E+03 -0.13802840169E+03  0.26767175455E+03  0.00000000000E+00 0. -1.
        -11    1    3    3    0    0 -0.23953597753E+01 -0.13277510788E+03 -0.74656800223E+01  0.13300640361E+03  0.00000000000E+00 0.  1.
          2    1    6    6  502    0 -0.75196366376E-01  0.60723548219E+01 -0.19727098628E+01  0.63851962992E+01  0.00000000000E+00 0. -1.
          3    1    5    5  503    0 -0.61587088473E+02  0.45439092953E+02 -0.13537370832E+02  0.77723490941E+02  0.00000000000E+00 0. -1.
         -4    1    5    5    0  503 -0.23698666134E+03  0.42403562705E+03 -0.91371985683E+02  0.49428507000E+03  0.00000000000E+00 0.  1.
         -1    1    6    6    0  502  0.32726617613E+03 -0.11493706611E+03 -0.37007573037E+03  0.50721763121E+03  0.00000000000E+00 0.  1.
<mgrwt>
<rscale>  0 0.13496704E+04</rscale>
<asrwt>0</asrwt>
<pdfrwt beam="1">  1        2 0.16221088E+00 0.13496704E+04</pdfrwt>
<pdfrwt beam="2">  1       -2 0.66449052E-01 0.13496704E+04</pdfrwt>
<totfact> 0.47306653E+01</totfact>
</mgrwt>
</event>
<event>
12    1  0.1541840E-007  0.1706217E+04  0.7818608E-02  0.8757826E-01
          2   -1    0    0  501    0  0.00000000000E+00  0.00000000000E+00  0.15167653326E+04  0.15167653326E+04  0.00000000000E+00 0. -1.
         -2   -1    0    0    0  501 -0.00000000000E+00 -0.00000000000E+00 -0.47983317285E+03  0.47983317285E+03  0.00000000000E+00 0.  1.
         23    2    1    2    0    0  0.26301457700E+03  0.55043197279E+03  0.33840756256E+03  0.70342737379E+03  0.90212900479E+02 0.  0.
        254    2    1    2    0    0 -0.26301457700E+03 -0.55043197279E+03  0.69852459719E+03  0.12931711317E+04  0.90122302372E+03 0.  0.
        -24    2    4    4    0    0 -0.33262866553E+03 -0.71182533257E+03  0.29009354503E+03  0.84151508259E+03  0.81585759443E+02 0.  0.
         24    2    4    4    0    0  0.69614088531E+02  0.16139335978E+03  0.40843105216E+03  0.45165604906E+03  0.79267423230E+02 0.  0.
         13    1    3    3    0    0  0.12524789530E+03  0.16387275387E+03  0.11727187622E+03  0.23726358273E+03  0.00000000000E+00 0. -1.
        -13    1    3    3    0    0  0.13776668169E+03  0.38655921892E+03  0.22113568634E+03  0.46616379106E+03  0.00000000000E+00 0.  1.
          4    1    6    6  502    0  0.47138424002E+02  0.10136632435E+03  0.33994526866E+03  0.35785464705E+03  0.00000000000E+00 0. -1.
          1    1    5    5  503    0 -0.24606773747E+03 -0.59515556198E+03  0.22342019400E+03  0.68167151728E+03  0.00000000000E+00 0. -1.
         -2    1    5    5    0  503 -0.86560928056E+02 -0.11666977059E+03  0.66673351028E+02  0.15984356532E+03  0.00000000000E+00 0.  1.
         -3    1    6    6    0  502  0.22475664529E+02  0.60027035430E+02  0.68485783495E+02  0.93801402012E+02  0.00000000000E+00 0.  1.
<mgrwt>
<rscale>  0 0.17062172E+04</rscale>
<asrwt>0</asrwt>
<pdfrwt beam="1">  1        2 0.23334851E+00 0.17062172E+04</pdfrwt>
<pdfrwt beam="2">  1       -2 0.73820489E-01 0.17062172E+04</pdfrwt>
<totfact> 0.19535703E+01</totfact>
</mgrwt>
</event>
<event>
12    1  0.1541840E-007  0.2228866E+04  0.7818608E-02  0.8506509E-01
          2   -1    0    0  501    0  0.00000000000E+00  0.00000000000E+00  0.19817322317E+04  0.19817322317E+04  0.00000000000E+00 0. -1.
         -2   -1    0    0    0  501 -0.00000000000E+00 -0.00000000000E+00 -0.62670473176E+03  0.62670473176E+03  0.00000000000E+00 0.  1.
         23    2    1    2    0    0 -0.74827763357E+03 -0.15202488996E+03 -0.56387859209E+02  0.77127758248E+03  0.93051246632E+02 0.  0.
        254    2    1    2    0    0  0.74827763357E+03  0.15202488996E+03  0.14114153591E+04  0.18371593810E+04  0.89444412403E+03 0.  0.
        -24    2    4    4    0    0  0.77878984020E+03 -0.77845761494E+02  0.59951285062E+03  0.98897795532E+03  0.78026663808E+02 0.  0.
         24    2    4    4    0    0 -0.30512206627E+02  0.22987065146E+03  0.81190250850E+03  0.84818142564E+03  0.80340129094E+02 0.  0.
         13    1    3    3    0    0 -0.64836364189E+03 -0.10855536469E+03 -0.24906014013E+02  0.65786015904E+03  0.00000000000E+00 0.  1.
        -13    1    3    3    0    0 -0.99913991685E+02 -0.43469525278E+02 -0.31481845196E+02  0.11341742344E+03  0.00000000000E+00 0. -1.
          2    1    6    6  502    0 -0.29181574190E+02  0.18742606985E+03  0.52629319065E+03  0.55943240740E+03  0.00000000000E+00 0. -1.
          3    1    5    5  503    0  0.63105921325E+03 -0.32608543634E+02  0.48927842926E+03  0.79918235033E+03  0.00000000000E+00 0. -1.
         -4    1    5    5    0  503  0.14773062695E+03 -0.45237217861E+02  0.11023442136E+03  0.18979560498E+03  0.00000000000E+00 0.  1.
         -1    1    6    6    0  502 -0.13306324365E+01  0.42444581611E+02  0.28560931785E+03  0.28874901824E+03  0.00000000000E+00 0.  1.
<mgrwt>
<rscale>  0 0.22288660E+04</rscale>
<asrwt>0</asrwt>
<pdfrwt beam="1">  1        2 0.30488188E+00 0.22288660E+04</pdfrwt>
<pdfrwt beam="2">  1       -2 0.96416114E-01 0.22288660E+04</pdfrwt>
<totfact> 0.56142058E+00</totfact>
</mgrwt>
</event>
<event>
12    1  0.1541840E-007  0.1777109E+04  0.7818608E-02  0.8718568E-01
         -2   -1    0    0    0  501 -0.00000000000E+00  0.00000000000E+00  0.79881573857E+03  0.79881573857E+03  0.00000000000E+00 0. -1.
          2   -1    0    0  501    0  0.00000000000E+00 -0.00000000000E+00 -0.98837459334E+03  0.98837459334E+03  0.00000000000E+00 0.  1.
         23    2    1    2    0    0  0.40767325742E+02  0.49089762099E+03 -0.47088268370E+03  0.68750132231E+03  0.91022619349E+02 0.  0.
        254    2    1    2    0    0 -0.40767325742E+02 -0.49089762099E+03  0.28132382893E+03  0.10996890096E+04  0.94208830369E+03 0.  0.
        -24    2    4    4    0    0  0.18923283465E+03  0.18911400908E+03 -0.82667543405E+02  0.29078367287E+03  0.78409486261E+02 0.  0.
         24    2    4    4    0    0 -0.23000016039E+03 -0.68001163007E+03  0.36399137234E+03  0.80890533673E+03  0.80760348198E+02 0.  0.
         13    1    3    3    0    0 -0.18693445226E+02  0.32775922975E+02 -0.49340461936E+02  0.62114307574E+02  0.00000000000E+00 0. -1.
        -13    1    3    3    0    0  0.59460770967E+02  0.45812169802E+03 -0.42154222176E+03  0.62538701474E+03  0.00000000000E+00 0.  1.
          2    1    6    6  502    0 -0.19595998586E+03 -0.64178760921E+03  0.34252136082E+03  0.75340064641E+03  0.00000000000E+00 0. -1.
          3    1    5    5  503    0  0.71195551696E+02  0.12257469350E+03 -0.57483296751E+02  0.15296303957E+03  0.00000000000E+00 0. -1.
         -4    1    5    5    0  503  0.11803728295E+03  0.66539315576E+02 -0.25184246654E+02  0.13782063330E+03  0.00000000000E+00 0.  1.
         -1    1    6    6    0  502 -0.34040174528E+02 -0.38224020859E+02  0.21470011518E+02  0.55504690316E+02  0.00000000000E+00 0.  1.
<mgrwt>
<rscale>  0 0.17771091E+04</rscale>
<asrwt>0</asrwt>
<pdfrwt beam="1">  1        2 0.15205763E+00 0.17771091E+04</pdfrwt>
<pdfrwt beam="2">  1       -2 0.12289473E+00 0.17771091E+04</pdfrwt>
<totfact> 0.12127791E+01</totfact>
</mgrwt>
</event>
<event>
12    1  0.1541840E-007  0.1281615E+04  0.7818608E-02  0.9044273E-01
         -2   -1    0    0    0  501 -0.00000000000E+00  0.00000000000E+00  0.27981882705E+03  0.27981882705E+03  0.00000000000E+00 0.  1.
          2   -1    0    0  501    0  0.00000000000E+00 -0.00000000000E+00 -0.14675008546E+04  0.14675008546E+04  0.00000000000E+00 0. -1.
         23    2    1    2    0    0  0.27459617717E+03  0.10437406371E+02 -0.10973206864E+03  0.31031161778E+03  0.93488893845E+02 0.  0.
        254    2    1    2    0    0 -0.27459617717E+03 -0.10437406371E+02 -0.10779499589E+04  0.14370080639E+04  0.90967250249E+03 0.  0.
        -24    2    4    4    0    0 -0.58573609137E+03  0.11990042484E+03 -0.67987586599E+03  0.90878746105E+03  0.78743733707E+02 0.  0.
         24    2    4    4    0    0  0.31113991421E+03 -0.13033783121E+03 -0.39807409291E+03  0.52822060282E+03  0.82207209781E+02 0.  0.
         13    1    3    3    0    0  0.11622828590E+03  0.35412825546E+02 -0.10945272349E+02  0.12199541648E+03  0.00000000000E+00 0. -1.
        -13    1    3    3    0    0  0.15836789127E+03 -0.24975419175E+02 -0.98786796296E+02  0.18831620129E+03  0.00000000000E+00 0.  1.
          4    1    6    6  502    0  0.45380680715E+02 -0.51028853185E+02 -0.99834174876E+02  0.12095541539E+03  0.00000000000E+00 0. -1.
          1    1    5    5  503    0 -0.17031693929E+03  0.34094258889E+02 -0.25390362126E+03  0.30763180457E+03  0.00000000000E+00 0. -1.
         -2    1    5    5    0  503 -0.41541915209E+03  0.85806165950E+02 -0.42597224473E+03  0.60115565648E+03  0.00000000000E+00 0.  1.
         -3    1    6    6    0  502  0.26575923349E+03 -0.79308978025E+02 -0.29823991804E+03  0.40726518743E+03  0.00000000000E+00 0.  1.
<mgrwt>
<rscale>  0 0.12816152E+04</rscale>
<asrwt>0</asrwt>
<pdfrwt beam="1">  1        2 0.22576936E+00 0.12816152E+04</pdfrwt>
<pdfrwt beam="2">  1       -2 0.43049051E-01 0.12816152E+04</pdfrwt>
<totfact> 0.66466832E+01</totfact>
</mgrwt>
</event>
<event>
12    1  0.1541840E-007  0.3608870E+04  0.7818608E-02  0.8088463E-01
         -2   -1    0    0    0  501 -0.00000000000E+00  0.00000000000E+00  0.19729907353E+04  0.19729907353E+04  0.00000000000E+00 0.  1.
          2   -1    0    0  501    0  0.00000000000E+00 -0.00000000000E+00 -0.16502792300E+04  0.16502792300E+04  0.00000000000E+00 0. -1.
         23    2    1    2    0    0 -0.42559242941E+03 -0.11092211069E+04  0.13601908115E+04  0.18080388666E+04  0.85936717653E+02 0.  0.
        254    2    1    2    0    0  0.42559242941E+03  0.11092211069E+04 -0.10374793062E+04  0.18152310988E+04  0.89844323758E+03 0.  0.
        -24    2    4    4    0    0  0.29475772337E+03  0.30755651262E+03 -0.88518614586E+03  0.98519968817E+03  0.74771577514E+02 0.  0.
         24    2    4    4    0    0  0.13083470604E+03  0.80166459429E+03 -0.15229316031E+03  0.83003141058E+03  0.77298731065E+02 0.  0.
         13    1    3    3    0    0 -0.35317739413E+03 -0.84917293254E+03  0.10890741928E+04  0.14254513456E+04  0.00000000000E+00 0.  1.
        -13    1    3    3    0    0 -0.72415035286E+02 -0.26004817437E+03  0.27111661864E+03  0.38258752101E+03  0.00000000000E+00 0. -1.
          2    1    6    6  502    0  0.17858690803E+02  0.20632613898E+03 -0.69445120621E+02  0.21843084316E+03  0.00000000000E+00 0. -1.
          3    1    5    5  503    0 -0.10068315512E+01  0.77904223048E+01 -0.41718036559E+02  0.42451136190E+02  0.00000000000E+00 0. -1.
         -4    1    5    5    0  503  0.29576455493E+03  0.29976609031E+03 -0.84346810931E+03  0.94274855198E+03  0.00000000000E+00 0.  1.
         -3    1    6    6    0  502  0.11297601524E+03  0.59533845531E+03 -0.82848039688E+02  0.61160056742E+03  0.00000000000E+00 0.  1.
<mgrwt>
<rscale>  0 0.36088700E+04</rscale>
<asrwt>0</asrwt>
<pdfrwt beam="1">  1        2 0.25388911E+00 0.36088700E+04</pdfrwt>
<pdfrwt beam="2">  1       -2 0.30353703E+00 0.36088700E+04</pdfrwt>
<totfact> 0.25739166E-01</totfact>
</mgrwt>
</event>
<event>
12    1  0.1541840E-007  0.1275504E+04  0.7818608E-02  0.9049220E-01
         -1   -1    0    0    0  501 -0.00000000000E+00  0.00000000000E+00  0.19498679922E+04  0.19498679922E+04  0.00000000000E+00 0.  1.
          1   -1    0    0  501    0  0.00000000000E+00 -0.00000000000E+00 -0.20859230729E+03  0.20859230729E+03  0.00000000000E+00 0. -1.
         23    2    1    2    0    0  0.23029839574E+03 -0.74198157111E+02  0.76348550423E+03  0.80602688061E+03  0.90700052387E+02 0.  0.
        254    2    1    2    0    0 -0.23029839574E+03  0.74198157111E+02  0.97779018065E+03  0.13524334188E+04  0.90247426413E+03 0.  0.
        -24    2    4    4    0    0  0.30305788324E+03  0.14399775733E+03  0.58962398996E+03  0.68321981263E+03  0.80953246557E+02 0.  0.
         24    2    4    4    0    0 -0.53335627897E+03 -0.69799600224E+02  0.38816619069E+03  0.66921360621E+03  0.88503980838E+02 0.  0.
         11    1    3    3    0    0  0.22648392128E+03 -0.86143986908E+02  0.68611161733E+03  0.72764339103E+03  0.00000000000E+00 0.  1.
        -11    1    3    3    0    0  0.38144744636E+01  0.11945829797E+02  0.77373886900E+02  0.78383489582E+02  0.00000000000E+00 0. -1.
          4    1    6    6  502    0 -0.22593608460E+03 -0.28057874499E+02  0.21874152142E+03  0.31572489899E+03  0.00000000000E+00 0. -1.
          1    1    5    5  503    0  0.17395847520E+02 -0.47499811582E+01  0.66496365595E+02  0.68898073044E+02  0.00000000000E+00 0. -1.
         -4    1    5    5    0  503  0.28566203572E+03  0.14874773849E+03  0.52312762437E+03  0.61432173959E+03  0.00000000000E+00 0.  1.
         -1    1    6    6    0  502 -0.30742019437E+03 -0.41741725724E+02  0.16942466927E+03  0.35348870722E+03  0.00000000000E+00 0.  1.
<mgrwt>
<rscale>  0 0.12755038E+04</rscale>
<asrwt>0</asrwt>
<pdfrwt beam="1">  1        1 0.32091125E-01 0.12755038E+04</pdfrwt>
<pdfrwt beam="2">  1       -1 0.29997968E+00 0.12755038E+04</pdfrwt>
<totfact> 0.46025840E+00</totfact>
</mgrwt>
</event>
<event>
12    1  0.1541840E-007  0.1866301E+04  0.7818608E-02  0.8671815E-01
         -1   -1    0    0    0  501 -0.00000000000E+00  0.00000000000E+00  0.23253292276E+04  0.23253292276E+04  0.00000000000E+00 0.  1.
          1   -1    0    0  501    0  0.00000000000E+00 -0.00000000000E+00 -0.37447168445E+03  0.37447168445E+03  0.00000000000E+00 0. -1.
         23    2    1    2    0    0 -0.38735744866E+03 -0.58348928398E+03  0.94832177502E+03  0.11824271988E+04  0.91183079171E+02 0.  0.
        254    2    1    2    0    0  0.38735744866E+03  0.58348928398E+03  0.10025357682E+04  0.15173737133E+04  0.89824244042E+03 0.  0.
        -24    2    4    4    0    0 -0.11475917469E+03  0.47045402503E+03  0.83873446151E+03  0.97181937104E+03  0.80378698430E+02 0.  0.
         24    2    4    4    0    0  0.50211662335E+03  0.11303525896E+03  0.16380130666E+03  0.54555434225E+03  0.76815356999E+02 0.  0.
         11    1    3    3    0    0 -0.32795255755E+03 -0.48047319827E+03  0.72613613323E+03  0.93041982902E+03  0.00000000000E+00 0.  1.
        -11    1    3    3    0    0 -0.59404891113E+02 -0.10301608571E+03  0.22218564179E+03  0.25200736977E+03  0.00000000000E+00 0. -1.
          2    1    6    6  502    0  0.74647686928E+02  0.41810110185E+02  0.12116720031E+02  0.86412831117E+02  0.00000000000E+00 0. -1.
          3    1    5    5  503    0 -0.16828567609E+02  0.19161797411E+02  0.76176283205E+02  0.80331819914E+02  0.00000000000E+00 0. -1.
         -4    1    5    5    0  503 -0.97930607085E+02  0.45129222761E+03  0.76255817831E+03  0.89148755112E+03  0.00000000000E+00 0.  1.
         -1    1    6    6    0  502  0.42746893642E+03  0.71225148772E+02  0.15168458663E+03  0.45914151113E+03  0.00000000000E+00 0.  1.
<mgrwt>
<rscale>  0 0.18663011E+04</rscale>
<asrwt>0</asrwt>
<pdfrwt beam="1">  1        1 0.57611030E-01 0.18663011E+04</pdfrwt>
<pdfrwt beam="2">  1       -1 0.35774295E+00 0.18663011E+04</pdfrwt>
<totfact> 0.85009897E-01</totfact>
</mgrwt>
</event>
<event>
12    1  0.1541840E-007  0.1802104E+04  0.7818608E-02  0.8705182E-01
         -2   -1    0    0    0  501 -0.00000000000E+00  0.00000000000E+00  0.71735074191E+03  0.71735074191E+03  0.00000000000E+00 0.  1.
          2   -1    0    0  501    0  0.00000000000E+00 -0.00000000000E+00 -0.11317954374E+04  0.11317954374E+04  0.00000000000E+00 0. -1.
         23    2    1    2    0    0  0.39268109369E+03 -0.54671344060E+03 -0.21212660201E+03  0.71149870563E+03  0.90214662652E+02 0.  0.
        254    2    1    2    0    0 -0.39268109369E+03  0.54671344060E+03 -0.20231809349E+03  0.11376474737E+04  0.89454744757E+03 0.  0.
        -24    2    4    4    0    0 -0.12641180300E+03  0.35977994123E+03 -0.53730749312E+03  0.66355261100E+03  0.78620451266E+02 0.  0.
         24    2    4    4    0    0 -0.26626929069E+03  0.18693349937E+03  0.33498939963E+03  0.47409486268E+03  0.81881454616E+02 0.  0.
         13    1    3    3    0    0  0.18324351099E+03 -0.28256955156E+03 -0.61835556139E+02  0.34241403562E+03  0.00000000000E+00 0.  1.
        -13    1    3    3    0    0  0.20943758270E+03 -0.26414388903E+03 -0.15029104587E+03  0.36908467000E+03  0.00000000000E+00 0. -1.
          4    1    6    6  502    0 -0.98128797512E+02  0.48005608956E+02  0.65396691257E+02  0.12732056637E+03  0.00000000000E+00 0. -1.
          3    1    5    5  503    0 -0.27670505112E+01 -0.41421855310E+01 -0.77975515625E+01  0.92528957562E+01  0.00000000000E+00 0. -1.
         -2    1    5    5    0  503 -0.12364475249E+03  0.36392212676E+03 -0.52950994156E+03  0.65429971525E+03  0.00000000000E+00 0.  1.
         -3    1    6    6    0  502 -0.16814049318E+03  0.13892789041E+03  0.26959270837E+03  0.34677429632E+03  0.00000000000E+00 0.  1.
<mgrwt>
<rscale>  0 0.18021035E+04</rscale>
<asrwt>0</asrwt>
<pdfrwt beam="1">  1        2 0.17412237E+00 0.18021035E+04</pdfrwt>
<pdfrwt beam="2">  1       -2 0.11036165E+00 0.18021035E+04</pdfrwt>
<totfact> 0.12816357E+01</totfact>
</mgrwt>
</event>
<event>
12    1  0.1541840E-007  0.1060156E+04  0.7818608E-02  0.9244921E-01
         -1   -1    0    0    0  501 -0.00000000000E+00  0.00000000000E+00  0.38523424574E+03  0.38523424574E+03  0.00000000000E+00 0.  1.
          1   -1    0    0  501    0  0.00000000000E+00 -0.00000000000E+00 -0.72938103061E+03  0.72938103061E+03  0.00000000000E+00 0. -1.
         23    2    1    2    0    0 -0.29664839467E+02 -0.37538356220E+02  0.68957196068E+02  0.12372527536E+03  0.90904994284E+02 0.  0.
        254    2    1    2    0    0  0.29664839467E+02  0.37538356220E+02 -0.41310398093E+03  0.99089000099E+03  0.89939922398E+03 0.  0.
        -24    2    4    4    0    0 -0.40340512392E+03 -0.12471928703E+03 -0.18099043380E+03  0.46614670840E+03  0.79022921124E+02 0.  0.
         24    2    4    4    0    0  0.43306996338E+03  0.16225764325E+03 -0.23211354713E+03  0.52474329259E+03  0.87187661838E+02 0.  0.
         13    1    3    3    0    0  0.37653551779E+01  0.17464027589E+01 -0.20253652743E+02  0.20674580326E+02  0.00000000000E+00 0. -1.
        -13    1    3    3    0    0 -0.33430194645E+02 -0.39284758979E+02  0.89210848811E+02  0.10305069504E+03  0.00000000000E+00 0.  1.
          4    1    6    6  502    0  0.38046405525E+03  0.13472777061E+03 -0.23165147846E+03  0.46536746447E+03  0.00000000000E+00 0. -1.
          1    1    5    5  503    0 -0.16701983813E+03 -0.90923244846E+02 -0.92722293744E+02  0.21156579719E+03  0.00000000000E+00 0. -1.
         -2    1    5    5    0  503 -0.23638528578E+03 -0.33796042183E+02 -0.88268140056E+02  0.25458091121E+03  0.00000000000E+00 0.  1.
         -3    1    6    6    0  502  0.52605908130E+02  0.27529872638E+02 -0.46206867608E+00  0.59375828121E+02  0.00000000000E+00 0.  1.
<mgrwt>
<rscale>  0 0.10601557E+04</rscale>
<asrwt>0</asrwt>
<pdfrwt beam="1">  1        1 0.11221247E+00 0.10601557E+04</pdfrwt>
<pdfrwt beam="2">  1       -1 0.59266807E-01 0.10601557E+04</pdfrwt>
<totfact> 0.73748806E+01</totfact>
</mgrwt>
</event>
<event>
12    1  0.1541840E-007  0.1590265E+04  0.7818608E-02  0.8826551E-01
          1   -1    0    0  501    0  0.00000000000E+00  0.00000000000E+00  0.19474259364E+04  0.19474259364E+04  0.00000000000E+00 0. -1.
         -1   -1    0    0    0  501 -0.00000000000E+00 -0.00000000000E+00 -0.32465188812E+03  0.32465188812E+03  0.00000000000E+00 0.  1.
         23    2    1    2    0    0 -0.92877591168E+01  0.41837609861E+03  0.10184357456E+04  0.11048275309E+04  0.91146490956E+02 0.  0.
        254    2    1    2    0    0  0.92877591168E+01 -0.41837609861E+03  0.60433830267E+03  0.11672502936E+04  0.90671034043E+03 0.  0.
        -24    2    4    4    0    0 -0.16731333795E+03 -0.63808862331E+03  0.56296622828E+03  0.87111245409E+03  0.82189349878E+02 0.  0.
         24    2    4    4    0    0  0.17660109707E+03  0.21971252470E+03  0.41372074392E+02  0.29613783949E+03  0.80773946579E+02 0.  0.
         11    1    3    3    0    0  0.34303955198E+02  0.25363606764E+03  0.66185168842E+03  0.70961656802E+03  0.00000000000E+00 0. -1.
        -11    1    3    3    0    0 -0.43591714314E+02  0.16474003097E+03  0.35658405719E+03  0.39521096291E+03  0.00000000000E+00 0.  1.
          2    1    6    6  502    0  0.10566695221E+03  0.71709298258E+02  0.37475803146E+01  0.12775669299E+03  0.00000000000E+00 0. -1.
          1    1    5    5  503    0 -0.23593632581E+02 -0.58087471548E+02  0.86668115225E+02  0.10696810761E+03  0.00000000000E+00 0. -1.
         -2    1    5    5    0  503 -0.14371970537E+03 -0.58000115176E+03  0.47629811306E+03  0.76414434648E+03  0.00000000000E+00 0.  1.
         -3    1    6    6    0  502  0.70934144862E+02  0.14800322644E+03  0.37624494078E+02  0.16838114651E+03  0.00000000000E+00 0.  1.
<mgrwt>
<rscale>  0 0.15902648E+04</rscale>
<asrwt>0</asrwt>
<pdfrwt beam="1">  1        1 0.29960398E+00 0.15902648E+04</pdfrwt>
<pdfrwt beam="2">  1       -1 0.49946446E-01 0.15902648E+04</pdfrwt>
<totfact> 0.12499927E+01</totfact>
</mgrwt>
</event>
<event>
12    1  0.1541840E-007  0.1101369E+04  0.7818608E-02  0.9203859E-01
          2   -1    0    0  501    0  0.00000000000E+00  0.00000000000E+00  0.11608862763E+04  0.11608862763E+04  0.00000000000E+00 0. -1.
         -2   -1    0    0    0  501 -0.00000000000E+00 -0.00000000000E+00 -0.26122579436E+03  0.26122579436E+03  0.00000000000E+00 0.  1.
         23    2    1    2    0    0  0.75112694708E+02  0.81057192612E+01  0.33821280784E+03  0.35795637813E+03  0.89650686959E+02 0.  0.
        254    2    1    2    0    0 -0.75112694708E+02 -0.81057192612E+01  0.56144767409E+03  0.10641556925E+04  0.90083085402E+03 0.  0.
        -24    2    4    4    0    0 -0.12494925327E+02  0.19679860265E+03  0.74250857482E+03  0.77217585360E+03  0.77786580080E+02 0.  0.
         24    2    4    4    0    0 -0.62617769381E+02 -0.20490432192E+03 -0.18106090073E+03  0.29197983891E+03  0.81008705540E+02 0.  0.
         13    1    3    3    0    0  0.51879827361E+02 -0.59620068899E+01  0.64917129585E+02  0.83314438885E+02  0.00000000000E+00 0.  1.
        -13    1    3    3    0    0  0.23232867346E+02  0.14067726151E+02  0.27329567825E+03  0.27464193925E+03  0.00000000000E+00 0. -1.
          4    1    6    6  502    0 -0.31959678287E+01 -0.14262626621E+03 -0.10537613363E+03  0.17736007318E+03  0.00000000000E+00 0. -1.
          1    1    5    5  503    0 -0.17564211252E+02  0.11396565285E+03  0.55907929485E+03  0.57084702809E+03  0.00000000000E+00 0. -1.
         -2    1    5    5    0  503  0.50692859254E+01  0.82832949803E+02  0.18342927997E+03  0.20132882551E+03  0.00000000000E+00 0.  1.
         -3    1    6    6    0  502 -0.59421801552E+02 -0.62278055710E+02 -0.75684767102E+02  0.11461976572E+03  0.00000000000E+00 0.  1.
<mgrwt>
<rscale>  0 0.11013690E+04</rscale>
<asrwt>0</asrwt>
<pdfrwt beam="1">  1        2 0.17859789E+00 0.11013690E+04</pdfrwt>
<pdfrwt beam="2">  1       -2 0.40188584E-01 0.11013690E+04</pdfrwt>
<totfact> 0.11623989E+02</totfact>
</mgrwt>
</event>
<event>
12    1  0.1541840E-007  0.2086861E+04  0.7818608E-02  0.8567054E-01
          2   -1    0    0  501    0  0.00000000000E+00  0.00000000000E+00  0.27050387264E+04  0.27050387264E+04  0.00000000000E+00 0.  1.
         -2   -1    0    0    0  501 -0.00000000000E+00 -0.00000000000E+00 -0.40248842242E+03  0.40248842242E+03  0.00000000000E+00 0. -1.
         23    2    1    2    0    0  0.29090519135E+02 -0.56349305081E+03  0.18795155165E+04  0.19642676651E+04  0.86012828762E+02 0.  0.
        254    2    1    2    0    0 -0.29090519135E+02  0.56349305081E+03  0.42303478754E+03  0.11432594838E+04  0.89984061879E+03 0.  0.
        -24    2    4    4    0    0 -0.43655135451E+03  0.17134254906E+03  0.94243651970E+02  0.48431832847E+03  0.75809122877E+02 0.  0.
         24    2    4    4    0    0  0.40746083538E+03  0.39215050175E+03  0.32879113557E+03  0.65894115533E+03  0.79331500506E+02 0.  0.
         11    1    3    3    0    0 -0.99314539531E+01 -0.34507984201E+03  0.10330215588E+04  0.10891796326E+04  0.00000000000E+00 0. -1.
        -11    1    3    3    0    0  0.39021973088E+02 -0.21841320880E+03  0.84649395767E+03  0.87508803244E+03  0.00000000000E+00 0.  1.
          4    1    6    6  502    0  0.39194909201E+03  0.39235520802E+03  0.32559929224E+03  0.64310310145E+03  0.00000000000E+00 0. -1.
          3    1    5    5  503    0 -0.32213257565E+03  0.10028226047E+03  0.42566870567E+02  0.34005568151E+03  0.00000000000E+00 0. -1.
         -4    1    5    5    0  503 -0.11441877886E+03  0.71060288594E+02  0.51676781404E+02  0.14426264696E+03  0.00000000000E+00 0.  1.
         -3    1    6    6    0  502  0.15511743365E+02 -0.20470626799E+00  0.31918433241E+01  0.15838053879E+02  0.00000000000E+00 0.  1.
<mgrwt>
<rscale>  0 0.20868606E+04</rscale>
<asrwt>0</asrwt>
<pdfrwt beam="1">  1        2 0.41615979E+00 0.20868606E+04</pdfrwt>
<pdfrwt beam="2">  1       -2 0.61921297E-01 0.20868606E+04</pdfrwt>
<totfact> 0.58979125E+00</totfact>
</mgrwt>
</event>
<event>
12    1  0.1541840E-007  0.2451722E+04  0.7818608E-02  0.8420390E-01
         -2   -1    0    0    0  501 -0.00000000000E+00  0.00000000000E+00  0.93147359186E+03  0.93147359186E+03  0.00000000000E+00 0. -1.
          2   -1    0    0  501    0  0.00000000000E+00 -0.00000000000E+00 -0.16132876589E+04  0.16132876589E+04  0.00000000000E+00 0.  1.
         23    2    1    2    0    0 -0.78082185402E+03  0.72000813799E+03 -0.29501753082E+03  0.11060086352E+04  0.90140285977E+02 0.  0.
        254    2    1    2    0    0  0.78082185402E+03 -0.72000813799E+03 -0.38679653622E+03  0.14387526156E+04  0.89011406116E+03 0.  0.
        -24    2    4    4    0    0  0.54440584185E+03  0.49807384258E+02 -0.28908797566E+03  0.62366677677E+03  0.80807763298E+02 0.  0.
         24    2    4    4    0    0  0.23641601217E+03 -0.76981552225E+03 -0.97708560561E+02  0.81508583879E+03  0.79432315165E+02 0.  0.
         13    1    3    3    0    0 -0.15562186724E+03  0.15602427896E+03 -0.98537861969E+02  0.24139480407E+03  0.00000000000E+00 0. -1.
        -13    1    3    3    0    0 -0.62519998677E+03  0.56398385903E+03 -0.19647966885E+03  0.86461383113E+03  0.00000000000E+00 0.  1.
          4    1    6    6  502    0  0.13598848061E+03 -0.43323995774E+03 -0.15454032787E+02  0.45434409314E+03  0.00000000000E+00 0. -1.
          1    1    5    5  503    0  0.27119544812E+03 -0.37906547170E-01 -0.17889008643E+03  0.32488249497E+03  0.00000000000E+00 0. -1.
         -2    1    5    5    0  503  0.27321039373E+03  0.49845290805E+02 -0.11019788923E+03  0.29878428180E+03  0.00000000000E+00 0.  1.
         -3    1    6    6    0  502  0.10042753156E+03 -0.33657556450E+03 -0.82254527774E+02  0.36074174565E+03  0.00000000000E+00 0.  1.
<mgrwt>
<rscale>  0 0.24517217E+04</rscale>
<asrwt>0</asrwt>
<pdfrwt beam="1">  1        2 0.24819810E+00 0.24517217E+04</pdfrwt>
<pdfrwt beam="2">  1       -2 0.14330363E+00 0.24517217E+04</pdfrwt>
<totfact> 0.33179213E+00</totfact>
</mgrwt>
</event>
<event>
12    1  0.1541840E-007  0.1999680E+04  0.7818608E-02  0.8606770E-01
          2   -1    0    0  501    0  0.00000000000E+00  0.00000000000E+00  0.22955172855E+04  0.22955172855E+04  0.00000000000E+00 0. -1.
         -2   -1    0    0    0  501 -0.00000000000E+00 -0.00000000000E+00 -0.43549240781E+03  0.43549240781E+03  0.00000000000E+00 0.  1.
         23    2    1    2    0    0 -0.44629584095E+02  0.45552462791E+02  0.18217915561E+04  0.18252372552E+04  0.92194020156E+02 0.  0.
        254    2    1    2    0    0  0.44629584095E+02 -0.45552462791E+02  0.38233321589E+02  0.90577243808E+03  0.90271540148E+03 0.  0.
        -24    2    4    4    0    0  0.15604367674E+03  0.16667116934E+03  0.39817883614E+03  0.46575911047E+03  0.79096496106E+02 0.  0.
         24    2    4    4    0    0 -0.11141409265E+03 -0.21222363213E+03 -0.35994551455E+03  0.44001332761E+03  0.81234136655E+02 0.  0.
         11    1    3    3    0    0 -0.36932154348E+02  0.68736979063E+02  0.16341881528E+04  0.16360500222E+04  0.00000000000E+00 0. -1.
        -11    1    3    3    0    0 -0.76974297471E+01 -0.23184516272E+02  0.18760340326E+03  0.18918723301E+03  0.00000000000E+00 0.  1.
          2    1    6    6  502    0  0.12869790963E+02 -0.13169224390E+02 -0.25842751711E+02  0.31731810639E+02  0.00000000000E+00 0. -1.
          1    1    5    5  503    0  0.69640211167E+02  0.29473024455E+02  0.16771327918E+03  0.18397326489E+03  0.00000000000E+00 0. -1.
         -2    1    5    5    0  503  0.86403465574E+02  0.13719814488E+03  0.23046555696E+03  0.28178584558E+03  0.00000000000E+00 0.  1.
         -1    1    6    6    0  502 -0.12428388361E+03 -0.19905440774E+03 -0.33410276284E+03  0.40828151697E+03  0.00000000000E+00 0.  1.
<mgrwt>
<rscale>  0 0.19996803E+04</rscale>
<asrwt>0</asrwt>
<pdfrwt beam="1">  1        2 0.35315650E+00 0.19996803E+04</pdfrwt>
<pdfrwt beam="2">  1       -2 0.66998833E-01 0.19996803E+04</pdfrwt>
<totfact> 0.86653638E+00</totfact>
</mgrwt>
</event>
<event>
12    1  0.1541840E-007  0.1989617E+04  0.7818608E-02  0.8611491E-01
          2   -1    0    0  501    0  0.00000000000E+00  0.00000000000E+00  0.15039150784E+04  0.15039150784E+04  0.00000000000E+00 0. -1.
         -2   -1    0    0    0  501 -0.00000000000E+00 -0.00000000000E+00 -0.65804482575E+03  0.65804482575E+03  0.00000000000E+00 0.  1.
         23    2    1    2    0    0  0.12629774144E+03  0.21421715629E+03 -0.47483563492E+03  0.54387155107E+03  0.92126404102E+02 0.  0.
        254    2    1    2    0    0 -0.12629774144E+03 -0.21421715629E+03  0.13207058876E+04  0.16180883531E+04  0.90116911143E+03 0.  0.
        -24    2    4    4    0    0 -0.12581980248E+03 -0.55215772502E+03  0.67388869163E+03  0.88385983374E+03  0.79833958924E+02 0.  0.
         24    2    4    4    0    0 -0.47793896636E+00  0.33794056873E+03  0.64681719599E+03  0.73422851938E+03  0.80715408867E+02 0.  0.
         13    1    3    3    0    0  0.25304487945E+01  0.89319937845E+02 -0.16125166906E+03  0.18435442832E+03  0.00000000000E+00 0. -1.
        -13    1    3    3    0    0  0.12376729265E+03  0.12489721844E+03 -0.31358396586E+03  0.35951712275E+03  0.00000000000E+00 0.  1.
          2    1    6    6  502    0  0.21916986022E+02  0.64306748792E+02  0.84150173845E+02  0.10815250332E+03  0.00000000000E+00 0. -1.
          3    1    5    5  503    0 -0.79338063924E+02 -0.18091087137E+03  0.24466383101E+03  0.31445772685E+03  0.00000000000E+00 0. -1.
         -4    1    5    5    0  503 -0.46481738554E+02 -0.37124685365E+03  0.42922486062E+03  0.56940210690E+03  0.00000000000E+00 0.  1.
         -1    1    6    6    0  502 -0.22394924989E+02  0.27363381994E+03  0.56266702214E+03  0.62607601606E+03  0.00000000000E+00 0.  1.
<mgrwt>
<rscale>  0 0.19896166E+04</rscale>
<asrwt>0</asrwt>
<pdfrwt beam="1">  1        2 0.23137155E+00 0.19896166E+04</pdfrwt>
<pdfrwt beam="2">  1       -2 0.10123767E+00 0.19896166E+04</pdfrwt>
<totfact> 0.94212086E+00</totfact>
</mgrwt>
</event>
<event>
12    1  0.1541840E-007  0.1119383E+04  0.7818608E-02  0.9186503E-01
         -2   -1    0    0    0  501 -0.00000000000E+00  0.00000000000E+00  0.34918423732E+03  0.34918423732E+03  0.00000000000E+00 0.  1.
          2   -1    0    0  501    0  0.00000000000E+00 -0.00000000000E+00 -0.89710403990E+03  0.89710403990E+03  0.00000000000E+00 0. -1.
         23    2    1    2    0    0  0.52713301243E+02  0.14832988838E+03 -0.20177613464E+03  0.27172790467E+03  0.91334537542E+02 0.  0.
        254    2    1    2    0    0 -0.52713301243E+02 -0.14832988838E+03 -0.34614366794E+03  0.97456037256E+03  0.89731378736E+03 0.  0.
        -24    2    4    4    0    0 -0.24285674623E+03 -0.19466927268E+03 -0.57725222840E+03  0.66078419759E+03  0.80870858048E+02 0.  0.
         24    2    4    4    0    0  0.19014344499E+03  0.46339384304E+02  0.23110856046E+03  0.31377617497E+03  0.82112441491E+02 0.  0.
         11    1    3    3    0    0  0.52250710469E+02  0.11542879354E+03 -0.20243420149E+03  0.23881697816E+03  0.00000000000E+00 0. -1.
        -11    1    3    3    0    0  0.46259077409E+00  0.32901094839E+02  0.65806684543E+00  0.32910926511E+02  0.00000000000E+00 0.  1.
          2    1    6    6  502    0  0.77683045429E+02  0.57239306151E+02  0.13181369861E+03  0.16335802661E+03  0.00000000000E+00 0. -1.
          1    1    5    5  503    0 -0.23901335880E+03 -0.19452084383E+03 -0.52776560141E+03  0.61114832439E+03  0.00000000000E+00 0. -1.
         -2    1    5    5    0  503 -0.38433874276E+01 -0.14842884878E+00 -0.49486626987E+02  0.49635873202E+02  0.00000000000E+00 0.  1.
         -1    1    6    6    0  502  0.11246039956E+03 -0.10899921847E+02  0.99294861848E+02  0.15041814836E+03  0.00000000000E+00 0.  1.
<mgrwt>
<rscale>  0 0.11193830E+04</rscale>
<asrwt>0</asrwt>
<pdfrwt beam="1">  1        2 0.13801600E+00 0.11193830E+04</pdfrwt>
<pdfrwt beam="2">  1       -2 0.53720653E-01 0.11193830E+04</pdfrwt>
<totfact> 0.95368664E+01</totfact>
</mgrwt>
</event>
<event>
12    1  0.1541840E-007  0.1993613E+04  0.7818608E-02  0.8609613E-01
          1   -1    0    0  501    0  0.00000000000E+00  0.00000000000E+00  0.17853229729E+04  0.17853229729E+04  0.00000000000E+00 0. -1.
         -1   -1    0    0    0  501 -0.00000000000E+00 -0.00000000000E+00 -0.55655079524E+03  0.55655079524E+03  0.00000000000E+00 0.  1.
         23    2    1    2    0    0 -0.10231425235E+03 -0.26865801924E+03  0.13514467184E+04  0.13846603649E+04  0.90723512809E+02 0.  0.
        254    2    1    2    0    0  0.10231425235E+03  0.26865801924E+03 -0.12267454083E+03  0.95721340320E+03  0.90474478101E+03 0.  0.
        -24    2    4    4    0    0  0.23015623775E+03  0.14565729994E+02 -0.45270848966E+03  0.51429950577E+03  0.79843288729E+02 0.  0.
         24    2    4    4    0    0 -0.12784198540E+03  0.25409228925E+03  0.33003394883E+03  0.44291389743E+03  0.79648279785E+02 0.  0.
         11    1    3    3    0    0 -0.22375666137E+02 -0.26206973035E+02  0.33001567212E+03  0.33180991503E+03  0.00000000000E+00 0.  1.
        -11    1    3    3    0    0 -0.79938586209E+02 -0.24245104621E+03  0.10214310463E+04  0.10528504499E+04  0.00000000000E+00 0. -1.
          2    1    6    6  502    0 -0.12459771777E+02  0.49206866779E+02  0.21834236119E+02  0.55256633247E+02  0.00000000000E+00 0. -1.
          1    1    5    5  503    0  0.27785580647E+02 -0.17598427307E+02 -0.11189359583E+03  0.11662726921E+03  0.00000000000E+00 0. -1.
         -2    1    5    5    0  503  0.20237065710E+03  0.32164157301E+02 -0.34081489383E+03  0.39767223656E+03  0.00000000000E+00 0.  1.
         -1    1    6    6    0  502 -0.11538221363E+03  0.20488542247E+03  0.30819971271E+03  0.38765726419E+03  0.00000000000E+00 0.  1.
<mgrwt>
<rscale>  0 0.19936127E+04</rscale>
<asrwt>0</asrwt>
<pdfrwt beam="1">  1        1 0.27466507E+00 0.19936127E+04</pdfrwt>
<pdfrwt beam="2">  1       -1 0.85623200E-01 0.19936127E+04</pdfrwt>
<totfact> 0.52133420E+00</totfact>
</mgrwt>
</event>
<event>
12    1  0.1541840E-007  0.2269428E+04  0.7818608E-02  0.8490074E-01
         -1   -1    0    0    0  501 -0.00000000000E+00  0.00000000000E+00  0.39817590860E+03  0.39817590860E+03  0.00000000000E+00 0.  1.
          1   -1    0    0  501    0  0.00000000000E+00 -0.00000000000E+00 -0.32336860464E+04  0.32336860464E+04  0.00000000000E+00 0. -1.
         23    2    1    2    0    0  0.27483562764E+03  0.44458651212E+03  0.81790832285E+02  0.53683111667E+03  0.91137909757E+02 0.  0.
        254    2    1    2    0    0 -0.27483562764E+03 -0.44458651212E+03 -0.29173009701E+04  0.30950308384E+04  0.89184031711E+03 0.  0.
        -24    2    4    4    0    0  0.41972716914E+02 -0.55407817007E+03 -0.24579958378E+04  0.25211686668E+04  0.76049853473E+02 0.  0.
         24    2    4    4    0    0 -0.31680834456E+03  0.10949165795E+03 -0.45930513232E+03  0.57386217158E+03  0.77463779037E+02 0.  0.
         11    1    3    3    0    0  0.27420240787E+03  0.43993117932E+03  0.91166893637E+02  0.52634380923E+03  0.00000000000E+00 0.  1.
        -11    1    3    3    0    0  0.63321976908E+00  0.46553327998E+01 -0.93760613517E+01  0.10487307434E+02  0.00000000000E+00 0. -1.
          2    1    6    6  502    0 -0.85412774166E+02  0.14965100527E+02 -0.17496768707E+03  0.19527669534E+03  0.00000000000E+00 0. -1.
          3    1    5    5  503    0  0.29672158411E+02 -0.32549092979E+03 -0.12748337156E+04  0.13160645063E+04  0.00000000000E+00 0. -1.
         -4    1    5    5    0  503  0.12300558503E+02 -0.22858724027E+03 -0.11831621223E+04  0.12051041605E+04  0.00000000000E+00 0.  1.
         -1    1    6    6    0  502 -0.23139557039E+03  0.94526557419E+02 -0.28433744525E+03  0.37858547625E+03  0.00000000000E+00 0.  1.
<mgrwt>
<rscale>  0 0.22694280E+04</rscale>
<asrwt>0</asrwt>
<pdfrwt beam="1">  1        1 0.49749017E+00 0.22694280E+04</pdfrwt>
<pdfrwt beam="2">  1       -1 0.61257831E-01 0.22694280E+04</pdfrwt>
<totfact> 0.98341265E-01</totfact>
</mgrwt>
</event>
<event>
12    1  0.1541840E-007  0.1392683E+04  0.7818608E-02  0.8959132E-01
          1   -1    0    0  501    0  0.00000000000E+00  0.00000000000E+00  0.17320513322E+04  0.17320513322E+04  0.00000000000E+00 0. -1.
         -1   -1    0    0    0  501 -0.00000000000E+00 -0.00000000000E+00 -0.27995231055E+03  0.27995231055E+03  0.00000000000E+00 0.  1.
         23    2    1    2    0    0  0.16635532111E+03 -0.42463531451E+01  0.94497828749E+03  0.96350290614E+03  0.87531491061E+02 0.  0.
        254    2    1    2    0    0 -0.16635532111E+03  0.42463531451E+01  0.50712073420E+03  0.10485007367E+04  0.90249112535E+03 0.  0.
        -24    2    4    4    0    0 -0.13861975887E+03 -0.29989746869E+03  0.62561447646E+03  0.71129238060E+03  0.73412861712E+02 0.  0.
         24    2    4    4    0    0 -0.27735562242E+02  0.30414382184E+03 -0.11849374226E+03  0.33720835605E+03  0.79974887685E+02 0.  0.
         11    1    3    3    0    0  0.13362040582E+03  0.15116685728E+02  0.85935686433E+03  0.86981443268E+03  0.00000000000E+00 0. -1.
        -11    1    3    3    0    0  0.32734915288E+02 -0.19363038873E+02  0.85621423169E+02  0.93688473458E+02  0.00000000000E+00 0.  1.
          4    1    6    6  502    0 -0.41886901289E+02  0.29220938124E+03 -0.10172863441E+03  0.31223316615E+03  0.00000000000E+00 0. -1.
          1    1    5    5  503    0  0.70066685254E+01 -0.57951399598E+01  0.90649428189E+01  0.12839401828E+02  0.00000000000E+00 0. -1.
         -2    1    5    5    0  503 -0.14562642739E+03 -0.29410232873E+03  0.61654953365E+03  0.69845297878E+03  0.00000000000E+00 0.  1.
         -3    1    6    6    0  502  0.14151339047E+02  0.11934440595E+02 -0.16765107857E+02  0.24975189901E+02  0.00000000000E+00 0.  1.
<mgrwt>
<rscale>  0 0.13926834E+04</rscale>
<asrwt>0</asrwt>
<pdfrwt beam="1">  1        1 0.26646943E+00 0.13926834E+04</pdfrwt>
<pdfrwt beam="2">  1       -1 0.43069587E-01 0.13926834E+04</pdfrwt>
<totfact> 0.23501630E+01</totfact>
</mgrwt>
</event>
<event>
12    1  0.1541840E-007  0.2256266E+04  0.7818608E-02  0.8495367E-01
          1   -1    0    0  501    0  0.00000000000E+00  0.00000000000E+00  0.19856516923E+04  0.19856516923E+04  0.00000000000E+00 0. -1.
         -1   -1    0    0    0  501 -0.00000000000E+00 -0.00000000000E+00 -0.64094006173E+03  0.64094006173E+03  0.00000000000E+00 0.  1.
         23    2    1    2    0    0  0.79585011399E+03 -0.17925159934E+03  0.11554543839E+04  0.14170097498E+04  0.85634443449E+02 0.  0.
        254    2    1    2    0    0 -0.79585011399E+03  0.17925159934E+03  0.18925724661E+03  0.12095820042E+04  0.87278965374E+03 0.  0.
        -24    2    4    4    0    0 -0.32689135856E+03 -0.25319843468E+03  0.34951358894E+03  0.54734627784E+03  0.80379048165E+02 0.  0.
         24    2    4    4    0    0 -0.46895875543E+03  0.43245003402E+03 -0.16025634233E+03  0.66223572635E+03  0.77063063697E+02 0.  0.
         13    1    3    3    0    0  0.76019229722E+03 -0.17378658028E+03  0.11296236749E+04  0.13726411589E+04  0.00000000000E+00 0.  1.
        -13    1    3    3    0    0  0.35657816764E+02 -0.54650190671E+01  0.25830709060E+02  0.44368590921E+02  0.00000000000E+00 0. -1.
          4    1    6    6  502    0 -0.37011374405E+03  0.31875546838E+03 -0.92910868041E+02  0.49721389920E+03  0.00000000000E+00 0. -1.
          1    1    5    5  503    0 -0.25599479460E+03 -0.22585460046E+03  0.31252811075E+03  0.46283631601E+03  0.00000000000E+00 0. -1.
         -2    1    5    5    0  503 -0.70896563956E+02 -0.27343834216E+02  0.36985478198E+02  0.84509961826E+02  0.00000000000E+00 0.  1.
         -3    1    6    6    0  502 -0.98845011379E+02  0.11369456564E+03 -0.67345474289E+02  0.16502182715E+03  0.00000000000E+00 0.  1.
<mgrwt>
<rscale>  0 0.22562657E+04</rscale>
<asrwt>0</asrwt>
<pdfrwt beam="1">  1        1 0.30548487E+00 0.22562657E+04</pdfrwt>
<pdfrwt beam="2">  1       -1 0.98606164E-01 0.22562657E+04</pdfrwt>
<totfact> 0.27208004E+00</totfact>
</mgrwt>
</event>
<event>
12    1  0.1541840E-007  0.3996957E+04  0.7818608E-02  0.8005161E-01
         -1   -1    0    0    0  501 -0.00000000000E+00  0.00000000000E+00  0.20921851033E+04  0.20921851033E+04  0.00000000000E+00 0.  1.
          1   -1    0    0  501    0  0.00000000000E+00 -0.00000000000E+00 -0.19089690223E+04  0.19089690223E+04  0.00000000000E+00 0. -1.
         23    2    1    2    0    0  0.37612018930E+03  0.24495896641E+03  0.19302722654E+04  0.19839984452E+04  0.93954882940E+02 0.  0.
        254    2    1    2    0    0 -0.37612018930E+03 -0.24495896641E+03 -0.17470561844E+04  0.20171556804E+04  0.90290665942E+03 0.  0.
        -24    2    4    4    0    0 -0.54928911536E+03 -0.42292655904E+02 -0.53035556853E+03  0.76892988861E+03  0.80429742849E+02 0.  0.
         24    2    4    4    0    0  0.17316892606E+03 -0.20266631050E+03 -0.12167006159E+04  0.12482257918E+04  0.81523790010E+02 0.  0.
         11    1    3    3    0    0  0.31541283517E+03  0.21351355645E+03  0.14637768094E+04  0.15125197001E+04  0.00000000000E+00 0.  1.
        -11    1    3    3    0    0  0.60707354129E+02  0.31445409960E+02  0.46649545594E+03  0.47147874508E+03  0.00000000000E+00 0. -1.
          4    1    6    6  502    0  0.12934717808E+03 -0.11486694817E+03 -0.90705979254E+03  0.92340813051E+03  0.00000000000E+00 0. -1.
          1    1    5    5  503    0 -0.33886405183E+03 -0.62367099795E+02 -0.30827308836E+03  0.46233191299E+03  0.00000000000E+00 0. -1.
         -2    1    5    5    0  503 -0.21042506353E+03  0.20074443891E+02 -0.22208248017E+03  0.30659797562E+03  0.00000000000E+00 0.  1.
         -3    1    6    6    0  502  0.43821747983E+02 -0.87799362335E+02 -0.30964082334E+03  0.32481766131E+03  0.00000000000E+00 0.  1.
<mgrwt>
<rscale>  0 0.39969571E+04</rscale>
<asrwt>0</asrwt>
<pdfrwt beam="1">  1        1 0.29368754E+00 0.39969571E+04</pdfrwt>
<pdfrwt beam="2">  1       -1 0.32187463E+00 0.39969571E+04</pdfrwt>
<totfact> 0.63987819E-02</totfact>
</mgrwt>
</event>
<event>
12    1  0.1541840E-007  0.1265384E+04  0.7818608E-02  0.9057475E-01
          3   -1    0    0  501    0  0.00000000000E+00  0.00000000000E+00  0.29177190437E+03  0.29177190437E+03  0.00000000000E+00 0. -1.
         -3   -1    0    0    0  501 -0.00000000000E+00 -0.00000000000E+00 -0.13719601516E+04  0.13719601516E+04  0.00000000000E+00 0.  1.
         23    2    1    2    0    0  0.42660286988E+02 -0.47651166804E+02 -0.66907338404E+03  0.67840303884E+03  0.92092106576E+02 0.  0.
        254    2    1    2    0    0 -0.42660286988E+02  0.47651166804E+02 -0.41111486323E+03  0.98532901716E+03  0.89317820591E+03 0.  0.
        -24    2    4    4    0    0  0.40701903997E+03 -0.54288894125E+02 -0.26389860799E+03  0.49439552429E+03  0.78566380976E+02 0.  0.
         24    2    4    4    0    0 -0.44967932696E+03  0.10194006093E+03 -0.14721625524E+03  0.49093349287E+03  0.82096257558E+02 0.  0.
         11    1    3    3    0    0  0.59827111306E+02 -0.50636065764E+01 -0.48439831196E+03  0.48810516079E+03  0.00000000000E+00 0.  1.
        -11    1    3    3    0    0 -0.17166824318E+02 -0.42587560227E+02 -0.18467507208E+03  0.19029787805E+03  0.00000000000E+00 0. -1.
          2    1    6    6  502    0 -0.19593831010E+03  0.83406443319E+02 -0.51360164235E+02  0.21905780657E+03  0.00000000000E+00 0. -1.
          3    1    5    5  503    0  0.21417278564E+03 -0.56371562754E+02 -0.17384488555E+03  0.28154889350E+03  0.00000000000E+00 0. -1.
         -4    1    5    5    0  503  0.19284625432E+03  0.20826686288E+01 -0.90053722437E+02  0.21284663079E+03  0.00000000000E+00 0.  1.
         -1    1    6    6    0  502 -0.25374101686E+03  0.18533617610E+02 -0.95856091005E+02  0.27187568630E+03  0.00000000000E+00 0.  1.
<mgrwt>
<rscale>  0 0.12653844E+04</rscale>
<asrwt>0</asrwt>
<pdfrwt beam="1">  1        3 0.44887985E-01 0.12653844E+04</pdfrwt>
<pdfrwt beam="2">  1       -3 0.21107079E+00 0.12653844E+04</pdfrwt>
<totfact> 0.15899184E+00</totfact>
</mgrwt>
</event>
<event>
12    1  0.1541840E-007  0.2361339E+04  0.7818608E-02  0.8454121E-01
         -2   -1    0    0    0  501 -0.00000000000E+00  0.00000000000E+00  0.14251878021E+04  0.14251878021E+04  0.00000000000E+00 0.  1.
          2   -1    0    0  501    0  0.00000000000E+00 -0.00000000000E+00 -0.97810327597E+03  0.97810327597E+03  0.00000000000E+00 0. -1.
         23    2    1    2    0    0  0.90072461421E+03 -0.33781772514E+03  0.54412606463E+03  0.11089034674E+04  0.90377429423E+02 0.  0.
        254    2    1    2    0    0 -0.90072461421E+03  0.33781772514E+03 -0.97041538478E+02  0.12943876107E+04  0.86057921217E+03 0.  0.
        -24    2    4    4    0    0 -0.87595298533E+03 -0.55706368570E+02 -0.51495556713E+01  0.88129636155E+03  0.79119700159E+02 0.  0.
         24    2    4    4    0    0 -0.24771628878E+02  0.39352409371E+03 -0.91891982806E+02  0.41309124912E+03  0.82008521942E+02 0.  0.
         11    1    3    3    0    0  0.80516231610E+03 -0.31136659519E+03  0.51644040869E+03  0.10059553706E+04  0.00000000000E+00 0. -1.
        -11    1    3    3    0    0  0.95562298108E+02 -0.26451129951E+02  0.27685655948E+02  0.10294809683E+03  0.00000000000E+00 0.  1.
          4    1    6    6  502    0 -0.26543428982E+02  0.34847938145E+02 -0.14626564547E+02  0.46182992600E+02  0.00000000000E+00 0. -1.
          1    1    5    5  503    0 -0.20181795975E+02  0.10699350323E+02 -0.21922799838E+01  0.22947485214E+02  0.00000000000E+00 0. -1.
         -2    1    5    5    0  503 -0.85577118936E+03 -0.66405718892E+02 -0.29572756876E+01  0.85834887634E+03  0.00000000000E+00 0.  1.
         -3    1    6    6    0  502  0.17718001034E+01  0.35867615557E+03 -0.77265418260E+02  0.36690825652E+03  0.00000000000E+00 0.  1.
<mgrwt>
<rscale>  0 0.23613393E+04</rscale>
<asrwt>0</asrwt>
<pdfrwt beam="1">  1        2 0.15047743E+00 0.23613393E+04</pdfrwt>
<pdfrwt beam="2">  1       -2 0.21925966E+00 0.23613393E+04</pdfrwt>
<totfact> 0.23448948E+00</totfact>
</mgrwt>
</event>
<event>
12    1  0.1541840E-007  0.1617880E+04  0.7818608E-02  0.8809639E-01
         -2   -1    0    0    0  501 -0.00000000000E+00  0.00000000000E+00  0.36194586673E+03  0.36194586673E+03  0.00000000000E+00 0. -1.
          2   -1    0    0  501    0  0.00000000000E+00 -0.00000000000E+00 -0.18079597185E+04  0.18079597185E+04  0.00000000000E+00 0.  1.
         23    2    1    2    0    0  0.15416078182E+03  0.19383115658E+03  0.13106152303E+03  0.29522948388E+03  0.92990652305E+02 0.  0.
        254    2    1    2    0    0 -0.15416078182E+03 -0.19383115658E+03 -0.15770753748E+04  0.18746761014E+04  0.98280602527E+03 0.  0.
        -24    2    4    4    0    0 -0.46941474437E+03  0.11710201576E+03 -0.46948042663E+03  0.67879410465E+03  0.79287333199E+02 0.  0.
         24    2    4    4    0    0  0.31525396254E+03 -0.31093317234E+03 -0.11075949482E+04  0.11958819967E+04  0.85455732812E+02 0.  0.
         13    1    3    3    0    0 -0.79025602668E+01  0.22181193324E+02 -0.30217159471E+01  0.23739978166E+02  0.00000000000E+00 0.  1.
        -13    1    3    3    0    0  0.16206334209E+03  0.17164996326E+03  0.13408323898E+03  0.27148950571E+03  0.00000000000E+00 0. -1.
          2    1    6    6  502    0  0.25124696086E+03 -0.23689490392E+03 -0.94485569136E+03  0.10059803717E+04  0.00000000000E+00 0. -1.
          1    1    5    5  503    0 -0.29186187676E+03  0.36216429371E+02 -0.26034179258E+03  0.39277580606E+03  0.00000000000E+00 0. -1.
         -2    1    5    5    0  503 -0.17755286761E+03  0.80885586386E+02 -0.20913863405E+03  0.28601829860E+03  0.00000000000E+00 0.  1.
         -1    1    6    6    0  502  0.64007001684E+02 -0.74038268416E+02 -0.16273925682E+03  0.18990162497E+03  0.00000000000E+00 0.  1.
<mgrwt>
<rscale>  0 0.16178795E+04</rscale>
<asrwt>0</asrwt>
<pdfrwt beam="1">  1        2 0.27814765E+00 0.16178795E+04</pdfrwt>
<pdfrwt beam="2">  1       -2 0.55683979E-01 0.16178795E+04</pdfrwt>
<totfact> 0.24781620E+01</totfact>
</mgrwt>
</event>
<event>
12    1  0.1541840E-007  0.1041262E+04  0.7818608E-02  0.9264412E-01
          1   -1    0    0  501    0  0.00000000000E+00  0.00000000000E+00  0.24333031796E+04  0.24333031796E+04  0.00000000000E+00 0. -1.
         -1   -1    0    0    0  501 -0.00000000000E+00 -0.00000000000E+00 -0.11139457522E+03  0.11139457522E+03  0.00000000000E+00 0.  1.
         23    2    1    2    0    0  0.83847202252E+02  0.38119511015E+02  0.40717723253E+03  0.42722821228E+03  0.90814075107E+02 0.  0.
        254    2    1    2    0    0 -0.83847202252E+02 -0.38119511015E+02  0.19147313718E+04  0.21174695425E+04  0.89944293138E+03 0.  0.
        -24    2    4    4    0    0  0.39317920234E+03 -0.16998274037E+02  0.65976839477E+03  0.77223457132E+03  0.78568899286E+02 0.  0.
         24    2    4    4    0    0 -0.47702640459E+03 -0.21121236979E+02  0.12549629771E+04  0.13452349712E+04  0.82004613478E+02 0.  0.
         13    1    3    3    0    0  0.45334268189E+02  0.64657170504E+02  0.30138544726E+03  0.31155887628E+03  0.00000000000E+00 0. -1.
        -13    1    3    3    0    0  0.38512934063E+02 -0.26537659488E+02  0.10579178527E+03  0.11566933600E+03  0.00000000000E+00 0.  1.
          4    1    6    6  502    0 -0.41383857360E+03 -0.17750075572E+02  0.11539217454E+04  0.12260150182E+04  0.00000000000E+00 0. -1.
          3    1    5    5  503    0  0.94513469599E+02 -0.17469786173E+02  0.10619810798E+03  0.14323417016E+03  0.00000000000E+00 0. -1.
         -4    1    5    5    0  503  0.29866573274E+03  0.47151213611E+00  0.55357028680E+03  0.62900040116E+03  0.00000000000E+00 0.  1.
         -3    1    6    6    0  502 -0.63187830985E+02 -0.33711614070E+01  0.10104123164E+03  0.11921995305E+03  0.00000000000E+00 0.  1.
<mgrwt>
<rscale>  0 0.10412623E+04</rscale>
<asrwt>0</asrwt>
<pdfrwt beam="1">  1        1 0.37435430E+00 0.10412623E+04</pdfrwt>
<pdfrwt beam="2">  1       -1 0.17137629E-01 0.10412623E+04</pdfrwt>
<totfact> 0.40246825E+01</totfact>
</mgrwt>
</event>
<event>
12    1  0.1541840E-007  0.1659644E+04  0.7818608E-02  0.8784721E-01
         -2   -1    0    0    0  501 -0.00000000000E+00  0.00000000000E+00  0.65631590644E+03  0.65631590644E+03  0.00000000000E+00 0.  1.
          2   -1    0    0  501    0  0.00000000000E+00 -0.00000000000E+00 -0.10491969713E+04  0.10491969713E+04  0.00000000000E+00 0. -1.
         23    2    1    2    0    0  0.54107839740E+03 -0.89041777691E+02  0.44528493768E+02  0.55792944111E+03  0.92780408445E+02 0.  0.
        254    2    1    2    0    0 -0.54107839740E+03  0.89041777691E+02 -0.43740955868E+03  0.11475834367E+04  0.90825456333E+03 0.  0.
        -24    2    4    4    0    0 -0.12047479075E+03 -0.32699110783E+03 -0.41745566438E+03  0.54961312763E+03  0.79799740161E+02 0.  0.
         24    2    4    4    0    0 -0.42060360665E+03  0.41603288553E+03 -0.19953894300E+02  0.59797030905E+03  0.84732383658E+02 0.  0.
         11    1    3    3    0    0  0.30525262897E+03 -0.64531100289E+02 -0.18663088237E+02  0.31255678086E+03  0.00000000000E+00 0. -1.
        -11    1    3    3    0    0  0.23582576843E+03 -0.24510677402E+02  0.63191582005E+02  0.24537266025E+03  0.00000000000E+00 0.  1.
          4    1    6    6  502    0 -0.39578914052E+03  0.35730821402E+03 -0.26564521170E+02  0.53387627531E+03  0.00000000000E+00 0. -1.
          3    1    5    5  503    0 -0.10392289761E+03 -0.31338890100E+03 -0.41108849409E+03  0.52726304810E+03  0.00000000000E+00 0. -1.
         -4    1    5    5    0  503 -0.16551893145E+02 -0.13602206835E+02 -0.63671702866E+01  0.22350079528E+02  0.00000000000E+00 0.  1.
         -3    1    6    6    0  502 -0.24814466133E+02  0.58724671505E+02  0.66106268698E+01  0.64094033736E+02  0.00000000000E+00 0.  1.
<mgrwt>
<rscale>  0 0.16596441E+04</rscale>
<asrwt>0</asrwt>
<pdfrwt beam="1">  1        2 0.16141492E+00 0.16596441E+04</pdfrwt>
<pdfrwt beam="2">  1       -2 0.10097168E+00 0.16596441E+04</pdfrwt>
<totfact> 0.18061145E+01</totfact>
</mgrwt>
</event>
<event>
12    1  0.1541840E-007  0.2145311E+04  0.7818608E-02  0.8541542E-01
         -1   -1    0    0    0  501 -0.00000000000E+00  0.00000000000E+00  0.59346348508E+03  0.59346348508E+03  0.00000000000E+00 0.  1.
          1   -1    0    0  501    0  0.00000000000E+00 -0.00000000000E+00 -0.19387702734E+04  0.19387702734E+04  0.00000000000E+00 0. -1.
         23    2    1    2    0    0 -0.50073094637E+02  0.59853167462E+03  0.20531215857E+03  0.64114237579E+03  0.90349229340E+02 0.  0.
        254    2    1    2    0    0  0.50073094637E+02 -0.59853167462E+03 -0.15506189469E+04  0.18910913827E+04  0.90058870685E+03 0.  0.
        -24    2    4    4    0    0 -0.16769027211E+02 -0.30446912065E+03 -0.15489654660E+04  0.15807233291E+04  0.80059869714E+02 0.  0.
         24    2    4    4    0    0  0.66842121848E+02 -0.29406255397E+03 -0.16534809379E+01  0.31036805359E+03  0.73382148983E+02 0.  0.
         11    1    3    3    0    0 -0.47477814170E+02  0.41726538291E+03  0.18438789213E+03  0.45865394076E+03  0.00000000000E+00 0.  1.
        -11    1    3    3    0    0 -0.25952804669E+01  0.18126629171E+03  0.20924266440E+02  0.18248843503E+03  0.00000000000E+00 0. -1.
          4    1    6    6  502    0  0.27887831253E+02 -0.24646407257E+03 -0.10333953430E+02  0.24825201066E+03  0.00000000000E+00 0. -1.
          3    1    5    5  503    0  0.21543240673E+02 -0.23356139102E+03 -0.11338167285E+04  0.11578235653E+04  0.00000000000E+00 0. -1.
         -4    1    5    5    0  503 -0.38312267883E+02 -0.70907729637E+02 -0.41514873750E+03  0.42289976382E+03  0.00000000000E+00 0.  1.
         -3    1    6    6    0  502  0.38954290595E+02 -0.47598481397E+02  0.86804724921E+01  0.62116042934E+02  0.00000000000E+00 0.  1.
<mgrwt>
<rscale>  0 0.21453106E+04</rscale>
<asrwt>0</asrwt>
<pdfrwt beam="1">  1        1 0.29827235E+00 0.21453106E+04</pdfrwt>
<pdfrwt beam="2">  1       -1 0.91302075E-01 0.21453106E+04</pdfrwt>
<totfact> 0.35145179E+00</totfact>
</mgrwt>
</event>
<event>
12    1  0.1541840E-007  0.2162041E+04  0.7818608E-02  0.8534396E-01
         -2   -1    0    0    0  501 -0.00000000000E+00  0.00000000000E+00  0.94767743369E+03  0.94767743369E+03  0.00000000000E+00 0.  1.
          2   -1    0    0  501    0  0.00000000000E+00 -0.00000000000E+00 -0.12331255229E+04  0.12331255229E+04  0.00000000000E+00 0. -1.
         23    2    1    2    0    0 -0.79320226114E+03  0.16198782317E+03  0.22897637175E+03  0.84651679807E+03  0.93544794949E+02 0.  0.
        254    2    1    2    0    0  0.79320226114E+03 -0.16198782317E+03 -0.51442446100E+03  0.13342861586E+04  0.92751126403E+03 0.  0.
        -24    2    4    4    0    0  0.37017130399E+03  0.38114870949E+03 -0.24760456145E+03  0.59161641848E+03  0.80005216920E+02 0.  0.
         24    2    4    4    0    0  0.42303095716E+03 -0.54313653265E+03 -0.26681989955E+03  0.74266974007E+03  0.80081210060E+02 0.  0.
         11    1    3    3    0    0 -0.67059639011E+03  0.10523628205E+03  0.20679674908E+03  0.70960488225E+03  0.00000000000E+00 0.  1.
        -11    1    3    3    0    0 -0.12260587104E+03  0.56751541121E+02  0.22179622664E+02  0.13691191582E+03  0.00000000000E+00 0. -1.
          2    1    6    6  502    0  0.65696184283E+02 -0.44867321464E+02 -0.38522794046E+02  0.88391576668E+02  0.00000000000E+00 0. -1.
          1    1    5    5  503    0  0.50320939883E+02  0.18475224228E+02 -0.28785713423E+02  0.60845280822E+02  0.00000000000E+00 0. -1.
         -2    1    5    5    0  503  0.31985036410E+03  0.36267348526E+03 -0.21881884802E+03  0.53077113766E+03  0.00000000000E+00 0.  1.
         -1    1    6    6    0  502  0.35733477287E+03 -0.49826921119E+03 -0.22829710551E+03  0.65427816340E+03  0.00000000000E+00 0.  1.
<mgrwt>
<rscale>  0 0.21620409E+04</rscale>
<asrwt>0</asrwt>
<pdfrwt beam="1">  1        2 0.18971162E+00 0.21620409E+04</pdfrwt>
<pdfrwt beam="2">  1       -2 0.14579653E+00 0.21620409E+04</pdfrwt>
<totfact> 0.53606459E+00</totfact>
</mgrwt>
</event>
<event>
12    1  0.1541840E-007  0.1410295E+04  0.7818608E-02  0.8946400E-01
          1   -1    0    0  501    0  0.00000000000E+00  0.00000000000E+00  0.11413673974E+04  0.11413673974E+04  0.00000000000E+00 0. -1.
         -1   -1    0    0    0  501 -0.00000000000E+00 -0.00000000000E+00 -0.43564670029E+03  0.43564670029E+03  0.00000000000E+00 0.  1.
         23    2    1    2    0    0  0.37622790546E+03 -0.73655037609E+02  0.53781694575E+02  0.39763945996E+03  0.90841444456E+02 0.  0.
        254    2    1    2    0    0 -0.37622790546E+03  0.73655037609E+02  0.65193900250E+03  0.11793746377E+04  0.90494617059E+03 0.  0.
        -24    2    4    4    0    0 -0.16204799038E+03 -0.36585472474E+03  0.53080131079E+03  0.66943402437E+03  0.79263173321E+02 0.  0.
         24    2    4    4    0    0 -0.21417991508E+03  0.43950976235E+03  0.12113769171E+03  0.50994061334E+03  0.79518686799E+02 0.  0.
         11    1    3    3    0    0  0.31822607803E+03 -0.36679005580E+02  0.19869207556E+02  0.32094854977E+03  0.00000000000E+00 0.  1.
        -11    1    3    3    0    0  0.58001827431E+02 -0.36976032029E+02  0.33912487019E+02  0.76690910190E+02  0.00000000000E+00 0. -1.
          4    1    6    6  502    0 -0.19793493776E+03  0.43580824921E+03  0.11603090293E+03  0.49251420294E+03  0.00000000000E+00 0. -1.
          3    1    5    5  503    0 -0.11803223537E+03 -0.33150043951E+03  0.46495048914E+03  0.58309785400E+03  0.00000000000E+00 0. -1.
         -4    1    5    5    0  503 -0.44015755010E+02 -0.34354285228E+02  0.65850821653E+02  0.86336170375E+02  0.00000000000E+00 0.  1.
         -3    1    6    6    0  502 -0.16244977319E+02  0.37015131466E+01  0.51067887807E+01  0.17426410397E+02  0.00000000000E+00 0.  1.
<mgrwt>
<rscale>  0 0.14102949E+04</rscale>
<asrwt>0</asrwt>
<pdfrwt beam="1">  1        1 0.17559498E+00 0.14102949E+04</pdfrwt>
<pdfrwt beam="2">  1       -1 0.67022570E-01 0.14102949E+04</pdfrwt>
<totfact> 0.25939720E+01</totfact>
</mgrwt>
</event>
<event>
12    1  0.1541840E-007  0.2036735E+04  0.7818608E-02  0.8589636E-01
          2   -1    0    0  501    0  0.00000000000E+00  0.00000000000E+00  0.12854071003E+04  0.12854071003E+04  0.00000000000E+00 0.  1.
         -2   -1    0    0    0  501 -0.00000000000E+00 -0.00000000000E+00 -0.80680442689E+03  0.80680442689E+03  0.00000000000E+00 0. -1.
         23    2    1    2    0    0  0.18694236041E+03 -0.22242163377E+03 -0.59003753333E+03  0.66400689698E+03  0.91334764562E+02 0.  0.
        254    2    1    2    0    0 -0.18694236041E+03  0.22242163377E+03  0.10686402067E+04  0.14282046302E+04  0.90186348466E+03 0.  0.
        -24    2    4    4    0    0 -0.26230182168E+02  0.47268902553E+03  0.22493891424E+03  0.53003835793E+03  0.78868298026E+02 0.  0.
         24    2    4    4    0    0 -0.16071217825E+03 -0.25026739176E+03  0.84370129248E+03  0.89816627225E+03  0.80053794756E+02 0.  0.
         11    1    3    3    0    0  0.79223294673E+02 -0.13045996646E+03 -0.39087140986E+03  0.41961481422E+03  0.00000000000E+00 0. -1.
        -11    1    3    3    0    0  0.10771906574E+03 -0.91961667313E+02 -0.19916612346E+03  0.24439208276E+03  0.00000000000E+00 0.  1.
          2    1    6    6  502    0 -0.11841462575E+03 -0.11188198894E+03  0.42402687523E+03  0.45424486124E+03  0.00000000000E+00 0. -1.
          3    1    5    5  503    0  0.20817826148E+02  0.73548255078E+02  0.52339392415E+02  0.92639838670E+02  0.00000000000E+00 0. -1.
         -4    1    5    5    0  503 -0.47048008316E+02  0.39914077045E+03  0.17259952182E+03  0.43739851926E+03  0.00000000000E+00 0.  1.
         -1    1    6    6    0  502 -0.42297552494E+02 -0.13838540282E+03  0.41967441725E+03  0.44392141101E+03  0.00000000000E+00 0.  1.
<mgrwt>
<rscale>  0 0.20367348E+04</rscale>
<asrwt>0</asrwt>
<pdfrwt beam="1">  1        2 0.19775494E+00 0.20367348E+04</pdfrwt>
<pdfrwt beam="2">  1       -2 0.12412376E+00 0.20367348E+04</pdfrwt>
<totfact> 0.76227675E+00</totfact>
</mgrwt>
</event>
<event>
12    1  0.1541840E-007  0.1468523E+04  0.7818608E-02  0.8905659E-01
         -1   -1    0    0    0  501 -0.00000000000E+00  0.00000000000E+00  0.79358585647E+03  0.79358585647E+03  0.00000000000E+00 0. -1.
          1   -1    0    0  501    0  0.00000000000E+00 -0.00000000000E+00 -0.67937171279E+03  0.67937171279E+03  0.00000000000E+00 0.  1.
         23    2    1    2    0    0  0.14824597860E+03 -0.41783695226E+03 -0.78387767216E+02  0.45912560843E+03  0.89928268211E+02 0.  0.
        254    2    1    2    0    0 -0.14824597860E+03  0.41783695226E+03  0.19260191090E+03  0.10138319608E+04  0.89117627879E+03 0.  0.
        -24    2    4    4    0    0 -0.41404887528E+03  0.43432382645E+03  0.34548094941E+03  0.69666928622E+03  0.76924317476E+02 0.  0.
         24    2    4    4    0    0  0.26580289668E+03 -0.16486874189E+02 -0.15287903852E+03  0.31716267461E+03  0.79354677497E+02 0.  0.
         13    1    3    3    0    0  0.15479255531E+03 -0.39079299156E+03 -0.57317524846E+02  0.42422304992E+03  0.00000000000E+00 0.  1.
        -13    1    3    3    0    0 -0.65465767080E+01 -0.27043960699E+02 -0.21070242370E+02  0.34902558508E+02  0.00000000000E+00 0. -1.
          2    1    6    6  502    0  0.22745490788E+03 -0.41482230999E+02 -0.11776396905E+03  0.25947035093E+03  0.00000000000E+00 0. -1.
          1    1    5    5  503    0 -0.40959532998E+03  0.42319530034E+03  0.32430569251E+03  0.67233680456E+03  0.00000000000E+00 0. -1.
         -2    1    5    5    0  503 -0.44535453029E+01  0.11128526102E+02  0.21175256900E+02  0.24332481660E+02  0.00000000000E+00 0.  1.
         -1    1    6    6    0  502  0.38347988804E+02  0.24995356810E+02 -0.35115069462E+02  0.57692323673E+02  0.00000000000E+00 0.  1.
<mgrwt>
<rscale>  0 0.14685228E+04</rscale>
<asrwt>0</asrwt>
<pdfrwt beam="1">  1        1 0.10451872E+00 0.14685228E+04</pdfrwt>
<pdfrwt beam="2">  1       -1 0.12209013E+00 0.14685228E+04</pdfrwt>
<totfact> 0.16408225E+01</totfact>
</mgrwt>
</event>
<event>
12    1  0.1541840E-007  0.1751728E+04  0.7818608E-02  0.8732400E-01
          2   -1    0    0  501    0  0.00000000000E+00  0.00000000000E+00  0.98572393025E+03  0.98572393025E+03  0.00000000000E+00 0. -1.
         -2   -1    0    0    0  501 -0.00000000000E+00 -0.00000000000E+00 -0.77824822322E+03  0.77824822322E+03  0.00000000000E+00 0.  1.
         23    2    1    2    0    0 -0.42783021474E+03 -0.47441400411E+03  0.14421873640E+03  0.66110434388E+03  0.90291581140E+02 0.  0.
        254    2    1    2    0    0  0.42783021474E+03  0.47441400411E+03  0.63256970634E+02  0.11028678096E+04  0.89677679561E+03 0.  0.
        -24    2    4    4    0    0  0.29293861752E+03  0.73131883825E+03  0.10489089810E+03  0.79910285505E+03  0.83204540987E+02 0.  0.
         24    2    4    4    0    0  0.13489159723E+03 -0.25690483414E+03 -0.41633927465E+02  0.30376495454E+03  0.79648772014E+02 0.  0.
         11    1    3    3    0    0 -0.33369595247E+03 -0.41921307891E+03  0.12662939247E+03  0.55057024735E+03  0.00000000000E+00 0.  1.
        -11    1    3    3    0    0 -0.94134262271E+02 -0.55200925195E+02  0.17589343928E+02  0.11053409653E+03  0.00000000000E+00 0. -1.
          4    1    6    6  502    0  0.39625893074E+02 -0.17662078328E+02 -0.56178629139E+01  0.43746094643E+02  0.00000000000E+00 0. -1.
          3    1    5    5  503    0  0.66814029608E+02  0.97859944469E+02  0.85964784241E+00  0.11849650745E+03  0.00000000000E+00 0. -1.
         -4    1    5    5    0  503  0.22612458791E+03  0.63345889378E+03  0.10403125026E+03  0.68060634760E+03  0.00000000000E+00 0.  1.
         -3    1    6    6    0  502  0.95265704152E+02 -0.23924275581E+03 -0.36016064551E+02  0.26001885990E+03  0.00000000000E+00 0.  1.
<mgrwt>
<rscale>  0 0.17517282E+04</rscale>
<asrwt>0</asrwt>
<pdfrwt beam="1">  1        2 0.15164984E+00 0.17517282E+04</pdfrwt>
<pdfrwt beam="2">  1       -2 0.11973050E+00 0.17517282E+04</pdfrwt>
<totfact> 0.13020767E+01</totfact>
</mgrwt>
</event>
<event>
12    1  0.1541840E-007  0.1528850E+04  0.7818608E-02  0.8865492E-01
          2   -1    0    0  501    0  0.00000000000E+00  0.00000000000E+00  0.15218496639E+04  0.15218496639E+04  0.00000000000E+00 0. -1.
         -2   -1    0    0    0  501 -0.00000000000E+00 -0.00000000000E+00 -0.38397059888E+03  0.38397059888E+03  0.00000000000E+00 0.  1.
         23    2    1    2    0    0  0.12964065226E+03 -0.53706185116E+03  0.53554278441E+03  0.77480356787E+03  0.90952537969E+02 0.  0.
        254    2    1    2    0    0 -0.12964065226E+03  0.53706185116E+03  0.60233628057E+03  0.11310166949E+04  0.78175932259E+03 0.  0.
        -24    2    4    4    0    0 -0.19800765958E+03 -0.14240638380E+03  0.91788026657E+02  0.27403699828E+03  0.84762156613E+02 0.  0.
         24    2    4    4    0    0  0.68367007319E+02  0.67946823496E+03  0.51054825391E+03  0.85697969657E+03  0.86043888545E+02 0.  0.
         11    1    3    3    0    0  0.14034952596E+03 -0.51964446079E+03  0.50517266095E+03  0.73819223271E+03  0.00000000000E+00 0. -1.
        -11    1    3    3    0    0 -0.10708873699E+02 -0.17417390375E+02  0.30370123458E+02  0.36611335160E+02  0.00000000000E+00 0.  1.
          4    1    6    6  502    0  0.57157599765E+02  0.59747706087E+03  0.48082275850E+03  0.76904899361E+03  0.00000000000E+00 0. -1.
          3    1    5    5  503    0 -0.15876784643E+03 -0.13662724567E+03  0.10215014830E+03  0.23304267016E+03  0.00000000000E+00 0. -1.
         -4    1    5    5    0  503 -0.39239813144E+02 -0.57791381248E+01 -0.10362121639E+02  0.40994328119E+02  0.00000000000E+00 0.  1.
         -3    1    6    6    0  502  0.11209407554E+02  0.81991174091E+02  0.29725495410E+02  0.87930702965E+02  0.00000000000E+00 0.  1.
<mgrwt>
<rscale>  0 0.15288499E+04</rscale>
<asrwt>0</asrwt>
<pdfrwt beam="1">  1        2 0.23413071E+00 0.15288499E+04</pdfrwt>
<pdfrwt beam="2">  1       -2 0.59072401E-01 0.15288499E+04</pdfrwt>
<totfact> 0.31835520E+01</totfact>
</mgrwt>
</event>
<event>
12    1  0.1541840E-007  0.1495540E+04  0.7818608E-02  0.8887424E-01
         -2   -1    0    0    0  501 -0.00000000000E+00  0.00000000000E+00  0.15484832895E+04  0.15484832895E+04  0.00000000000E+00 0.  1.
          2   -1    0    0  501    0  0.00000000000E+00 -0.00000000000E+00 -0.36110183094E+03  0.36110183094E+03  0.00000000000E+00 0. -1.
         23    2    1    2    0    0 -0.37188396436E+03 -0.26101980094E+03  0.41835778092E+03  0.62433926740E+03  0.91363387221E+02 0.  0.
        254    2    1    2    0    0  0.37188396436E+03  0.26101980094E+03  0.76902367760E+03  0.12852458530E+04  0.92413768806E+03 0.  0.
        -24    2    4    4    0    0  0.64138785034E+03  0.23343169478E+03  0.72681134835E+03  0.10000339783E+04  0.77100525407E+02 0.  0.
         24    2    4    4    0    0 -0.26950388598E+03  0.27588106163E+02  0.42212329254E+02  0.28521187467E+03  0.78552431874E+02 0.  0.
         11    1    3    3    0    0 -0.37467935495E+02 -0.36527631779E+02  0.15279498750E+02  0.54512174381E+02  0.00000000000E+00 0. -1.
        -11    1    3    3    0    0 -0.33441602887E+03 -0.22449216917E+03  0.40307828217E+03  0.56982709302E+03  0.00000000000E+00 0.  1.
          4    1    6    6  502    0 -0.19015061294E+03  0.47780630575E+02  0.51749096346E+02  0.20277626398E+03  0.00000000000E+00 0. -1.
          3    1    5    5  503    0  0.37141800406E+03  0.96356474953E+02  0.38931696157E+03  0.54662930819E+03  0.00000000000E+00 0. -1.
         -4    1    5    5    0  503  0.26996984629E+03  0.13707521983E+03  0.33749438678E+03  0.45340467014E+03  0.00000000000E+00 0.  1.
         -3    1    6    6    0  502 -0.79353273039E+02 -0.20192524412E+02 -0.95367670919E+01  0.82435610695E+02  0.00000000000E+00 0.  1.
<mgrwt>
<rscale>  0 0.14955402E+04</rscale>
<asrwt>0</asrwt>
<pdfrwt beam="1">  1        2 0.55554129E-01 0.14955402E+04</pdfrwt>
<pdfrwt beam="2">  1       -2 0.23822819E+00 0.14955402E+04</pdfrwt>
<totfact> 0.65525126E+00</totfact>
</mgrwt>
</event>
<event>
12    1  0.1541840E-007  0.1170258E+04  0.7818608E-02  0.9139296E-01
         -1   -1    0    0    0  501 -0.00000000000E+00  0.00000000000E+00  0.57949223982E+03  0.57949223982E+03  0.00000000000E+00 0.  1.
          1   -1    0    0  501    0  0.00000000000E+00 -0.00000000000E+00 -0.59082028867E+03  0.59082028867E+03  0.00000000000E+00 0. -1.
         23    2    1    2    0    0 -0.66027666258E+02 -0.72654811453E+02 -0.20966096820E+03  0.24919163767E+03  0.92197485657E+02 0.  0.
        254    2    1    2    0    0  0.66027666258E+02  0.72654811453E+02  0.19833291935E+03  0.92112089082E+03  0.89414169697E+03 0.  0.
        -24    2    4    4    0    0 -0.10985682935E+03 -0.65855730473E+02  0.50890304117E+03  0.53092351599E+03  0.80572789066E+02 0.  0.
         24    2    4    4    0    0  0.17588449561E+03  0.13851054193E+03 -0.31057012181E+03  0.39019737482E+03  0.75363550462E+02 0.  0.
         11    1    3    3    0    0 -0.54866755618E+02 -0.10759152897E+02 -0.15864258433E+03  0.16820698501E+03  0.00000000000E+00 0. -1.
        -11    1    3    3    0    0 -0.11160910640E+02 -0.61895658556E+02 -0.51018383868E+02  0.80984652662E+02  0.00000000000E+00 0.  1.
          2    1    6    6  502    0  0.75520310266E+02  0.29432302782E+02 -0.67414580750E+02  0.10542439664E+03  0.00000000000E+00 0. -1.
          3    1    5    5  503    0  0.24714130422E+01 -0.19868552038E+00  0.13512397963E+03  0.13514672482E+03  0.00000000000E+00 0. -1.
         -4    1    5    5    0  503 -0.11232824239E+03 -0.65657044953E+02  0.37377906154E+03  0.39577679118E+03  0.00000000000E+00 0.  1.
         -1    1    6    6    0  502  0.10036418534E+03  0.10907823914E+03 -0.24315554106E+03  0.28477297818E+03  0.00000000000E+00 0.  1.
<mgrwt>
<rscale>  0 0.11702577E+04</rscale>
<asrwt>0</asrwt>
<pdfrwt beam="1">  1        1 0.90895429E-01 0.11702577E+04</pdfrwt>
<pdfrwt beam="2">  1       -1 0.89152652E-01 0.11702577E+04</pdfrwt>
<totfact> 0.42864678E+01</totfact>
</mgrwt>
</event>
<event>
12    1  0.1541840E-007  0.2713784E+04  0.7818608E-02  0.8330546E-01
          2   -1    0    0  501    0  0.00000000000E+00  0.00000000000E+00  0.33234857635E+04  0.33234857635E+04  0.00000000000E+00 0. -1.
         -2   -1    0    0    0  501 -0.00000000000E+00 -0.00000000000E+00 -0.55398358689E+03  0.55398358689E+03  0.00000000000E+00 0.  1.
         23    2    1    2    0    0  0.11225012951E+04 -0.98539015939E+02  0.18107193118E+04  0.21348793945E+04  0.96366528294E+02 0.  0.
        254    2    1    2    0    0 -0.11225012951E+04  0.98539015939E+02  0.95878286483E+03  0.17425899559E+04  0.92067153611E+03 0.  0.
        -24    2    4    4    0    0 -0.30633387188E+02 -0.15073798289E+03  0.49992445383E+03  0.52951541953E+03  0.82472880914E+02 0.  0.
         24    2    4    4    0    0 -0.10918679079E+04  0.24927699883E+03  0.45885841100E+03  0.12130745364E+04  0.81757195520E+02 0.  0.
         11    1    3    3    0    0  0.19069545557E+03 -0.43105574157E+02  0.26789138122E+03  0.33164535189E+03  0.00000000000E+00 0.  1.
        -11    1    3    3    0    0  0.93180583952E+03 -0.55433441782E+02  0.15428279306E+04  0.18032340426E+04  0.00000000000E+00 0. -1.
          4    1    6    6  502    0 -0.54214286909E+02 -0.30993756500E+01  0.31920749365E+02  0.62989914070E+02  0.00000000000E+00 0. -1.
          3    1    5    5  503    0 -0.40864786107E+01 -0.92011845761E+02  0.16991443802E+03  0.19327129978E+03  0.00000000000E+00 0. -1.
         -2    1    5    5    0  503 -0.26546908577E+02 -0.58726137127E+02  0.33001001581E+03  0.33624411976E+03  0.00000000000E+00 0.  1.
         -3    1    6    6    0  502 -0.10376536210E+04  0.25237637448E+03  0.42693766164E+03  0.11500846223E+04  0.00000000000E+00 0.  1.
<mgrwt>
<rscale>  0 0.27137845E+04</rscale>
<asrwt>0</asrwt>
<pdfrwt beam="1">  1        2 0.51130549E+00 0.27137845E+04</pdfrwt>
<pdfrwt beam="2">  1       -2 0.85228246E-01 0.27137845E+04</pdfrwt>
<totfact> 0.11272632E+00</totfact>
</mgrwt>
</event>
<event>
12    1  0.1541840E-007  0.1585721E+04  0.7818608E-02  0.8829368E-01
         -1   -1    0    0    0  501 -0.00000000000E+00  0.00000000000E+00  0.11521735184E+04  0.11521735184E+04  0.00000000000E+00 0.  1.
          1   -1    0    0  501    0  0.00000000000E+00 -0.00000000000E+00 -0.54560165217E+03  0.54560165217E+03  0.00000000000E+00 0. -1.
         23    2    1    2    0    0 -0.16281483179E+03  0.36749141612E+03 -0.17518032157E+03  0.44733074182E+03  0.88645570312E+02 0.  0.
        254    2    1    2    0    0  0.16281483179E+03 -0.36749141612E+03  0.78175218777E+03  0.12504444287E+04  0.88933468157E+03 0.  0.
        -24    2    4    4    0    0 -0.31671267542E+03 -0.33682000144E+03  0.25865041374E+03  0.53562066953E+03  0.78960958481E+02 0.  0.
         24    2    4    4    0    0  0.47952750720E+03 -0.30671414680E+02  0.52310177404E+03  0.71482375918E+03  0.80312980592E+02 0.  0.
         11    1    3    3    0    0 -0.91491292375E+02  0.25735540827E+03 -0.15650293834E+03  0.31479458772E+03  0.00000000000E+00 0. -1.
        -11    1    3    3    0    0 -0.71323539413E+02  0.11013600785E+03 -0.18677383235E+02  0.13253615410E+03  0.00000000000E+00 0.  1.
          4    1    6    6  502    0  0.18721384533E+03 -0.33951491998E+02  0.25504380907E+03  0.31819659370E+03  0.00000000000E+00 0. -1.
          3    1    5    5  503    0 -0.32427755227E+02 -0.76300851866E+02  0.36293940857E+02  0.90502096371E+02  0.00000000000E+00 0. -1.
         -2    1    5    5    0  503 -0.28428492019E+03 -0.26051914957E+03  0.22235647288E+03  0.44511857316E+03  0.00000000000E+00 0.  1.
         -3    1    6    6    0  502  0.29231366187E+03  0.32800773179E+01  0.26805796496E+03  0.39662716549E+03  0.00000000000E+00 0.  1.
<mgrwt>
<rscale>  0 0.15857210E+04</rscale>
<asrwt>0</asrwt>
<pdfrwt beam="1">  1        1 0.83938715E-01 0.15857210E+04</pdfrwt>
<pdfrwt beam="2">  1       -1 0.17725746E+00 0.15857210E+04</pdfrwt>
<totfact> 0.82082587E+00</totfact>
</mgrwt>
</event>
<event>
12    1  0.1541840E-007  0.2660601E+04  0.7818608E-02  0.8347903E-01
          1   -1    0    0  501    0  0.00000000000E+00  0.00000000000E+00  0.17744111874E+04  0.17744111874E+04  0.00000000000E+00 0. -1.
         -1   -1    0    0    0  501 -0.00000000000E+00 -0.00000000000E+00 -0.99734470074E+03  0.99734470074E+03  0.00000000000E+00 0.  1.
         23    2    1    2    0    0  0.66487832056E+03 -0.67104725710E+03  0.10691642667E+04  0.14310335765E+04  0.11125315923E+03 0.  0.
        254    2    1    2    0    0 -0.66487832056E+03  0.67104725710E+03 -0.29209778010E+03  0.13407223116E+04  0.90545436180E+03 0.  0.
        -24    2    4    4    0    0 -0.32875385884E+03  0.36504475885E+03 -0.60508112665E+03  0.78348129756E+03  0.79893667687E+02 0.  0.
         24    2    4    4    0    0 -0.33612446172E+03  0.30600249825E+03  0.31298334655E+03  0.55724101405E+03  0.77083005998E+02 0.  0.
         11    1    3    3    0    0  0.61086162019E+03 -0.56480338147E+03  0.93107824561E+03  0.12486238337E+04  0.00000000000E+00 0. -1.
        -11    1    3    3    0    0  0.54016700366E+02 -0.10624387563E+03  0.13808602114E+03  0.18240974278E+03  0.00000000000E+00 0.  1.
          4    1    6    6  502    0 -0.19891487845E+03  0.16536879052E+03  0.22130009764E+03  0.34042282380E+03  0.00000000000E+00 0. -1.
          3    1    5    5  503    0 -0.22716682129E+03  0.19971956698E+03 -0.34181912103E+03  0.45643507932E+03  0.00000000000E+00 0. -1.
         -2    1    5    5    0  503 -0.10158703755E+03  0.16532519187E+03 -0.26326200562E+03  0.32704621825E+03  0.00000000000E+00 0.  1.
         -3    1    6    6    0  502 -0.13720958326E+03  0.14063370773E+03  0.91683248908E+02  0.21681819024E+03  0.00000000000E+00 0.  1.
<mgrwt>
<rscale>  0 0.26606011E+04</rscale>
<asrwt>0</asrwt>
<pdfrwt beam="1">  1        1 0.27298633E+00 0.26606011E+04</pdfrwt>
<pdfrwt beam="2">  1       -1 0.15343765E+00 0.26606011E+04</pdfrwt>
<totfact> 0.12189479E+00</totfact>
</mgrwt>
</event>
<event>
12    1  0.1541840E-007  0.1625625E+04  0.7818608E-02  0.8804959E-01
         -2   -1    0    0    0  501 -0.00000000000E+00  0.00000000000E+00  0.35040891830E+04  0.35040891830E+04  0.00000000000E+00 0.  1.
          2   -1    0    0  501    0  0.00000000000E+00 -0.00000000000E+00 -0.18854087817E+03  0.18854087817E+03  0.00000000000E+00 0. -1.
         23    2    1    2    0    0  0.29506463876E+03  0.33166876108E+03  0.17231001008E+04  0.17816166077E+04  0.89534750147E+02 0.  0.
        254    2    1    2    0    0 -0.29506463876E+03 -0.33166876108E+03  0.15924482040E+04  0.19110134534E+04  0.95865208942E+03 0.  0.
        -24    2    4    4    0    0  0.24114841395E+03 -0.43599981001E+03  0.78437987680E+03  0.93267579073E+03  0.79899609435E+02 0.  0.
         24    2    4    4    0    0 -0.53621305271E+03  0.10433104893E+03  0.80806832719E+03  0.97833766268E+03  0.75899638524E+02 0.  0.
         13    1    3    3    0    0 -0.38671696319E+01  0.88424531351E+01  0.81852894394E+02  0.82419902324E+02  0.00000000000E+00 0. -1.
        -13    1    3    3    0    0  0.29893180839E+03  0.32282630795E+03  0.16412472064E+04  0.16991967054E+04  0.00000000000E+00 0.  1.
          4    1    6    6  502    0 -0.24854490715E+03  0.98938459719E+01  0.36566804651E+03  0.44225058428E+03  0.00000000000E+00 0. -1.
          3    1    5    5  503    0  0.17509612090E+03 -0.24310771726E+03  0.43587651732E+03  0.52891242385E+03  0.00000000000E+00 0. -1.
         -4    1    5    5    0  503  0.66052293052E+02 -0.19289209276E+03  0.34850335948E+03  0.40376336688E+03  0.00000000000E+00 0.  1.
         -3    1    6    6    0  502 -0.28766814556E+03  0.94437202959E+02  0.44240028069E+03  0.53608707840E+03  0.00000000000E+00 0.  1.
<mgrwt>
<rscale>  0 0.16256249E+04</rscale>
<asrwt>0</asrwt>
<pdfrwt beam="1">  1        2 0.29006292E-01 0.16256249E+04</pdfrwt>
<pdfrwt beam="2">  1       -2 0.53909059E+00 0.16256249E+04</pdfrwt>
<totfact> 0.17118073E-01</totfact>
</mgrwt>
</event>
<event>
12    1  0.1541840E-007  0.2153697E+04  0.7818608E-02  0.8537952E-01
          1   -1    0    0  501    0  0.00000000000E+00  0.00000000000E+00  0.78866534560E+03  0.78866534560E+03  0.00000000000E+00 0. -1.
         -1   -1    0    0    0  501 -0.00000000000E+00 -0.00000000000E+00 -0.14703350893E+04  0.14703350893E+04  0.00000000000E+00 0.  1.
         23    2    1    2    0    0 -0.22126548443E+03  0.72675732270E+03 -0.76006387292E+03  0.10799314306E+04  0.10686525753E+03 0.  0.
        254    2    1    2    0    0  0.22126548443E+03 -0.72675732270E+03  0.78394129195E+02  0.11790690043E+04  0.89828918322E+03 0.  0.
        -24    2    4    4    0    0 -0.30893502907E+03 -0.16650757092E+03  0.17017467268E+03  0.39823206073E+03  0.80397335832E+02 0.  0.
         24    2    4    4    0    0  0.53020051350E+03 -0.56024975178E+03 -0.91780543485E+02  0.78083694356E+03  0.79311382399E+02 0.  0.
         13    1    3    3    0    0 -0.25218235774E+02  0.17942116319E+03 -0.13259627236E+03  0.22452101162E+03  0.00000000000E+00 0.  1.
        -13    1    3    3    0    0 -0.19604724865E+03  0.54733615951E+03 -0.62746760056E+03  0.85541041902E+03  0.00000000000E+00 0. -1.
          4    1    6    6  502    0  0.36145575156E+03 -0.42551934416E+03 -0.46845541722E+02  0.56027803577E+03  0.00000000000E+00 0. -1.
          1    1    5    5  503    0 -0.10234824956E+03 -0.15829353338E+02  0.37364948060E+02  0.11009937310E+03  0.00000000000E+00 0. -1.
         -2    1    5    5    0  503 -0.20658677952E+03 -0.15067821758E+03  0.13280972462E+03  0.28813268763E+03  0.00000000000E+00 0.  1.
         -3    1    6    6    0  502  0.16874476194E+03 -0.13473040762E+03 -0.44935001764E+02  0.22055890778E+03  0.00000000000E+00 0.  1.
<mgrwt>
<rscale>  0 0.21536967E+04</rscale>
<asrwt>0</asrwt>
<pdfrwt beam="1">  1        1 0.12133313E+00 0.21536967E+04</pdfrwt>
<pdfrwt beam="2">  1       -1 0.22620540E+00 0.21536967E+04</pdfrwt>
<totfact> 0.20712575E+00</totfact>
</mgrwt>
</event>
<event>
12    1  0.1541840E-007  0.3213097E+04  0.7818608E-02  0.8185367E-01
          2   -1    0    0  501    0  0.00000000000E+00  0.00000000000E+00  0.24969833537E+04  0.24969833537E+04  0.00000000000E+00 0.  1.
         -2   -1    0    0    0  501 -0.00000000000E+00 -0.00000000000E+00 -0.10336464414E+04  0.10336464414E+04  0.00000000000E+00 0. -1.
         23    2    1    2    0    0 -0.96963469875E+01 -0.10905577246E+04  0.17719563884E+04  0.20827691111E+04  0.93207069657E+02 0.  0.
        254    2    1    2    0    0  0.96963469875E+01  0.10905577246E+04 -0.30861947614E+03  0.14478606841E+04  0.90091309774E+03 0.  0.
        -24    2    4    4    0    0 -0.11470344303E+03  0.82450370328E+03 -0.59919694035E+03  0.10288036747E+04  0.80229615273E+02 0.  0.
         24    2    4    4    0    0  0.12439979001E+03  0.26605402130E+03  0.29057746421E+03  0.41905700939E+03  0.70096108375E+02 0.  0.
         11    1    3    3    0    0 -0.45891266205E+02 -0.58581582471E+03  0.90919686948E+03  0.10825549114E+04  0.00000000000E+00 0. -1.
        -11    1    3    3    0    0  0.36194919217E+02 -0.50474189987E+03  0.86275951892E+03  0.10002141996E+04  0.00000000000E+00 0.  1.
          2    1    6    6  502    0  0.61831285191E+02  0.20073698873E+03  0.22142721832E+03  0.30520232549E+03  0.00000000000E+00 0. -1.
          1    1    5    5  503    0  0.92508691140E+01  0.43451653063E+02 -0.44159485080E+02  0.62639323558E+02  0.00000000000E+00 0. -1.
         -2    1    5    5    0  503 -0.12395431214E+03  0.78105205021E+03 -0.55503745527E+03  0.96616435113E+03  0.00000000000E+00 0.  1.
         -1    1    6    6    0  502  0.62568504823E+02  0.65317032574E+02  0.69150245886E+02  0.11385468390E+03  0.00000000000E+00 0.  1.
<mgrwt>
<rscale>  0 0.32130969E+04</rscale>
<asrwt>0</asrwt>
<pdfrwt beam="1">  1        2 0.38415128E+00 0.32130969E+04</pdfrwt>
<pdfrwt beam="2">  1       -2 0.15902253E+00 0.32130969E+04</pdfrwt>
<totfact> 0.75287520E-01</totfact>
</mgrwt>
</event>
<event>
12    1  0.1541840E-007  0.1712522E+04  0.7818608E-02  0.8754255E-01
          1   -1    0    0  501    0  0.00000000000E+00  0.00000000000E+00  0.20568802641E+04  0.20568802641E+04  0.00000000000E+00 0. -1.
         -1   -1    0    0    0  501 -0.00000000000E+00 -0.00000000000E+00 -0.35645373905E+03  0.35645373905E+03  0.00000000000E+00 0.  1.
         23    2    1    2    0    0  0.93332902685E+02  0.13372131831E+03 -0.19222961834E+03  0.26788241655E+03  0.90644035846E+02 0.  0.
        254    2    1    2    0    0 -0.93332902685E+02 -0.13372131831E+03  0.18926561434E+04  0.21454515866E+04  0.99710722171E+03 0.  0.
        -24    2    4    4    0    0 -0.43549160314E+03 -0.82102938599E+02  0.37132626293E+03  0.58353432931E+03  0.78963858854E+02 0.  0.
         24    2    4    4    0    0  0.34215870046E+03 -0.51618379714E+02  0.15213298804E+04  0.15619172573E+04  0.73511087540E+02 0.  0.
         11    1    3    3    0    0  0.71508373420E+02  0.14380174891E+03 -0.15264162363E+03  0.22156681999E+03  0.00000000000E+00 0.  1.
        -11    1    3    3    0    0  0.21824529265E+02 -0.10080430599E+02 -0.39587994718E+02  0.46315596558E+02  0.00000000000E+00 0. -1.
          2    1    6    6  502    0  0.30769061542E+03 -0.34891288377E+02  0.12444280604E+04  0.12823775241E+04  0.00000000000E+00 0. -1.
          3    1    5    5  503    0 -0.40683582561E+03 -0.71118478343E+02  0.36706946883E+03  0.55255155588E+03  0.00000000000E+00 0. -1.
         -4    1    5    5    0  503 -0.28655777530E+02 -0.10984460256E+02  0.42567940994E+01  0.30982773423E+02  0.00000000000E+00 0.  1.
         -1    1    6    6    0  502  0.34468085032E+02 -0.16727091336E+02  0.27690182008E+03  0.27953973319E+03  0.00000000000E+00 0.  1.
<mgrwt>
<rscale>  0 0.17125217E+04</rscale>
<asrwt>0</asrwt>
<pdfrwt beam="1">  1        1 0.31644311E+00 0.17125217E+04</pdfrwt>
<pdfrwt beam="2">  1       -1 0.54839038E-01 0.17125217E+04</pdfrwt>
<totfact> 0.87115854E+00</totfact>
</mgrwt>
</event>
<event>
12    1  0.1541840E-007  0.2840193E+04  0.7818608E-02  0.8290897E-01
          2   -1    0    0  501    0  0.00000000000E+00  0.00000000000E+00  0.17202463373E+04  0.17202463373E+04  0.00000000000E+00 0. -1.
         -2   -1    0    0    0  501 -0.00000000000E+00 -0.00000000000E+00 -0.11723172522E+04  0.11723172522E+04  0.00000000000E+00 0.  1.
         23    2    1    2    0    0 -0.86083360611E+03  0.59009209265E+03  0.10065052818E+04  0.14530311911E+04  0.94887221934E+02 0.  0.
        254    2    1    2    0    0  0.86083360611E+03 -0.59009209265E+03 -0.45857619661E+03  0.14395323984E+04  0.87904392544E+03 0.  0.
        -24    2    4    4    0    0  0.69076182946E+03 -0.53594333670E+03  0.65010495890E+02  0.87996900887E+03  0.75709489598E+02 0.  0.
         24    2    4    4    0    0  0.17007177665E+03 -0.54148755948E+02 -0.52358669250E+03  0.55956338957E+03  0.84330690691E+02 0.  0.
         11    1    3    3    0    0 -0.84259135453E+03  0.57467295711E+03  0.99980746729E+03  0.14282241316E+04  0.00000000000E+00 0. -1.
        -11    1    3    3    0    0 -0.18242251583E+02  0.15419135541E+02  0.66978144622E+01  0.24807059524E+02  0.00000000000E+00 0.  1.
          4    1    6    6  502    0  0.37755279151E+02 -0.18402126075E+02 -0.25066182358E+03  0.25415634784E+03  0.00000000000E+00 0. -1.
          3    1    5    5  503    0  0.67878839075E+03 -0.53679692209E+03  0.66114068679E+02  0.86791456092E+03  0.00000000000E+00 0. -1.
         -4    1    5    5    0  503  0.11973438710E+02  0.85358539262E+00 -0.11035727883E+01  0.12054447953E+02  0.00000000000E+00 0.  1.
         -3    1    6    6    0  502  0.13231649750E+03 -0.35746629873E+02 -0.27292486893E+03  0.30540704173E+03  0.00000000000E+00 0.  1.
<mgrwt>
<rscale>  0 0.28401933E+04</rscale>
<asrwt>0</asrwt>
<pdfrwt beam="1">  1        2 0.26465328E+00 0.28401933E+04</pdfrwt>
<pdfrwt beam="2">  1       -2 0.18035650E+00 0.28401933E+04</pdfrwt>
<totfact> 0.14945041E+00</totfact>
</mgrwt>
</event>
<event>
12    1  0.1541840E-007  0.1279510E+04  0.7818608E-02  0.9045973E-01
          1   -1    0    0  501    0  0.00000000000E+00  0.00000000000E+00  0.11363200650E+04  0.11363200650E+04  0.00000000000E+00 0. -1.
         -1   -1    0    0    0  501 -0.00000000000E+00 -0.00000000000E+00 -0.36018615639E+03  0.36018615639E+03  0.00000000000E+00 0.  1.
         23    2    1    2    0    0  0.21225041968E+03  0.75891948236E+02  0.45385734792E+03  0.51484105326E+03  0.90911987097E+02 0.  0.
        254    2    1    2    0    0 -0.21225041968E+03 -0.75891948236E+02  0.32227656068E+03  0.98166516812E+03  0.89944121113E+03 0.  0.
        -24    2    4    4    0    0 -0.49940660828E+03  0.49491833439E+02 -0.23010466785E+02  0.50870910558E+03  0.79994190693E+02 0.  0.
         24    2    4    4    0    0  0.28715618860E+03 -0.12538378168E+03  0.34528702747E+03  0.47295606255E+03  0.79275067982E+02 0.  0.
         11    1    3    3    0    0  0.45949614865E+02  0.49331768266E+02  0.19211851142E+03  0.20360381356E+03  0.00000000000E+00 0.  1.
        -11    1    3    3    0    0  0.16630080481E+03  0.26560179970E+02  0.26173883650E+03  0.31123723970E+03  0.00000000000E+00 0. -1.
          2    1    6    6  502    0  0.91079724651E+02 -0.59625926803E+02  0.73155007238E+02  0.13115800575E+03  0.00000000000E+00 0. -1.
          1    1    5    5  503    0 -0.10455348818E+03  0.63815356922E+01  0.27534316615E+02  0.10830648402E+03  0.00000000000E+00 0. -1.
         -2    1    5    5    0  503 -0.39485312010E+03  0.43110297747E+02 -0.50544783399E+02  0.40040262156E+03  0.00000000000E+00 0.  1.
         -1    1    6    6    0  502  0.19607646395E+03 -0.65757854872E+02  0.27213202023E+03  0.34179805679E+03  0.00000000000E+00 0.  1.
<mgrwt>
<rscale>  0 0.12795105E+04</rscale>
<asrwt>0</asrwt>
<pdfrwt beam="1">  1        1 0.17481847E+00 0.12795105E+04</pdfrwt>
<pdfrwt beam="2">  1       -1 0.55413255E-01 0.12795105E+04</pdfrwt>
<totfact> 0.38579586E+01</totfact>
</mgrwt>
</event>
<event>
12    1  0.1541840E-007  0.1640526E+04  0.7818608E-02  0.8796031E-01
         -2   -1    0    0    0  501 -0.00000000000E+00  0.00000000000E+00  0.45690610314E+03  0.45690610314E+03  0.00000000000E+00 0.  1.
          2   -1    0    0  501    0  0.00000000000E+00 -0.00000000000E+00 -0.14725817353E+04  0.14725817353E+04  0.00000000000E+00 0. -1.
         23    2    1    2    0    0  0.48601782855E+03  0.67234736555E+02 -0.25752455809E+02  0.49921871758E+03  0.88443764822E+02 0.  0.
        254    2    1    2    0    0 -0.48601782855E+03 -0.67234736555E+02 -0.98992317632E+03  0.14302691208E+04  0.90828851335E+03 0.  0.
        -24    2    4    4    0    0 -0.11106564280E+03 -0.93376336262E+02 -0.10307807144E+04  0.10438238527E+04  0.77489593672E+02 0.  0.
         24    2    4    4    0    0 -0.37495218576E+03  0.26141599707E+02  0.40857538093E+02  0.38644526809E+03  0.79988011432E+02 0.  0.
         11    1    3    3    0    0  0.39198255561E+03  0.27171001378E+02 -0.44033024192E+02  0.39538271894E+03  0.00000000000E+00 0. -1.
        -11    1    3    3    0    0  0.94035272946E+02  0.40063735177E+02  0.18280568383E+02  0.10383599865E+03  0.00000000000E+00 0.  1.
          2    1    6    6  502    0 -0.99095599415E+02  0.39152125328E+02  0.27087808291E+02  0.10993896534E+03  0.00000000000E+00 0. -1.
          1    1    5    5  503    0 -0.92834875512E+02 -0.36114904833E+02 -0.51421339443E+03  0.52377286630E+03  0.00000000000E+00 0. -1.
         -2    1    5    5    0  503 -0.18230767283E+02 -0.57261431429E+02 -0.51656731998E+03  0.52005098642E+03  0.00000000000E+00 0.  1.
         -1    1    6    6    0  502 -0.27585658634E+03 -0.13010525621E+02  0.13769729801E+02  0.27650630276E+03  0.00000000000E+00 0.  1.
<mgrwt>
<rscale>  0 0.16405262E+04</rscale>
<asrwt>0</asrwt>
<pdfrwt beam="1">  1        2 0.22655103E+00 0.16405262E+04</pdfrwt>
<pdfrwt beam="2">  1       -2 0.70293248E-01 0.16405262E+04</pdfrwt>
<totfact> 0.23164264E+01</totfact>
</mgrwt>
</event>
<event>
12    1  0.1541840E-007  0.1935034E+04  0.7818608E-02  0.8637611E-01
          2   -1    0    0  501    0  0.00000000000E+00  0.00000000000E+00  0.16677859981E+04  0.16677859981E+04  0.00000000000E+00 0. -1.
         -2   -1    0    0    0  501 -0.00000000000E+00 -0.00000000000E+00 -0.56127674171E+03  0.56127674171E+03  0.00000000000E+00 0.  1.
         23    2    1    2    0    0  0.61591942313E+03  0.36639392431E+03  0.13612220852E+03  0.73504338496E+03  0.90323189432E+02 0.  0.
        254    2    1    2    0    0 -0.61591942313E+03 -0.36639392431E+03  0.97038704785E+03  0.14940193548E+04  0.88138616191E+03 0.  0.
        -24    2    4    4    0    0 -0.23412918997E+03  0.13284784779E+03  0.78524200352E+03  0.83385222656E+03  0.78990527187E+02 0.  0.
         24    2    4    4    0    0 -0.38179023316E+03 -0.49924177210E+03  0.18514504433E+03  0.66016712827E+03  0.80844422584E+02 0.  0.
         11    1    3    3    0    0  0.19218790210E+03  0.77517088879E+02  0.13012558040E+02  0.20764011040E+03  0.00000000000E+00 0. -1.
        -11    1    3    3    0    0  0.42373152104E+03  0.28887683543E+03  0.12310965048E+03  0.52740327456E+03  0.00000000000E+00 0.  1.
          2    1    6    6  502    0 -0.34850576532E+03 -0.48466290522E+03  0.17976350226E+03  0.62343349036E+03  0.00000000000E+00 0. -1.
          3    1    5    5  503    0 -0.11999568494E+03  0.10560463623E+03  0.38784925494E+03  0.41949773320E+03  0.00000000000E+00 0. -1.
         -4    1    5    5    0  503 -0.11413350503E+03  0.27243211557E+02  0.39739274857E+03  0.41435449336E+03  0.00000000000E+00 0.  1.
         -1    1    6    6    0  502 -0.33284467849E+02 -0.14578866881E+02  0.53815420689E+01  0.36733637916E+02  0.00000000000E+00 0.  1.
<mgrwt>
<rscale>  0 0.19350344E+04</rscale>
<asrwt>0</asrwt>
<pdfrwt beam="1">  1        2 0.25658246E+00 0.19350344E+04</pdfrwt>
<pdfrwt beam="2">  1       -2 0.86350268E-01 0.19350344E+04</pdfrwt>
<totfact> 0.11094591E+01</totfact>
</mgrwt>
</event>
<event>
12    1  0.1541840E-007  0.1446007E+04  0.7818608E-02  0.8921173E-01
         -1   -1    0    0    0  501 -0.00000000000E+00  0.00000000000E+00  0.39316912674E+03  0.39316912674E+03  0.00000000000E+00 0.  1.
          1   -1    0    0  501    0  0.00000000000E+00 -0.00000000000E+00 -0.13295402454E+04  0.13295402454E+04  0.00000000000E+00 0. -1.
         23    2    1    2    0    0 -0.39113946431E+03  0.36076643444E+02 -0.54554463558E+02  0.40605513750E+03  0.87252395073E+02 0.  0.
        254    2    1    2    0    0  0.39113946431E+03 -0.36076643444E+02 -0.88181665514E+03  0.13166542347E+04  0.89536928453E+03 0.  0.
        -24    2    4    4    0    0  0.25058470061E+03 -0.19191822237E+03 -0.10079528015E+04  0.10590854759E+04  0.77896718540E+02 0.  0.
         24    2    4    4    0    0  0.14055476370E+03  0.15584157893E+03  0.12613614641E+03  0.25756875882E+03  0.79931838265E+02 0.  0.
         13    1    3    3    0    0 -0.48033981037E+02  0.13030029357E+02  0.20925753882E+02  0.53990111825E+02  0.00000000000E+00 0. -1.
        -13    1    3    3    0    0 -0.34310548328E+03  0.23046614087E+02 -0.75480217440E+02  0.35206502567E+03  0.00000000000E+00 0.  1.
          2    1    6    6  502    0  0.10398711462E+03  0.11365520634E+03  0.47645272535E+02  0.16124793930E+03  0.00000000000E+00 0. -1.
          1    1    5    5  503    0  0.14638804049E+03 -0.13834500486E+03 -0.53000740597E+03  0.56698910849E+03  0.00000000000E+00 0. -1.
         -2    1    5    5    0  503  0.10419666012E+03 -0.53573217514E+02 -0.47794539558E+03  0.49209636736E+03  0.00000000000E+00 0.  1.
         -1    1    6    6    0  502  0.36567649084E+02  0.42186372596E+02  0.78490873874E+02  0.96320819524E+02  0.00000000000E+00 0.  1.
<mgrwt>
<rscale>  0 0.14460072E+04</rscale>
<asrwt>0</asrwt>
<pdfrwt beam="1">  1        1 0.20454465E+00 0.14460072E+04</pdfrwt>
<pdfrwt beam="2">  1       -1 0.60487559E-01 0.14460072E+04</pdfrwt>
<totfact> 0.23202434E+01</totfact>
</mgrwt>
</event>
<event>
12    1  0.1541840E-007  0.1830979E+04  0.7818608E-02  0.8689996E-01
          1   -1    0    0  501    0  0.00000000000E+00  0.00000000000E+00  0.28675043763E+04  0.28675043763E+04  0.00000000000E+00 0. -1.
         -1   -1    0    0    0  501 -0.00000000000E+00 -0.00000000000E+00 -0.29228243195E+03  0.29228243195E+03  0.00000000000E+00 0.  1.
         23    2    1    2    0    0 -0.14351362154E+03  0.53284509049E+03  0.16874168778E+04  0.17777935014E+04  0.93026684765E+02 0.  0.
        254    2    1    2    0    0  0.14351362154E+03 -0.53284509049E+03  0.88780506652E+03  0.13819933068E+04  0.90398429963E+03 0.  0.
        -24    2    4    4    0    0  0.30794805291E+03 -0.70620781119E+03  0.80104518285E+03  0.11146082130E+04  0.84359989002E+02 0.  0.
         24    2    4    4    0    0 -0.16443443137E+03  0.17336272070E+03  0.86759883676E+02  0.26738509380E+03  0.82910770240E+02 0.  0.
         13    1    3    3    0    0 -0.40315257830E+02  0.14667435784E+03  0.34310626883E+03  0.37531400050E+03  0.00000000000E+00 0.  1.
        -13    1    3    3    0    0 -0.10319836371E+03  0.38617073265E+03  0.13443106090E+04  0.14024795009E+04  0.00000000000E+00 0. -1.
          2    1    6    6  502    0 -0.16388499621E+03  0.16550863857E+03  0.98793192715E+02  0.25300493345E+03  0.00000000000E+00 0. -1.
          3    1    5    5  503    0  0.25595886369E+03 -0.49233819899E+03  0.56853561466E+03  0.79444608830E+03  0.00000000000E+00 0. -1.
         -4    1    5    5    0  503  0.51989189217E+02 -0.21386961220E+03  0.23250956819E+03  0.32016212474E+03  0.00000000000E+00 0.  1.
         -1    1    6    6    0  502 -0.54943515442E+00  0.78540821326E+01 -0.12033309039E+02  0.14380160345E+02  0.00000000000E+00 0.  1.
<mgrwt>
<rscale>  0 0.18309791E+04</rscale>
<asrwt>0</asrwt>
<pdfrwt beam="1">  1        1 0.44115450E+00 0.18309791E+04</pdfrwt>
<pdfrwt beam="2">  1       -1 0.44966530E-01 0.18309791E+04</pdfrwt>
<totfact> 0.34491393E+00</totfact>
</mgrwt>
</event>
<event>
12    1  0.1541840E-007  0.2003368E+04  0.7818608E-02  0.8605048E-01
          2   -1    0    0  501    0  0.00000000000E+00  0.00000000000E+00  0.28399684763E+04  0.28399684763E+04  0.00000000000E+00 0.  1.
         -2   -1    0    0    0  501 -0.00000000000E+00 -0.00000000000E+00 -0.35330344277E+03  0.35330344277E+03  0.00000000000E+00 0. -1.
         23    2    1    2    0    0  0.18033877046E+02  0.48026152908E+03 -0.15448463773E+02  0.49096876575E+03  0.99173166072E+02 0.  0.
        254    2    1    2    0    0 -0.18033877046E+02 -0.48026152908E+03  0.25021134973E+04  0.27023031533E+04  0.90049654196E+03 0.  0.
        -24    2    4    4    0    0 -0.10451068499E+03 -0.65339679121E+03  0.11123051167E+04  0.12967134699E+04  0.79958114909E+02 0.  0.
         24    2    4    4    0    0  0.86476807943E+02  0.17313526213E+03  0.13898083806E+04  0.14055896835E+04  0.81614743153E+02 0.  0.
         13    1    3    3    0    0 -0.62381443952E+01  0.40863114751E+03 -0.41956682965E+02  0.41082683993E+03  0.00000000000E+00 0. -1.
        -13    1    3    3    0    0  0.24272021442E+02  0.71630381571E+02  0.26508219192E+02  0.80141925817E+02  0.00000000000E+00 0.  1.
          2    1    6    6  502    0 -0.49253420629E+01  0.22160737006E+02  0.36422233483E+03  0.36492912524E+03  0.00000000000E+00 0. -1.
          3    1    5    5  503    0 -0.41824620814E+02 -0.12197435938E+03  0.17434445377E+03  0.21684794630E+03  0.00000000000E+00 0. -1.
         -4    1    5    5    0  503 -0.62686064175E+02 -0.53142243183E+03  0.93796066297E+03  0.10798655236E+04  0.00000000000E+00 0.  1.
         -1    1    6    6    0  502  0.91402150005E+02  0.15097452512E+03  0.10255860457E+04  0.10406605582E+04  0.00000000000E+00 0.  1.
<mgrwt>
<rscale>  0 0.20033678E+04</rscale>
<asrwt>0</asrwt>
<pdfrwt beam="1">  1        2 0.43691821E+00 0.20033678E+04</pdfrwt>
<pdfrwt beam="2">  1       -2 0.54354378E-01 0.20033678E+04</pdfrwt>
<totfact> 0.64819039E+00</totfact>
</mgrwt>
</event>
<event>
12    1  0.1541840E-007  0.1128674E+04  0.7818608E-02  0.9177686E-01
         -2   -1    0    0    0  501 -0.00000000000E+00  0.00000000000E+00  0.18803785192E+03  0.18803785192E+03  0.00000000000E+00 0.  1.
          2   -1    0    0  501    0  0.00000000000E+00 -0.00000000000E+00 -0.16936818789E+04  0.16936818789E+04  0.00000000000E+00 0. -1.
         23    2    1    2    0    0  0.98360290377E+02 -0.46023420546E+02 -0.33662413421E+02  0.14126794978E+03  0.83848515768E+02 0.  0.
        254    2    1    2    0    0 -0.98360290377E+02  0.46023420546E+02 -0.14719816136E+04  0.17404517811E+04  0.92230668949E+03 0.  0.
        -24    2    4    4    0    0 -0.61136223731E+01  0.25257167943E+03 -0.16375724314E+02  0.26513567441E+03  0.78733295803E+02 0.  0.
         24    2    4    4    0    0 -0.92246668004E+02 -0.20654825889E+03 -0.14556058893E+04  0.14753161066E+04  0.81224864648E+02 0.  0.
         13    1    3    3    0    0  0.47449777966E+00  0.19407535351E+02 -0.60310912564E+01  0.20328591645E+02  0.00000000000E+00 0. -1.
        -13    1    3    3    0    0  0.97885792598E+02 -0.65430955897E+02 -0.27631322165E+02  0.12093935814E+03  0.00000000000E+00 0.  1.
          4    1    6    6  502    0 -0.84948235261E+02 -0.15145065617E+03 -0.87555356071E+03  0.89260715973E+03  0.00000000000E+00 0. -1.
          1    1    5    5  503    0 -0.18180904213E+02  0.18911304145E+03  0.19944790414E+02  0.19102900929E+03  0.00000000000E+00 0. -1.
         -2    1    5    5    0  503  0.12067281840E+02  0.63458637986E+02 -0.36320514728E+02  0.74106665126E+02  0.00000000000E+00 0.  1.
         -3    1    6    6    0  502 -0.72984327432E+01 -0.55097602716E+02 -0.58005232856E+03  0.58270894692E+03  0.00000000000E+00 0.  1.
<mgrwt>
<rscale>  0 0.11286741E+04</rscale>
<asrwt>0</asrwt>
<pdfrwt beam="1">  1        2 0.26056645E+00 0.11286741E+04</pdfrwt>
<pdfrwt beam="2">  1       -2 0.28928900E-01 0.11286741E+04</pdfrwt>
<totfact> 0.10751633E+02</totfact>
</mgrwt>
</event>
<event>
12    1  0.1541840E-007  0.1354402E+04  0.7818608E-02  0.8987502E-01
         -4   -1    0    0    0  501 -0.00000000000E+00  0.00000000000E+00  0.51231262608E+03  0.51231262608E+03  0.00000000000E+00 0.  1.
          4   -1    0    0  501    0  0.00000000000E+00 -0.00000000000E+00 -0.89515937288E+03  0.89515937288E+03  0.00000000000E+00 0. -1.
         23    2    1    2    0    0  0.35891344951E+03 -0.28952006309E+02 -0.20454293792E+03  0.42432824465E+03  0.92517905538E+02 0.  0.
        254    2    1    2    0    0 -0.35891344951E+03  0.28952006309E+02 -0.17830380888E+03  0.98314375431E+03  0.89728608062E+03 0.  0.
        -24    2    4    4    0    0 -0.62905715961E+03 -0.12373278220E+03 -0.12915356549E+03  0.65894203497E+03  0.80630332491E+02 0.  0.
         24    2    4    4    0    0  0.27014371010E+03  0.15268478851E+03 -0.49150243390E+02  0.32420171935E+03  0.80004622687E+02 0.  0.
         13    1    3    3    0    0  0.33939075613E+03 -0.11022745009E+02 -0.16711257822E+03  0.37846294410E+03  0.00000000000E+00 0. -1.
        -13    1    3    3    0    0  0.19522693380E+02 -0.17929261301E+02 -0.37430359698E+02  0.45865300552E+02  0.00000000000E+00 0.  1.
          4    1    6    6  502    0  0.18612659743E+03  0.12918117232E+03 -0.54563017030E+01  0.22662889662E+03  0.00000000000E+00 0. -1.
          3    1    5    5  503    0 -0.22062008767E+03 -0.77479449609E+02 -0.66862044680E+02  0.24320119493E+03  0.00000000000E+00 0. -1.
         -4    1    5    5    0  503 -0.40843707194E+03 -0.46253332594E+02 -0.62291520807E+02  0.41574084004E+03  0.00000000000E+00 0.  1.
         -3    1    6    6    0  502  0.84017112669E+02  0.23503616195E+02 -0.43693941687E+02  0.97572822730E+02  0.00000000000E+00 0.  1.
<mgrwt>
<rscale>  0 0.13544024E+04</rscale>
<asrwt>0</asrwt>
<pdfrwt beam="1">  1        4 0.13771683E+00 0.13544024E+04</pdfrwt>
<pdfrwt beam="2">  1       -4 0.78817328E-01 0.13544024E+04</pdfrwt>
<totfact> 0.10443195E+00</totfact>
</mgrwt>
</event>
<event>
12    1  0.1541840E-007  0.2569469E+04  0.7818608E-02  0.8378646E-01
          2   -1    0    0  501    0  0.00000000000E+00  0.00000000000E+00  0.20548684437E+04  0.20548684437E+04  0.00000000000E+00 0. -1.
         -2   -1    0    0    0  501 -0.00000000000E+00 -0.00000000000E+00 -0.80323549290E+03  0.80323549290E+03  0.00000000000E+00 0.  1.
         23    2    1    2    0    0  0.74324401231E+03 -0.56332511305E+03  0.12476300248E+04  0.15603370580E+04  0.91237115018E+02 0.  0.
        254    2    1    2    0    0 -0.74324401231E+03  0.56332511305E+03  0.40029261025E+01  0.12977668786E+04  0.90246108115E+03 0.  0.
        -24    2    4    4    0    0 -0.14414591293E+03 -0.21747439919E+03 -0.12860737653E+03  0.30147203587E+03  0.79198311837E+02 0.  0.
         24    2    4    4    0    0 -0.59909809938E+03  0.78079951224E+03  0.13261030263E+03  0.99629484275E+03  0.80321294376E+02 0.  0.
         13    1    3    3    0    0  0.71065968384E+03 -0.52348393337E+03  0.11469286434E+04  0.14472449439E+04  0.00000000000E+00 0. -1.
        -13    1    3    3    0    0  0.32584328469E+02 -0.39841179677E+02  0.10070138135E+03  0.11309211408E+03  0.00000000000E+00 0.  1.
          2    1    6    6  502    0 -0.73043572391E+02  0.76471431707E+02  0.36896828176E+02  0.11200276454E+03  0.00000000000E+00 0. -1.
          3    1    5    5  503    0 -0.19227569395E+02 -0.65851233621E+02 -0.66225597165E+02  0.95351529165E+02  0.00000000000E+00 0. -1.
         -4    1    5    5    0  503 -0.12491834353E+03 -0.15162316557E+03 -0.62381779360E+02  0.20612050670E+03  0.00000000000E+00 0.  1.
         -1    1    6    6    0  502 -0.52605452699E+03  0.70432808053E+03  0.95713474451E+02  0.88429207821E+03  0.00000000000E+00 0.  1.
<mgrwt>
<rscale>  0 0.25694694E+04</rscale>
<asrwt>0</asrwt>
<pdfrwt beam="1">  1        2 0.31613360E+00 0.25694694E+04</pdfrwt>
<pdfrwt beam="2">  1       -2 0.12357469E+00 0.25694694E+04</pdfrwt>
<totfact> 0.27249780E+00</totfact>
</mgrwt>
</event>
<event>
12    1  0.1541840E-007  0.1261007E+04  0.7818608E-02  0.9061072E-01
          2   -1    0    0  501    0  0.00000000000E+00  0.00000000000E+00  0.69127564270E+03  0.69127564270E+03  0.00000000000E+00 0. -1.
         -2   -1    0    0    0  501 -0.00000000000E+00 -0.00000000000E+00 -0.57507411233E+03  0.57507411233E+03  0.00000000000E+00 0.  1.
         23    2    1    2    0    0  0.14413345527E+03 -0.16366371562E+02  0.27767805979E+03  0.32684619793E+03  0.93171997728E+02 0.  0.
        254    2    1    2    0    0 -0.14413345527E+03  0.16366371562E+02 -0.16147652943E+03  0.93950355710E+03  0.91408421560E+03 0.  0.
        -24    2    4    4    0    0 -0.14210359013E+03 -0.19978076936E+03  0.31703769555E+03  0.40851398067E+03  0.79151663713E+02 0.  0.
         24    2    4    4    0    0 -0.20298651369E+01  0.21614714092E+03 -0.47851422498E+03  0.53098957643E+03  0.79059217568E+02 0.  0.
         13    1    3    3    0    0  0.12896749289E+03 -0.43095477442E+01  0.15069665573E+03  0.19839523299E+03  0.00000000000E+00 0.  1.
        -13    1    3    3    0    0  0.15165962383E+02 -0.12056823818E+02  0.12698140406E+03  0.12845096494E+03  0.00000000000E+00 0. -1.
          2    1    6    6  502    0  0.12223328274E+01  0.17865700550E+03 -0.30529503385E+03  0.35372994983E+03  0.00000000000E+00 0. -1.
          3    1    5    5  503    0 -0.28063717832E+02 -0.26047016657E+02  0.10434334282E+03  0.11114653627E+03  0.00000000000E+00 0. -1.
         -4    1    5    5    0  503 -0.11403987230E+03 -0.17373375271E+03  0.21269435274E+03  0.29736744440E+03  0.00000000000E+00 0.  1.
         -1    1    6    6    0  502 -0.32521979643E+01  0.37490135422E+02 -0.17321919113E+03  0.17725962660E+03  0.00000000000E+00 0.  1.
<mgrwt>
<rscale>  0 0.12610071E+04</rscale>
<asrwt>0</asrwt>
<pdfrwt beam="1">  1        2 0.10635010E+00 0.12610071E+04</pdfrwt>
<pdfrwt beam="2">  1       -2 0.88472941E-01 0.12610071E+04</pdfrwt>
<totfact> 0.44994400E+01</totfact>
</mgrwt>
</event>
<event>
12    1  0.1541840E-007  0.1844697E+04  0.7818608E-02  0.8682885E-01
          1   -1    0    0  501    0  0.00000000000E+00  0.00000000000E+00  0.14016292095E+04  0.14016292095E+04  0.00000000000E+00 0. -1.
         -1   -1    0    0    0  501 -0.00000000000E+00 -0.00000000000E+00 -0.60695553424E+03  0.60695553424E+03  0.00000000000E+00 0.  1.
         23    2    1    2    0    0  0.31786481294E+03  0.59612959299E+03  0.51483589645E+03  0.85443723732E+03  0.92727888469E+02 0.  0.
        254    2    1    2    0    0 -0.31786481294E+03 -0.59612959299E+03  0.27983777879E+03  0.11541475064E+04  0.89293826951E+03 0.  0.
        -24    2    4    4    0    0 -0.60566988918E+03 -0.27610811793E+03  0.24997722348E+03  0.71558725130E+03  0.80652306294E+02 0.  0.
         24    2    4    4    0    0  0.28780507624E+03 -0.32002147506E+03  0.29860555307E+02  0.43856025510E+03  0.78726985109E+02 0.  0.
         11    1    3    3    0    0  0.30901357151E+03  0.52990895660E+03  0.48115954932E+03  0.77962003666E+03  0.00000000000E+00 0. -1.
        -11    1    3    3    0    0  0.88512414370E+01  0.66220636386E+02  0.33676347137E+02  0.74817200662E+02  0.00000000000E+00 0.  1.
          2    1    6    6  502    0 -0.19784777647E+01 -0.29622933434E+01 -0.65790260266E+01  0.74815198708E+01  0.00000000000E+00 0. -1.
          1    1    5    5  503    0 -0.22369288056E+03 -0.11419649450E+03  0.54662974555E+02  0.25703576591E+03  0.00000000000E+00 0. -1.
         -2    1    5    5    0  503 -0.38197700862E+03 -0.16191162343E+03  0.19531424893E+03  0.45855148539E+03  0.00000000000E+00 0.  1.
         -1    1    6    6    0  502  0.28978355401E+03 -0.31705918171E+03  0.36439581334E+02  0.43107873523E+03  0.00000000000E+00 0.  1.
<mgrwt>
<rscale>  0 0.18446968E+04</rscale>
<asrwt>0</asrwt>
<pdfrwt beam="1">  1        1 0.21563526E+00 0.18446968E+04</pdfrwt>
<pdfrwt beam="2">  1       -1 0.93377775E-01 0.18446968E+04</pdfrwt>
<totfact> 0.80164316E+00</totfact>
</mgrwt>
</event>
<event>
12    1  0.1541840E-007  0.1741873E+04  0.7818608E-02  0.8737837E-01
         -1   -1    0    0    0  501 -0.00000000000E+00  0.00000000000E+00  0.46820315306E+03  0.46820315306E+03  0.00000000000E+00 0.  1.
          1   -1    0    0  501    0  0.00000000000E+00 -0.00000000000E+00 -0.16200880642E+04  0.16200880642E+04  0.00000000000E+00 0. -1.
         23    2    1    2    0    0  0.22941136963E+03 -0.52294332544E+03 -0.75132566103E+03  0.94810887446E+03  0.91218916689E+02 0.  0.
        254    2    1    2    0    0 -0.22941136963E+03  0.52294332544E+03 -0.40055925011E+03  0.11401823428E+04  0.90192503228E+03 0.  0.
        -24    2    4    4    0    0  0.16511700594E+03  0.44428497012E+03  0.10288821571E+03  0.49109522714E+03  0.77043993064E+02 0.  0.
         24    2    4    4    0    0 -0.39452837557E+03  0.78658355325E+02 -0.50344746582E+03  0.64908711566E+03  0.77556153131E+02 0.  0.
         11    1    3    3    0    0  0.18438960290E+03 -0.46772733737E+03 -0.69225248065E+03  0.85555939872E+03  0.00000000000E+00 0. -1.
        -11    1    3    3    0    0  0.45021766725E+02 -0.55215988078E+02 -0.59073180382E+02  0.92549475735E+02  0.00000000000E+00 0.  1.
          2    1    6    6  502    0 -0.18238122181E+03  0.74353634485E+02 -0.22550464952E+03  0.29940561114E+03  0.00000000000E+00 0. -1.
          3    1    5    5  503    0  0.16869019394E+02  0.31829881476E+02  0.29805690420E+02  0.46755580967E+02  0.00000000000E+00 0. -1.
         -4    1    5    5    0  503  0.14824798655E+03  0.41245508864E+03  0.73082525289E+02  0.44433964618E+03  0.00000000000E+00 0.  1.
         -1    1    6    6    0  502 -0.21214715376E+03  0.43047208398E+01 -0.27794281630E+03  0.34968150452E+03  0.00000000000E+00 0.  1.
<mgrwt>
<rscale>  0 0.17418729E+04</rscale>
<asrwt>0</asrwt>
<pdfrwt beam="1">  1        1 0.24924432E+00 0.17418729E+04</pdfrwt>
<pdfrwt beam="2">  1       -1 0.72031254E-01 0.17418729E+04</pdfrwt>
<totfact> 0.99689511E+00</totfact>
</mgrwt>
</event>
<event>
12    1  0.1541840E-007  0.2659123E+04  0.7818608E-02  0.8348391E-01
         -2   -1    0    0    0  501 -0.00000000000E+00  0.00000000000E+00  0.16805034004E+04  0.16805034004E+04  0.00000000000E+00 0. -1.
          2   -1    0    0  501    0  0.00000000000E+00 -0.00000000000E+00 -0.10519071402E+04  0.10519071402E+04  0.00000000000E+00 0.  1.
         23    2    1    2    0    0 -0.38570701599E+03 -0.39836949243E+03 -0.78784261413E+03  0.96768418442E+03  0.90821481220E+02 0.  0.
        254    2    1    2    0    0  0.38570701599E+03  0.39836949243E+03  0.14164388744E+04  0.17647263562E+04  0.89470211400E+03 0.  0.
        -24    2    4    4    0    0  0.32873063323E+02  0.62155719263E+03  0.84619479118E+03  0.10530274520E+04  0.73533719944E+02 0.  0.
         24    2    4    4    0    0  0.35283395267E+03 -0.22318770020E+03  0.57024408319E+03  0.71169890425E+03  0.83859812913E+02 0.  0.
         11    1    3    3    0    0 -0.54149908409E+02 -0.26508729938E+02 -0.55516701671E+02  0.81957485979E+02  0.00000000000E+00 0. -1.
        -11    1    3    3    0    0 -0.33155710758E+03 -0.37186076250E+03 -0.73232591246E+03  0.88572669844E+03  0.00000000000E+00 0.  1.
          4    1    6    6  502    0  0.15758586806E+03 -0.71054405250E+02  0.17989333176E+03  0.24948676344E+03  0.00000000000E+00 0. -1.
          1    1    5    5  503    0  0.25569878003E+02  0.61667643700E+03  0.83955915894E+03  0.10420188232E+04  0.00000000000E+00 0. -1.
         -2    1    5    5    0  503  0.73031853191E+01  0.48807556349E+01  0.66356322363E+01  0.11008628731E+02  0.00000000000E+00 0.  1.
         -3    1    6    6    0  502  0.19524808461E+03 -0.15213329495E+03  0.39035075143E+03  0.46221214082E+03  0.00000000000E+00 0.  1.
<mgrwt>
<rscale>  0 0.26591228E+04</rscale>
<asrwt>0</asrwt>
<pdfrwt beam="1">  1        2 0.16183187E+00 0.26591228E+04</pdfrwt>
<pdfrwt beam="2">  1       -2 0.25853898E+00 0.26591228E+04</pdfrwt>
<totfact> 0.11702428E+00</totfact>
</mgrwt>
</event>
<event>
12    1  0.1541840E-007  0.2171403E+04  0.7818608E-02  0.8530426E-01
          1   -1    0    0  501    0  0.00000000000E+00  0.00000000000E+00  0.25422212276E+04  0.25422212276E+04  0.00000000000E+00 0. -1.
         -1   -1    0    0    0  501 -0.00000000000E+00 -0.00000000000E+00 -0.46366848428E+03  0.46366848428E+03  0.00000000000E+00 0.  1.
         23    2    1    2    0    0  0.55029269315E+03 -0.37468293989E+03  0.17267630149E+04  0.18529611892E+04  0.92440822201E+02 0.  0.
        254    2    1    2    0    0 -0.55029269315E+03  0.37468293989E+03  0.35178972838E+03  0.11529285226E+04  0.87308579857E+03 0.  0.
        -24    2    4    4    0    0  0.21007857463E+03  0.11822346761E+03  0.22001996731E+03  0.33589524064E+03  0.79416817230E+02 0.  0.
         24    2    4    4    0    0 -0.76037126778E+03  0.25645947228E+03  0.13176976106E+03  0.81703328196E+03  0.79020175397E+02 0.  0.
         13    1    3    3    0    0  0.51571161029E+03 -0.36582317170E+03  0.15776948553E+04  0.16996782385E+04  0.00000000000E+00 0. -1.
        -13    1    3    3    0    0  0.34581082861E+02 -0.88597681854E+01  0.14906815960E+03  0.15328295075E+03  0.00000000000E+00 0.  1.
          4    1    6    6  502    0 -0.31256904305E+00  0.48901220621E+01 -0.20588636044E+01  0.53150646779E+01  0.00000000000E+00 0. -1.
          1    1    5    5  503    0  0.61893425736E+02  0.78308994891E+02  0.97333530429E+02  0.13941632249E+03  0.00000000000E+00 0. -1.
         -2    1    5    5    0  503  0.14818514889E+03  0.39914472719E+02  0.12268643688E+03  0.19647891816E+03  0.00000000000E+00 0.  1.
         -3    1    6    6    0  502 -0.76005869873E+03  0.25156935022E+03  0.13382862467E+03  0.81171821728E+03  0.00000000000E+00 0.  1.
<mgrwt>
<rscale>  0 0.21714031E+04</rscale>
<asrwt>0</asrwt>
<pdfrwt beam="1">  1        1 0.39111095E+00 0.21714031E+04</pdfrwt>
<pdfrwt beam="2">  1       -1 0.71333614E-01 0.21714031E+04</pdfrwt>
<totfact> 0.22968954E+00</totfact>
</mgrwt>
</event>
<event>
12    1  0.1541840E-007  0.2578276E+04  0.7818608E-02  0.8375618E-01
         -2   -1    0    0    0  501 -0.00000000000E+00  0.00000000000E+00  0.75536281615E+03  0.75536281615E+03  0.00000000000E+00 0.  1.
          2   -1    0    0  501    0  0.00000000000E+00 -0.00000000000E+00 -0.22001034334E+04  0.22001034334E+04  0.00000000000E+00 0. -1.
         23    2    1    2    0    0  0.42139122141E+03  0.85260532065E+03 -0.13444027362E+04  0.16490549799E+04  0.86355168980E+02 0.  0.
        254    2    1    2    0    0 -0.42139122141E+03 -0.85260532065E+03 -0.10033788106E+03  0.13064112697E+04  0.89002040478E+03 0.  0.
        -24    2    4    4    0    0  0.15666758102E+03 -0.10954872727E+03 -0.27523708958E+03  0.34500730127E+03  0.82030042457E+02 0.  0.
         24    2    4    4    0    0 -0.57805880243E+03 -0.74305659338E+03  0.17489920852E+03  0.96140396842E+03  0.86155541418E+02 0.  0.
         11    1    3    3    0    0  0.26787765704E+02  0.11214998201E+03 -0.18254648839E+03  0.21591299933E+03  0.00000000000E+00 0.  1.
        -11    1    3    3    0    0  0.39460345571E+03  0.74045533863E+03 -0.11618562478E+04  0.14331419806E+04  0.00000000000E+00 0. -1.
          2    1    6    6  502    0 -0.57308906543E+01 -0.31934023775E+02  0.36115402155E+01  0.32644573896E+02  0.00000000000E+00 0. -1.
          3    1    5    5  503    0  0.98528819936E+02 -0.20849912623E+02 -0.11515305586E+03  0.15297997741E+03  0.00000000000E+00 0. -1.
         -4    1    5    5    0  503  0.58138761083E+02 -0.88698814643E+02 -0.16008403372E+03  0.19202732386E+03  0.00000000000E+00 0.  1.
         -1    1    6    6    0  502 -0.57232791178E+03 -0.71112256961E+03  0.17128766831E+03  0.92875939453E+03  0.00000000000E+00 0.  1.
<mgrwt>
<rscale>  0 0.25782756E+04</rscale>
<asrwt>0</asrwt>
<pdfrwt beam="1">  1        2 0.33847745E+00 0.25782756E+04</pdfrwt>
<pdfrwt beam="2">  1       -2 0.11620966E+00 0.25782756E+04</pdfrwt>
<totfact> 0.26293654E+00</totfact>
</mgrwt>
</event>
<event>
12    1  0.1541840E-007  0.2035960E+04  0.7818608E-02  0.8589990E-01
          1   -1    0    0  501    0  0.00000000000E+00  0.00000000000E+00  0.20181351276E+04  0.20181351276E+04  0.00000000000E+00 0. -1.
         -1   -1    0    0    0  501 -0.00000000000E+00 -0.00000000000E+00 -0.51348579397E+03  0.51348579397E+03  0.00000000000E+00 0.  1.
         23    2    1    2    0    0  0.46549455405E+03 -0.44807361526E+03 -0.16724219862E+02  0.65297332153E+03  0.92947913194E+02 0.  0.
        254    2    1    2    0    0 -0.46549455405E+03  0.44807361526E+03  0.15213735535E+04  0.18786476000E+04  0.89290770593E+03 0.  0.
        -24    2    4    4    0    0 -0.25541802311E+02  0.41723884442E+03  0.13206971460E+04  0.13874931391E+04  0.78457776279E+02 0.  0.
         24    2    4    4    0    0 -0.43995275174E+03  0.30834770835E+02  0.20067640753E+03  0.49115446096E+03  0.80327312497E+02 0.  0.
         13    1    3    3    0    0  0.39750358392E+03 -0.38273040499E+03 -0.47322826124E+02  0.55383310844E+03  0.00000000000E+00 0.  1.
        -13    1    3    3    0    0  0.67990970129E+02 -0.65343210272E+02  0.30598606262E+02  0.99140213097E+02  0.00000000000E+00 0. -1.
          2    1    6    6  502    0 -0.27656742441E+03 -0.14916858453E+02  0.10384043421E+03  0.29579534934E+03  0.00000000000E+00 0. -1.
          3    1    5    5  503    0 -0.46028607742E+02  0.37073161225E+03  0.11900990068E+04  0.12473556859E+04  0.00000000000E+00 0. -1.
         -4    1    5    5    0  503  0.20486805431E+02  0.46507232170E+02  0.13059813916E+03  0.14013745322E+03  0.00000000000E+00 0.  1.
         -1    1    6    6    0  502 -0.16338532733E+03  0.45751629289E+02  0.96835973318E+02  0.19535911163E+03  0.00000000000E+00 0.  1.
<mgrwt>
<rscale>  0 0.20359604E+04</rscale>
<asrwt>0</asrwt>
<pdfrwt beam="1">  1        1 0.31048232E+00 0.20359604E+04</pdfrwt>
<pdfrwt beam="2">  1       -1 0.78997816E-01 0.20359604E+04</pdfrwt>
<totfact> 0.42919910E+00</totfact>
</mgrwt>
</event>
<event>
12    1  0.1541840E-007  0.1717212E+04  0.7818608E-02  0.8751608E-01
          2   -1    0    0  501    0  0.00000000000E+00  0.00000000000E+00  0.27017546398E+04  0.27017546398E+04  0.00000000000E+00 0. -1.
         -2   -1    0    0    0  501 -0.00000000000E+00 -0.00000000000E+00 -0.27286140353E+03  0.27286140353E+03  0.00000000000E+00 0.  1.
         23    2    1    2    0    0  0.49680959999E+03  0.67607716606E+02  0.24154496596E+03  0.56473768935E+03  0.95885896797E+02 0.  0.
        254    2    1    2    0    0 -0.49680959999E+03 -0.67607716606E+02  0.21873482703E+04  0.24098783540E+04  0.87842509264E+03 0.  0.
        -24    2    4    4    0    0  0.24198704474E+03  0.16249771164E+02  0.43415510458E+03  0.50383519202E+03  0.80854566979E+02 0.  0.
         24    2    4    4    0    0 -0.73879664473E+03 -0.83857487770E+02  0.17531931657E+04  0.19060431620E+04  0.80384690035E+02 0.  0.
         13    1    3    3    0    0  0.47004739453E+03  0.85997066996E+02  0.22271980489E+03  0.52720409722E+03  0.00000000000E+00 0.  1.
        -13    1    3    3    0    0  0.26762205460E+02 -0.18389350389E+02  0.18825161064E+02  0.37533592127E+02  0.00000000000E+00 0. -1.
          4    1    6    6  502    0 -0.27335659463E+02  0.71434010711E+01  0.10098782425E+03  0.10486566218E+03  0.00000000000E+00 0. -1.
          1    1    5    5  503    0  0.22533055586E+02 -0.20010627558E+02  0.30043449702E+02  0.42553174727E+02  0.00000000000E+00 0. -1.
         -2    1    5    5    0  503  0.21945398915E+03  0.36260398722E+02  0.40411165488E+03  0.46128201729E+03  0.00000000000E+00 0.  1.
         -3    1    6    6    0  502 -0.71146098526E+03 -0.91000888841E+02  0.16522053415E+04  0.18011774998E+04  0.00000000000E+00 0.  1.
<mgrwt>
<rscale>  0 0.17172123E+04</rscale>
<asrwt>0</asrwt>
<pdfrwt beam="1">  1        2 0.41565454E+00 0.17172123E+04</pdfrwt>
<pdfrwt beam="2">  1       -2 0.41978679E-01 0.17172123E+04</pdfrwt>
<totfact> 0.13573471E+01</totfact>
</mgrwt>
</event>
<event>
12    1  0.1541840E-007  0.1155912E+04  0.7818608E-02  0.9152347E-01
         -2   -1    0    0    0  501 -0.00000000000E+00  0.00000000000E+00  0.10266917475E+03  0.10266917475E+03  0.00000000000E+00 0.  1.
          2   -1    0    0  501    0  0.00000000000E+00 -0.00000000000E+00 -0.32534878967E+04  0.32534878967E+04  0.00000000000E+00 0. -1.
         23    2    1    2    0    0 -0.99371863837E+01 -0.19696354358E+03 -0.37611442730E+03  0.43442913018E+03  0.91505308891E+02 0.  0.
        254    2    1    2    0    0  0.99371863837E+01  0.19696354358E+03 -0.27747042946E+04  0.29217279412E+04  0.89365365485E+03 0.  0.
        -24    2    4    4    0    0  0.34537024110E+03  0.37678133812E+03 -0.17766562952E+04  0.18504275266E+04  0.79559158593E+02 0.  0.
         24    2    4    4    0    0 -0.33543305472E+03 -0.17981779454E+03 -0.99804799943E+03  0.10713004146E+04  0.82067020322E+02 0.  0.
         13    1    3    3    0    0 -0.34392465913E+02 -0.73833326671E+02 -0.86683329455E+02  0.11894621240E+03  0.00000000000E+00 0.  1.
        -13    1    3    3    0    0  0.24455279530E+02 -0.12313021691E+03 -0.28943109785E+03  0.31548291778E+03  0.00000000000E+00 0. -1.
          2    1    6    6  502    0 -0.26109630093E+03 -0.17198582835E+03 -0.76015203678E+03  0.82193766341E+03  0.00000000000E+00 0. -1.
          1    1    5    5  503    0  0.40027791371E+02  0.12586093238E+02 -0.15172591189E+03  0.15742104740E+03  0.00000000000E+00 0. -1.
         -2    1    5    5    0  503  0.30534244973E+03  0.36419524488E+03 -0.16249303833E+04  0.16930064792E+04  0.00000000000E+00 0.  1.
         -1    1    6    6    0  502 -0.74336753789E+02 -0.78319661857E+01 -0.23789596265E+03  0.24936275124E+03  0.00000000000E+00 0.  1.
<mgrwt>
<rscale>  0 0.11559116E+04</rscale>
<asrwt>0</asrwt>
<pdfrwt beam="1">  1        2 0.50053652E+00 0.11559116E+04</pdfrwt>
<pdfrwt beam="2">  1       -2 0.15795260E-01 0.11559116E+04</pdfrwt>
<totfact> 0.38908289E+01</totfact>
</mgrwt>
</event>
<event>
12    1  0.1541840E-007  0.1703420E+04  0.7818608E-02  0.8759416E-01
          2   -1    0    0  501    0  0.00000000000E+00  0.00000000000E+00  0.66367875831E+03  0.66367875831E+03  0.00000000000E+00 0. -1.
         -2   -1    0    0    0  501 -0.00000000000E+00 -0.00000000000E+00 -0.10930136521E+04  0.10930136521E+04  0.00000000000E+00 0.  1.
         23    2    1    2    0    0 -0.22020461072E+03  0.51140400718E+03 -0.41050187689E+03  0.69789565735E+03  0.92316999964E+02 0.  0.
        254    2    1    2    0    0  0.22020461072E+03 -0.51140400718E+03 -0.18833016917E+02  0.10587967531E+04  0.90037311857E+03 0.  0.
        -24    2    4    4    0    0 -0.18481270772E+03 -0.55833898943E+03  0.14636062692E+03  0.61150063566E+03  0.81322999549E+02 0.  0.
         24    2    4    4    0    0  0.40501731844E+03  0.46934982253E+02 -0.16519364383E+03  0.44729611741E+03  0.80888539922E+02 0.  0.
         11    1    3    3    0    0 -0.21694514213E+03  0.47085230662E+03 -0.35198416800E+03  0.62662584040E+03  0.00000000000E+00 0.  1.
        -11    1    3    3    0    0 -0.32594685857E+01  0.40551700560E+02 -0.58517708893E+02  0.71269816948E+02  0.00000000000E+00 0. -1.
          2    1    6    6  502    0  0.10196690410E+03 -0.51901291784E+01 -0.75497922551E+02  0.12698079887E+03  0.00000000000E+00 0. -1.
          1    1    5    5  503    0 -0.42975499565E+02 -0.21156176945E+03  0.84173039258E+02  0.23171183913E+03  0.00000000000E+00 0. -1.
         -2    1    5    5    0  503 -0.14183720816E+03 -0.34677721998E+03  0.62187587658E+02  0.37978879653E+03  0.00000000000E+00 0.  1.
         -1    1    6    6    0  502  0.30305041433E+03  0.52125111431E+02 -0.89695721281E+02  0.32031531853E+03  0.00000000000E+00 0.  1.
<mgrwt>
<rscale>  0 0.17034200E+04</rscale>
<asrwt>0</asrwt>
<pdfrwt beam="1">  1        2 0.10210443E+00 0.17034200E+04</pdfrwt>
<pdfrwt beam="2">  1       -2 0.16815594E+00 0.17034200E+04</pdfrwt>
<totfact> 0.91498785E+00</totfact>
</mgrwt>
</event>
<event>
12    1  0.1541840E-007  0.1583988E+04  0.7818608E-02  0.8830446E-01
         -2   -1    0    0    0  501 -0.00000000000E+00  0.00000000000E+00  0.46304891173E+03  0.46304891173E+03  0.00000000000E+00 0. -1.
          2   -1    0    0  501    0  0.00000000000E+00 -0.00000000000E+00 -0.13546183492E+04  0.13546183492E+04  0.00000000000E+00 0.  1.
         23    2    1    2    0    0 -0.17803164289E+03  0.33099146851E+03 -0.70538991046E+03  0.80436160448E+03  0.90399374386E+02 0.  0.
        254    2    1    2    0    0  0.17803164289E+03 -0.33099146851E+03 -0.18617952698E+03  0.10133056564E+04  0.92242881511E+03 0.  0.
        -24    2    4    4    0    0 -0.28514995608E+03  0.11191095174E+03 -0.18652522291E+03  0.36750397301E+03  0.80205690734E+02 0.  0.
         24    2    4    4    0    0  0.46318159897E+03 -0.44290242025E+03  0.34569593006E+00  0.64580168340E+03  0.79749277657E+02 0.  0.
         11    1    3    3    0    0 -0.33984054759E+02  0.93759931766E+02 -0.11656183329E+03  0.15340306960E+03  0.00000000000E+00 0. -1.
        -11    1    3    3    0    0 -0.14404758813E+03  0.23723153675E+03 -0.58882807717E+03  0.65095853488E+03  0.00000000000E+00 0.  1.
          4    1    6    6  502    0  0.84339797036E+01 -0.21629376523E+02  0.11284772624E+02  0.25812943179E+02  0.00000000000E+00 0. -1.
          1    1    5    5  503    0 -0.39080388122E+01 -0.92884587820E+01 -0.31652442082E+01  0.10562528334E+02  0.00000000000E+00 0. -1.
         -2    1    5    5    0  503 -0.28124191727E+03  0.12119941052E+03 -0.18335997870E+03  0.35694144468E+03  0.00000000000E+00 0.  1.
         -3    1    6    6    0  502  0.45474761927E+03 -0.42127304373E+03 -0.10939076694E+02  0.61998874022E+03  0.00000000000E+00 0.  1.
<mgrwt>
<rscale>  0 0.15839881E+04</rscale>
<asrwt>0</asrwt>
<pdfrwt beam="1">  1        2 0.20840282E+00 0.15839881E+04</pdfrwt>
<pdfrwt beam="2">  1       -2 0.71238295E-01 0.15839881E+04</pdfrwt>
<totfact> 0.26393057E+01</totfact>
</mgrwt>
</event>
<event>
12    1  0.1541840E-007  0.1476238E+04  0.7818608E-02  0.8900410E-01
          2   -1    0    0  501    0  0.00000000000E+00  0.00000000000E+00  0.12519683792E+04  0.12519683792E+04  0.00000000000E+00 0. -1.
         -2   -1    0    0    0  501 -0.00000000000E+00 -0.00000000000E+00 -0.43517017397E+03  0.43517017397E+03  0.00000000000E+00 0.  1.
         23    2    1    2    0    0  0.36256137646E+03  0.23371302862E+03  0.40042555251E+03  0.59579798091E+03  0.92531505455E+02 0.  0.
        254    2    1    2    0    0 -0.36256137646E+03 -0.23371302862E+03  0.41637265273E+03  0.10913405723E+04  0.91191311389E+03 0.  0.
        -24    2    4    4    0    0  0.39211879013E+01 -0.24287942796E+02 -0.26943383430E+03  0.28204814758E+03  0.79694959757E+02 0.  0.
         24    2    4    4    0    0 -0.36648256436E+03 -0.20942508582E+03  0.68580648702E+03  0.80929242468E+03  0.80345220486E+02 0.  0.
         13    1    3    3    0    0  0.34699932604E+03  0.23462991058E+03  0.35947326539E+03  0.55197894501E+03  0.00000000000E+00 0.  1.
        -13    1    3    3    0    0  0.15562050422E+02 -0.91688196331E+00  0.40952287125E+02  0.43819035893E+02  0.00000000000E+00 0. -1.
          4    1    6    6  502    0 -0.23684200766E+03 -0.12551947085E+03  0.36088262912E+03  0.44953925987E+03  0.00000000000E+00 0. -1.
          3    1    5    5  503    0 -0.16972729474E+02 -0.20239213343E+02 -0.25492674909E+03  0.25629152679E+03  0.00000000000E+00 0. -1.
         -4    1    5    5    0  503  0.20893917375E+02 -0.40487294529E+01 -0.14507085208E+02  0.25756620794E+02  0.00000000000E+00 0.  1.
         -3    1    6    6    0  502 -0.12964055670E+03 -0.83905614970E+02  0.32492385790E+03  0.35975316482E+03  0.00000000000E+00 0.  1.
<mgrwt>
<rscale>  0 0.14762375E+04</rscale>
<asrwt>0</asrwt>
<pdfrwt beam="1">  1        2 0.19261052E+00 0.14762375E+04</pdfrwt>
<pdfrwt beam="2">  1       -2 0.66949258E-01 0.14762375E+04</pdfrwt>
<totfact> 0.34972760E+01</totfact>
</mgrwt>
</event>
<event>
12    1  0.1541840E-007  0.1257201E+04  0.7818608E-02  0.9064211E-01
         -1   -1    0    0    0  501 -0.00000000000E+00  0.00000000000E+00  0.64872422645E+03  0.64872422645E+03  0.00000000000E+00 0.  1.
          1   -1    0    0  501    0  0.00000000000E+00 -0.00000000000E+00 -0.60910060423E+03  0.60910060423E+03  0.00000000000E+00 0. -1.
         23    2    1    2    0    0 -0.83446561343E+02 -0.24257897902E+03  0.15464272187E+03  0.31284974951E+03  0.90292329023E+02 0.  0.
        254    2    1    2    0    0  0.83446561343E+02  0.24257897902E+03 -0.11501909965E+03  0.94497508118E+03  0.90218657776E+03 0.  0.
        -24    2    4    4    0    0  0.20504799992E+03  0.55935613719E+02  0.35341150937E+03  0.42010193367E+03  0.80077865642E+02 0.  0.
         24    2    4    4    0    0 -0.12160143858E+03  0.18664336530E+03 -0.46843060901E+03  0.52487314750E+03  0.80261633646E+02 0.  0.
         11    1    3    3    0    0 -0.55847037820E+02 -0.91304318229E+02  0.10825908600E+03  0.15223468679E+03  0.00000000000E+00 0. -1.
        -11    1    3    3    0    0 -0.27599523523E+02 -0.15127466079E+03  0.46383635864E+02  0.16061506272E+03  0.00000000000E+00 0.  1.
          2    1    6    6  502    0 -0.65060153130E+01  0.61788309950E+02 -0.17688752159E+03  0.18748151582E+03  0.00000000000E+00 0. -1.
          1    1    5    5  503    0  0.44761990291E+02 -0.19542701747E+02  0.94509079821E+02  0.10638382929E+03  0.00000000000E+00 0. -1.
         -2    1    5    5    0  503  0.16028600963E+03  0.75478315466E+02  0.25890242955E+03  0.31371810438E+03  0.00000000000E+00 0.  1.
         -1    1    6    6    0  502 -0.11509542326E+03  0.12485505535E+03 -0.29154308743E+03  0.33739163168E+03  0.00000000000E+00 0.  1.
<mgrwt>
<rscale>  0 0.12572006E+04</rscale>
<asrwt>0</asrwt>
<pdfrwt beam="1">  1        1 0.93707785E-01 0.12572006E+04</pdfrwt>
<pdfrwt beam="2">  1       -1 0.99803727E-01 0.12572006E+04</pdfrwt>
<totfact> 0.31637598E+01</totfact>
</mgrwt>
</event>
<event>
12    1  0.1541840E-007  0.1827397E+04  0.7818608E-02  0.8691864E-01
          1   -1    0    0  501    0  0.00000000000E+00  0.00000000000E+00  0.13753588450E+04  0.13753588450E+04  0.00000000000E+00 0. -1.
         -1   -1    0    0    0  501 -0.00000000000E+00 -0.00000000000E+00 -0.60700138044E+03  0.60700138044E+03  0.00000000000E+00 0.  1.
         23    2    1    2    0    0 -0.10917949825E+03 -0.67294376859E+03  0.21704813449E+03  0.72093390770E+03  0.88669769740E+02 0.  0.
        254    2    1    2    0    0  0.10917949825E+03  0.67294376859E+03  0.55130933002E+03  0.12614263177E+04  0.90690732662E+03 0.  0.
        -24    2    4    4    0    0 -0.21538336200E+03 -0.12887015248E+03  0.16202047735E+03  0.30953112683E+03  0.81002312113E+02 0.  0.
         24    2    4    4    0    0  0.32456286026E+03  0.80181392107E+03  0.38928885267E+03  0.95189519086E+03  0.79448280576E+02 0.  0.
         11    1    3    3    0    0 -0.66769261472E+02 -0.31649174415E+03  0.59360665370E+02  0.32885992000E+03  0.00000000000E+00 0.  1.
        -11    1    3    3    0    0 -0.42410236783E+02 -0.35645202444E+03  0.15768746912E+03  0.39207398770E+03  0.00000000000E+00 0. -1.
          4    1    6    6  502    0  0.24290780796E+01 -0.80021906300E+00  0.47870726698E+01  0.54274151869E+01  0.00000000000E+00 0. -1.
          1    1    5    5  503    0 -0.47905859070E+01  0.95575146840E+01  0.16517222308E+01  0.10817762550E+02  0.00000000000E+00 0. -1.
         -2    1    5    5    0  503 -0.21059277610E+03 -0.13842766717E+03  0.16036875512E+03  0.29871336428E+03  0.00000000000E+00 0.  1.
         -3    1    6    6    0  502  0.32213378218E+03  0.80261414014E+03  0.38450178000E+03  0.94646777567E+03  0.00000000000E+00 0.  1.
<mgrwt>
<rscale>  0 0.18273967E+04</rscale>
<asrwt>0</asrwt>
<pdfrwt beam="1">  1        1 0.21159367E+00 0.18273967E+04</pdfrwt>
<pdfrwt beam="2">  1       -1 0.93384828E-01 0.18273967E+04</pdfrwt>
<totfact> 0.83764896E+00</totfact>
</mgrwt>
</event>
<event>
12    1  0.1541840E-007  0.1162112E+04  0.7818608E-02  0.9146682E-01
          1   -1    0    0  501    0  0.00000000000E+00  0.00000000000E+00  0.64096910954E+03  0.64096910954E+03  0.00000000000E+00 0. -1.
         -1   -1    0    0    0  501 -0.00000000000E+00 -0.00000000000E+00 -0.52674296664E+03  0.52674296664E+03  0.00000000000E+00 0.  1.
         23    2    1    2    0    0 -0.38991460433E+02 -0.72441101457E+02 -0.16787550462E+03  0.20781533978E+03  0.90757827371E+02 0.  0.
        254    2    1    2    0    0  0.38991460433E+02  0.72441101457E+02  0.28210164752E+03  0.95989673640E+03  0.91381199262E+03 0.  0.
        -24    2    4    4    0    0  0.90015122324E+02  0.11704065514E+02 -0.32288420683E+03  0.34463777369E+03  0.79254505465E+02 0.  0.
         24    2    4    4    0    0 -0.51023661891E+02  0.60737035943E+02  0.60498585435E+03  0.61525896271E+03  0.79014591243E+02 0.  0.
         13    1    3    3    0    0  0.46361894955E+01 -0.74524579068E+02 -0.13039665603E+03  0.15026208784E+03  0.00000000000E+00 0.  1.
        -13    1    3    3    0    0 -0.43627649929E+02  0.20834776107E+01 -0.37478848596E+02  0.57553251944E+02  0.00000000000E+00 0. -1.
          2    1    6    6  502    0 -0.47345123702E+02 -0.32757194106E+01  0.23238910847E+03  0.23718555777E+03  0.00000000000E+00 0. -1.
          1    1    5    5  503    0  0.48362527105E+02 -0.19964455616E+02 -0.24688352129E+03  0.25236677000E+03  0.00000000000E+00 0. -1.
         -4    1    5    5    0  503  0.41652595220E+02  0.31668521130E+02 -0.76000685538E+02  0.92271003686E+02  0.00000000000E+00 0.  1.
         -1    1    6    6    0  502 -0.36785381891E+01  0.64012755354E+02  0.37259674588E+03  0.37807340495E+03  0.00000000000E+00 0.  1.
<mgrwt>
<rscale>  0 0.11621118E+04</rscale>
<asrwt>0</asrwt>
<pdfrwt beam="1">  1        1 0.98610632E-01 0.11621118E+04</pdfrwt>
<pdfrwt beam="2">  1       -1 0.81037380E-01 0.11621118E+04</pdfrwt>
<totfact> 0.46850192E+01</totfact>
</mgrwt>
</event>
<event>
12    1  0.1541840E-007  0.1369009E+04  0.7818608E-02  0.8976562E-01
         -1   -1    0    0    0  501 -0.00000000000E+00  0.00000000000E+00  0.76397722076E+03  0.76397722076E+03  0.00000000000E+00 0.  1.
          1   -1    0    0  501    0  0.00000000000E+00 -0.00000000000E+00 -0.61329881189E+03  0.61329881189E+03  0.00000000000E+00 0. -1.
         23    2    1    2    0    0  0.16471717121E+03 -0.49658814797E+02  0.38171413874E+03  0.42851175281E+03  0.91207972271E+02 0.  0.
        254    2    1    2    0    0 -0.16471717121E+03  0.49658814797E+02 -0.23103572988E+03  0.94876427984E+03  0.90397920653E+03 0.  0.
        -24    2    4    4    0    0 -0.20550129505E+03 -0.39336032458E+03 -0.21604714246E+02  0.45075291348E+03  0.75817531698E+02 0.  0.
         24    2    4    4    0    0  0.40784123843E+02  0.44301913938E+03 -0.20943101563E+03  0.49801136635E+03  0.78896565808E+02 0.  0.
         13    1    3    3    0    0  0.10539052194E+03 -0.38695535045E+02  0.33157282118E+03  0.35006434022E+03  0.00000000000E+00 0.  1.
        -13    1    3    3    0    0  0.59326649267E+02 -0.10963279752E+02  0.50141317567E+02  0.78447412599E+02  0.00000000000E+00 0. -1.
          4    1    6    6  502    0  0.49379108603E+02  0.43834821022E+03 -0.20923267084E+03  0.48822716057E+03  0.00000000000E+00 0. -1.
          1    1    5    5  503    0 -0.92018399471E+02 -0.24999554914E+03 -0.27541784487E+02  0.26781282704E+03  0.00000000000E+00 0. -1.
         -2    1    5    5    0  503 -0.11348289558E+03 -0.14336477544E+03  0.59370702409E+01  0.18294008644E+03  0.00000000000E+00 0.  1.
         -3    1    6    6    0  502 -0.85949847602E+01  0.46709291622E+01 -0.19834479062E+00  0.97842057891E+01  0.00000000000E+00 0.  1.
<mgrwt>
<rscale>  0 0.13690089E+04</rscale>
<asrwt>0</asrwt>
<pdfrwt beam="1">  1        1 0.94353664E-01 0.13690089E+04</pdfrwt>
<pdfrwt beam="2">  1       -1 0.11753496E+00 0.13690089E+04</pdfrwt>
<totfact> 0.21124603E+01</totfact>
</mgrwt>
</event>
<event>
12    1  0.1541840E-007  0.1556721E+04  0.7818608E-02  0.8847586E-01
          1   -1    0    0  501    0  0.00000000000E+00  0.00000000000E+00  0.19708820899E+04  0.19708820899E+04  0.00000000000E+00 0. -1.
         -1   -1    0    0    0  501 -0.00000000000E+00 -0.00000000000E+00 -0.30739782953E+03  0.30739782953E+03  0.00000000000E+00 0.  1.
         23    2    1    2    0    0  0.62584348879E+02  0.28536941952E+03 -0.58071112582E+02  0.31218145128E+03  0.93447836167E+02 0.  0.
        254    2    1    2    0    0 -0.62584348879E+02 -0.28536941952E+03  0.17215553729E+04  0.19660984681E+04  0.90356946495E+03 0.  0.
        -24    2    4    4    0    0  0.38591018065E+03 -0.29151604501E+03  0.80914354295E+03  0.94640024186E+03  0.83975428982E+02 0.  0.
         24    2    4    4    0    0 -0.44849452953E+03  0.61466254903E+01  0.91241183000E+03  0.10196982263E+04  0.78128107194E+02 0.  0.
         13    1    3    3    0    0  0.70657418901E+02  0.28896615143E+03 -0.53573514641E+02  0.30226483254E+03  0.00000000000E+00 0.  1.
        -13    1    3    3    0    0 -0.80730700218E+01 -0.35967319104E+01 -0.44975979414E+01  0.99166187410E+01  0.00000000000E+00 0. -1.
          2    1    6    6  502    0 -0.19721678743E+03  0.38599864453E+02  0.37082087312E+03  0.42177307966E+03  0.00000000000E+00 0. -1.
          1    1    5    5  503    0  0.11342500005E+03 -0.13498123997E+03  0.30735125205E+03  0.35433029495E+03  0.00000000000E+00 0. -1.
         -2    1    5    5    0  503  0.27248518060E+03 -0.15653480504E+03  0.50179229090E+03  0.59206994691E+03  0.00000000000E+00 0.  1.
         -1    1    6    6    0  502 -0.25127774210E+03 -0.32453238963E+02  0.54159095688E+03  0.59792514662E+03  0.00000000000E+00 0.  1.
<mgrwt>
<rscale>  0 0.15567208E+04</rscale>
<asrwt>0</asrwt>
<pdfrwt beam="1">  1        1 0.30321262E+00 0.15567208E+04</pdfrwt>
<pdfrwt beam="2">  1       -1 0.47291975E-01 0.15567208E+04</pdfrwt>
<totfact> 0.13402938E+01</totfact>
</mgrwt>
</event>
<event>
12    1  0.1541840E-007  0.1828301E+04  0.7818608E-02  0.8691392E-01
          1   -1    0    0  501    0  0.00000000000E+00  0.00000000000E+00  0.16242977985E+04  0.16242977985E+04  0.00000000000E+00 0. -1.
         -1   -1    0    0    0  501 -0.00000000000E+00 -0.00000000000E+00 -0.51448150243E+03  0.51448150243E+03  0.00000000000E+00 0.  1.
         23    2    1    2    0    0  0.57182648024E+03 -0.39063891530E+03  0.24454087288E+03  0.74008806602E+03  0.91355466805E+02 0.  0.
        254    2    1    2    0    0 -0.57182648024E+03  0.39063891530E+03  0.86527542319E+03  0.13986912349E+04  0.85325923786E+03 0.  0.
        -24    2    4    4    0    0 -0.32145792989E+03 -0.21886972512E+03  0.15549463221E+03  0.42683878546E+03  0.82301949335E+02 0.  0.
         24    2    4    4    0    0 -0.25036855035E+03  0.60950864041E+03  0.70978079097E+03  0.97185244945E+03  0.80766444300E+02 0.  0.
         11    1    3    3    0    0  0.34964630011E+02 -0.22104886467E+02 -0.71086399082E+01  0.41972420932E+02  0.00000000000E+00 0.  1.
        -11    1    3    3    0    0  0.53686185023E+03 -0.36853402883E+03  0.25164951279E+03  0.69811564509E+03  0.00000000000E+00 0. -1.
          4    1    6    6  502    0 -0.91100885531E+02  0.14745668537E+03  0.21819227097E+03  0.27865877434E+03  0.00000000000E+00 0. -1.
          1    1    5    5  503    0 -0.13818008710E+03 -0.55768469474E+02  0.85097102560E+02  0.17159654869E+03  0.00000000000E+00 0. -1.
         -2    1    5    5    0  503 -0.18327784279E+03 -0.16310125564E+03  0.70397529651E+02  0.25524223677E+03  0.00000000000E+00 0.  1.
         -3    1    6    6    0  502 -0.15926766482E+03  0.46205195504E+03  0.49158852000E+03  0.69319367511E+03  0.00000000000E+00 0.  1.
<mgrwt>
<rscale>  0 0.18283010E+04</rscale>
<asrwt>0</asrwt>
<pdfrwt beam="1">  1        1 0.24989197E+00 0.18283010E+04</pdfrwt>
<pdfrwt beam="2">  1       -1 0.79151001E-01 0.18283010E+04</pdfrwt>
<totfact> 0.80655418E+00</totfact>
</mgrwt>
</event>
<event>
12    1  0.1541840E-007  0.2519826E+04  0.7818608E-02  0.8395956E-01
         -1   -1    0    0    0  501 -0.00000000000E+00  0.00000000000E+00  0.13594329729E+04  0.13594329729E+04  0.00000000000E+00 0.  1.
          1   -1    0    0  501    0  0.00000000000E+00 -0.00000000000E+00 -0.11676786358E+04  0.11676786358E+04  0.00000000000E+00 0. -1.
         23    2    1    2    0    0  0.98602716953E+03  0.99899356711E+02 -0.38638551244E+03  0.10676118021E+04  0.90949080120E+02 0.  0.
        254    2    1    2    0    0 -0.98602716953E+03 -0.99899356711E+02  0.57813984956E+03  0.14594998066E+04  0.90203355776E+03 0.  0.
        -24    2    4    4    0    0 -0.26805604943E+03  0.36025150283E+03  0.34458876468E+03  0.57169036701E+03  0.80332235512E+02 0.  0.
         24    2    4    4    0    0 -0.71797112011E+03 -0.46015085954E+03  0.23355108489E+03  0.88780943960E+03  0.80238076693E+02 0.  0.
         13    1    3    3    0    0  0.86111025825E+03  0.83986408998E+02 -0.36857595409E+03  0.94043225577E+03  0.00000000000E+00 0. -1.
        -13    1    3    3    0    0  0.12491691129E+03  0.15912947713E+02 -0.17809558353E+02  0.12717954631E+03  0.00000000000E+00 0.  1.
          2    1    6    6  502    0 -0.62988567998E+03 -0.38304540270E+03  0.17885521084E+03  0.75859668917E+03  0.00000000000E+00 0. -1.
          3    1    5    5  503    0 -0.22580527891E+03  0.27944300980E+03  0.30875390882E+03  0.47371446666E+03  0.00000000000E+00 0. -1.
         -4    1    5    5    0  503 -0.42250770519E+02  0.80808493028E+02  0.35834855855E+02  0.97975900348E+02  0.00000000000E+00 0.  1.
         -1    1    6    6    0  502 -0.88085440133E+02 -0.77105456840E+02  0.54695874049E+02  0.12921275044E+03  0.00000000000E+00 0.  1.
<mgrwt>
<rscale>  0 0.25198261E+04</rscale>
<asrwt>0</asrwt>
<pdfrwt beam="1">  1        1 0.17964287E+00 0.25198261E+04</pdfrwt>
<pdfrwt beam="2">  1       -1 0.20914354E+00 0.25198261E+04</pdfrwt>
<totfact> 0.13042599E+00</totfact>
</mgrwt>
</event>
<event>
12    1  0.1541840E-007  0.1984237E+04  0.7818608E-02  0.8614026E-01
          1   -1    0    0  501    0  0.00000000000E+00  0.00000000000E+00  0.14473440256E+04  0.14473440256E+04  0.00000000000E+00 0. -1.
         -1   -1    0    0    0  501 -0.00000000000E+00 -0.00000000000E+00 -0.68007278148E+03  0.68007278148E+03  0.00000000000E+00 0.  1.
         23    2    1    2    0    0  0.64874926313E+03  0.31332260428E+03  0.65764483752E+03  0.97982481945E+03  0.92267457640E+02 0.  0.
        254    2    1    2    0    0 -0.64874926313E+03 -0.31332260428E+03  0.10962640661E+03  0.11475919876E+04  0.88651156807E+03 0.  0.
        -24    2    4    4    0    0 -0.84321830096E+03 -0.33769602359E+03  0.16986845780E+03  0.92784558815E+03  0.83584897410E+02 0.  0.
         24    2    4    4    0    0  0.19446903783E+03  0.24373419310E+02 -0.60242051188E+02  0.21974639950E+03  0.79038630540E+02 0.  0.
         11    1    3    3    0    0  0.44128673971E+03  0.16593744737E+03  0.41161743119E+03  0.62585791738E+03  0.00000000000E+00 0. -1.
        -11    1    3    3    0    0  0.20746252341E+03  0.14738515691E+03  0.24602740633E+03  0.35396690207E+03  0.00000000000E+00 0.  1.
          4    1    6    6  502    0  0.71720180452E+02  0.44934525078E+02 -0.40155650798E+02  0.93676956179E+02  0.00000000000E+00 0. -1.
          3    1    5    5  503    0 -0.67557197719E+03 -0.26045322699E+03  0.16788886454E+03  0.74324965567E+03  0.00000000000E+00 0. -1.
         -4    1    5    5    0  503 -0.16764632376E+03 -0.77242796595E+02  0.19795932595E+01  0.18459593247E+03  0.00000000000E+00 0.  1.
         -3    1    6    6    0  502  0.12274885738E+03 -0.20561105769E+02 -0.20086400391E+02  0.12606944332E+03  0.00000000000E+00 0.  1.
<mgrwt>
<rscale>  0 0.19842372E+04</rscale>
<asrwt>0</asrwt>
<pdfrwt beam="1">  1        1 0.22266831E+00 0.19842372E+04</pdfrwt>
<pdfrwt beam="2">  1       -1 0.10462658E+00 0.19842372E+04</pdfrwt>
<totfact> 0.56758738E+00</totfact>
</mgrwt>
</event>
<event>
12    1  0.1541840E-007  0.2202321E+04  0.7818608E-02  0.8517463E-01
         -2   -1    0    0    0  501 -0.00000000000E+00  0.00000000000E+00  0.12372745961E+04  0.12372745961E+04  0.00000000000E+00 0.  1.
          2   -1    0    0  501    0  0.00000000000E+00 -0.00000000000E+00 -0.98002061129E+03  0.98002061129E+03  0.00000000000E+00 0. -1.
         23    2    1    2    0    0 -0.15162204544E+03 -0.27748562362E+02  0.10096428901E+04  0.10255622229E+04  0.92950956193E+02 0.  0.
        254    2    1    2    0    0  0.15162204544E+03  0.27748562362E+02 -0.75238890525E+03  0.11917329845E+04  0.91125145495E+03 0.  0.
        -24    2    4    4    0    0  0.41946535209E+02  0.32203974305E+03 -0.79690797535E+03  0.86436204684E+03  0.81180779258E+02 0.  0.
         24    2    4    4    0    0  0.10967551023E+03 -0.29429118069E+03  0.44519070098E+02  0.32737093763E+03  0.80955337217E+02 0.  0.
         11    1    3    3    0    0 -0.10589668170E+03 -0.46604082101E+02  0.48570309786E+03  0.49929304715E+03  0.00000000000E+00 0.  1.
        -11    1    3    3    0    0 -0.45725363739E+02  0.18855519739E+02  0.52393979222E+03  0.52626917579E+03  0.00000000000E+00 0. -1.
          4    1    6    6  502    0  0.98284939164E+02 -0.28824035539E+03  0.27160656257E+02  0.30574520927E+03  0.00000000000E+00 0. -1.
          1    1    5    5  503    0 -0.15442348928E+02  0.16394177386E+03 -0.34838147192E+03  0.38533754208E+03  0.00000000000E+00 0. -1.
         -4    1    5    5    0  503  0.57388884137E+02  0.15809796920E+03 -0.44852650343E+03  0.47902450476E+03  0.00000000000E+00 0.  1.
         -3    1    6    6    0  502  0.11390571062E+02 -0.60508253006E+01  0.17358413841E+02  0.21625728358E+02  0.00000000000E+00 0.  1.
<mgrwt>
<rscale>  0 0.22023211E+04</rscale>
<asrwt>0</asrwt>
<pdfrwt beam="1">  1        2 0.15077240E+00 0.22023211E+04</pdfrwt>
<pdfrwt beam="2">  1       -2 0.19034994E+00 0.22023211E+04</pdfrwt>
<totfact> 0.36549389E+00</totfact>
</mgrwt>
</event>
<event>
12    1  0.1541840E-007  0.1810511E+04  0.7818608E-02  0.8700730E-01
         -1   -1    0    0    0  501 -0.00000000000E+00  0.00000000000E+00  0.25285273698E+03  0.25285273698E+03  0.00000000000E+00 0.  1.
          1   -1    0    0  501    0  0.00000000000E+00 -0.00000000000E+00 -0.32409688694E+04  0.32409688694E+04  0.00000000000E+00 0. -1.
         23    2    1    2    0    0 -0.95352402352E+02  0.22538698153E+03 -0.23701380478E+04  0.23844374475E+04  0.89978905456E+02 0.  0.
        254    2    1    2    0    0  0.95352402352E+02 -0.22538698153E+03 -0.61797808459E+03  0.11093841588E+04  0.88822571836E+03 0.  0.
        -24    2    4    4    0    0  0.45395528227E+03 -0.16533469149E+03 -0.15094120267E+03  0.51217966458E+03  0.78318603397E+02 0.  0.
         24    2    4    4    0    0 -0.35860287992E+03 -0.60052290034E+02 -0.46703688192E+03  0.59720449425E+03  0.79545306908E+02 0.  0.
         11    1    3    3    0    0 -0.29107017381E+02  0.50603120959E+02 -0.98723935757E+03  0.98896382313E+03  0.00000000000E+00 0. -1.
        -11    1    3    3    0    0 -0.66245384971E+02  0.17478386057E+03 -0.13828986903E+04  0.13954736244E+04  0.00000000000E+00 0.  1.
          2    1    6    6  502    0 -0.29167032432E+03 -0.38867836813E+02 -0.41954217319E+03  0.51244309139E+03  0.00000000000E+00 0. -1.
          1    1    5    5  503    0  0.37088705743E+03 -0.14310893984E+03 -0.15351621881E+03  0.42615092100E+03  0.00000000000E+00 0. -1.
         -2    1    5    5    0  503  0.83068224837E+02 -0.22225751647E+02  0.25750161395E+01  0.86028743580E+02  0.00000000000E+00 0.  1.
         -1    1    6    6    0  502 -0.66932555598E+02 -0.21184453222E+02 -0.47494708733E+02  0.84761402860E+02  0.00000000000E+00 0.  1.
<mgrwt>
<rscale>  0 0.18105114E+04</rscale>
<asrwt>0</asrwt>
<pdfrwt beam="1">  1        1 0.49861059E+00 0.18105114E+04</pdfrwt>
<pdfrwt beam="2">  1       -1 0.38900422E-01 0.18105114E+04</pdfrwt>
<totfact> 0.24032386E+00</totfact>
</mgrwt>
</event>
<event>
12    1  0.1541840E-007  0.1849492E+04  0.7818608E-02  0.8680414E-01
         -2   -1    0    0    0  501 -0.00000000000E+00  0.00000000000E+00  0.11835122617E+04  0.11835122617E+04  0.00000000000E+00 0.  1.
          2   -1    0    0  501    0  0.00000000000E+00 -0.00000000000E+00 -0.72255708089E+03  0.72255708089E+03  0.00000000000E+00 0. -1.
         23    2    1    2    0    0  0.20233510855E+03  0.66558580427E+01  0.86975039866E+03  0.89794390104E+03  0.94094085027E+02 0.  0.
        254    2    1    2    0    0 -0.20233510855E+03 -0.66558580427E+01 -0.40879521788E+03  0.10081254415E+04  0.89901033315E+03 0.  0.
        -24    2    4    4    0    0 -0.29091152048E+03 -0.39764507495E+03 -0.30939942986E+03  0.58734653826E+03  0.80602918268E+02 0.  0.
         24    2    4    4    0    0  0.88576411925E+02  0.39098921691E+03 -0.99395788021E+02  0.42077890328E+03  0.80355549158E+02 0.  0.
         13    1    3    3    0    0  0.73816885934E+02  0.37220560337E+02  0.22277359207E+03  0.23761813080E+03  0.00000000000E+00 0.  1.
        -13    1    3    3    0    0  0.12851822262E+03 -0.30564702295E+02  0.64697680660E+03  0.66032577024E+03  0.00000000000E+00 0. -1.
          2    1    6    6  502    0  0.92339723624E+02  0.23778332236E+03 -0.72482747892E+02  0.26518160135E+03  0.00000000000E+00 0. -1.
          1    1    5    5  503    0 -0.14472315487E+03 -0.13705353626E+03 -0.10458106302E+03  0.22509034209E+03  0.00000000000E+00 0. -1.
         -2    1    5    5    0  503 -0.14618836561E+03 -0.26059153868E+03 -0.20481836683E+03  0.36225619617E+03  0.00000000000E+00 0.  1.
         -1    1    6    6    0  502 -0.37633116993E+01  0.15320589455E+03 -0.26913040128E+02  0.15559730193E+03  0.00000000000E+00 0.  1.
<mgrwt>
<rscale>  0 0.18494920E+04</rscale>
<asrwt>0</asrwt>
<pdfrwt beam="1">  1        2 0.11116263E+00 0.18494920E+04</pdfrwt>
<pdfrwt beam="2">  1       -2 0.18207881E+00 0.18494920E+04</pdfrwt>
<totfact> 0.64872233E+00</totfact>
</mgrwt>
</event>
<event>
12    1  0.1541840E-007  0.1544863E+04  0.7818608E-02  0.8855155E-01
         -2   -1    0    0    0  501 -0.00000000000E+00  0.00000000000E+00  0.54715956181E+03  0.54715956181E+03  0.00000000000E+00 0.  1.
          2   -1    0    0  501    0  0.00000000000E+00 -0.00000000000E+00 -0.10904509953E+04  0.10904509953E+04  0.00000000000E+00 0. -1.
         23    2    1    2    0    0  0.26868478178E+03  0.42517127181E+03 -0.20030816797E+03  0.54930683774E+03  0.93018909356E+02 0.  0.
        254    2    1    2    0    0 -0.26868478178E+03 -0.42517127181E+03 -0.34298326555E+03  0.10883037194E+04  0.90211160223E+03 0.  0.
        -24    2    4    4    0    0  0.29148556353E+03  0.32477433892E+02 -0.65784716805E+02  0.30921240628E+03  0.72567663382E+02 0.  0.
         24    2    4    4    0    0 -0.56017034532E+03 -0.45764870570E+03 -0.27719854875E+03  0.77909131313E+03  0.83132936671E+02 0.  0.
         11    1    3    3    0    0  0.19340544391E+03  0.35399727970E+03 -0.18778866288E+03  0.44495429167E+03  0.00000000000E+00 0. -1.
        -11    1    3    3    0    0  0.75279337873E+02  0.71173992107E+02 -0.12519505089E+02  0.10435254607E+03  0.00000000000E+00 0.  1.
          2    1    6    6  502    0 -0.49019541590E+03 -0.42978524467E+03 -0.25982715477E+03  0.70179559180E+03  0.00000000000E+00 0. -1.
          3    1    5    5  503    0  0.27362800785E+03  0.34183237560E+02 -0.79095778641E+02  0.28687440215E+03  0.00000000000E+00 0. -1.
         -4    1    5    5    0  503  0.17857555686E+02 -0.17058036683E+01  0.13311061835E+02  0.22338004128E+02  0.00000000000E+00 0.  1.
         -1    1    6    6    0  502 -0.69974929416E+02 -0.27863461025E+02 -0.17371393982E+02  0.77295721329E+02  0.00000000000E+00 0.  1.
<mgrwt>
<rscale>  0 0.15448633E+04</rscale>
<asrwt>0</asrwt>
<pdfrwt beam="1">  1        2 0.16776169E+00 0.15448633E+04</pdfrwt>
<pdfrwt beam="2">  1       -2 0.84178395E-01 0.15448633E+04</pdfrwt>
<totfact> 0.26202373E+01</totfact>
</mgrwt>
</event>
<event>
12    1  0.1541840E-007  0.1896771E+04  0.7818608E-02  0.8656465E-01
          2   -1    0    0  501    0  0.00000000000E+00  0.00000000000E+00  0.20380652581E+04  0.20380652581E+04  0.00000000000E+00 0. -1.
         -2   -1    0    0    0  501 -0.00000000000E+00 -0.00000000000E+00 -0.44131814319E+03  0.44131814319E+03  0.00000000000E+00 0.  1.
         23    2    1    2    0    0 -0.37548021608E+03 -0.13874908879E+03 -0.18803181896E+03  0.45196897975E+03  0.93184180028E+02 0.  0.
        254    2    1    2    0    0  0.37548021608E+03  0.13874908879E+03  0.17847789339E+04  0.20274144215E+04  0.87449224787E+03 0.  0.
        -24    2    4    4    0    0  0.70901166603E+02 -0.20843502826E+03  0.14046985376E+04  0.14240545196E+04  0.79253750414E+02 0.  0.
         24    2    4    4    0    0  0.30457904947E+03  0.34718411705E+03  0.38008039632E+03  0.60335990194E+03  0.79226606002E+02 0.  0.
         11    1    3    3    0    0 -0.73479196857E+02 -0.50453399822E+02 -0.80756743286E+01  0.89498348813E+02  0.00000000000E+00 0. -1.
        -11    1    3    3    0    0 -0.30200101922E+03 -0.88295688971E+02 -0.17995614463E+03  0.36247063093E+03  0.00000000000E+00 0.  1.
          2    1    6    6  502    0 -0.13165409053E+01 -0.19488151192E+01 -0.12178288285E+01  0.26484462199E+01  0.00000000000E+00 0. -1.
          1    1    5    5  503    0 -0.66687850417E+01 -0.10299131427E+02  0.22998970593E+02  0.26067171892E+02  0.00000000000E+00 0. -1.
         -2    1    5    5    0  503  0.77569951645E+02 -0.19813589683E+03  0.13816995670E+04  0.13979873477E+04  0.00000000000E+00 0.  1.
         -1    1    6    6    0  502  0.30589559038E+03  0.34913293217E+03  0.38129822515E+03  0.60071145572E+03  0.00000000000E+00 0.  1.
<mgrwt>
<rscale>  0 0.18967711E+04</rscale>
<asrwt>0</asrwt>
<pdfrwt beam="1">  1        2 0.31354850E+00 0.18967711E+04</pdfrwt>
<pdfrwt beam="2">  1       -2 0.67895100E-01 0.18967711E+04</pdfrwt>
<totfact> 0.11842551E+01</totfact>
</mgrwt>
</event>
<event>
12    1  0.1541840E-007  0.1296959E+04  0.7818608E-02  0.9031980E-01
         -2   -1    0    0    0  501 -0.00000000000E+00  0.00000000000E+00  0.41921721289E+03  0.41921721289E+03  0.00000000000E+00 0.  1.
          2   -1    0    0  501    0  0.00000000000E+00 -0.00000000000E+00 -0.10031206143E+04  0.10031206143E+04  0.00000000000E+00 0. -1.
         23    2    1    2    0    0  0.17288031757E+02 -0.42942563867E+02  0.20243532196E+03  0.22691669458E+03  0.91477794397E+02 0.  0.
        254    2    1    2    0    0 -0.17288031757E+02  0.42942563867E+02 -0.78633872333E+03  0.11954211326E+04  0.89919973117E+03 0.  0.
        -24    2    4    4    0    0 -0.32241401649E+03 -0.20161547027E+03 -0.99935925970E+02  0.40113475342E+03  0.79512924849E+02 0.  0.
         24    2    4    4    0    0  0.30512598473E+03  0.24455803414E+03 -0.68640279736E+03  0.79428637915E+03  0.82653210799E+02 0.  0.
         13    1    3    3    0    0 -0.16901107182E+02 -0.60091734160E+02  0.14551241504E+03  0.15833675148E+03  0.00000000000E+00 0.  1.
        -13    1    3    3    0    0  0.34189138939E+02  0.17149170293E+02  0.56922906920E+02  0.68579943098E+02  0.00000000000E+00 0. -1.
          2    1    6    6  502    0  0.25265195876E+03  0.23694005584E+03 -0.60503840727E+03  0.69716933137E+03  0.00000000000E+00 0. -1.
          1    1    5    5  503    0 -0.21148223403E+03 -0.13370799929E+03 -0.26076166533E+02  0.25156019328E+03  0.00000000000E+00 0. -1.
         -2    1    5    5    0  503 -0.11093178246E+03 -0.67907470988E+02 -0.73859759438E+02  0.14957456013E+03  0.00000000000E+00 0.  1.
         -1    1    6    6    0  502  0.52474025972E+02  0.76179783019E+01 -0.81364390087E+02  0.97117047779E+02  0.00000000000E+00 0.  1.
<mgrwt>
<rscale>  0 0.12969586E+04</rscale>
<asrwt>0</asrwt>
<pdfrwt beam="1">  1        2 0.15432625E+00 0.12969586E+04</pdfrwt>
<pdfrwt beam="2">  1       -2 0.64494956E-01 0.12969586E+04</pdfrwt>
<totfact> 0.54580766E+01</totfact>
</mgrwt>
</event>
<event>
12    1  0.1541840E-007  0.1296302E+04  0.7818608E-02  0.9032503E-01
         -2   -1    0    0    0  501 -0.00000000000E+00  0.00000000000E+00  0.24750654165E+03  0.24750654165E+03  0.00000000000E+00 0.  1.
          2   -1    0    0  501    0  0.00000000000E+00 -0.00000000000E+00 -0.16973271540E+04  0.16973271540E+04  0.00000000000E+00 0. -1.
         23    2    1    2    0    0  0.40399164302E+02 -0.21395693640E+03 -0.35345919152E+02  0.23867330732E+03  0.91136987636E+02 0.  0.
        254    2    1    2    0    0 -0.40399164302E+02  0.21395693640E+03 -0.14144746932E+04  0.17061603884E+04  0.92888909451E+03 0.  0.
        -24    2    4    4    0    0  0.48998866073E+02 -0.16273785044E+03  0.47929710370E+02  0.19117806046E+03  0.73261837430E+02 0.  0.
         24    2    4    4    0    0 -0.89398030375E+02  0.37669478684E+03 -0.14624044036E+04  0.15149823279E+04  0.81571097136E+02 0.  0.
         13    1    3    3    0    0 -0.27174158075E+02 -0.69107158283E+02 -0.25575414525E+02  0.78538754900E+02  0.00000000000E+00 0. -1.
        -13    1    3    3    0    0  0.67573322376E+02 -0.14484977812E+03 -0.97705046270E+01  0.16013455242E+03  0.00000000000E+00 0.  1.
          2    1    6    6  502    0 -0.48337998382E+02  0.17616673404E+03 -0.84539502974E+03  0.86490695256E+03  0.00000000000E+00 0. -1.
          3    1    5    5  503    0  0.12855982434E+02 -0.81333874947E+01  0.27055046973E+02  0.31038747449E+02  0.00000000000E+00 0. -1.
         -4    1    5    5    0  503  0.36142883639E+02 -0.15460446295E+03  0.20874663397E+02  0.16013931302E+03  0.00000000000E+00 0.  1.
         -1    1    6    6    0  502 -0.41060031993E+02  0.20052805280E+03 -0.61700937388E+03  0.65007537535E+03  0.00000000000E+00 0.  1.
<mgrwt>
<rscale>  0 0.12963018E+04</rscale>
<asrwt>0</asrwt>
<pdfrwt beam="1">  1        2 0.26112726E+00 0.12963018E+04</pdfrwt>
<pdfrwt beam="2">  1       -2 0.38077928E-01 0.12963018E+04</pdfrwt>
<totfact> 0.62807037E+01</totfact>
</mgrwt>
</event>
<event>
12    1  0.1541840E-007  0.2556117E+04  0.7818608E-02  0.8383262E-01
          1   -1    0    0  501    0  0.00000000000E+00  0.00000000000E+00  0.16736563052E+04  0.16736563052E+04  0.00000000000E+00 0. -1.
         -1   -1    0    0    0  501 -0.00000000000E+00 -0.00000000000E+00 -0.97596744188E+03  0.97596744188E+03  0.00000000000E+00 0.  1.
         23    2    1    2    0    0  0.11399206302E+03  0.11115008951E+04  0.24656744053E+03  0.11478378515E+04  0.91147135938E+02 0.  0.
        254    2    1    2    0    0 -0.11399206302E+03 -0.11115008951E+04  0.45112142274E+03  0.15017858955E+04  0.89633805433E+03 0.  0.
        -24    2    4    4    0    0 -0.32017747908E+03 -0.46833826438E+03  0.57350284914E+03  0.81068404486E+03  0.80304138264E+02 0.  0.
         24    2    4    4    0    0  0.20618541606E+03 -0.64316263074E+03 -0.12238142640E+03  0.69110185066E+03  0.80460916487E+02 0.  0.
         13    1    3    3    0    0  0.10638958198E+03  0.10379343511E+04  0.20610491614E+03  0.10635345301E+04  0.00000000000E+00 0.  1.
        -13    1    3    3    0    0  0.76024810372E+01  0.73566544037E+02  0.40462524394E+02  0.84303321404E+02  0.00000000000E+00 0. -1.
          2    1    6    6  502    0  0.15201777720E+03 -0.56475824582E+03 -0.10323899031E+03  0.59390198680E+03  0.00000000000E+00 0. -1.
          1    1    5    5  503    0 -0.27571524081E+03 -0.36424953836E+03  0.49075348974E+03  0.67047416647E+03  0.00000000000E+00 0. -1.
         -2    1    5    5    0  503 -0.44462238272E+02 -0.10408872602E+03  0.82749359395E+02  0.14020987839E+03  0.00000000000E+00 0.  1.
         -1    1    6    6    0  502  0.54167638867E+02 -0.78404384922E+02 -0.19142436084E+02  0.97199863861E+02  0.00000000000E+00 0.  1.
<mgrwt>
<rscale>  0 0.25561174E+04</rscale>
<asrwt>0</asrwt>
<pdfrwt beam="1">  1        1 0.25748558E+00 0.25561174E+04</pdfrwt>
<pdfrwt beam="2">  1       -1 0.15014884E+00 0.25561174E+04</pdfrwt>
<totfact> 0.15282443E+00</totfact>
</mgrwt>
</event>
<event>
12    1  0.1541840E-007  0.2149137E+04  0.7818608E-02  0.8539902E-01
         -1   -1    0    0    0  501 -0.00000000000E+00  0.00000000000E+00  0.70119223211E+03  0.70119223211E+03  0.00000000000E+00 0.  1.
          1   -1    0    0  501    0  0.00000000000E+00 -0.00000000000E+00 -0.16467622887E+04  0.16467622887E+04  0.00000000000E+00 0. -1.
         23    2    1    2    0    0  0.17975703526E+03 -0.27017670227E+03  0.50761642579E+03  0.60946643435E+03  0.92015524230E+02 0.  0.
        254    2    1    2    0    0 -0.17975703526E+03  0.27017670227E+03 -0.14531864824E+04  0.17384880865E+04  0.89737496735E+03 0.  0.
        -24    2    4    4    0    0 -0.52117441596E+03  0.18080489647E+03 -0.10964339911E+04  0.12300202390E+04  0.80430771286E+02 0.  0.
         24    2    4    4    0    0  0.34141738070E+03  0.89371805794E+02 -0.35675249127E+03  0.50846784749E+03  0.81939394614E+02 0.  0.
         13    1    3    3    0    0  0.13669387235E+03 -0.12854469961E+03  0.25374334232E+03  0.31558618206E+03  0.00000000000E+00 0.  1.
        -13    1    3    3    0    0  0.43063162902E+02 -0.14163200266E+03  0.25387308347E+03  0.29388025229E+03  0.00000000000E+00 0. -1.
          4    1    6    6  502    0  0.20410858490E+03  0.58585129554E+02 -0.15681864165E+03  0.26397844268E+03  0.00000000000E+00 0. -1.
          3    1    5    5  503    0 -0.42245411733E+03  0.11198101743E+03 -0.86879137945E+03  0.97252541896E+03  0.00000000000E+00 0. -1.
         -4    1    5    5    0  503 -0.98720298625E+02  0.68823879045E+02 -0.22764261169E+03  0.25749482003E+03  0.00000000000E+00 0.  1.
         -1    1    6    6    0  502  0.13730879581E+03  0.30786676240E+02 -0.19993384962E+03  0.24448940481E+03  0.00000000000E+00 0.  1.
<mgrwt>
<rscale>  0 0.21491365E+04</rscale>
<asrwt>0</asrwt>
<pdfrwt beam="1">  1        1 0.25334804E+00 0.21491365E+04</pdfrwt>
<pdfrwt beam="2">  1       -1 0.10787573E+00 0.21491365E+04</pdfrwt>
<totfact> 0.37925329E+00</totfact>
</mgrwt>
</event>
<event>
12    1  0.1541840E-007  0.1763492E+04  0.7818608E-02  0.8725958E-01
         -2   -1    0    0    0  501 -0.00000000000E+00  0.00000000000E+00  0.42282479574E+03  0.42282479574E+03  0.00000000000E+00 0.  1.
          2   -1    0    0  501    0  0.00000000000E+00 -0.00000000000E+00 -0.18387667061E+04  0.18387667061E+04  0.00000000000E+00 0. -1.
         23    2    1    2    0    0 -0.40690333755E+03 -0.51675822171E+03 -0.49185604455E+03  0.82812936648E+03  0.10614373867E+03 0.  0.
        254    2    1    2    0    0  0.40690333755E+03  0.51675822171E+03 -0.92408586582E+03  0.14334621354E+04  0.87650990886E+03 0.  0.
        -24    2    4    4    0    0  0.19565557142E+03  0.43694418505E+03 -0.10539928595E+04  0.11604871979E+04  0.81414158055E+02 0.  0.
         24    2    4    4    0    0  0.21124776613E+03  0.79814036658E+02  0.12990699363E+03  0.27297493752E+03  0.81508222748E+02 0.  0.
         11    1    3    3    0    0 -0.35889716155E+02 -0.10493193202E+03 -0.99746913933E+02  0.14915840211E+03  0.00000000000E+00 0. -1.
        -11    1    3    3    0    0 -0.37101362139E+03 -0.41182628969E+03 -0.39210913062E+03  0.67897096437E+03  0.00000000000E+00 0.  1.
          4    1    6    6  502    0  0.63564321369E+02  0.31872041520E+02  0.91344965710E+00  0.71113180017E+02  0.00000000000E+00 0. -1.
          1    1    5    5  503    0  0.70869367160E+02  0.21958341257E+03 -0.58214981001E+03  0.62620902547E+03  0.00000000000E+00 0. -1.
         -2    1    5    5    0  503  0.12478620426E+03  0.21736077248E+03 -0.47184304944E+03  0.53427817239E+03  0.00000000000E+00 0.  1.
         -3    1    6    6    0  502  0.14768344476E+03  0.47941995138E+02  0.12899354397E+03  0.20186175750E+03  0.00000000000E+00 0.  1.
<mgrwt>
<rscale>  0 0.17634922E+04</rscale>
<asrwt>0</asrwt>
<pdfrwt beam="1">  1        2 0.28288719E+00 0.17634922E+04</pdfrwt>
<pdfrwt beam="2">  1       -2 0.65049967E-01 0.17634922E+04</pdfrwt>
<totfact> 0.16944102E+01</totfact>
</mgrwt>
</event>
<event>
12    1  0.1541840E-007  0.2079396E+04  0.7818608E-02  0.8570374E-01
          1   -1    0    0  501    0  0.00000000000E+00  0.00000000000E+00  0.24066907930E+04  0.24066907930E+04  0.00000000000E+00 0. -1.
         -1   -1    0    0    0  501 -0.00000000000E+00 -0.00000000000E+00 -0.44915276158E+03  0.44915276158E+03  0.00000000000E+00 0.  1.
         23    2    1    2    0    0  0.48436968904E+03 -0.15026593234E+03 -0.10443479344E+03  0.52482550775E+03  0.85681628283E+02 0.  0.
        254    2    1    2    0    0 -0.48436968904E+03  0.15026593234E+03  0.20619728249E+04  0.23310180468E+04  0.96162329326E+03 0.  0.
        -24    2    4    4    0    0 -0.29076286917E+03 -0.39774527954E+03  0.89204506532E+03  0.10221425773E+04  0.79288690158E+02 0.  0.
         24    2    4    4    0    0 -0.19360681986E+03  0.54801121187E+03  0.11699277595E+04  0.13088754695E+04  0.81388838604E+02 0.  0.
         11    1    3    3    0    0  0.24159968377E+02 -0.26465409601E+02 -0.19329627419E+02  0.40715555669E+02  0.00000000000E+00 0. -1.
        -11    1    3    3    0    0  0.46020972066E+03 -0.12380052273E+03 -0.85105166023E+02  0.48410995208E+03  0.00000000000E+00 0.  1.
          4    1    6    6  502    0 -0.90430977878E+02  0.31320520642E+03  0.73319498246E+03  0.80240273266E+03  0.00000000000E+00 0. -1.
          3    1    5    5  503    0 -0.11308976130E+03 -0.18079772619E+03  0.31261986084E+03  0.37842871099E+03  0.00000000000E+00 0. -1.
         -2    1    5    5    0  503 -0.17767310787E+03 -0.21694755335E+03  0.57942520447E+03  0.64371386636E+03  0.00000000000E+00 0.  1.
         -3    1    6    6    0  502 -0.10317584199E+03  0.23480600546E+03  0.43673277709E+03  0.50647273683E+03  0.00000000000E+00 0.  1.
<mgrwt>
<rscale>  0 0.20793959E+04</rscale>
<asrwt>0</asrwt>
<pdfrwt beam="1">  1        1 0.37026011E+00 0.20793959E+04</pdfrwt>
<pdfrwt beam="2">  1       -1 0.69100426E-01 0.20793959E+04</pdfrwt>
<totfact> 0.30689766E+00</totfact>
</mgrwt>
</event>
<event>
12    1  0.1541840E-007  0.1422363E+04  0.7818608E-02  0.8937788E-01
          2   -1    0    0  501    0  0.00000000000E+00  0.00000000000E+00  0.66125820714E+03  0.66125820714E+03  0.00000000000E+00 0.  1.
         -2   -1    0    0    0  501 -0.00000000000E+00 -0.00000000000E+00 -0.76487431214E+03  0.76487431214E+03  0.00000000000E+00 0. -1.
         23    2    1    2    0    0  0.16912540920E+03 -0.28287190503E+03 -0.28124809090E+03  0.44576916589E+03  0.10483197002E+03 0.  0.
        254    2    1    2    0    0 -0.16912540920E+03  0.28287190503E+03  0.17763198590E+03  0.98036335338E+03  0.90605698692E+03 0.  0.
        -24    2    4    4    0    0 -0.21245080258E+02  0.35807227800E+03 -0.29629821817E+03  0.47210691139E+03  0.80157295265E+02 0.  0.
         24    2    4    4    0    0 -0.14788032894E+03 -0.75200372974E+02  0.47393020407E+03  0.50825644199E+03  0.78683446233E+02 0.  0.
         13    1    3    3    0    0  0.15627258266E+03 -0.28194837139E+03 -0.23815714079E+03  0.40079274935E+03  0.00000000000E+00 0. -1.
        -13    1    3    3    0    0  0.12852826539E+02 -0.92353363874E+00 -0.43090950103E+02  0.44976416545E+02  0.00000000000E+00 0.  1.
          4    1    6    6  502    0 -0.11870672320E+03 -0.80690398222E+02  0.44170928467E+03  0.46444517293E+03  0.00000000000E+00 0. -1.
          1    1    5    5  503    0  0.29190055358E+02  0.17055925824E+03 -0.14966056320E+03  0.22878112702E+03  0.00000000000E+00 0. -1.
         -2    1    5    5    0  503 -0.50435135616E+02  0.18751301976E+03 -0.14663765497E+03  0.24332578437E+03  0.00000000000E+00 0.  1.
         -3    1    6    6    0  502 -0.29173605745E+02  0.54900252475E+01  0.32220919401E+02  0.43811269058E+02  0.00000000000E+00 0.  1.
<mgrwt>
<rscale>  0 0.14223634E+04</rscale>
<asrwt>0</asrwt>
<pdfrwt beam="1">  1        2 0.10173203E+00 0.14223634E+04</pdfrwt>
<pdfrwt beam="2">  1       -2 0.11767297E+00 0.14223634E+04</pdfrwt>
<totfact> 0.23835822E+01</totfact>
</mgrwt>
</event>
<event>
12    1  0.1541840E-007  0.1441887E+04  0.7818608E-02  0.8924044E-01
          2   -1    0    0  501    0  0.00000000000E+00  0.00000000000E+00  0.21042495750E+04  0.21042495750E+04  0.00000000000E+00 0.  1.
         -2   -1    0    0    0  501 -0.00000000000E+00 -0.00000000000E+00 -0.24700469989E+03  0.24700469989E+03  0.00000000000E+00 0. -1.
         23    2    1    2    0    0  0.41409673560E+03 -0.50936204226E+02  0.77042483665E+03  0.88021515954E+03  0.84579517722E+02 0.  0.
        254    2    1    2    0    0 -0.41409673560E+03  0.50936204226E+02  0.10868200385E+04  0.14710391153E+04  0.89928175759E+03 0.  0.
        -24    2    4    4    0    0  0.42011503697E+02  0.34997264143E+03  0.16580286672E+03  0.39761216391E+03  0.79743501811E+02 0.  0.
         24    2    4    4    0    0 -0.45610823930E+03 -0.29903643720E+03  0.92101717174E+03  0.10734269514E+04  0.80717239203E+02 0.  0.
         11    1    3    3    0    0  0.20241469739E+03 -0.39420364684E+02  0.46227347396E+03  0.50618419533E+03  0.00000000000E+00 0. -1.
        -11    1    3    3    0    0  0.21168203821E+03 -0.11515839543E+02  0.30815136269E+03  0.37403096422E+03  0.00000000000E+00 0.  1.
          4    1    6    6  502    0 -0.35638623899E+01  0.44721731643E+01  0.50141302411E+01  0.76054552803E+01  0.00000000000E+00 0. -1.
          1    1    5    5  503    0 -0.24006790493E+02  0.95074301761E+02  0.47101886114E+02  0.10878435789E+03  0.00000000000E+00 0. -1.
         -2    1    5    5    0  503  0.66018294189E+02  0.25489833967E+03  0.11870098061E+03  0.28882780602E+03  0.00000000000E+00 0.  1.
         -3    1    6    6    0  502 -0.45254437691E+03 -0.30350861037E+03  0.91600304150E+03  0.10658214962E+04  0.00000000000E+00 0.  1.
<mgrwt>
<rscale>  0 0.14418870E+04</rscale>
<asrwt>0</asrwt>
<pdfrwt beam="1">  1        2 0.32373069E+00 0.14418870E+04</pdfrwt>
<pdfrwt beam="2">  1       -2 0.38000724E-01 0.14418870E+04</pdfrwt>
<totfact> 0.37100038E+01</totfact>
</mgrwt>
</event>
<event>
12    1  0.1549449E-007  0.2032830E+04  0.7818608E-02  0.8591424E-01
          2   -1    0    0  501    0  0.00000000000E+00  0.00000000000E+00  0.66129461526E+03  0.66129461526E+03  0.00000000000E+00 0. -1.
         -2   -1    0    0    0  501 -0.00000000000E+00 -0.00000000000E+00 -0.15622376948E+04  0.15622376948E+04  0.00000000000E+00 0.  1.
         23    2    1    2    0    0 -0.67354341847E+03 -0.19483492130E+03  0.99335169084E+01  0.70710448455E+03  0.90976338658E+02 0.  0.
        254    2    1    2    0    0  0.67354341847E+03  0.19483492130E+03 -0.91087659647E+03  0.15164278255E+04  0.98905803315E+03 0.  0.
        -24    2    4    4    0    0  0.17737980358E+03 -0.13508002906E+03 -0.88350317851E+03  0.91480549591E+03  0.81123485671E+02 0.  0.
         24    2    4    4    0    0  0.49616361489E+03  0.32991495036E+03 -0.27373417951E+02  0.60162232962E+03  0.78599721889E+02 0.  0.
         11    1    3    3    0    0 -0.13528220113E+02 -0.11213850133E+02  0.13262329027E+02  0.22014825583E+02  0.00000000000E+00 0.  1.
        -11    1    3    3    0    0 -0.66001519835E+03 -0.18362107117E+03 -0.33288121184E+01  0.68508965897E+03  0.00000000000E+00 0. -1.
          2    1    6    6  502    0  0.43580419812E+02  0.35729233170E+02 -0.25427675957E+02  0.61825543253E+02  0.00000000000E+00 0. -1.
          1    1    5    5  503    0  0.29298592147E+02 -0.33469628193E+01 -0.49876644638E+02  0.57942120623E+02  0.00000000000E+00 0. -1.
         -2    1    5    5    0  503  0.14808121143E+03 -0.13173306624E+03 -0.83362653388E+03  0.85686337528E+03  0.00000000000E+00 0.  1.
         -1    1    6    6    0  502  0.45258319508E+03  0.29418571719E+03 -0.19457419940E+01  0.53979678637E+03  0.00000000000E+00 0.  1.
<mgrwt>
<rscale>  0 0.20328299E+04</rscale>
<asrwt>0</asrwt>
<pdfrwt beam="1">  1        2 0.10173763E+00 0.20328299E+04</pdfrwt>
<pdfrwt beam="2">  1       -2 0.24034426E+00 0.20328299E+04</pdfrwt>
<totfact> 0.30049672E+00</totfact>
</mgrwt>
</event>
<event>
12    1  0.1541840E-007  0.1598695E+04  0.7818608E-02  0.8821350E-01
          1   -1    0    0  501    0  0.00000000000E+00  0.00000000000E+00  0.18989126271E+04  0.18989126271E+04  0.00000000000E+00 0. -1.
         -1   -1    0    0    0  501 -0.00000000000E+00 -0.00000000000E+00 -0.33648530054E+03  0.33648530054E+03  0.00000000000E+00 0.  1.
         23    2    1    2    0    0 -0.12055863427E+03  0.44893939785E+03  0.91831408635E+03  0.10334801283E+04  0.93270827011E+02 0.  0.
        254    2    1    2    0    0  0.12055863427E+03 -0.44893939785E+03  0.64411324020E+03  0.12019177993E+04  0.90202193040E+03 0.  0.
        -24    2    4    4    0    0 -0.62536543318E+02 -0.65546562175E+03  0.62946449819E+03  0.91445716897E+03  0.80376357527E+02 0.  0.
         24    2    4    4    0    0  0.18309517759E+03  0.20652622390E+03  0.14648742015E+02  0.28746063037E+03  0.79006981686E+02 0.  0.
         11    1    3    3    0    0 -0.11151418296E+03  0.44125320972E+03  0.91363907103E+03  0.10207233515E+04  0.00000000000E+00 0. -1.
        -11    1    3    3    0    0 -0.90444513042E+01  0.76861881278E+01  0.46750153196E+01  0.12756776849E+02  0.00000000000E+00 0.  1.
          2    1    6    6  502    0  0.53960508143E+02  0.15414243462E+02  0.82457394582E+01  0.56721491163E+02  0.00000000000E+00 0. -1.
          1    1    5    5  503    0 -0.79409406466E+02 -0.54487157668E+03  0.50551785343E+03  0.74748858791E+03  0.00000000000E+00 0. -1.
         -2    1    5    5    0  503  0.16872863147E+02 -0.11059404507E+03  0.12394664475E+03  0.16696858106E+03  0.00000000000E+00 0.  1.
         -1    1    6    6    0  502  0.12913466944E+03  0.19111198044E+03  0.64030025571E+01  0.23073913921E+03  0.00000000000E+00 0.  1.
<mgrwt>
<rscale>  0 0.15986947E+04</rscale>
<asrwt>0</asrwt>
<pdfrwt beam="1">  1        1 0.29214040E+00 0.15986947E+04</pdfrwt>
<pdfrwt beam="2">  1       -1 0.51766970E-01 0.15986947E+04</pdfrwt>
<totfact> 0.12582000E+01</totfact>
</mgrwt>
</event>
<event>
12    1  0.1541840E-007  0.2156437E+04  0.7818608E-02  0.8536782E-01
         -4   -1    0    0    0  501 -0.00000000000E+00  0.00000000000E+00  0.10133593683E+04  0.10133593683E+04  0.00000000000E+00 0.  1.
          4   -1    0    0  501    0  0.00000000000E+00 -0.00000000000E+00 -0.11472292782E+04  0.11472292782E+04  0.00000000000E+00 0. -1.
         23    2    1    2    0    0  0.71058349577E+03  0.79012167972E+02  0.46824054508E+03  0.85969532329E+03  0.93032325994E+02 0.  0.
        254    2    1    2    0    0 -0.71058349577E+03 -0.79012167972E+02 -0.60211045494E+03  0.13008933232E+04  0.90477323741E+03 0.  0.
        -24    2    4    4    0    0 -0.58380317674E+03  0.23176483143E+02  0.80193109684E+02  0.59505254722E+03  0.79330325648E+02 0.  0.
         24    2    4    4    0    0 -0.12678031903E+03 -0.10218865112E+03 -0.68230356463E+03  0.70584077594E+03  0.78468318192E+02 0.  0.
         13    1    3    3    0    0  0.15408949655E+03 -0.91138267855E+01  0.13520364503E+03  0.20519907509E+03  0.00000000000E+00 0. -1.
        -13    1    3    3    0    0  0.55649399922E+03  0.88125994758E+02  0.33303690005E+03  0.65449624820E+03  0.00000000000E+00 0.  1.
          4    1    6    6  502    0 -0.85193362647E+02 -0.24731042591E+02 -0.41763542092E+03  0.42695301652E+03  0.00000000000E+00 0. -1.
          3    1    5    5  503    0 -0.49180066552E+02 -0.18737038028E+02  0.15726704126E+02  0.54927996165E+02  0.00000000000E+00 0. -1.
         -4    1    5    5    0  503 -0.53462311019E+03  0.41913521171E+02  0.64466405558E+02  0.54012455105E+03  0.00000000000E+00 0.  1.
         -3    1    6    6    0  502 -0.41586956382E+02 -0.77457608524E+02 -0.26466814371E+03  0.27888775942E+03  0.00000000000E+00 0.  1.
<mgrwt>
<rscale>  0 0.21564374E+04</rscale>
<asrwt>0</asrwt>
<pdfrwt beam="1">  1        4 0.17649681E+00 0.21564374E+04</pdfrwt>
<pdfrwt beam="2">  1       -4 0.15590144E+00 0.21564374E+04</pdfrwt>
<totfact> 0.93670099E-02</totfact>
</mgrwt>
</event>
<event>
12    1  0.1541840E-007  0.1859814E+04  0.7818608E-02  0.8675122E-01
         -1   -1    0    0    0  501 -0.00000000000E+00  0.00000000000E+00  0.29979438848E+03  0.29979438848E+03  0.00000000000E+00 0.  1.
          1   -1    0    0  501    0  0.00000000000E+00 -0.00000000000E+00 -0.28844016301E+04  0.28844016301E+04  0.00000000000E+00 0. -1.
         23    2    1    2    0    0 -0.51449467087E+03  0.45030598263E+03 -0.13010979453E+04  0.14724577318E+04  0.88293058768E+02 0.  0.
        254    2    1    2    0    0  0.51449467087E+03 -0.45030598263E+03 -0.12835092963E+04  0.17117382868E+04  0.90286854217E+03 0.  0.
        -24    2    4    4    0    0 -0.40237216418E+02  0.72459880966E+02 -0.79386501700E+03  0.80221395884E+03  0.80349876220E+02 0.  0.
         24    2    4    4    0    0  0.55473188729E+03 -0.52276586360E+03 -0.48964427929E+03  0.90952432795E+03  0.80444813129E+02 0.  0.
         11    1    3    3    0    0 -0.34391420529E+03  0.25264254145E+03 -0.75824398671E+03  0.87007998352E+03  0.00000000000E+00 0. -1.
        -11    1    3    3    0    0 -0.17058046558E+03  0.19766344118E+03 -0.54285395864E+03  0.60237774829E+03  0.00000000000E+00 0.  1.
          4    1    6    6  502    0  0.26646002148E+03 -0.26635434154E+03 -0.19607271083E+03  0.42472354095E+03  0.00000000000E+00 0. -1.
          1    1    5    5  503    0 -0.23817896235E+01 -0.14382461959E+02 -0.43171732377E+02  0.45566727008E+02  0.00000000000E+00 0. -1.
         -2    1    5    5    0  503 -0.37855426795E+02  0.86842342925E+02 -0.75069328462E+03  0.75664723183E+03  0.00000000000E+00 0.  1.
         -3    1    6    6    0  502  0.28827186581E+03 -0.25641152206E+03 -0.29357156846E+03  0.48480078700E+03  0.00000000000E+00 0.  1.
<mgrwt>
<rscale>  0 0.18598144E+04</rscale>
<asrwt>0</asrwt>
<pdfrwt beam="1">  1        1 0.44375409E+00 0.18598144E+04</pdfrwt>
<pdfrwt beam="2">  1       -1 0.46122214E-01 0.18598144E+04</pdfrwt>
<totfact> 0.31899987E+00</totfact>
</mgrwt>
</event>
<event>
12    1  0.1541840E-007  0.4289157E+04  0.7818608E-02  0.7948626E-01
          2   -1    0    0  501    0  0.00000000000E+00  0.00000000000E+00  0.14017115978E+04  0.14017115978E+04  0.00000000000E+00 0. -1.
         -2   -1    0    0    0  501 -0.00000000000E+00 -0.00000000000E+00 -0.32811438610E+04  0.32811438610E+04  0.00000000000E+00 0.  1.
         23    2    1    2    0    0 -0.14999376463E+04 -0.12556365871E+04 -0.15459514307E+04  0.24950053513E+04  0.93003737489E+02 0.  0.
        254    2    1    2    0    0  0.14999376463E+04  0.12556365871E+04 -0.33348083248E+03  0.21878501075E+04  0.92143499253E+03 0.  0.
        -24    2    4    4    0    0  0.85624499207E+03  0.53407125012E+03 -0.60631752807E+03  0.11798434880E+04  0.77602349677E+02 0.  0.
         24    2    4    4    0    0  0.64369265422E+03  0.72156533698E+03  0.27283669559E+03  0.10080066195E+04  0.81490574860E+02 0.  0.
         11    1    3    3    0    0 -0.10856564692E+04 -0.86004775673E+03 -0.11186667307E+04  0.17803784337E+04  0.00000000000E+00 0. -1.
        -11    1    3    3    0    0 -0.41428117713E+03 -0.39558883037E+03 -0.42728469999E+03  0.71462691755E+03  0.00000000000E+00 0.  1.
          2    1    6    6  502    0  0.55027302899E+03  0.61364545456E+03  0.20183944419E+03  0.84858724452E+03  0.00000000000E+00 0. -1.
          1    1    5    5  503    0  0.57887530407E+03  0.32343528730E+03 -0.41887393708E+03  0.78432287861E+03  0.00000000000E+00 0. -1.
         -2    1    5    5    0  503  0.27736968800E+03  0.21063596281E+03 -0.18744359099E+03  0.39552060939E+03  0.00000000000E+00 0.  1.
         -1    1    6    6    0  502  0.93419625236E+02  0.10791988242E+03  0.70997251401E+02  0.15941937494E+03  0.00000000000E+00 0.  1.
<mgrwt>
<rscale>  0 0.42891572E+04</rscale>
<asrwt>0</asrwt>
<pdfrwt beam="1">  1        2 0.21564794E+00 0.42891572E+04</pdfrwt>
<pdfrwt beam="2">  1       -2 0.50479136E+00 0.42891572E+04</pdfrwt>
<totfact> 0.17199399E-02</totfact>
</mgrwt>
</event>
<event>
12    1  0.1541840E-007  0.1453926E+04  0.7818608E-02  0.8915684E-01
          2   -1    0    0  501    0  0.00000000000E+00  0.00000000000E+00  0.41638057380E+03  0.41638057380E+03  0.00000000000E+00 0. -1.
         -2   -1    0    0    0  501 -0.00000000000E+00 -0.00000000000E+00 -0.12692110993E+04  0.12692110993E+04  0.00000000000E+00 0.  1.
         23    2    1    2    0    0 -0.23238377115E+03  0.26516457091E+03  0.39764531253E+02  0.36627801071E+03  0.90905975728E+02 0.  0.
        254    2    1    2    0    0  0.23238377115E+03 -0.26516457091E+03 -0.89259505674E+03  0.13193136624E+04  0.90528898019E+03 0.  0.
        -24    2    4    4    0    0 -0.50909102700E+01 -0.55515197764E+03 -0.67822031914E+03  0.88033784217E+03  0.82415286304E+02 0.  0.
         24    2    4    4    0    0  0.23747468142E+03  0.28998740673E+03 -0.21437473760E+03  0.43897582021E+03  0.79096916696E+02 0.  0.
         11    1    3    3    0    0 -0.74786001210E+02  0.42769262582E+02  0.36813623384E+02  0.93687772230E+02  0.00000000000E+00 0.  1.
        -11    1    3    3    0    0 -0.15759776994E+03  0.22239530833E+03  0.29509078695E+01  0.27259023848E+03  0.00000000000E+00 0. -1.
          4    1    6    6  502    0  0.21548712133E+03  0.25857954750E+03 -0.21710321531E+03  0.40053949611E+03  0.00000000000E+00 0. -1.
          1    1    5    5  503    0 -0.39825642648E+02 -0.17930073598E+03 -0.21296545065E+03  0.28122787719E+03  0.00000000000E+00 0. -1.
         -2    1    5    5    0  503  0.34734732378E+02 -0.37585124166E+03 -0.46525486848E+03  0.59910996498E+03  0.00000000000E+00 0.  1.
         -3    1    6    6    0  502  0.21987560090E+02  0.31407859224E+02  0.27284777067E+01  0.38436324100E+02  0.00000000000E+00 0.  1.
<mgrwt>
<rscale>  0 0.14539255E+04</rscale>
<asrwt>0</asrwt>
<pdfrwt beam="1">  1        2 0.64058549E-01 0.14539255E+04</pdfrwt>
<pdfrwt beam="2">  1       -2 0.19526325E+00 0.14539255E+04</pdfrwt>
<totfact> 0.10518950E+01</totfact>
</mgrwt>
</event>
<event>
12    1  0.1541840E-007  0.1758468E+04  0.7818608E-02  0.8728703E-01
         -1   -1    0    0    0  501 -0.00000000000E+00  0.00000000000E+00  0.61739228176E+03  0.61739228176E+03  0.00000000000E+00 0.  1.
          1   -1    0    0  501    0  0.00000000000E+00 -0.00000000000E+00 -0.12521248884E+04  0.12521248884E+04  0.00000000000E+00 0. -1.
         23    2    1    2    0    0 -0.42487313440E+03 -0.10732426750E+03 -0.73040608794E+03  0.85831417703E+03  0.10570948148E+03 0.  0.
        254    2    1    2    0    0  0.42487313440E+03  0.10732426750E+03  0.95673481258E+02  0.10112029932E+04  0.90627942691E+03 0.  0.
        -24    2    4    4    0    0  0.40968761171E+03 -0.99669704496E+02  0.43210217698E+03  0.60911860740E+03  0.80840567460E+02 0.  0.
         24    2    4    4    0    0  0.15185522685E+02  0.20699397199E+03 -0.33642869572E+03  0.40208438576E+03  0.73555974817E+02 0.  0.
         13    1    3    3    0    0 -0.42948039198E+03 -0.11162732026E+03 -0.72493210208E+03  0.84996506890E+03  0.00000000000E+00 0. -1.
        -13    1    3    3    0    0  0.46072575815E+01  0.43030527610E+01 -0.54739858577E+01  0.83491081354E+01  0.00000000000E+00 0.  1.
          4    1    6    6  502    0  0.33849021502E+02  0.10886681942E+03 -0.22635959711E+03  0.25344902413E+03  0.00000000000E+00 0. -1.
          3    1    5    5  503    0  0.92764060283E+02  0.49125287652E+00  0.13181020636E+03  0.16118108670E+03  0.00000000000E+00 0. -1.
         -4    1    5    5    0  503  0.31692355143E+03 -0.10016095737E+03  0.30029197062E+03  0.44793752070E+03  0.00000000000E+00 0.  1.
         -3    1    6    6    0  502 -0.18663498817E+02  0.98127152571E+02 -0.11006909860E+03  0.14863536163E+03  0.00000000000E+00 0.  1.
<mgrwt>
<rscale>  0 0.17584678E+04</rscale>
<asrwt>0</asrwt>
<pdfrwt beam="1">  1        1 0.19263460E+00 0.17584678E+04</pdfrwt>
<pdfrwt beam="2">  1       -1 0.94983429E-01 0.17584678E+04</pdfrwt>
<totfact> 0.99333511E+00</totfact>
</mgrwt>
</event>
<event>
12    1  0.1541840E-007  0.2441093E+04  0.7818608E-02  0.8424277E-01
          4   -1    0    0  501    0  0.00000000000E+00  0.00000000000E+00  0.59265766406E+03  0.59265766406E+03  0.00000000000E+00 0.  1.
         -4   -1    0    0    0  501 -0.00000000000E+00 -0.00000000000E+00 -0.25136493491E+04  0.25136493491E+04  0.00000000000E+00 0. -1.
         23    2    1    2    0    0 -0.60210160004E+03 -0.77666361582E+03 -0.13088118527E+04  0.16393031788E+04  0.92702412485E+02 0.  0.
        254    2    1    2    0    0  0.60210160004E+03  0.77666361582E+03 -0.61217983232E+03  0.14670038344E+04  0.90089033407E+03 0.  0.
        -24    2    4    4    0    0  0.47704891175E+03  0.11745053755E+03  0.75566708641E+02  0.50298232867E+03  0.76880443076E+02 0.  0.
         24    2    4    4    0    0  0.12505268829E+03  0.65921307827E+03 -0.68774654096E+03  0.96402150569E+03  0.78371560073E+02 0.  0.
         13    1    3    3    0    0 -0.54065321612E+03 -0.65157302871E+03 -0.10966036411E+04  0.13854215451E+04  0.00000000000E+00 0.  1.
        -13    1    3    3    0    0 -0.61448383914E+02 -0.12509058711E+03 -0.21220821157E+03  0.25388163370E+03  0.00000000000E+00 0. -1.
          2    1    6    6  502    0  0.50404996433E+02  0.34344942613E+03 -0.40726500437E+03  0.53512891508E+03  0.00000000000E+00 0. -1.
          1    1    5    5  503    0  0.34368296218E+03  0.74068031050E+02  0.20036189787E+02  0.35214414750E+03  0.00000000000E+00 0. -1.
         -2    1    5    5    0  503  0.13336594957E+03  0.43382506505E+02  0.55530518854E+02  0.15083818117E+03  0.00000000000E+00 0.  1.
         -1    1    6    6    0  502  0.74647691853E+02  0.31576365214E+03 -0.28048153658E+03  0.42889259061E+03  0.00000000000E+00 0.  1.
<mgrwt>
<rscale>  0 0.24410928E+04</rscale>
<asrwt>0</asrwt>
<pdfrwt beam="1">  1        4 0.91178104E-01 0.24410928E+04</pdfrwt>
<pdfrwt beam="2">  1       -4 0.38671528E+00 0.24410928E+04</pdfrwt>
<totfact> 0.15482504E-02</totfact>
</mgrwt>
</event>
<event>
12    1  0.1541840E-007  0.1364795E+04  0.7818608E-02  0.8979703E-01
          2   -1    0    0  501    0  0.00000000000E+00  0.00000000000E+00  0.12152952647E+04  0.12152952647E+04  0.00000000000E+00 0. -1.
         -2   -1    0    0    0  501 -0.00000000000E+00 -0.00000000000E+00 -0.38317149166E+03  0.38317149166E+03  0.00000000000E+00 0.  1.
         23    2    1    2    0    0 -0.21120007604E+03 -0.16155860574E+03 -0.76914648395E+02  0.29153431856E+03  0.91486286129E+02 0.  0.
        254    2    1    2    0    0  0.21120007604E+03  0.16155860574E+03  0.90903842147E+03  0.13069324378E+04  0.90056365136E+03 0.  0.
        -24    2    4    4    0    0  0.54801588678E+03 -0.37726705006E+01  0.49813346075E+03  0.74496812530E+03  0.80653070599E+02 0.  0.
         24    2    4    4    0    0 -0.33681581073E+03  0.16533127624E+03  0.41090496072E+03  0.56196431254E+03  0.78623664104E+02 0.  0.
         11    1    3    3    0    0 -0.84666155055E+02 -0.54489269528E+02 -0.75373940725E+02  0.12577229125E+03  0.00000000000E+00 0.  1.
        -11    1    3    3    0    0 -0.12653392099E+03 -0.10706933621E+03 -0.15407076707E+01  0.16576202731E+03  0.00000000000E+00 0. -1.
          2    1    6    6  502    0  0.44760571718E+01  0.23481631737E+01  0.41232096965E+01  0.65230220218E+01  0.00000000000E+00 0. -1.
          1    1    5    5  503    0  0.21474926786E+03  0.17407778162E+02  0.24271465262E+03  0.32454688626E+03  0.00000000000E+00 0. -1.
         -2    1    5    5    0  503  0.33326661891E+03 -0.21180448662E+02  0.25541880813E+03  0.42042123904E+03  0.00000000000E+00 0.  1.
         -1    1    6    6    0  502 -0.34129186790E+03  0.16298311307E+03  0.40678175102E+03  0.55544129051E+03  0.00000000000E+00 0.  1.
<mgrwt>
<rscale>  0 0.13647952E+04</rscale>
<asrwt>0</asrwt>
<pdfrwt beam="1">  1        2 0.18696850E+00 0.13647952E+04</pdfrwt>
<pdfrwt beam="2">  1       -2 0.58949461E-01 0.13647952E+04</pdfrwt>
<totfact> 0.48650855E+01</totfact>
</mgrwt>
</event>
<event>
12    1  0.1541840E-007  0.2348776E+04  0.7818608E-02  0.8458934E-01
          1   -1    0    0  501    0  0.00000000000E+00  0.00000000000E+00  0.96249699518E+03  0.96249699518E+03  0.00000000000E+00 0. -1.
         -1   -1    0    0    0  501 -0.00000000000E+00 -0.00000000000E+00 -0.14329264597E+04  0.14329264597E+04  0.00000000000E+00 0.  1.
         23    2    1    2    0    0 -0.40136073513E+02 -0.86626314149E+03  0.32213882941E+03  0.92973798847E+03  0.92825465806E+02 0.  0.
        254    2    1    2    0    0  0.40136073513E+02  0.86626314149E+03 -0.79256829389E+03  0.14656854664E+04  0.87638270814E+03 0.  0.
        -24    2    4    4    0    0  0.31206981563E+03  0.12096141017E+03 -0.51940089859E+03  0.62288149618E+03  0.78643704490E+02 0.  0.
         24    2    4    4    0    0 -0.27193374212E+03  0.74530173132E+03 -0.27316739530E+03  0.84280397018E+03  0.79217898774E+02 0.  0.
         13    1    3    3    0    0 -0.24155624855E+01 -0.26971228538E+03  0.14538319849E+03  0.30640957268E+03  0.00000000000E+00 0.  1.
        -13    1    3    3    0    0 -0.37720511028E+02 -0.59655085611E+03  0.17675563092E+03  0.62332841580E+03  0.00000000000E+00 0. -1.
          2    1    6    6  502    0 -0.25582077745E+03  0.65948025215E+03 -0.22096823884E+03  0.74107046610E+03  0.00000000000E+00 0. -1.
          3    1    5    5  503    0  0.16885120172E+03  0.90667524934E+02 -0.34962693862E+03  0.39871082830E+03  0.00000000000E+00 0. -1.
         -4    1    5    5    0  503  0.14321861391E+03  0.30293885236E+02 -0.16977395997E+03  0.22417066788E+03  0.00000000000E+00 0.  1.
         -1    1    6    6    0  502 -0.16112964669E+02  0.85821479171E+02 -0.52199156458E+02  0.10173350408E+03  0.00000000000E+00 0.  1.
<mgrwt>
<rscale>  0 0.23487762E+04</rscale>
<asrwt>0</asrwt>
<pdfrwt beam="1">  1        1 0.14807646E+00 0.23487762E+04</pdfrwt>
<pdfrwt beam="2">  1       -1 0.22045023E+00 0.23487762E+04</pdfrwt>
<totfact> 0.15933368E+00</totfact>
</mgrwt>
</event>
<event>
12    1  0.1541840E-007  0.2627216E+04  0.7818608E-02  0.8359015E-01
          2   -1    0    0  501    0  0.00000000000E+00  0.00000000000E+00  0.20237471261E+04  0.20237471261E+04  0.00000000000E+00 0.  1.
         -2   -1    0    0    0  501 -0.00000000000E+00 -0.00000000000E+00 -0.85265912438E+03  0.85265912438E+03  0.00000000000E+00 0. -1.
         23    2    1    2    0    0 -0.24984465161E+02 -0.25026360591E+03 -0.70686011971E+03  0.75584219960E+03  0.91597521296E+02 0.  0.
        254    2    1    2    0    0  0.24984465161E+02  0.25026360591E+03  0.18779481214E+04  0.21205640509E+04  0.95228496322E+03 0.  0.
        -24    2    4    4    0    0 -0.37533431841E+03  0.37759895180E+03  0.12490874882E+04  0.13602746638E+04  0.81674896763E+02 0.  0.
         24    2    4    4    0    0  0.40031878357E+03 -0.12733534589E+03  0.62886063323E+03  0.76028938711E+03  0.78133458445E+02 0.  0.
         11    1    3    3    0    0 -0.12160126761E+02 -0.25221489835E+03 -0.64560693412E+03  0.69323050785E+03  0.00000000000E+00 0. -1.
        -11    1    3    3    0    0 -0.12824338400E+02  0.19512924447E+01 -0.61253185597E+02  0.62611691747E+02  0.00000000000E+00 0.  1.
          2    1    6    6  502    0  0.14348177047E+03 -0.63509025023E+02  0.29624823053E+03  0.33523637752E+03  0.00000000000E+00 0. -1.
          3    1    5    5  503    0 -0.49710782791E+02  0.32486908845E+02  0.89958225275E+02  0.10779166696E+03  0.00000000000E+00 0. -1.
         -4    1    5    5    0  503 -0.32562353561E+03  0.34511204296E+03  0.11591292629E+04  0.12524829968E+04  0.00000000000E+00 0.  1.
         -1    1    6    6    0  502  0.25683701310E+03 -0.63826320869E+02  0.33261240270E+03  0.42505300959E+03  0.00000000000E+00 0.  1.
<mgrwt>
<rscale>  0 0.26272164E+04</rscale>
<asrwt>0</asrwt>
<pdfrwt beam="1">  1        2 0.31134571E+00 0.26272164E+04</pdfrwt>
<pdfrwt beam="2">  1       -2 0.13117833E+00 0.26272164E+04</pdfrwt>
<totfact> 0.24279614E+00</totfact>
</mgrwt>
</event>
<event>
12    1  0.1541840E-007  0.1086860E+04  0.7818608E-02  0.9218094E-01
         -1   -1    0    0    0  501 -0.00000000000E+00  0.00000000000E+00  0.14897742194E+03  0.14897742194E+03  0.00000000000E+00 0.  1.
          1   -1    0    0  501    0  0.00000000000E+00 -0.00000000000E+00 -0.19822892425E+04  0.19822892425E+04  0.00000000000E+00 0. -1.
         23    2    1    2    0    0  0.28124225220E+02  0.12937071741E+03 -0.18736070139E+03  0.25160207579E+03  0.10330448950E+03 0.  0.
        254    2    1    2    0    0 -0.28124225220E+02 -0.12937071741E+03 -0.16459511192E+04  0.18796645887E+04  0.89802902210E+03 0.  0.
        -24    2    4    4    0    0 -0.41665764088E+03 -0.25033846134E+03 -0.88617566249E+03  0.10134451545E+04  0.74100211976E+02 0.  0.
         24    2    4    4    0    0  0.38853341566E+03  0.12096774392E+03 -0.75977545671E+03  0.86621943419E+03  0.86521404228E+02 0.  0.
         13    1    3    3    0    0  0.74774305403E+01  0.34961050338E+01  0.12216636714E+02  0.14743843817E+02  0.00000000000E+00 0.  1.
        -13    1    3    3    0    0  0.20646794680E+02  0.12587461238E+03 -0.19957733810E+03  0.23685823198E+03  0.00000000000E+00 0. -1.
          4    1    6    6  502    0  0.11606251450E+03  0.38768520030E+02 -0.15219579958E+03  0.19528713943E+03  0.00000000000E+00 0. -1.
          1    1    5    5  503    0 -0.35938006229E+02 -0.34919724488E+01 -0.44995387870E+02  0.57691585980E+02  0.00000000000E+00 0. -1.
         -2    1    5    5    0  503 -0.38071963466E+03 -0.24684648889E+03 -0.84118027462E+03  0.95575356850E+03  0.00000000000E+00 0.  1.
         -1    1    6    6    0  502  0.27247090116E+03  0.82199223895E+02 -0.60757965713E+03  0.67093229476E+03  0.00000000000E+00 0.  1.
<mgrwt>
<rscale>  0 0.10868603E+04</rscale>
<asrwt>0</asrwt>
<pdfrwt beam="1">  1        1 0.30496754E+00 0.10868603E+04</pdfrwt>
<pdfrwt beam="2">  1       -1 0.22919606E-01 0.10868603E+04</pdfrwt>
<totfact> 0.49798163E+01</totfact>
</mgrwt>
</event>
<event>
12    1  0.1541840E-007  0.1467600E+04  0.7818608E-02  0.8906289E-01
         -2   -1    0    0    0  501 -0.00000000000E+00  0.00000000000E+00  0.15647186751E+03  0.15647186751E+03  0.00000000000E+00 0. -1.
          2   -1    0    0  501    0  0.00000000000E+00 -0.00000000000E+00 -0.34412716860E+04  0.34412716860E+04  0.00000000000E+00 0.  1.
         23    2    1    2    0    0 -0.23734174141E+03  0.76736557857E+02 -0.20322452601E+04  0.20496154055E+04  0.93182142786E+02 0.  0.
        254    2    1    2    0    0  0.23734174141E+03 -0.76736557857E+02 -0.12525545584E+04  0.15481281480E+04  0.87497899370E+03 0.  0.
        -24    2    4    4    0    0  0.26749673401E+03 -0.33187656333E+03 -0.23005068169E+03  0.49059598936E+03  0.77875237615E+02 0.  0.
         24    2    4    4    0    0 -0.30154992602E+02  0.25514000547E+03 -0.10225038767E+04  0.10575321587E+04  0.82790958140E+02 0.  0.
         13    1    3    3    0    0 -0.32568006859E+02 -0.19315153170E+02 -0.20996681158E+03  0.21335372548E+03  0.00000000000E+00 0. -1.
        -13    1    3    3    0    0 -0.20477373455E+03  0.96051711027E+02 -0.18222784485E+04  0.18362616800E+04  0.00000000000E+00 0.  1.
          4    1    6    6  502    0 -0.12886381413E+02  0.25165723114E+03 -0.94180444035E+03  0.97493231800E+03  0.00000000000E+00 0. -1.
          1    1    5    5  503    0  0.24417177376E+03 -0.28905793424E+03 -0.22805496058E+03  0.44179566486E+03  0.00000000000E+00 0. -1.
         -2    1    5    5    0  503  0.23324960251E+02 -0.42818629094E+02 -0.19957211118E+01  0.48800324497E+02  0.00000000000E+00 0.  1.
         -3    1    6    6    0  502 -0.17268611189E+02  0.34827743339E+01 -0.80699436383E+02  0.82599840690E+02  0.00000000000E+00 0.  1.
<mgrwt>
<rscale>  0 0.14675997E+04</rscale>
<asrwt>0</asrwt>
<pdfrwt beam="1">  1        2 0.52942641E+00 0.14675997E+04</pdfrwt>
<pdfrwt beam="2">  1       -2 0.24072595E-01 0.14675997E+04</pdfrwt>
<totfact> 0.13478392E+01</totfact>
</mgrwt>
</event>
<event>
12    1  0.1541840E-007  0.2244013E+04  0.7818608E-02  0.8500329E-01
          1   -1    0    0  501    0  0.00000000000E+00  0.00000000000E+00  0.12181859505E+04  0.12181859505E+04  0.00000000000E+00 0. -1.
         -1   -1    0    0    0  501 -0.00000000000E+00 -0.00000000000E+00 -0.10334205341E+04  0.10334205341E+04  0.00000000000E+00 0.  1.
         23    2    1    2    0    0  0.44126656330E+03 -0.44879657048E+03  0.78411237574E+03  0.10097848681E+04  0.93266931499E+02 0.  0.
        254    2    1    2    0    0 -0.44126656330E+03  0.44879657048E+03 -0.59934695940E+03  0.12418216165E+04  0.88700034264E+03 0.  0.
        -24    2    4    4    0    0 -0.49081209905E+03  0.58941749236E+03 -0.70289381974E+03  0.10435623022E+04  0.81566290776E+02 0.  0.
         24    2    4    4    0    0  0.49545535748E+02 -0.14062092188E+03  0.10354686034E+03  0.19825931431E+03  0.79723269140E+02 0.  0.
         13    1    3    3    0    0  0.11383348909E+03 -0.14493678906E+03  0.17264230818E+03  0.25252742947E+03  0.00000000000E+00 0. -1.
        -13    1    3    3    0    0  0.32743307421E+03 -0.30385978142E+03  0.61147006756E+03  0.75725743864E+03  0.00000000000E+00 0.  1.
          2    1    6    6  502    0  0.48059276399E+01 -0.95323842415E+02  0.28009555596E+02  0.99469930521E+02  0.00000000000E+00 0. -1.
          3    1    5    5  503    0 -0.45180333345E+03  0.51182457391E+03 -0.59979653901E+03  0.90876098881E+03  0.00000000000E+00 0. -1.
         -4    1    5    5    0  503 -0.39008765597E+02  0.77592918451E+02 -0.10309728073E+03  0.13480131335E+03  0.00000000000E+00 0.  1.
         -1    1    6    6    0  502  0.44739608108E+02 -0.45297079465E+02  0.75537304746E+02  0.98789383792E+02  0.00000000000E+00 0.  1.
<mgrwt>
<rscale>  0 0.22440128E+04</rscale>
<asrwt>0</asrwt>
<pdfrwt beam="1">  1        1 0.18741322E+00 0.22440128E+04</pdfrwt>
<pdfrwt beam="2">  1       -1 0.15898777E+00 0.22440128E+04</pdfrwt>
<totfact> 0.28001695E+00</totfact>
</mgrwt>
</event>
<event>
12    1  0.1541840E-007  0.1775714E+04  0.7818608E-02  0.8719322E-01
         -1   -1    0    0    0  501 -0.00000000000E+00  0.00000000000E+00  0.46260559445E+03  0.46260559445E+03  0.00000000000E+00 0.  1.
          1   -1    0    0  501    0  0.00000000000E+00 -0.00000000000E+00 -0.17040227963E+04  0.17040227963E+04  0.00000000000E+00 0. -1.
         23    2    1    2    0    0  0.44907722651E+03  0.45388893100E+03 -0.61823130814E+03  0.89323727857E+03  0.89316115043E+02 0.  0.
        254    2    1    2    0    0 -0.44907722651E+03 -0.45388893100E+03 -0.62318589372E+03  0.12733911122E+04  0.90855861088E+03 0.  0.
        -24    2    4    4    0    0 -0.46679197148E+02 -0.80660150944E+02  0.22738931208E+03  0.25808007524E+03  0.78831583744E+02 0.  0.
         24    2    4    4    0    0 -0.40239802936E+03 -0.37322878006E+03 -0.85057520579E+03  0.10153110369E+04  0.78450141666E+02 0.  0.
         13    1    3    3    0    0  0.36581799084E+02  0.10705453852E+02 -0.24884395387E+02  0.45519972542E+02  0.00000000000E+00 0.  1.
        -13    1    3    3    0    0  0.41249542743E+03  0.44318347715E+03 -0.59334691275E+03  0.84771730603E+03  0.00000000000E+00 0. -1.
          4    1    6    6  502    0 -0.10584521974E+03 -0.14631760523E+03 -0.25890798350E+03  0.31566659003E+03  0.00000000000E+00 0. -1.
          1    1    5    5  503    0 -0.35268624717E+02  0.89260509790E+00  0.39641352031E+02  0.53067027655E+02  0.00000000000E+00 0. -1.
         -2    1    5    5    0  503 -0.11410572431E+02 -0.81552756042E+02  0.18774796004E+03  0.20501304759E+03  0.00000000000E+00 0.  1.
         -3    1    6    6    0  502 -0.29655280962E+03 -0.22691117483E+03 -0.59166722230E+03  0.69964444691E+03  0.00000000000E+00 0.  1.
<mgrwt>
<rscale>  0 0.17757145E+04</rscale>
<asrwt>0</asrwt>
<pdfrwt beam="1">  1        1 0.26215736E+00 0.17757145E+04</pdfrwt>
<pdfrwt beam="2">  1       -1 0.71170091E-01 0.17757145E+04</pdfrwt>
<totfact> 0.89284302E+00</totfact>
</mgrwt>
</event>
<event>
12    1  0.1541840E-007  0.1415873E+04  0.7818608E-02  0.8942408E-01
         -2   -1    0    0    0  501 -0.00000000000E+00  0.00000000000E+00  0.63602974612E+03  0.63602974612E+03  0.00000000000E+00 0.  1.
          2   -1    0    0  501    0  0.00000000000E+00 -0.00000000000E+00 -0.78797305731E+03  0.78797305731E+03  0.00000000000E+00 0. -1.
         23    2    1    2    0    0 -0.25701763135E+03  0.54188676803E+02 -0.37812734891E+03  0.46924314206E+03  0.90633100234E+02 0.  0.
        254    2    1    2    0    0  0.25701763135E+03 -0.54188676803E+02  0.22618403772E+03  0.95475966137E+03  0.88961357708E+03 0.  0.
        -24    2    4    4    0    0 -0.10307192744E+03  0.33918001995E+03 -0.18357659614E+02  0.36257945484E+03  0.73891469328E+02 0.  0.
         24    2    4    4    0    0  0.36008955880E+03 -0.39336869676E+03  0.24454169733E+03  0.59218020653E+03  0.80457027836E+02 0.  0.
         13    1    3    3    0    0 -0.13586373995E+03  0.58889048622E+02 -0.14930023005E+03  0.21027942024E+03  0.00000000000E+00 0.  1.
        -13    1    3    3    0    0 -0.12115389140E+03 -0.47003718189E+01 -0.22882711886E+03  0.25896372182E+03  0.00000000000E+00 0. -1.
          4    1    6    6  502    0  0.51905516565E+02 -0.22150564774E+02  0.32944807304E+02  0.65346694621E+02  0.00000000000E+00 0. -1.
          1    1    5    5  503    0 -0.19951193785E+02  0.47847622204E+02 -0.29064436196E+02  0.59432201166E+02  0.00000000000E+00 0. -1.
         -2    1    5    5    0  503 -0.83120733659E+02  0.29133239775E+03  0.10706776582E+02  0.30314725367E+03  0.00000000000E+00 0.  1.
         -3    1    6    6    0  502  0.30818404223E+03 -0.37121813198E+03  0.21159689003E+03  0.52683351191E+03  0.00000000000E+00 0.  1.
<mgrwt>
<rscale>  0 0.14158733E+04</rscale>
<asrwt>0</asrwt>
<pdfrwt beam="1">  1        2 0.12122662E+00 0.14158733E+04</pdfrwt>
<pdfrwt beam="2">  1       -2 0.97850731E-01 0.14158733E+04</pdfrwt>
<totfact> 0.29718253E+01</totfact>
</mgrwt>
</event>
<event>
12    1  0.1541840E-007  0.2173737E+04  0.7818608E-02  0.8529439E-01
         -2   -1    0    0    0  501 -0.00000000000E+00  0.00000000000E+00  0.72325736389E+03  0.72325736389E+03  0.00000000000E+00 0.  1.
          2   -1    0    0  501    0  0.00000000000E+00 -0.00000000000E+00 -0.16332822157E+04  0.16332822157E+04  0.00000000000E+00 0. -1.
         23    2    1    2    0    0  0.38155561379E+03  0.75032742845E+03 -0.71256492885E+03  0.11067015520E+04  0.91997886655E+02 0.  0.
        254    2    1    2    0    0 -0.38155561379E+03 -0.75032742845E+03 -0.19745992297E+03  0.12498380276E+04  0.90251245844E+03 0.  0.
        -24    2    4    4    0    0 -0.36700357704E+03 -0.64878225064E+03 -0.51328638315E+03  0.90841733478E+03  0.78416252778E+02 0.  0.
         24    2    4    4    0    0 -0.14552036757E+02 -0.10154517781E+03  0.31582646018E+03  0.34142069278E+03  0.79363414710E+02 0.  0.
         13    1    3    3    0    0  0.33452964809E+03  0.58294270509E+03 -0.54619689319E+03  0.86606196603E+03  0.00000000000E+00 0. -1.
        -13    1    3    3    0    0  0.47025965704E+02  0.16738472336E+03 -0.16636803567E+03  0.24063958601E+03  0.00000000000E+00 0.  1.
          4    1    6    6  502    0 -0.31776932887E+02 -0.67060862093E+01  0.97384477095E+02  0.10265710611E+03  0.00000000000E+00 0. -1.
          1    1    5    5  503    0 -0.12149552910E+02 -0.66418085118E+02 -0.48413906235E+02  0.83083572284E+02  0.00000000000E+00 0. -1.
         -2    1    5    5    0  503 -0.35485402413E+03 -0.58236416552E+03 -0.46487247691E+03  0.82533376249E+03  0.00000000000E+00 0.  1.
         -3    1    6    6    0  502  0.17224896130E+02 -0.94839091603E+02  0.21844198309E+03  0.23876358667E+03  0.00000000000E+00 0.  1.
<mgrwt>
<rscale>  0 0.21737372E+04</rscale>
<asrwt>0</asrwt>
<pdfrwt beam="1">  1        2 0.25127419E+00 0.21737372E+04</pdfrwt>
<pdfrwt beam="2">  1       -2 0.11127036E+00 0.21737372E+04</pdfrwt>
<totfact> 0.62540398E+00</totfact>
</mgrwt>
</event>
<event>
12    1  0.1541840E-007  0.2178003E+04  0.7818608E-02  0.8527640E-01
         -1   -1    0    0    0  501 -0.00000000000E+00  0.00000000000E+00  0.47440765571E+03  0.47440765571E+03  0.00000000000E+00 0.  1.
          1   -1    0    0  501    0  0.00000000000E+00 -0.00000000000E+00 -0.24998003050E+04  0.24998003050E+04  0.00000000000E+00 0. -1.
         23    2    1    2    0    0 -0.15300429638E+03  0.31284723919E+03 -0.19754377913E+04  0.20086575256E+04  0.10519923113E+03 0.  0.
        254    2    1    2    0    0  0.15300429638E+03 -0.31284723919E+03 -0.49954858055E+02  0.96555043514E+03  0.89917097661E+03 0.  0.
        -24    2    4    4    0    0 -0.34906336110E+03 -0.22586534535E+03 -0.13053221405E+03  0.44359862595E+03  0.82949971360E+02 0.  0.
         24    2    4    4    0    0  0.50206765748E+03 -0.86981893838E+02  0.80577355998E+02  0.52195180919E+03  0.79392684006E+02 0.  0.
         13    1    3    3    0    0 -0.16722110885E+03  0.30417157349E+03 -0.18787030117E+04  0.19104994770E+04  0.00000000000E+00 0. -1.
        -13    1    3    3    0    0  0.14216812478E+02  0.86756656944E+01 -0.96734779576E+02  0.98158048636E+02  0.00000000000E+00 0.  1.
          4    1    6    6  502    0  0.43775670027E+03 -0.69725761236E+02  0.42650347675E+02  0.44532197629E+03  0.00000000000E+00 0. -1.
          3    1    5    5  503    0 -0.26779631052E+03 -0.17073519773E+03 -0.61324192118E+02  0.32345946919E+03  0.00000000000E+00 0. -1.
         -4    1    5    5    0  503 -0.81267050584E+02 -0.55130147614E+02 -0.69208021935E+02  0.12013915676E+03  0.00000000000E+00 0.  1.
         -3    1    6    6    0  502  0.64310957207E+02 -0.17256132603E+02  0.37927008323E+02  0.76629832895E+02  0.00000000000E+00 0.  1.
<mgrwt>
<rscale>  0 0.21780031E+04</rscale>
<asrwt>0</asrwt>
<pdfrwt beam="1">  1        1 0.38458466E+00 0.21780031E+04</pdfrwt>
<pdfrwt beam="2">  1       -1 0.72985794E-01 0.21780031E+04</pdfrwt>
<totfact> 0.23428557E+00</totfact>
</mgrwt>
</event>
<event>
12    1  0.1541840E-007  0.1248226E+04  0.7818608E-02  0.9071661E-01
          1   -1    0    0  501    0  0.00000000000E+00  0.00000000000E+00  0.20116344906E+04  0.20116344906E+04  0.00000000000E+00 0. -1.
         -1   -1    0    0    0  501 -0.00000000000E+00 -0.00000000000E+00 -0.19363205185E+03  0.19363205185E+03  0.00000000000E+00 0.  1.
         23    2    1    2    0    0 -0.30038574478E+03 -0.65142122502E+02  0.40803094319E+03  0.52037461607E+03  0.99123148950E+02 0.  0.
        254    2    1    2    0    0  0.30038574478E+03  0.65142122502E+02  0.14099714956E+04  0.16848919264E+04  0.86969310307E+03 0.  0.
        -24    2    4    4    0    0  0.50950171815E+03  0.85075548954E+02  0.42346493115E+03  0.67283735474E+03  0.80979677631E+02 0.  0.
         24    2    4    4    0    0 -0.20911597337E+03 -0.19933426452E+02  0.98650656443E+03  0.10120545717E+04  0.83261170717E+02 0.  0.
         11    1    3    3    0    0 -0.70780177944E+02  0.14823178125E+02  0.14595402941E+03  0.16288688990E+03  0.00000000000E+00 0. -1.
        -11    1    3    3    0    0 -0.22960556683E+03 -0.79965300627E+02  0.26207691377E+03  0.35748772617E+03  0.00000000000E+00 0.  1.
          2    1    6    6  502    0 -0.17937713365E+03 -0.13613006421E+01  0.66949819210E+03  0.69311314981E+03  0.00000000000E+00 0. -1.
          1    1    5    5  503    0  0.98803883635E+01 -0.20225701836E+01  0.27873977871E+02  0.29642393742E+02  0.00000000000E+00 0. -1.
         -2    1    5    5    0  503  0.49962132979E+03  0.87098119137E+02  0.39559095327E+03  0.64319496100E+03  0.00000000000E+00 0.  1.
         -1    1    6    6    0  502 -0.29738839725E+02 -0.18572125809E+02  0.31700837234E+03  0.31894142186E+03  0.00000000000E+00 0.  1.
<mgrwt>
<rscale>  0 0.12482258E+04</rscale>
<asrwt>0</asrwt>
<pdfrwt beam="1">  1        1 0.30948222E+00 0.12482258E+04</pdfrwt>
<pdfrwt beam="2">  1       -1 0.29789548E-01 0.12482258E+04</pdfrwt>
<totfact> 0.29864868E+01</totfact>
</mgrwt>
</event>
<event>
12    1  0.1541840E-007  0.1584678E+04  0.7818608E-02  0.8830016E-01
         -1   -1    0    0    0  501 -0.00000000000E+00  0.00000000000E+00  0.16743056586E+04  0.16743056586E+04  0.00000000000E+00 0.  1.
          1   -1    0    0  501    0  0.00000000000E+00 -0.00000000000E+00 -0.37496213436E+03  0.37496213436E+03  0.00000000000E+00 0. -1.
         23    2    1    2    0    0 -0.48813345573E+03 -0.19603906446E+03  0.49793062019E+03  0.72984325739E+03  0.89614130819E+02 0.  0.
        254    2    1    2    0    0  0.48813345573E+03  0.19603906446E+03  0.80141290402E+03  0.13194245355E+04  0.90659410811E+03 0.  0.
        -24    2    4    4    0    0  0.59019219148E+03  0.60874986480E+02  0.92053661328E+03  0.10980250281E+04  0.78985562672E+02 0.  0.
         24    2    4    4    0    0 -0.10205873575E+03  0.13516407798E+03 -0.11912370927E+03  0.22139950742E+03  0.78370723220E+02 0.  0.
         13    1    3    3    0    0 -0.27159080720E+03 -0.96671337935E+02  0.21304909587E+03  0.35846454690E+03  0.00000000000E+00 0. -1.
        -13    1    3    3    0    0 -0.21654264852E+03 -0.99367726527E+02  0.28488152432E+03  0.37137871049E+03  0.00000000000E+00 0.  1.
          2    1    6    6  502    0 -0.75707469381E+02  0.54277720341E+02 -0.94825536558E+02  0.13292695073E+03  0.00000000000E+00 0. -1.
          3    1    5    5  503    0  0.32333580743E+03  0.50418813329E+02  0.57121972343E+03  0.65831608938E+03  0.00000000000E+00 0. -1.
         -4    1    5    5    0  503  0.26685638405E+03  0.10456173151E+02  0.34931688985E+03  0.43970893873E+03  0.00000000000E+00 0.  1.
         -1    1    6    6    0  502 -0.26351266371E+02  0.80886357641E+02 -0.24298172707E+02  0.88472556699E+02  0.00000000000E+00 0.  1.
<mgrwt>
<rscale>  0 0.15846782E+04</rscale>
<asrwt>0</asrwt>
<pdfrwt beam="1">  1        1 0.57686483E-01 0.15846782E+04</pdfrwt>
<pdfrwt beam="2">  1       -1 0.25758548E+00 0.15846782E+04</pdfrwt>
<totfact> 0.39103140E+00</totfact>
</mgrwt>
</event>
<event>
12    1  0.1541840E-007  0.1409619E+04  0.7818608E-02  0.8946885E-01
         -1   -1    0    0    0  501 -0.00000000000E+00  0.00000000000E+00  0.28335189920E+03  0.28335189920E+03  0.00000000000E+00 0.  1.
          1   -1    0    0  501    0  0.00000000000E+00 -0.00000000000E+00 -0.17531443017E+04  0.17531443017E+04  0.00000000000E+00 0. -1.
         23    2    1    2    0    0  0.30594371547E+03  0.25793710446E+03 -0.58895318398E+03  0.71828992483E+03  0.94559273983E+02 0.  0.
        254    2    1    2    0    0 -0.30594371547E+03 -0.25793710446E+03 -0.88083921850E+03  0.13182062760E+04  0.89535297536E+03 0.  0.
        -24    2    4    4    0    0 -0.37293261866E+02 -0.44963673850E+02 -0.95373578529E+03  0.95860433595E+03  0.76797170579E+02 0.  0.
         24    2    4    4    0    0 -0.26865045361E+03 -0.21297343061E+03  0.72896566794E+02  0.35960194010E+03  0.80429456705E+02 0.  0.
         13    1    3    3    0    0  0.50319198624E+01  0.13424777402E+02 -0.14957704177E+01  0.14414652092E+02  0.00000000000E+00 0. -1.
        -13    1    3    3    0    0  0.30091179561E+03  0.24451232705E+03 -0.58745741356E+03  0.70387527273E+03  0.00000000000E+00 0.  1.
          4    1    6    6  502    0 -0.14948318262E+03 -0.84690699693E+02  0.67003851193E+02  0.18441055440E+03  0.00000000000E+00 0. -1.
          3    1    5    5  503    0 -0.32967187803E+02 -0.29834511310E+02 -0.20784500892E+03  0.21254759766E+03  0.00000000000E+00 0. -1.
         -4    1    5    5    0  503 -0.43260740635E+01 -0.15129162540E+02 -0.74589077637E+03  0.74605673829E+03  0.00000000000E+00 0.  1.
         -3    1    6    6    0  502 -0.11916727098E+03 -0.12828273091E+03  0.58927156015E+01  0.17519138570E+03  0.00000000000E+00 0.  1.
<mgrwt>
<rscale>  0 0.14096195E+04</rscale>
<asrwt>0</asrwt>
<pdfrwt beam="1">  1        1 0.26971451E+00 0.14096195E+04</pdfrwt>
<pdfrwt beam="2">  1       -1 0.43592599E-01 0.14096195E+04</pdfrwt>
<totfact> 0.22203519E+01</totfact>
</mgrwt>
</event>
<event>
12    1  0.1541840E-007  0.1957451E+04  0.7818608E-02  0.8626776E-01
          2   -1    0    0  501    0  0.00000000000E+00  0.00000000000E+00  0.15315939720E+04  0.15315939720E+04  0.00000000000E+00 0. -1.
         -2   -1    0    0    0  501 -0.00000000000E+00 -0.00000000000E+00 -0.62542947441E+03  0.62542947441E+03  0.00000000000E+00 0.  1.
         23    2    1    2    0    0  0.59439136610E+03  0.17044277768E+03  0.86088367957E+03  0.10637464530E+04  0.89910900334E+02 0.  0.
        254    2    1    2    0    0 -0.59439136610E+03 -0.17044277768E+03  0.45280818035E+02  0.10932769934E+04  0.90047342841E+03 0.  0.
        -24    2    4    4    0    0 -0.70948322875E+03 -0.11427260969E+03  0.31075521066E+03  0.78710590726E+03  0.80884034783E+02 0.  0.
         24    2    4    4    0    0  0.11509186265E+03 -0.56170167988E+02 -0.26547439263E+03  0.30617108615E+03  0.82842357710E+02 0.  0.
         11    1    3    3    0    0  0.50730798233E+03  0.11959969267E+03  0.75590519534E+03  0.91818197530E+03  0.00000000000E+00 0. -1.
        -11    1    3    3    0    0  0.87083383762E+02  0.50843085007E+02  0.10497848423E+03  0.14556447771E+03  0.00000000000E+00 0.  1.
          2    1    6    6  502    0  0.12619443856E+03 -0.60347548597E+02 -0.23516210347E+03  0.27362031696E+03  0.00000000000E+00 0. -1.
          3    1    5    5  503    0 -0.46615019444E+03 -0.45285930757E+02  0.22873205553E+03  0.52121509238E+03  0.00000000000E+00 0. -1.
         -4    1    5    5    0  503 -0.24333303431E+03 -0.68986678936E+02  0.82023155136E+02  0.26589081488E+03  0.00000000000E+00 0.  1.
         -1    1    6    6    0  502 -0.11102575910E+02  0.41773806093E+01 -0.30312289157E+02  0.32550769185E+02  0.00000000000E+00 0.  1.
<mgrwt>
<rscale>  0 0.19574514E+04</rscale>
<asrwt>0</asrwt>
<pdfrwt beam="1">  1        2 0.23562984E+00 0.19574514E+04</pdfrwt>
<pdfrwt beam="2">  1       -2 0.96219920E-01 0.19574514E+04</pdfrwt>
<totfact> 0.10274748E+01</totfact>
</mgrwt>
</event>
<event>
12    1  0.1541840E-007  0.1926148E+04  0.7818608E-02  0.8641949E-01
         -2   -1    0    0    0  501 -0.00000000000E+00  0.00000000000E+00  0.41315711011E+03  0.41315711011E+03  0.00000000000E+00 0.  1.
          2   -1    0    0  501    0  0.00000000000E+00 -0.00000000000E+00 -0.22449366315E+04  0.22449366315E+04  0.00000000000E+00 0. -1.
         23    2    1    2    0    0  0.58191723464E+03 -0.47835104791E+03 -0.76717081486E+03  0.10808639240E+04  0.11076267398E+03 0.  0.
        254    2    1    2    0    0 -0.58191723464E+03  0.47835104791E+03 -0.10646087065E+04  0.15772298176E+04  0.88702582073E+03 0.  0.
        -24    2    4    4    0    0  0.22130575749E+03  0.15121260486E+03 -0.36700025695E+03  0.46132996193E+03  0.79338861875E+02 0.  0.
         24    2    4    4    0    0 -0.80322299214E+03  0.32713844305E+03 -0.69760844957E+03  0.11158998557E+04  0.79926235030E+02 0.  0.
         13    1    3    3    0    0  0.47025090170E+03 -0.35860549996E+03 -0.65454588301E+03  0.88213611655E+03  0.00000000000E+00 0. -1.
        -13    1    3    3    0    0  0.11166633295E+03 -0.11974554795E+03 -0.11262493184E+03  0.19872780742E+03  0.00000000000E+00 0.  1.
          4    1    6    6  502    0 -0.74453020435E+03  0.28609917979E+03 -0.65842700004E+03  0.10342649952E+04  0.00000000000E+00 0. -1.
          1    1    5    5  503    0  0.79725841621E+02  0.67841052900E+02 -0.84533664692E+02  0.13455318185E+03  0.00000000000E+00 0. -1.
         -2    1    5    5    0  503  0.14157991587E+03  0.83371551962E+02 -0.28246659225E+03  0.32677678007E+03  0.00000000000E+00 0.  1.
         -3    1    6    6    0  502 -0.58692787785E+02  0.41039263263E+02 -0.39181449530E+02  0.81634860534E+02  0.00000000000E+00 0.  1.
<mgrwt>
<rscale>  0 0.19261480E+04</rscale>
<asrwt>0</asrwt>
<pdfrwt beam="1">  1        2 0.34537486E+00 0.19261480E+04</pdfrwt>
<pdfrwt beam="2">  1       -2 0.63562633E-01 0.19261480E+04</pdfrwt>
<totfact> 0.10429645E+01</totfact>
</mgrwt>
</event>
<event>
12    1  0.1541840E-007  0.1728262E+04  0.7818608E-02  0.8745407E-01
          2   -1    0    0  501    0  0.00000000000E+00  0.00000000000E+00  0.13855609558E+04  0.13855609558E+04  0.00000000000E+00 0.  1.
         -2   -1    0    0    0  501 -0.00000000000E+00 -0.00000000000E+00 -0.53893168642E+03  0.53893168642E+03  0.00000000000E+00 0. -1.
         23    2    1    2    0    0 -0.47420628443E+02  0.61080596976E+03  0.14882635165E+03  0.63716390105E+03  0.92173234476E+02 0.  0.
        254    2    1    2    0    0  0.47420628443E+02 -0.61080596976E+03  0.69780291778E+03  0.12873287412E+04  0.89160177614E+03 0.  0.
        -24    2    4    4    0    0  0.18163552141E+02 -0.61627747180E+03  0.39097396287E+02  0.62292864116E+03  0.79897739051E+02 0.  0.
         24    2    4    4    0    0  0.29257076302E+02  0.54715020429E+01  0.65870552149E+03  0.66440010005E+03  0.81539040112E+02 0.  0.
         13    1    3    3    0    0 -0.16002246458E+02  0.12104589125E+03 -0.68686159746E+01  0.12229209936E+03  0.00000000000E+00 0. -1.
        -13    1    3    3    0    0 -0.31418381985E+02  0.48976007851E+03  0.15569496762E+03  0.51487180169E+03  0.00000000000E+00 0.  1.
          4    1    6    6  502    0  0.48767415260E+02 -0.21484346260E+02  0.42890038038E+03  0.43219830427E+03  0.00000000000E+00 0. -1.
          1    1    5    5  503    0 -0.14837679595E+02 -0.29026076662E+02  0.97226858984E+01  0.34017649584E+02  0.00000000000E+00 0. -1.
         -2    1    5    5    0  503  0.33001231736E+02 -0.58725139514E+03  0.29374710389E+02  0.58891099158E+03  0.00000000000E+00 0.  1.
         -3    1    6    6    0  502 -0.19510338958E+02  0.26955848303E+02  0.22980514111E+03  0.23220179579E+03  0.00000000000E+00 0.  1.
<mgrwt>
<rscale>  0 0.17282624E+04</rscale>
<asrwt>0</asrwt>
<pdfrwt beam="1">  1        2 0.21316322E+00 0.17282624E+04</pdfrwt>
<pdfrwt beam="2">  1       -2 0.82912567E-01 0.17282624E+04</pdfrwt>
<totfact> 0.17855281E+01</totfact>
</mgrwt>
</event>
<event>
12    1  0.1541840E-007  0.1232788E+04  0.7818608E-02  0.9084632E-01
         -2   -1    0    0    0  501 -0.00000000000E+00  0.00000000000E+00  0.50739657955E+03  0.50739657955E+03  0.00000000000E+00 0.  1.
          2   -1    0    0  501    0  0.00000000000E+00 -0.00000000000E+00 -0.74880557214E+03  0.74880557214E+03  0.00000000000E+00 0. -1.
         23    2    1    2    0    0  0.10568829293E+03 -0.16650558790E+02 -0.29942254279E+03  0.33058677758E+03  0.90479290519E+02 0.  0.
        254    2    1    2    0    0 -0.10568829293E+03  0.16650558790E+02  0.58013550199E+02  0.92561537411E+03  0.91757887531E+03 0.  0.
        -24    2    4    4    0    0  0.31939482941E+03 -0.10027163531E+03  0.26255500929E+03  0.43286361541E+03  0.79801746500E+02 0.  0.
         24    2    4    4    0    0 -0.42508312234E+03  0.11692219410E+03 -0.20454145909E+03  0.49275175870E+03  0.81244241916E+02 0.  0.
         11    1    3    3    0    0 -0.89740368555E+01 -0.18233179533E+02 -0.85338609137E+02  0.87724913125E+02  0.00000000000E+00 0. -1.
        -11    1    3    3    0    0  0.11466232979E+03  0.15826207433E+01 -0.21408393365E+03  0.24286186446E+03  0.00000000000E+00 0.  1.
          4    1    6    6  502    0 -0.84485642637E+02  0.58286146611E+02 -0.43914130044E+02  0.11164026834E+03  0.00000000000E+00 0. -1.
          3    1    5    5  503    0  0.26087650244E+03 -0.48657404375E+02  0.19067941561E+03  0.32677627218E+03  0.00000000000E+00 0. -1.
         -4    1    5    5    0  503  0.58518326970E+02 -0.51614230939E+02  0.71875593679E+02  0.10608734323E+03  0.00000000000E+00 0.  1.
         -1    1    6    6    0  502 -0.34059747970E+03  0.58636047492E+02 -0.16062732904E+03  0.38111149036E+03  0.00000000000E+00 0.  1.
<mgrwt>
<rscale>  0 0.12327877E+04</rscale>
<asrwt>0</asrwt>
<pdfrwt beam="1">  1        2 0.11520086E+00 0.12327877E+04</pdfrwt>
<pdfrwt beam="2">  1       -2 0.78061013E-01 0.12327877E+04</pdfrwt>
<totfact> 0.54067421E+01</totfact>
</mgrwt>
</event>
<event>
12    1  0.1541840E-007  0.1530660E+04  0.7818608E-02  0.8864317E-01
          2   -1    0    0  501    0  0.00000000000E+00  0.00000000000E+00  0.41663118079E+03  0.41663118079E+03  0.00000000000E+00 0. -1.
         -2   -1    0    0    0  501 -0.00000000000E+00 -0.00000000000E+00 -0.14058714250E+04  0.14058714250E+04  0.00000000000E+00 0.  1.
         23    2    1    2    0    0  0.31329914125E+02  0.35053203981E+03  0.89543973699E+02  0.37411598327E+03  0.89946491113E+02 0.  0.
        254    2    1    2    0    0 -0.31329914125E+02 -0.35053203981E+03 -0.10787842179E+04  0.14483866225E+04  0.90010785187E+03 0.  0.
        -24    2    4    4    0    0 -0.22227138687E+03 -0.23124058813E+02 -0.10316993215E+04  0.10585843475E+04  0.79107770788E+02 0.  0.
         24    2    4    4    0    0  0.19094147274E+03 -0.32740798100E+03 -0.47084896410E+02  0.38980227495E+03  0.77937116041E+02 0.  0.
         11    1    3    3    0    0  0.31855397500E+02  0.14440544662E+03  0.79149060201E+02  0.16772678109E+03  0.00000000000E+00 0. -1.
        -11    1    3    3    0    0 -0.52548337461E+00  0.20612659319E+03  0.10394913498E+02  0.20638920218E+03  0.00000000000E+00 0.  1.
          2    1    6    6  502    0  0.58549327482E+02 -0.41936434182E+02 -0.33068547354E+01  0.72094545901E+02  0.00000000000E+00 0. -1.
          1    1    5    5  503    0 -0.13095122987E+02  0.17427799068E+02 -0.14588190182E+03  0.14750166001E+03  0.00000000000E+00 0. -1.
         -2    1    5    5    0  503 -0.20917626388E+03 -0.40551857881E+02 -0.88581741965E+03  0.91108268752E+03  0.00000000000E+00 0.  1.
         -1    1    6    6    0  502  0.13239214526E+03 -0.28547154681E+03 -0.43778041675E+02  0.31770772905E+03  0.00000000000E+00 0.  1.
<mgrwt>
<rscale>  0 0.15306598E+04</rscale>
<asrwt>0</asrwt>
<pdfrwt beam="1">  1        2 0.64097105E-01 0.15306598E+04</pdfrwt>
<pdfrwt beam="2">  1       -2 0.21628791E+00 0.15306598E+04</pdfrwt>
<totfact> 0.76331187E+00</totfact>
</mgrwt>
</event>
<event>
12    1  0.1541840E-007  0.2376318E+04  0.7818608E-02  0.8448423E-01
          2   -1    0    0  501    0  0.00000000000E+00  0.00000000000E+00  0.19921005747E+04  0.19921005747E+04  0.00000000000E+00 0. -1.
         -2   -1    0    0    0  501 -0.00000000000E+00 -0.00000000000E+00 -0.70866007139E+03  0.70866007139E+03  0.00000000000E+00 0.  1.
         23    2    1    2    0    0  0.53568108482E+03 -0.72958699379E+03  0.10978953027E+04  0.14257980462E+04  0.90964645549E+02 0.  0.
        254    2    1    2    0    0 -0.53568108482E+03  0.72958699379E+03  0.18554520060E+03  0.12749625999E+04  0.87855062656E+03 0.  0.
        -24    2    4    4    0    0  0.21571963146E+03  0.12595542636E+03 -0.76125941035E+02  0.27304991594E+03  0.79758190003E+02 0.  0.
         24    2    4    4    0    0 -0.75140071628E+03  0.60363156743E+03  0.26167114163E+03  0.10019126839E+04  0.79894519273E+02 0.  0.
         13    1    3    3    0    0  0.71119520611E+02 -0.12324451138E+03  0.22121101726E+03  0.26302378211E+03  0.00000000000E+00 0. -1.
        -13    1    3    3    0    0  0.46456156421E+03 -0.60634248241E+03  0.87668428542E+03  0.11627742641E+04  0.00000000000E+00 0.  1.
          4    1    6    6  502    0 -0.71733324216E+03  0.55159797612E+03  0.24742694785E+03  0.93810841702E+03  0.00000000000E+00 0. -1.
          3    1    5    5  503    0  0.74745258226E+02  0.46784180983E+02 -0.67655920661E+02  0.11114376644E+03  0.00000000000E+00 0. -1.
         -4    1    5    5    0  503  0.14097437323E+03  0.79171245375E+02 -0.84700203738E+01  0.16190614950E+03  0.00000000000E+00 0.  1.
         -3    1    6    6    0  502 -0.34067474121E+02  0.52033591312E+02  0.14244193782E+02  0.63804266897E+02  0.00000000000E+00 0.  1.
<mgrwt>
<rscale>  0 0.23763183E+04</rscale>
<asrwt>0</asrwt>
<pdfrwt beam="1">  1        2 0.30647701E+00 0.23763183E+04</pdfrwt>
<pdfrwt beam="2">  1       -2 0.10902463E+00 0.23763183E+04</pdfrwt>
<totfact> 0.40822147E+00</totfact>
</mgrwt>
</event>
<event>
12    1  0.1541840E-007  0.2912483E+04  0.7818608E-02  0.8269173E-01
          2   -1    0    0  501    0  0.00000000000E+00  0.00000000000E+00  0.27186359553E+04  0.27186359553E+04  0.00000000000E+00 0.  1.
         -2   -1    0    0    0  501 -0.00000000000E+00 -0.00000000000E+00 -0.78003803800E+03  0.78003803800E+03  0.00000000000E+00 0. -1.
         23    2    1    2    0    0  0.89915558154E+03 -0.95406441139E+03  0.74881382969E+03  0.15124781881E+04  0.90268803728E+02 0.  0.
        254    2    1    2    0    0 -0.89915558154E+03  0.95406441139E+03  0.11897840876E+04  0.19861958052E+04  0.90037100167E+03 0.  0.
        -24    2    4    4    0    0 -0.50575812873E+03 -0.41509457809E+02  0.44595748355E+03  0.68027727239E+03  0.79904757843E+02 0.  0.
         24    2    4    4    0    0 -0.39339745281E+03  0.99557386920E+03  0.74382660404E+03  0.13059185328E+04  0.78843595635E+02 0.  0.
         13    1    3    3    0    0  0.30371214401E+03 -0.34676313888E+03  0.30932602852E+03  0.55512911365E+03  0.00000000000E+00 0. -1.
        -13    1    3    3    0    0  0.59544343753E+03 -0.60730127251E+03  0.43948780117E+03  0.95734907441E+03  0.00000000000E+00 0.  1.
          2    1    6    6  502    0 -0.16790217048E+03  0.42266770663E+03  0.26890747234E+03  0.52834681580E+03  0.00000000000E+00 0. -1.
          1    1    5    5  503    0 -0.43303525125E+03 -0.42875229682E+02  0.41469691728E+03  0.60110843227E+03  0.00000000000E+00 0. -1.
         -2    1    5    5    0  503 -0.72722877482E+02  0.13657718730E+01  0.31260566275E+02  0.79168840120E+02  0.00000000000E+00 0.  1.
         -1    1    6    6    0  502 -0.22549528233E+03  0.57290616257E+03  0.47491913169E+03  0.77757171702E+03  0.00000000000E+00 0.  1.
<mgrwt>
<rscale>  0 0.29124831E+04</rscale>
<asrwt>0</asrwt>
<pdfrwt beam="1">  1        2 0.41825168E+00 0.29124831E+04</pdfrwt>
<pdfrwt beam="2">  1       -2 0.12000585E+00 0.29124831E+04</pdfrwt>
<totfact> 0.11844179E+00</totfact>
</mgrwt>
</event>
<event>
12    1  0.1541840E-007  0.2380008E+04  0.7818608E-02  0.8447026E-01
          2   -1    0    0  501    0  0.00000000000E+00  0.00000000000E+00  0.10980306344E+04  0.10980306344E+04  0.00000000000E+00 0.  1.
         -2   -1    0    0    0  501 -0.00000000000E+00 -0.00000000000E+00 -0.12896812485E+04  0.12896812485E+04  0.00000000000E+00 0. -1.
         23    2    1    2    0    0 -0.27533992546E+03 -0.14085923832E+03  0.85283428022E+03  0.91155605639E+03  0.89189320282E+02 0.  0.
        254    2    1    2    0    0  0.27533992546E+03  0.14085923832E+03 -0.10444848943E+04  0.14761558266E+04  0.99620978228E+03 0.  0.
        -24    2    4    4    0    0  0.21957288359E+03 -0.98967247761E+02 -0.11634958814E+04  0.11913444243E+04  0.87017837572E+02 0.  0.
         24    2    4    4    0    0  0.55767041873E+02  0.23982648608E+03  0.11901098710E+03  0.28481140221E+03  0.79543782862E+02 0.  0.
         11    1    3    3    0    0 -0.19013901957E+03 -0.74881236381E+02  0.65679578429E+03  0.68785227236E+03  0.00000000000E+00 0.  1.
        -11    1    3    3    0    0 -0.85200905894E+02 -0.65978001941E+02  0.19603849592E+03  0.22370378403E+03  0.00000000000E+00 0. -1.
          4    1    6    6  502    0  0.45298009413E+02  0.13407267620E+03  0.26633027098E+02  0.14400246627E+03  0.00000000000E+00 0. -1.
          1    1    5    5  503    0  0.10745443133E+03 -0.91181729483E+02 -0.55908247284E+03  0.57657070168E+03  0.00000000000E+00 0. -1.
         -2    1    5    5    0  503  0.11211845226E+03 -0.77855182786E+01 -0.60441340856E+03  0.61477372267E+03  0.00000000000E+00 0.  1.
         -1    1    6    6    0  502  0.10469032460E+02  0.10575380988E+03  0.92377960007E+02  0.14080893594E+03  0.00000000000E+00 0.  1.
<mgrwt>
<rscale>  0 0.23800080E+04</rscale>
<asrwt>0</asrwt>
<pdfrwt beam="1">  1        2 0.16892779E+00 0.23800080E+04</pdfrwt>
<pdfrwt beam="2">  1       -2 0.19841250E+00 0.23800080E+04</pdfrwt>
<totfact> 0.26806041E+00</totfact>
</mgrwt>
</event>
<event>
12    1  0.1541840E-007  0.1938072E+04  0.7818608E-02  0.8636134E-01
         -2   -1    0    0    0  501 -0.00000000000E+00  0.00000000000E+00  0.60959149246E+03  0.60959149246E+03  0.00000000000E+00 0.  1.
          2   -1    0    0  501    0  0.00000000000E+00 -0.00000000000E+00 -0.15404269308E+04  0.15404269308E+04  0.00000000000E+00 0. -1.
         23    2    1    2    0    0  0.69792143216E+03  0.24854534645E+03 -0.21220874712E+03  0.77614609010E+03  0.92201334671E+02 0.  0.
        254    2    1    2    0    0 -0.69792143216E+03 -0.24854534645E+03 -0.71862669118E+03  0.13738723331E+04  0.90676995525E+03 0.  0.
        -24    2    4    4    0    0 -0.75872427771E+03 -0.40915865223E+03 -0.30303946249E+03  0.91727720381E+03  0.80568110985E+02 0.  0.
         24    2    4    4    0    0  0.60802845553E+02  0.16061330579E+03 -0.41558722869E+03  0.45659512932E+03  0.79200678296E+02 0.  0.
         11    1    3    3    0    0  0.67800761547E+03  0.24485007264E+03 -0.18877452916E+03  0.74517226704E+03  0.00000000000E+00 0.  1.
        -11    1    3    3    0    0  0.19913816689E+02  0.36952738054E+01 -0.23434217954E+02  0.30973823056E+02  0.00000000000E+00 0. -1.
          2    1    6    6  502    0  0.40209350670E+02  0.10797930952E+03 -0.35723917905E+03  0.37536136483E+03  0.00000000000E+00 0. -1.
          3    1    5    5  503    0 -0.51535277207E+03 -0.31757616133E+03 -0.19921032834E+03  0.63728161188E+03  0.00000000000E+00 0. -1.
         -4    1    5    5    0  503 -0.24337150564E+03 -0.91582490906E+02 -0.10382913415E+03  0.27999559193E+03  0.00000000000E+00 0.  1.
         -1    1    6    6    0  502  0.20593494883E+02  0.52633996268E+02 -0.58348049646E+02  0.81233764484E+02  0.00000000000E+00 0.  1.
<mgrwt>
<rscale>  0 0.19380724E+04</rscale>
<asrwt>0</asrwt>
<pdfrwt beam="1">  1        2 0.23698876E+00 0.19380724E+04</pdfrwt>
<pdfrwt beam="2">  1       -2 0.93783308E-01 0.19380724E+04</pdfrwt>
<totfact> 0.10802487E+01</totfact>
</mgrwt>
</event>
<event>
12    1  0.1541840E-007  0.2036688E+04  0.7818608E-02  0.8589657E-01
         -2   -1    0    0    0  501 -0.00000000000E+00  0.00000000000E+00  0.38123567868E+03  0.38123567868E+03  0.00000000000E+00 0.  1.
          2   -1    0    0  501    0  0.00000000000E+00 -0.00000000000E+00 -0.27201660916E+04  0.27201660916E+04  0.00000000000E+00 0. -1.
         23    2    1    2    0    0 -0.63001279408E+02 -0.28191774862E+03 -0.21209894276E+04  0.21425284893E+04  0.91571814380E+02 0.  0.
        254    2    1    2    0    0  0.63001279408E+02  0.28191774862E+03 -0.21794098530E+03  0.95887328098E+03  0.88797123698E+03 0.  0.
        -24    2    4    4    0    0  0.42023674397E+03  0.35687991740E+03 -0.91181946668E+02  0.56428202966E+03  0.78344528722E+02 0.  0.
         24    2    4    4    0    0 -0.35723546456E+03 -0.74962168779E+02 -0.12675903863E+03  0.39459125132E+03  0.79986860503E+02 0.  0.
         11    1    3    3    0    0  0.14162367345E+02 -0.15187732050E+02 -0.76445912107E+02  0.79216269362E+02  0.00000000000E+00 0.  1.
        -11    1    3    3    0    0 -0.77163646753E+02 -0.26673001657E+03 -0.20445435155E+04  0.20633122199E+04  0.00000000000E+00 0. -1.
          2    1    6    6  502    0 -0.42069806111E+02 -0.35527189643E+02 -0.87545576562E+01  0.55755646081E+02  0.00000000000E+00 0. -1.
          1    1    5    5  503    0  0.31468510903E+03  0.23375908530E+03 -0.39105433745E+02  0.39395337637E+03  0.00000000000E+00 0. -1.
         -2    1    5    5    0  503  0.10555163494E+03  0.12312083210E+03 -0.52076512923E+02  0.17032865330E+03  0.00000000000E+00 0.  1.
         -1    1    6    6    0  502 -0.31516565845E+03 -0.39434979136E+02 -0.11800448098E+03  0.33883560524E+03  0.00000000000E+00 0.  1.
<mgrwt>
<rscale>  0 0.20366879E+04</rscale>
<asrwt>0</asrwt>
<pdfrwt beam="1">  1        2 0.41848709E+00 0.20366879E+04</pdfrwt>
<pdfrwt beam="2">  1       -2 0.58651643E-01 0.20366879E+04</pdfrwt>
<totfact> 0.65082158E+00</totfact>
</mgrwt>
</event>
<event>
12    1  0.1541840E-007  0.1384618E+04  0.7818608E-02  0.8965029E-01
         -1   -1    0    0    0  501 -0.00000000000E+00  0.00000000000E+00  0.66433009053E+03  0.66433009053E+03  0.00000000000E+00 0.  1.
          1   -1    0    0  501    0  0.00000000000E+00 -0.00000000000E+00 -0.72146624346E+03  0.72146624346E+03  0.00000000000E+00 0. -1.
         23    2    1    2    0    0  0.72144273394E+02  0.25981702230E+03 -0.29511315465E+03  0.40945899660E+03  0.88629648482E+02 0.  0.
        254    2    1    2    0    0 -0.72144273394E+02 -0.25981702230E+03  0.23797700172E+03  0.97633733740E+03  0.90768489124E+03 0.  0.
        -24    2    4    4    0    0  0.16106426455E+03 -0.54064141661E+03  0.17961418800E+03  0.59710264487E+03  0.77688308707E+02 0.  0.
         24    2    4    4    0    0 -0.23320853795E+03  0.28082439431E+03  0.58362813718E+02  0.37923469253E+03  0.84641428284E+02 0.  0.
         11    1    3    3    0    0  0.24051428665E+02  0.74276066647E+02 -0.14981928201E+03  0.16894147673E+03  0.00000000000E+00 0. -1.
        -11    1    3    3    0    0  0.48092844729E+02  0.18554095565E+03 -0.14529387264E+03  0.24051751987E+03  0.00000000000E+00 0.  1.
          4    1    6    6  502    0 -0.76282309583E+02  0.11290883510E+03  0.61231103064E+02  0.14938756234E+03  0.00000000000E+00 0. -1.
          1    1    5    5  503    0  0.54213467119E+00 -0.19089577621E+02 -0.70607600380E+01  0.20360751854E+02  0.00000000000E+00 0. -1.
         -2    1    5    5    0  503  0.16052212988E+03 -0.52155183899E+03  0.18667494804E+03  0.57674189301E+03  0.00000000000E+00 0.  1.
         -3    1    6    6    0  502 -0.15692622836E+03  0.16791555921E+03 -0.28682893460E+01  0.22984713019E+03  0.00000000000E+00 0.  1.
<mgrwt>
<rscale>  0 0.13846180E+04</rscale>
<asrwt>0</asrwt>
<pdfrwt beam="1">  1        1 0.11099481E+00 0.13846180E+04</pdfrwt>
<pdfrwt beam="2">  1       -1 0.10220463E+00 0.13846180E+04</pdfrwt>
<totfact> 0.23027846E+01</totfact>
</mgrwt>
</event>
<event>
12    1  0.1541840E-007  0.1774025E+04  0.7818608E-02  0.8720236E-01
          2   -1    0    0  501    0  0.00000000000E+00  0.00000000000E+00  0.18080891710E+04  0.18080891710E+04  0.00000000000E+00 0.  1.
         -2   -1    0    0    0  501 -0.00000000000E+00 -0.00000000000E+00 -0.43515068085E+03  0.43515068085E+03  0.00000000000E+00 0. -1.
         23    2    1    2    0    0 -0.34267364823E+03 -0.34383584578E+03  0.10729219528E+04  0.11822251965E+04  0.10414691703E+03 0.  0.
        254    2    1    2    0    0  0.34267364823E+03  0.34383584578E+03  0.30001653733E+03  0.10610146554E+04  0.89447965778E+03 0.  0.
        -24    2    4    4    0    0  0.57238050275E+03 -0.61243501218E+01  0.87000018146E+02  0.58459665298E+03  0.80791682294E+02 0.  0.
         24    2    4    4    0    0 -0.22970685452E+03  0.34996019590E+03  0.21301651918E+03  0.47641800238E+03  0.79753983086E+02 0.  0.
         13    1    3    3    0    0  0.15190898820E+01  0.27578163152E+01  0.34634471104E+02  0.34777288186E+02  0.00000000000E+00 0. -1.
        -13    1    3    3    0    0 -0.34419273812E+03 -0.34659366210E+03  0.10382874817E+04  0.11474479083E+04  0.00000000000E+00 0.  1.
          4    1    6    6  502    0 -0.14340440977E+03  0.27528793296E+03  0.13695901907E+03  0.33927281601E+03  0.00000000000E+00 0. -1.
          3    1    5    5  503    0  0.32272265847E+03  0.54974326548E+00  0.89259204694E+02  0.33483939752E+03  0.00000000000E+00 0. -1.
         -4    1    5    5    0  503  0.24965784428E+03 -0.66740933872E+01 -0.22591865482E+01  0.24975725547E+03  0.00000000000E+00 0.  1.
         -3    1    6    6    0  502 -0.86302444745E+02  0.74672262940E+02  0.76057500114E+02  0.13714518637E+03  0.00000000000E+00 0.  1.
<mgrwt>
<rscale>  0 0.17740251E+04</rscale>
<asrwt>0</asrwt>
<pdfrwt beam="1">  1        2 0.27816756E+00 0.17740251E+04</pdfrwt>
<pdfrwt beam="2">  1       -2 0.66946260E-01 0.17740251E+04</pdfrwt>
<totfact> 0.16547539E+01</totfact>
</mgrwt>
</event>
<event>
12    1  0.1541840E-007  0.1503812E+04  0.7818608E-02  0.8881922E-01
          2   -1    0    0  501    0  0.00000000000E+00  0.00000000000E+00  0.10830500570E+04  0.10830500570E+04  0.00000000000E+00 0. -1.
         -2   -1    0    0    0  501 -0.00000000000E+00 -0.00000000000E+00 -0.52200959292E+03  0.52200959292E+03  0.00000000000E+00 0.  1.
         23    2    1    2    0    0 -0.10475438929E+03 -0.40713053182E+02 -0.31036616371E+03  0.34231253337E+03  0.90662451679E+02 0.  0.
        254    2    1    2    0    0  0.10475438929E+03  0.40713053182E+02  0.87140662780E+03  0.12627471165E+04  0.90694527652E+03 0.  0.
        -24    2    4    4    0    0 -0.19124167381E+03  0.36962965371E+03  0.23453897714E+03  0.48324000173E+03  0.72889702760E+02 0.  0.
         24    2    4    4    0    0  0.29599606311E+03 -0.32891660053E+03  0.63686765066E+03  0.77950711482E+03  0.78937558330E+02 0.  0.
         13    1    3    3    0    0 -0.10019800189E+03 -0.61801279235E+02 -0.28849841874E+03  0.31159328509E+03  0.00000000000E+00 0.  1.
        -13    1    3    3    0    0 -0.45563873999E+01  0.21088226053E+02 -0.21867744972E+02  0.30719248272E+02  0.00000000000E+00 0. -1.
          4    1    6    6  502    0  0.42664381459E+02 -0.13465089493E+02  0.57404841026E+02  0.72779625264E+02  0.00000000000E+00 0. -1.
          3    1    5    5  503    0 -0.82854438769E+02  0.90971967555E+02  0.58188569025E+02  0.13611269768E+03  0.00000000000E+00 0. -1.
         -4    1    5    5    0  503 -0.10838723504E+03  0.27865768616E+03  0.17635040811E+03  0.34712730405E+03  0.00000000000E+00 0.  1.
         -3    1    6    6    0  502  0.25333168165E+03 -0.31545151104E+03  0.57946280963E+03  0.70672748955E+03  0.00000000000E+00 0.  1.
<mgrwt>
<rscale>  0 0.15038118E+04</rscale>
<asrwt>0</asrwt>
<pdfrwt beam="1">  1        2 0.16662308E+00 0.15038118E+04</pdfrwt>
<pdfrwt beam="2">  1       -2 0.80309168E-01 0.15038118E+04</pdfrwt>
<totfact> 0.29549134E+01</totfact>
</mgrwt>
</event>
<event>
12    1  0.1541840E-007  0.4038140E+04  0.7818608E-02  0.7996897E-01
         -2   -1    0    0    0  501 -0.00000000000E+00  0.00000000000E+00  0.11760760790E+04  0.11760760790E+04  0.00000000000E+00 0.  1.
          2   -1    0    0  501    0  0.00000000000E+00 -0.00000000000E+00 -0.34663086442E+04  0.34663086442E+04  0.00000000000E+00 0. -1.
         23    2    1    2    0    0  0.12296870287E+04 -0.15636969425E+03 -0.27723268244E+04  0.30381912778E+04  0.90711354162E+02 0.  0.
        254    2    1    2    0    0 -0.12296870287E+04  0.15636969425E+03  0.48209425922E+03  0.16041934454E+04  0.89690582877E+03 0.  0.
        -24    2    4    4    0    0 -0.12962011729E+03  0.36898758385E+03  0.60503893575E+02  0.40442424922E+03  0.83336908829E+02 0.  0.
         24    2    4    4    0    0 -0.11000669114E+04 -0.21261788960E+03  0.42159036564E+03  0.11997691962E+04  0.79712678868E+02 0.  0.
         13    1    3    3    0    0  0.11563068370E+04 -0.16800395299E+03 -0.26178040403E+04  0.28667348714E+04  0.00000000000E+00 0. -1.
        -13    1    3    3    0    0  0.73380191673E+02  0.11634258743E+02 -0.15452278406E+03  0.17145640641E+03  0.00000000000E+00 0.  1.
          2    1    6    6  502    0 -0.92093542380E+03 -0.20404419480E+03  0.33908963899E+03  0.10023661365E+04  0.00000000000E+00 0. -1.
          3    1    5    5  503    0 -0.57786624520E+02  0.27735169453E+03  0.38191397696E+02  0.28587031901E+03  0.00000000000E+00 0. -1.
         -4    1    5    5    0  503 -0.71833492770E+02  0.91635889323E+02  0.22312495879E+02  0.11855393021E+03  0.00000000000E+00 0.  1.
         -1    1    6    6    0  502 -0.17913148758E+03 -0.85736948074E+01  0.82500726649E+02  0.19740305971E+03  0.00000000000E+00 0.  1.
<mgrwt>
<rscale>  0 0.40381395E+04</rscale>
<asrwt>0</asrwt>
<pdfrwt beam="1">  1        2 0.53327825E+00 0.40381395E+04</pdfrwt>
<pdfrwt beam="2">  1       -2 0.18093478E+00 0.40381395E+04</pdfrwt>
<totfact> 0.12037062E-01</totfact>
</mgrwt>
</event>
<event>
12    1  0.1541840E-007  0.1450003E+04  0.7818608E-02  0.8918398E-01
         -1   -1    0    0    0  501 -0.00000000000E+00  0.00000000000E+00  0.13570780034E+04  0.13570780034E+04  0.00000000000E+00 0.  1.
          1   -1    0    0  501    0  0.00000000000E+00 -0.00000000000E+00 -0.38732283539E+03  0.38732283539E+03  0.00000000000E+00 0. -1.
         23    2    1    2    0    0  0.11590196297E+03 -0.72852002729E+02  0.81239917223E+03  0.82910125582E+03  0.93143964060E+02 0.  0.
        254    2    1    2    0    0 -0.11590196297E+03  0.72852002729E+02  0.15735599581E+03  0.91529958300E+03  0.89121924233E+03 0.  0.
        -24    2    4    4    0    0 -0.45381565874E+03  0.22235959079E+03  0.16349003581E+03  0.53752703677E+03  0.82546251947E+02 0.  0.
         24    2    4    4    0    0  0.33791369577E+03 -0.14950758806E+03 -0.61340400033E+01  0.37777254623E+03  0.78334446835E+02 0.  0.
         13    1    3    3    0    0  0.12234682150E+03 -0.35643188597E+02  0.60196963151E+03  0.61531018104E+03  0.00000000000E+00 0.  1.
        -13    1    3    3    0    0 -0.64448585283E+01 -0.37208814132E+02  0.21042954072E+03  0.21379107478E+03  0.00000000000E+00 0. -1.
          2    1    6    6  502    0  0.33733837648E+03 -0.15471097066E+03 -0.20439798271E+01  0.37112914537E+03  0.00000000000E+00 0. -1.
          1    1    5    5  503    0 -0.40378470341E+03  0.17144639565E+03  0.12359580910E+03  0.45575418519E+03  0.00000000000E+00 0. -1.
         -2    1    5    5    0  503 -0.50030955335E+02  0.50913195142E+02  0.39894226705E+02  0.81772851580E+02  0.00000000000E+00 0.  1.
         -1    1    6    6    0  502  0.57531929446E+00  0.52033826013E+01 -0.40900601761E+01  0.66434008633E+01  0.00000000000E+00 0.  1.
<mgrwt>
<rscale>  0 0.14500032E+04</rscale>
<asrwt>0</asrwt>
<pdfrwt beam="1">  1        1 0.59588129E-01 0.14500032E+04</pdfrwt>
<pdfrwt beam="2">  1       -1 0.20878123E+00 0.14500032E+04</pdfrwt>
<totfact> 0.79698468E+00</totfact>
</mgrwt>
</event>
<event>
12    1  0.1541840E-007  0.1126373E+04  0.7818608E-02  0.9179862E-01
         -2   -1    0    0    0  501 -0.00000000000E+00  0.00000000000E+00  0.17436788208E+03  0.17436788208E+03  0.00000000000E+00 0.  1.
          2   -1    0    0  501    0  0.00000000000E+00 -0.00000000000E+00 -0.18190219773E+04  0.18190219773E+04  0.00000000000E+00 0. -1.
         23    2    1    2    0    0 -0.11456424477E+03 -0.63366584927E+02 -0.79325172947E+02  0.18078028254E+03  0.96170355255E+02 0.  0.
        254    2    1    2    0    0  0.11456424477E+03  0.63366584927E+02 -0.15653289223E+04  0.18126095769E+04  0.90452117328E+03 0.  0.
        -24    2    4    4    0    0  0.89841267309E+02 -0.38863234146E+03 -0.45533585377E+03  0.61143697270E+03  0.86127125278E+02 0.  0.
         24    2    4    4    0    0  0.24722977457E+02  0.45199892638E+03 -0.11099930685E+04  0.12011726042E+04  0.76267671929E+02 0.  0.
         11    1    3    3    0    0 -0.10071895230E+03 -0.33369367231E+02 -0.13277654872E+02  0.10693043599E+03  0.00000000000E+00 0.  1.
        -11    1    3    3    0    0 -0.13845292469E+02 -0.29997217696E+02 -0.66047518074E+02  0.73849846559E+02  0.00000000000E+00 0. -1.
          2    1    6    6  502    0  0.46488623132E+02  0.22091605104E+03 -0.59062856310E+03  0.63230308653E+03  0.00000000000E+00 0. -1.
          3    1    5    5  503    0 -0.88117247269E+01 -0.52653952859E+02 -0.32767511879E+02  0.62640203376E+02  0.00000000000E+00 0. -1.
         -4    1    5    5    0  503  0.98652992036E+02 -0.33597838860E+03 -0.42256834190E+03  0.54879676932E+03  0.00000000000E+00 0.  1.
         -1    1    6    6    0  502 -0.21765645675E+02  0.23108287535E+03 -0.51936450544E+03  0.56886951766E+03  0.00000000000E+00 0.  1.
<mgrwt>
<rscale>  0 0.11263730E+04</rscale>
<asrwt>0</asrwt>
<pdfrwt beam="1">  1        2 0.27984954E+00 0.11263730E+04</pdfrwt>
<pdfrwt beam="2">  1       -2 0.26825827E-01 0.11263730E+04</pdfrwt>
<totfact> 0.10536449E+02</totfact>
</mgrwt>
</event>
<event>
12    1  0.1541840E-007  0.1441439E+04  0.7818608E-02  0.8924357E-01
         -1   -1    0    0    0  501 -0.00000000000E+00  0.00000000000E+00  0.37413988650E+03  0.37413988650E+03  0.00000000000E+00 0.  1.
          1   -1    0    0  501    0  0.00000000000E+00 -0.00000000000E+00 -0.13883490929E+04  0.13883490929E+04  0.00000000000E+00 0. -1.
         23    2    1    2    0    0  0.33172153965E+03 -0.23329137960E+03 -0.12747999871E+03  0.43516702882E+03  0.93033033030E+02 0.  0.
        254    2    1    2    0    0 -0.33172153965E+03  0.23329137960E+03 -0.88672920768E+03  0.13273219506E+04  0.90057249848E+03 0.  0.
        -24    2    4    4    0    0  0.29705913222E+03  0.43068461852E+02 -0.39650579395E+03  0.50405561141E+03  0.82196072357E+02 0.  0.
         24    2    4    4    0    0 -0.62878067187E+03  0.19022291775E+03 -0.49022341373E+03  0.82326633916E+03  0.76802200933E+02 0.  0.
         11    1    3    3    0    0  0.74792078446E+02 -0.84456041176E+02 -0.69892119542E+02  0.13270865180E+03  0.00000000000E+00 0. -1.
        -11    1    3    3    0    0  0.25692946120E+03 -0.14883533843E+03 -0.57587879163E+02  0.30245837701E+03  0.00000000000E+00 0.  1.
          2    1    6    6  502    0 -0.77295682244E+02  0.13108523866E+01 -0.73679343032E+02  0.10679413101E+03  0.00000000000E+00 0. -1.
          3    1    5    5  503    0  0.10883077077E+03  0.41728730236E+02 -0.20311685418E+03  0.23418343247E+03  0.00000000000E+00 0. -1.
         -4    1    5    5    0  503  0.18822836145E+03  0.13397316160E+01 -0.19338893977E+03  0.26987217893E+03  0.00000000000E+00 0.  1.
         -1    1    6    6    0  502 -0.55148498962E+03  0.18891206536E+03 -0.41654407070E+03  0.71647220815E+03  0.00000000000E+00 0.  1.
<mgrwt>
<rscale>  0 0.14414392E+04</rscale>
<asrwt>0</asrwt>
<pdfrwt beam="1">  1        1 0.21359217E+00 0.14414392E+04</pdfrwt>
<pdfrwt beam="2">  1       -1 0.57559982E-01 0.14414392E+04</pdfrwt>
<totfact> 0.23259700E+01</totfact>
</mgrwt>
</event>
<event>
12    1  0.1541840E-007  0.2143934E+04  0.7818608E-02  0.8542133E-01
          2   -1    0    0  501    0  0.00000000000E+00  0.00000000000E+00  0.23868561937E+04  0.23868561937E+04  0.00000000000E+00 0. -1.
         -2   -1    0    0    0  501 -0.00000000000E+00 -0.00000000000E+00 -0.48143385400E+03  0.48143385400E+03  0.00000000000E+00 0.  1.
         23    2    1    2    0    0  0.40176181348E+02  0.65045083794E+03  0.15866439921E+04  0.17176538894E+04  0.90527940812E+02 0.  0.
        254    2    1    2    0    0 -0.40176181348E+02 -0.65045083794E+03  0.31877834763E+03  0.11506361583E+04  0.89310890476E+03 0.  0.
        -24    2    4    4    0    0  0.20903997057E+02 -0.28883014719E+03  0.60785681693E+03  0.67822624462E+03  0.81492932102E+02 0.  0.
         24    2    4    4    0    0 -0.61080178405E+02 -0.36162069076E+03 -0.28907846931E+03  0.47240991368E+03  0.71445454406E+02 0.  0.
         13    1    3    3    0    0  0.17951410931E+02  0.61448734132E+03  0.15050170163E+04  0.16257285029E+04  0.00000000000E+00 0. -1.
        -13    1    3    3    0    0  0.22224770417E+02  0.35963496626E+02  0.81626975803E+02  0.91925386528E+02  0.00000000000E+00 0.  1.
          2    1    6    6  502    0 -0.16721754393E+02 -0.12334882933E+02 -0.23629400625E+02  0.31466092557E+02  0.00000000000E+00 0. -1.
          1    1    5    5  503    0 -0.29959764413E+02 -0.10623245337E+03  0.24957982402E+03  0.27289743529E+03  0.00000000000E+00 0. -1.
         -4    1    5    5    0  503  0.50863761470E+02 -0.18259769382E+03  0.35827699292E+03  0.40532880933E+03  0.00000000000E+00 0.  1.
         -1    1    6    6    0  502 -0.44358424012E+02 -0.34928580782E+03 -0.26544906868E+03  0.44094382113E+03  0.00000000000E+00 0.  1.
<mgrwt>
<rscale>  0 0.21439341E+04</rscale>
<asrwt>0</asrwt>
<pdfrwt beam="1">  1        2 0.36720864E+00 0.21439341E+04</pdfrwt>
<pdfrwt beam="2">  1       -2 0.74066748E-01 0.21439341E+04</pdfrwt>
<totfact> 0.60983801E+00</totfact>
</mgrwt>
</event>
<event>
12    1  0.1541840E-007  0.1089683E+04  0.7818608E-02  0.9215306E-01
         -2   -1    0    0    0  501 -0.00000000000E+00  0.00000000000E+00  0.45789587437E+03  0.45789587437E+03  0.00000000000E+00 0. -1.
          2   -1    0    0  501    0  0.00000000000E+00 -0.00000000000E+00 -0.64829621232E+03  0.64829621232E+03  0.00000000000E+00 0.  1.
         23    2    1    2    0    0  0.84193957560E+02 -0.61394104606E+01  0.97559474083E+02  0.15588413208E+03  0.87496838809E+02 0.  0.
        254    2    1    2    0    0 -0.84193957560E+02  0.61394104606E+01 -0.28795981203E+03  0.95030795461E+03  0.90168622059E+03 0.  0.
        -24    2    4    4    0    0 -0.11544962729E+03  0.10270173361E+03 -0.59366804258E+03  0.61921298772E+03  0.84301345497E+02 0.  0.
         24    2    4    4    0    0  0.31255669728E+02 -0.96562323147E+02  0.30570823055E+03  0.33109496689E+03  0.76584304753E+02 0.  0.
         11    1    3    3    0    0  0.19798242405E+02 -0.31260398648E+02  0.85035260063E+00  0.37012241563E+02  0.00000000000E+00 0.  1.
        -11    1    3    3    0    0  0.64395715155E+02  0.25120988188E+02  0.96709121482E+02  0.11887189052E+03  0.00000000000E+00 0. -1.
          2    1    6    6  502    0  0.35526273748E+02 -0.10415773428E+03  0.30235215573E+03  0.32175732441E+03  0.00000000000E+00 0. -1.
          1    1    5    5  503    0 -0.10233648998E+03  0.65502279041E+02 -0.31247293661E+03  0.33526503226E+03  0.00000000000E+00 0. -1.
         -2    1    5    5    0  503 -0.13113137312E+02  0.37199454566E+02 -0.28119510597E+03  0.28394795546E+03  0.00000000000E+00 0.  1.
         -1    1    6    6    0  502 -0.42706040199E+01  0.75954111301E+01  0.33560748159E+01  0.93376424808E+01  0.00000000000E+00 0.  1.
<mgrwt>
<rscale>  0 0.10896828E+04</rscale>
<asrwt>0</asrwt>
<pdfrwt beam="1">  1        2 0.99737878E-01 0.10896828E+04</pdfrwt>
<pdfrwt beam="2">  1       -2 0.70445519E-01 0.10896828E+04</pdfrwt>
<totfact> 0.82209938E+01</totfact>
</mgrwt>
</event>
<event>
12    1  0.1541840E-007  0.2309361E+04  0.7818608E-02  0.8474239E-01
          1   -1    0    0  501    0  0.00000000000E+00  0.00000000000E+00  0.18579497041E+04  0.18579497041E+04  0.00000000000E+00 0. -1.
         -1   -1    0    0    0  501 -0.00000000000E+00 -0.00000000000E+00 -0.71761197550E+03  0.71761197550E+03  0.00000000000E+00 0.  1.
         23    2    1    2    0    0  0.34575467016E+03  0.76539963901E+03  0.10488355877E+04  0.13467743556E+04  0.91444931380E+02 0.  0.
        254    2    1    2    0    0 -0.34575467016E+03 -0.76539963901E+03  0.91502140916E+02  0.12287873241E+04  0.89227952271E+03 0.  0.
        -24    2    4    4    0    0 -0.56633807205E+03 -0.27397609414E+03  0.21618987539E+03  0.67007100794E+03  0.80345388423E+02 0.  0.
         24    2    4    4    0    0  0.22058340190E+03 -0.49142354487E+03 -0.12468773447E+03  0.55871631612E+03  0.80391250338E+02 0.  0.
         13    1    3    3    0    0  0.14926727991E+02  0.82551864629E+01  0.34581155784E+02  0.38559196665E+02  0.00000000000E+00 0.  1.
        -13    1    3    3    0    0  0.33082794216E+03  0.75714445255E+03  0.10142544319E+04  0.13082151589E+04  0.00000000000E+00 0. -1.
          4    1    6    6  502    0  0.20206575964E+03 -0.40823669573E+03 -0.79973700842E+02  0.46247547371E+03  0.00000000000E+00 0. -1.
          1    1    5    5  503    0 -0.16825161592E+03 -0.91592577299E+02  0.10431858205E+03  0.21812879920E+03  0.00000000000E+00 0. -1.
         -2    1    5    5    0  503 -0.39808645613E+03 -0.18238351684E+03  0.11187129333E+03  0.45194220874E+03  0.00000000000E+00 0.  1.
         -3    1    6    6    0  502  0.18517642253E+02 -0.83186849140E+02 -0.44714033628E+02  0.96240842410E+02  0.00000000000E+00 0.  1.
<mgrwt>
<rscale>  0 0.23093609E+04</rscale>
<asrwt>0</asrwt>
<pdfrwt beam="1">  1        1 0.28583841E+00 0.23093609E+04</pdfrwt>
<pdfrwt beam="2">  1       -1 0.11040184E+00 0.23093609E+04</pdfrwt>
<totfact> 0.25422464E+00</totfact>
</mgrwt>
</event>
<event>
12    1  0.1541840E-007  0.1758674E+04  0.7818608E-02  0.8728590E-01
         -1   -1    0    0    0  501 -0.00000000000E+00  0.00000000000E+00  0.11345882226E+04  0.11345882226E+04  0.00000000000E+00 0.  1.
          1   -1    0    0  501    0  0.00000000000E+00 -0.00000000000E+00 -0.68151028946E+03  0.68151028946E+03  0.00000000000E+00 0. -1.
         23    2    1    2    0    0  0.82309563213E+02  0.30241656698E+02  0.82534957852E+03  0.83519638316E+03  0.93067984172E+02 0.  0.
        254    2    1    2    0    0 -0.82309563213E+02 -0.30241656698E+02 -0.37227164541E+03  0.98090212888E+03  0.90326816974E+03 0.  0.
        -24    2    4    4    0    0  0.39873367150E+03  0.53767858159E+02 -0.18899872317E+03  0.45230789516E+03  0.83560704359E+02 0.  0.
         24    2    4    4    0    0 -0.48104323471E+03 -0.84009514857E+02 -0.18327292224E+03  0.52859423372E+03  0.85806221485E+02 0.  0.
         11    1    3    3    0    0 -0.20230362861E+00  0.42481821302E+02  0.35186497722E+03  0.35442024246E+03  0.00000000000E+00 0.  1.
        -11    1    3    3    0    0  0.82511866842E+02 -0.12240164603E+02  0.47348460130E+03  0.48077614070E+03  0.00000000000E+00 0. -1.
          2    1    6    6  502    0 -0.18496316573E+03  0.73064653796E+01 -0.53598104015E+02  0.19271095939E+03  0.00000000000E+00 0. -1.
          3    1    5    5  503    0  0.44310203833E+02 -0.20310091922E+02 -0.19188421976E+02  0.52384058028E+02  0.00000000000E+00 0. -1.
         -4    1    5    5    0  503  0.35442346766E+03  0.74077950081E+02 -0.16981030119E+03  0.39992383714E+03  0.00000000000E+00 0.  1.
         -1    1    6    6    0  502 -0.29608006898E+03 -0.91315980237E+02 -0.12967481823E+03  0.33588327433E+03  0.00000000000E+00 0.  1.
<mgrwt>
<rscale>  0 0.17586740E+04</rscale>
<asrwt>0</asrwt>
<pdfrwt beam="1">  1        1 0.10484774E+00 0.17586740E+04</pdfrwt>
<pdfrwt beam="2">  1       -1 0.17455203E+00 0.17586740E+04</pdfrwt>
<totfact> 0.61222935E+00</totfact>
</mgrwt>
</event>
<event>
12    1  0.1541840E-007  0.1389073E+04  0.7818608E-02  0.8961766E-01
          1   -1    0    0  501    0  0.00000000000E+00  0.00000000000E+00  0.23267032681E+04  0.23267032681E+04  0.00000000000E+00 0. -1.
         -1   -1    0    0    0  501 -0.00000000000E+00 -0.00000000000E+00 -0.20732380802E+03  0.20732380802E+03  0.00000000000E+00 0.  1.
         23    2    1    2    0    0  0.47369386794E+02  0.21988873984E+03  0.12117206267E+04  0.12358825369E+04  0.92432954530E+02 0.  0.
        254    2    1    2    0    0 -0.47369386794E+02 -0.21988873984E+03  0.90765883339E+03  0.12981445392E+04  0.90041088967E+03 0.  0.
        -24    2    4    4    0    0 -0.10296509267E+03  0.32643178666E+03  0.21895187890E+03  0.41410148131E+03  0.79878594749E+02 0.  0.
         24    2    4    4    0    0  0.55595705875E+02 -0.54632052650E+03  0.68870695449E+03  0.88404305794E+03  0.75218740619E+02 0.  0.
         11    1    3    3    0    0  0.52134370141E+01  0.59525308229E+02  0.56858541464E+03  0.57171655214E+03  0.00000000000E+00 0. -1.
        -11    1    3    3    0    0  0.42155949780E+02  0.16036343161E+03  0.64313521203E+03  0.66416598471E+03  0.00000000000E+00 0.  1.
          2    1    6    6  502    0  0.52194358455E+02 -0.27791592122E+03  0.30678431130E+03  0.41722670574E+03  0.00000000000E+00 0. -1.
          1    1    5    5  503    0  0.13206015928E+02  0.44039557597E+02  0.24617901776E+02  0.52152876985E+02  0.00000000000E+00 0. -1.
         -2    1    5    5    0  503 -0.11617110860E+03  0.28239222906E+03  0.19433397713E+03  0.36194860432E+03  0.00000000000E+00 0.  1.
         -1    1    6    6    0  502  0.34013474196E+01 -0.26840460528E+03  0.38192264319E+03  0.46681635220E+03  0.00000000000E+00 0.  1.
<mgrwt>
<rscale>  0 0.13890730E+04</rscale>
<asrwt>0</asrwt>
<pdfrwt beam="1">  1        1 0.35795433E+00 0.13890730E+04</pdfrwt>
<pdfrwt beam="2">  1       -1 0.31895972E-01 0.13890730E+04</pdfrwt>
<totfact> 0.15986133E+01</totfact>
</mgrwt>
</event>
<event>
12    1  0.1541840E-007  0.2448804E+04  0.7818608E-02  0.8421455E-01
          2   -1    0    0  501    0  0.00000000000E+00  0.00000000000E+00  0.17207790002E+04  0.17207790002E+04  0.00000000000E+00 0. -1.
         -2   -1    0    0    0  501 -0.00000000000E+00 -0.00000000000E+00 -0.87121002469E+03  0.87121002469E+03  0.00000000000E+00 0.  1.
         23    2    1    2    0    0  0.30792377550E+03  0.22691858936E+03 -0.67426440282E+03  0.78009651461E+03  0.87229521833E+02 0.  0.
        254    2    1    2    0    0 -0.30792377550E+03 -0.22691858936E+03  0.15238333783E+04  0.18118925103E+04  0.90253931005E+03 0.  0.
        -24    2    4    4    0    0 -0.12342245390E+03 -0.34486821801E+03  0.12665523900E+03  0.39532337240E+03  0.77921943492E+02 0.  0.
         24    2    4    4    0    0 -0.18450132160E+03  0.11794962865E+03  0.13971781393E+04  0.14165691379E+04  0.81292784548E+02 0.  0.
         13    1    3    3    0    0  0.19582605153E+03  0.16974275675E+03 -0.52014886684E+03  0.58113276418E+03  0.00000000000E+00 0.  1.
        -13    1    3    3    0    0  0.11209772398E+03  0.57175832618E+02 -0.15411553597E+03  0.19896375043E+03  0.00000000000E+00 0. -1.
          2    1    6    6  502    0 -0.13528466929E+03  0.11993958707E+03  0.11874188457E+04  0.12011040594E+04  0.00000000000E+00 0. -1.
          3    1    5    5  503    0 -0.62933117278E+02 -0.11356770627E+03  0.12651421342E+02  0.13045405176E+03  0.00000000000E+00 0. -1.
         -4    1    5    5    0  503 -0.60489336626E+02 -0.23130051173E+03  0.11400381766E+03  0.26486932064E+03  0.00000000000E+00 0.  1.
         -1    1    6    6    0  502 -0.49216652310E+02 -0.19899584222E+01  0.20975929358E+03  0.21546507848E+03  0.00000000000E+00 0.  1.
<mgrwt>
<rscale>  0 0.24488037E+04</rscale>
<asrwt>0</asrwt>
<pdfrwt beam="1">  1        2 0.26473523E+00 0.24488037E+04</pdfrwt>
<pdfrwt beam="2">  1       -2 0.13403231E+00 0.24488037E+04</pdfrwt>
<totfact> 0.34372235E+00</totfact>
</mgrwt>
</event>
<event>
12    1  0.1541840E-007  0.1283471E+04  0.7818608E-02  0.9042777E-01
          1   -1    0    0  501    0  0.00000000000E+00  0.00000000000E+00  0.59933135690E+03  0.59933135690E+03  0.00000000000E+00 0. -1.
         -1   -1    0    0    0  501 -0.00000000000E+00 -0.00000000000E+00 -0.68713935619E+03  0.68713935619E+03  0.00000000000E+00 0.  1.
         23    2    1    2    0    0 -0.26164123762E+03 -0.18667563051E+03 -0.44865967869E+02  0.33752093352E+03  0.92755038904E+02 0.  0.
        254    2    1    2    0    0  0.26164123762E+03  0.18667563051E+03 -0.42942031422E+02  0.94894977958E+03  0.89182831187E+03 0.  0.
        -24    2    4    4    0    0 -0.31909850109E+03 -0.89719706324E+01 -0.34038926679E+02  0.33111786064E+03  0.81092782995E+02 0.  0.
         24    2    4    4    0    0  0.58073973871E+03  0.19564760114E+03 -0.89031047430E+01  0.61783191893E+03  0.78104973196E+02 0.  0.
         13    1    3    3    0    0 -0.96974661851E+02 -0.57654501589E+02  0.27576105930E+02  0.11614029539E+03  0.00000000000E+00 0. -1.
        -13    1    3    3    0    0 -0.16466657577E+03 -0.12902112892E+03 -0.72442073799E+02  0.22138063813E+03  0.00000000000E+00 0.  1.
          2    1    6    6  502    0  0.19178453485E+03  0.74985208380E+02  0.32577017865E+02  0.20848345588E+03  0.00000000000E+00 0. -1.
          1    1    5    5  503    0 -0.85215522256E+02  0.26783892125E+02  0.11850913218E+02  0.90108302918E+02  0.00000000000E+00 0. -1.
         -2    1    5    5    0  503 -0.23388297883E+03 -0.35755862758E+02 -0.45889839897E+02  0.24100955772E+03  0.00000000000E+00 0.  1.
         -1    1    6    6    0  502  0.38895520386E+03  0.12066239276E+03 -0.41480122608E+02  0.40934846306E+03  0.00000000000E+00 0.  1.
<mgrwt>
<rscale>  0 0.12834705E+04</rscale>
<asrwt>0</asrwt>
<pdfrwt beam="1">  1        1 0.92204824E-01 0.12834705E+04</pdfrwt>
<pdfrwt beam="2">  1       -1 0.10571375E+00 0.12834705E+04</pdfrwt>
<totfact> 0.28293181E+01</totfact>
</mgrwt>
</event>
<event>
12    1  0.1541840E-007  0.1713325E+04  0.7818608E-02  0.8753801E-01
          2   -1    0    0  501    0  0.00000000000E+00  0.00000000000E+00  0.27905010522E+04  0.27905010522E+04  0.00000000000E+00 0. -1.
         -2   -1    0    0    0  501 -0.00000000000E+00 -0.00000000000E+00 -0.26298878116E+03  0.26298878116E+03  0.00000000000E+00 0.  1.
         23    2    1    2    0    0  0.41215149212E+03  0.24925608016E+03  0.16243927732E+04  0.16967544752E+04  0.91249227461E+02 0.  0.
        254    2    1    2    0    0 -0.41215149212E+03 -0.24925608016E+03  0.90311949779E+03  0.13567353581E+04  0.89056642578E+03 0.  0.
        -24    2    4    4    0    0 -0.10277265748E+03  0.27963680900E+03  0.58555829843E+03  0.66190310242E+03  0.80487465195E+02 0.  0.
         24    2    4    4    0    0 -0.30937883464E+03 -0.52889288916E+03  0.31756119935E+03  0.69483225570E+03  0.80646120125E+02 0.  0.
         13    1    3    3    0    0  0.27968486112E+03  0.13671406151E+03  0.92047996660E+03  0.97169837145E+03  0.00000000000E+00 0. -1.
        -13    1    3    3    0    0  0.13246663100E+03  0.11254201865E+03  0.70391280661E+03  0.72505610376E+03  0.00000000000E+00 0.  1.
          2    1    6    6  502    0 -0.21388810696E+03 -0.43057107680E+03  0.23994069983E+03  0.53731844740E+03  0.00000000000E+00 0. -1.
          3    1    5    5  503    0 -0.81389989734E+02  0.27491159701E+03  0.54393414833E+03  0.61486996537E+03  0.00000000000E+00 0. -1.
         -4    1    5    5    0  503 -0.21382667750E+02  0.47252119900E+01  0.41624150107E+02  0.47033137048E+02  0.00000000000E+00 0.  1.
         -1    1    6    6    0  502 -0.95490727682E+02 -0.98321812360E+02  0.77620499523E+02  0.15751380830E+03  0.00000000000E+00 0.  1.
<mgrwt>
<rscale>  0 0.17133248E+04</rscale>
<asrwt>0</asrwt>
<pdfrwt beam="1">  1        2 0.42930783E+00 0.17133248E+04</pdfrwt>
<pdfrwt beam="2">  1       -2 0.40459814E-01 0.17133248E+04</pdfrwt>
<totfact> 0.12922109E+01</totfact>
</mgrwt>
</event>
<event>
12    1  0.1541840E-007  0.1140873E+04  0.7818608E-02  0.9166246E-01
         -2   -1    0    0    0  501 -0.00000000000E+00  0.00000000000E+00  0.20724015507E+03  0.20724015507E+03  0.00000000000E+00 0. -1.
          2   -1    0    0  501    0  0.00000000000E+00 -0.00000000000E+00 -0.15701470674E+04  0.15701470674E+04  0.00000000000E+00 0.  1.
         23    2    1    2    0    0  0.15434841091E+03 -0.80861281844E+01 -0.59679442769E+02  0.19343794651E+03  0.99838799276E+02 0.  0.
        254    2    1    2    0    0 -0.15434841091E+03  0.80861281844E+01 -0.13032274695E+04  0.15839492759E+04  0.88690735365E+03 0.  0.
        -24    2    4    4    0    0 -0.48393497512E+03 -0.21680420159E+02 -0.45262756879E+03  0.66776412095E+03  0.79837988672E+02 0.  0.
         24    2    4    4    0    0  0.32958656421E+03  0.29766548343E+02 -0.85059990075E+03  0.91618515499E+03  0.79760242955E+02 0.  0.
         13    1    3    3    0    0  0.12992379063E+03  0.88663164811E+01 -0.39642393679E+01  0.13028629296E+03  0.00000000000E+00 0. -1.
        -13    1    3    3    0    0  0.24424620281E+02 -0.16952444666E+02 -0.55715203401E+02  0.63151653550E+02  0.00000000000E+00 0.  1.
          4    1    6    6  502    0  0.21446246721E+02 -0.98948347354E+01 -0.26663063151E+02  0.35619772451E+02  0.00000000000E+00 0. -1.
          3    1    5    5  503    0 -0.12598184288E+03 -0.23812893987E+02 -0.80351679076E+02  0.15131051181E+03  0.00000000000E+00 0. -1.
         -4    1    5    5    0  503 -0.35795313224E+03  0.21324738286E+01 -0.37227588971E+03  0.51645360914E+03  0.00000000000E+00 0.  1.
         -3    1    6    6    0  502  0.30814031749E+03  0.39661383078E+02 -0.82393683760E+03  0.88056538254E+03  0.00000000000E+00 0.  1.
<mgrwt>
<rscale>  0 0.11408725E+04</rscale>
<asrwt>0</asrwt>
<pdfrwt beam="1">  1        2 0.24156109E+00 0.11408725E+04</pdfrwt>
<pdfrwt beam="2">  1       -2 0.31883100E-01 0.11408725E+04</pdfrwt>
<totfact> 0.10494265E+02</totfact>
</mgrwt>
</event>
<event>
12    1  0.1541840E-007  0.1649596E+04  0.7818608E-02  0.8790646E-01
         -2   -1    0    0    0  501 -0.00000000000E+00  0.00000000000E+00  0.21480199030E+04  0.21480199030E+04  0.00000000000E+00 0. -1.
          2   -1    0    0  501    0  0.00000000000E+00 -0.00000000000E+00 -0.31670639821E+03  0.31670639821E+03  0.00000000000E+00 0.  1.
         23    2    1    2    0    0 -0.49196536884E+03  0.46528697339E+02  0.10831847146E+04  0.11943823985E+04  0.95212100204E+02 0.  0.
        254    2    1    2    0    0  0.49196536884E+03 -0.46528697339E+02  0.74812879015E+03  0.12703439027E+04  0.89993449799E+03 0.  0.
        -24    2    4    4    0    0  0.93872579116E+02  0.35852354645E+03  0.76386263243E+02  0.38715415437E+03  0.81867475635E+02 0.  0.
         24    2    4    4    0    0  0.39809278973E+03 -0.40505224379E+03  0.67174252691E+03  0.88318974833E+03  0.78999491608E+02 0.  0.
         13    1    3    3    0    0 -0.46822344982E+03  0.33249700457E+02  0.10573736210E+04  0.11568827581E+04  0.00000000000E+00 0. -1.
        -13    1    3    3    0    0 -0.23741919019E+02  0.13278996881E+02  0.25811093580E+02  0.37499640381E+02  0.00000000000E+00 0.  1.
          2    1    6    6  502    0  0.67191238063E+02 -0.32662184918E+02  0.10076397529E+03  0.12543866833E+03  0.00000000000E+00 0. -1.
          1    1    5    5  503    0  0.85400866569E+01 -0.14657729618E+01  0.60360277555E+01  0.10560075831E+02  0.00000000000E+00 0. -1.
         -2    1    5    5    0  503  0.85332492459E+02  0.35998931941E+03  0.70350235488E+02  0.37659407854E+03  0.00000000000E+00 0.  1.
         -1    1    6    6    0  502  0.33090155166E+03 -0.37239005887E+03  0.57097855161E+03  0.75775108000E+03  0.00000000000E+00 0.  1.
<mgrwt>
<rscale>  0 0.16495959E+04</rscale>
<asrwt>0</asrwt>
<pdfrwt beam="1">  1        2 0.48724063E-01 0.16495959E+04</pdfrwt>
<pdfrwt beam="2">  1       -2 0.33046459E+00 0.16495959E+04</pdfrwt>
<totfact> 0.20443495E+00</totfact>
</mgrwt>
</event>
<event>
12    1  0.1541840E-007  0.1851778E+04  0.7818608E-02  0.8679239E-01
          2   -1    0    0  501    0  0.00000000000E+00  0.00000000000E+00  0.20483685919E+04  0.20483685919E+04  0.00000000000E+00 0. -1.
         -2   -1    0    0    0  501 -0.00000000000E+00 -0.00000000000E+00 -0.41851396566E+03  0.41851396566E+03  0.00000000000E+00 0.  1.
         23    2    1    2    0    0 -0.41913302424E+03  0.40921601197E+03  0.10433125725E+03  0.60185731910E+03  0.90647586056E+02 0.  0.
        254    2    1    2    0    0  0.41913302424E+03 -0.40921601197E+03  0.15255233690E+04  0.18650252385E+04  0.89887004307E+03 0.  0.
        -24    2    4    4    0    0  0.61378914493E+03 -0.51250991695E+03  0.95456120625E+03  0.12477191193E+04  0.78818619486E+02 0.  0.
         24    2    4    4    0    0 -0.19465612069E+03  0.10329390498E+03  0.57096216277E+03  0.61730611919E+03  0.80674762792E+02 0.  0.
         11    1    3    3    0    0 -0.98497187317E+02  0.11729763569E+03 -0.97703716491E+01  0.15347928658E+03  0.00000000000E+00 0. -1.
        -11    1    3    3    0    0 -0.32063583692E+03  0.29191837627E+03  0.11410162890E+03  0.44837803251E+03  0.00000000000E+00 0.  1.
          2    1    6    6  502    0 -0.83397063225E+02  0.92091908866E+01  0.15043443895E+03  0.17225097902E+03  0.00000000000E+00 0. -1.
          1    1    5    5  503    0  0.21365556260E+03 -0.21830270102E+03  0.32827551833E+03  0.44840783293E+03  0.00000000000E+00 0. -1.
         -2    1    5    5    0  503  0.40013358233E+03 -0.29420721593E+03  0.62628568792E+03  0.79931128636E+03  0.00000000000E+00 0.  1.
         -1    1    6    6    0  502 -0.11125905747E+03  0.94084714096E+02  0.42052772381E+03  0.44505514017E+03  0.00000000000E+00 0.  1.
<mgrwt>
<rscale>  0 0.18517785E+04</rscale>
<asrwt>0</asrwt>
<pdfrwt beam="1">  1        2 0.31513362E+00 0.18517785E+04</pdfrwt>
<pdfrwt beam="2">  1       -2 0.64386765E-01 0.18517785E+04</pdfrwt>
<totfact> 0.13153713E+01</totfact>
</mgrwt>
</event>
<event>
12    1  0.1541840E-007  0.1320270E+04  0.7818608E-02  0.9013644E-01
          2   -1    0    0  501    0  0.00000000000E+00  0.00000000000E+00  0.38490286901E+03  0.38490286901E+03  0.00000000000E+00 0.  1.
         -2   -1    0    0    0  501 -0.00000000000E+00 -0.00000000000E+00 -0.11321764970E+04  0.11321764970E+04  0.00000000000E+00 0. -1.
         23    2    1    2    0    0 -0.13019204375E+03  0.17691261573E+03 -0.50966305689E+03  0.56228555944E+03  0.90335911625E+02 0.  0.
        254    2    1    2    0    0  0.13019204375E+03 -0.17691261573E+03 -0.23761057108E+03  0.95479380656E+03  0.89828970143E+03 0.  0.
        -24    2    4    4    0    0  0.10778360548E+03  0.14824820721E+03 -0.49341842975E+03  0.53249911347E+03  0.80614654241E+02 0.  0.
         24    2    4    4    0    0  0.22408438278E+02 -0.32516082294E+03  0.25580785866E+03  0.42229469310E+03  0.81629947846E+02 0.  0.
         13    1    3    3    0    0 -0.35319060871E+02  0.10240387478E+03 -0.31674546583E+03  0.33475614969E+03  0.00000000000E+00 0. -1.
        -13    1    3    3    0    0 -0.94872982883E+02  0.74508740946E+02 -0.19291759107E+03  0.22752940975E+03  0.00000000000E+00 0.  1.
          4    1    6    6  502    0 -0.15889696426E+02 -0.14254686511E+03  0.15110580017E+03  0.20833879632E+03  0.00000000000E+00 0. -1.
          3    1    5    5  503    0  0.25069960434E+02  0.10228818513E+03 -0.24547776835E+03  0.26711553771E+03  0.00000000000E+00 0. -1.
         -4    1    5    5    0  503  0.82713645042E+02  0.45960022075E+02 -0.24794066140E+03  0.26538357575E+03  0.00000000000E+00 0.  1.
         -3    1    6    6    0  502  0.38298134704E+02 -0.18261395783E+03  0.10470205849E+03  0.21395589678E+03  0.00000000000E+00 0.  1.
<mgrwt>
<rscale>  0 0.13202696E+04</rscale>
<asrwt>0</asrwt>
<pdfrwt beam="1">  1        2 0.59215825E-01 0.13202696E+04</pdfrwt>
<pdfrwt beam="2">  1       -2 0.17418100E+00 0.13202696E+04</pdfrwt>
<totfact> 0.16165012E+01</totfact>
</mgrwt>
</event>
<event>
12    1  0.1541840E-007  0.4435227E+04  0.7818608E-02  0.7922076E-01
         -1   -1    0    0    0  501 -0.00000000000E+00  0.00000000000E+00  0.16853829532E+04  0.16853829532E+04  0.00000000000E+00 0.  1.
          1   -1    0    0  501    0  0.00000000000E+00 -0.00000000000E+00 -0.29179180371E+04  0.29179180371E+04  0.00000000000E+00 0. -1.
         23    2    1    2    0    0  0.10249251750E+04 -0.55385374381E+03 -0.24377922309E+04  0.27033594125E+04  0.89975374357E+02 0.  0.
        254    2    1    2    0    0 -0.10249251750E+04  0.55385374381E+03  0.12052571470E+04  0.18999415779E+04  0.89437555031E+03 0.  0.
        -24    2    4    4    0    0 -0.95781459482E+02 -0.19867401509E+03  0.37508617083E+03  0.44208860109E+03  0.78148854215E+02 0.  0.
         24    2    4    4    0    0 -0.92914371549E+03  0.75252775890E+03  0.83017097621E+03  0.14578529768E+04  0.80903524020E+02 0.  0.
         13    1    3    3    0    0  0.95836021087E+03 -0.49737382091E+03 -0.22175664133E+04  0.24664622050E+04  0.00000000000E+00 0. -1.
        -13    1    3    3    0    0  0.66564964097E+02 -0.56479922901E+02 -0.22022581763E+03  0.23689720742E+03  0.00000000000E+00 0.  1.
          4    1    6    6  502    0 -0.24148139540E+03  0.18490708063E+03  0.25370943436E+03  0.39607116769E+03  0.00000000000E+00 0. -1.
          3    1    5    5  503    0  0.13362047909E+02 -0.15565781655E+02  0.39790633806E+02  0.44767537586E+02  0.00000000000E+00 0. -1.
         -4    1    5    5    0  503 -0.10914350739E+03 -0.18310823343E+03  0.33529553702E+03  0.39732106351E+03  0.00000000000E+00 0.  1.
         -3    1    6    6    0  502 -0.68766232009E+03  0.56762067827E+03  0.57646154185E+03  0.10617818091E+04  0.00000000000E+00 0.  1.
<mgrwt>
<rscale>  0 0.44352269E+04</rscale>
<asrwt>0</asrwt>
<pdfrwt beam="1">  1        1 0.44891046E+00 0.44352269E+04</pdfrwt>
<pdfrwt beam="2">  1       -1 0.25928969E+00 0.44352269E+04</pdfrwt>
<totfact> 0.31407765E-02</totfact>
</mgrwt>
</event>
<event>
12    1  0.1541840E-007  0.1421529E+04  0.7818608E-02  0.8938381E-01
          2   -1    0    0  501    0  0.00000000000E+00  0.00000000000E+00  0.17771670716E+04  0.17771670716E+04  0.00000000000E+00 0. -1.
         -2   -1    0    0    0  501 -0.00000000000E+00 -0.00000000000E+00 -0.28426484913E+03  0.28426484913E+03  0.00000000000E+00 0.  1.
         23    2    1    2    0    0 -0.54671493718E+02 -0.41232772205E+03  0.57924535798E+03  0.71909670957E+03  0.92583855923E+02 0.  0.
        254    2    1    2    0    0  0.54671493718E+02  0.41232772205E+03  0.91365686448E+03  0.13423352111E+04  0.89111830330E+03 0.  0.
        -24    2    4    4    0    0 -0.21907745306E+03  0.68924609049E+02 -0.78620656183E+02  0.25421670906E+03  0.75494340307E+02 0.  0.
         24    2    4    4    0    0  0.27374894677E+03  0.34340311300E+03  0.99227752066E+03  0.10881185021E+04  0.80765169975E+02 0.  0.
         13    1    3    3    0    0 -0.23674482132E+02 -0.15427158684E+03  0.29629977880E+03  0.33489365854E+03  0.00000000000E+00 0.  1.
        -13    1    3    3    0    0 -0.30997011586E+02 -0.25805613521E+03  0.28294557918E+03  0.38420305103E+03  0.00000000000E+00 0. -1.
          4    1    6    6  502    0  0.89665341252E+02  0.16427339661E+03  0.47616463058E+03  0.51162327710E+03  0.00000000000E+00 0. -1.
          1    1    5    5  503    0 -0.14787765081E+03  0.48248618782E+02 -0.89221543334E+02  0.17932153417E+03  0.00000000000E+00 0. -1.
         -2    1    5    5    0  503 -0.71199802246E+02  0.20675990267E+02  0.10600887151E+02  0.74895174890E+02  0.00000000000E+00 0.  1.
         -3    1    6    6    0  502  0.18408360552E+03  0.17912971639E+03  0.51611289008E+03  0.57649522497E+03  0.00000000000E+00 0.  1.
<mgrwt>
<rscale>  0 0.14215289E+04</rscale>
<asrwt>0</asrwt>
<pdfrwt beam="1">  1        2 0.27341031E+00 0.14215289E+04</pdfrwt>
<pdfrwt beam="2">  1       -2 0.43733055E-01 0.14215289E+04</pdfrwt>
<totfact> 0.42806874E+01</totfact>
</mgrwt>
</event>
<event>
12    1  0.1541840E-007  0.1758874E+04  0.7818608E-02  0.8728481E-01
          2   -1    0    0  501    0  0.00000000000E+00  0.00000000000E+00  0.57342800934E+03  0.57342800934E+03  0.00000000000E+00 0. -1.
         -2   -1    0    0    0  501 -0.00000000000E+00 -0.00000000000E+00 -0.13487476105E+04  0.13487476105E+04  0.00000000000E+00 0.  1.
         23    2    1    2    0    0 -0.90380786590E+01 -0.28886815460E+03  0.34142201758E+03  0.45655292814E+03  0.91351433991E+02 0.  0.
        254    2    1    2    0    0  0.90380786590E+01  0.28886815460E+03 -0.11167416187E+04  0.14656226917E+04  0.90410814275E+03 0.  0.
        -24    2    4    4    0    0  0.14223217774E+03 -0.26726925418E+02  0.10333199736E+03  0.19584802441E+03  0.82064767478E+02 0.  0.
         24    2    4    4    0    0 -0.13319409908E+03  0.31559508002E+03 -0.12200736161E+04  0.12697746673E+04  0.80044702725E+02 0.  0.
         11    1    3    3    0    0 -0.30816595611E+02 -0.24188647332E+03  0.23722599367E+03  0.34019832541E+03  0.00000000000E+00 0.  1.
        -11    1    3    3    0    0  0.21778516952E+02 -0.46981681285E+02  0.10419602391E+03  0.11635460273E+03  0.00000000000E+00 0. -1.
          2    1    6    6  502    0 -0.90136916863E+02  0.24322586010E+03 -0.78873669432E+03  0.83029455964E+03  0.00000000000E+00 0. -1.
          1    1    5    5  503    0  0.10468760170E+03 -0.42571293225E+01  0.10962624168E+03  0.15164277089E+03  0.00000000000E+00 0. -1.
         -2    1    5    5    0  503  0.37544576047E+02 -0.22469796096E+02 -0.62942443252E+01  0.44205253520E+02  0.00000000000E+00 0.  1.
         -1    1    6    6    0  502 -0.43057182221E+02  0.72369219922E+02 -0.43133692175E+03  0.43948010762E+03  0.00000000000E+00 0.  1.
<mgrwt>
<rscale>  0 0.17588743E+04</rscale>
<asrwt>0</asrwt>
<pdfrwt beam="1">  1        2 0.88219696E-01 0.17588743E+04</pdfrwt>
<pdfrwt beam="2">  1       -2 0.20749963E+00 0.17588743E+04</pdfrwt>
<totfact> 0.58910558E+00</totfact>
</mgrwt>
</event>
<event>
12    1  0.1541840E-007  0.1481920E+04  0.7818608E-02  0.8896565E-01
         -1   -1    0    0    0  501 -0.00000000000E+00  0.00000000000E+00  0.85777771077E+03  0.85777771077E+03  0.00000000000E+00 0.  1.
          1   -1    0    0  501    0  0.00000000000E+00 -0.00000000000E+00 -0.64005170848E+03  0.64005170848E+03  0.00000000000E+00 0. -1.
         23    2    1    2    0    0 -0.61273121654E+02 -0.12809448385E+03  0.51186008802E+03  0.54222416766E+03  0.10882879244E+03 0.  0.
        254    2    1    2    0    0  0.61273121654E+02  0.12809448385E+03 -0.29413408573E+03  0.95560525159E+03  0.89805564652E+03 0.  0.
        -24    2    4    4    0    0  0.18310422157E+03  0.41872482780E+03  0.68434979936E+02  0.46895703221E+03  0.79873113185E+02 0.  0.
         24    2    4    4    0    0 -0.12183109991E+03 -0.29063034396E+03 -0.36256906566E+03  0.48664821938E+03  0.77854661486E+02 0.  0.
         11    1    3    3    0    0 -0.38041191221E+02 -0.14050457545E+03  0.36381927468E+03  0.39185856196E+03  0.00000000000E+00 0.  1.
        -11    1    3    3    0    0 -0.23231930433E+02  0.12410091605E+02  0.14804081334E+03  0.15036560571E+03  0.00000000000E+00 0. -1.
          4    1    6    6  502    0  0.10859563389E+01  0.45889297245E+01 -0.38868730926E+01  0.61110849794E+01  0.00000000000E+00 0. -1.
          3    1    5    5  503    0 -0.77738777595E+01  0.88094331286E+01  0.22093917082E+01  0.11954944550E+02  0.00000000000E+00 0. -1.
         -4    1    5    5    0  503  0.19087809933E+03  0.40991539467E+03  0.66225588228E+02  0.45700208766E+03  0.00000000000E+00 0.  1.
         -3    1    6    6    0  502 -0.12291705625E+03 -0.29521927368E+03 -0.35868219257E+03  0.48053713440E+03  0.00000000000E+00 0.  1.
<mgrwt>
<rscale>  0 0.14819205E+04</rscale>
<asrwt>0</asrwt>
<pdfrwt beam="1">  1        1 0.98469493E-01 0.14819205E+04</pdfrwt>
<pdfrwt beam="2">  1       -1 0.13196580E+00 0.14819205E+04</pdfrwt>
<totfact> 0.14740559E+01</totfact>
</mgrwt>
</event>
<event>
12    1  0.1541840E-007  0.2445183E+04  0.7818608E-02  0.8422779E-01
         -1   -1    0    0    0  501 -0.00000000000E+00  0.00000000000E+00  0.11764817657E+04  0.11764817657E+04  0.00000000000E+00 0.  1.
          1   -1    0    0  501    0  0.00000000000E+00 -0.00000000000E+00 -0.12705088842E+04  0.12705088842E+04  0.00000000000E+00 0. -1.
         23    2    1    2    0    0 -0.75799159166E+03  0.16400742195E+02 -0.76372280599E+03  0.10800844121E+04  0.92138892174E+02 0.  0.
        254    2    1    2    0    0  0.75799159166E+03 -0.16400742195E+02  0.66969568746E+03  0.13669062378E+04  0.91930414543E+03 0.  0.
        -24    2    4    4    0    0  0.29707317220E+03 -0.39921125977E+03  0.55827492975E+03  0.75182025117E+03  0.77075893277E+02 0.  0.
         24    2    4    4    0    0  0.46091841946E+03  0.38281051757E+03  0.11142075771E+03  0.61508598664E+03  0.83225620746E+02 0.  0.
         11    1    3    3    0    0 -0.61030205344E+03  0.29644149307E+02 -0.65815509362E+03  0.89806207985E+03  0.00000000000E+00 0. -1.
        -11    1    3    3    0    0 -0.14768953822E+03 -0.13243407112E+02 -0.10556771238E+03  0.18202233223E+03  0.00000000000E+00 0.  1.
          2    1    6    6  502    0  0.31688710185E+03  0.21630053125E+03  0.53066776868E+02  0.38732342809E+03  0.00000000000E+00 0. -1.
          3    1    5    5  503    0  0.17282566844E+03 -0.28294299028E+03  0.39865530987E+03  0.51850892327E+03  0.00000000000E+00 0. -1.
         -4    1    5    5    0  503  0.12424750375E+03 -0.11626826949E+03  0.15961961988E+03  0.23331132790E+03  0.00000000000E+00 0.  1.
         -1    1    6    6    0  502  0.14403131761E+03  0.16650998633E+03  0.58353980840E+02  0.22776255855E+03  0.00000000000E+00 0.  1.
<mgrwt>
<rscale>  0 0.24451835E+04</rscale>
<asrwt>0</asrwt>
<pdfrwt beam="1">  1        1 0.19546290E+00 0.24451835E+04</pdfrwt>
<pdfrwt beam="2">  1       -1 0.18099720E+00 0.24451835E+04</pdfrwt>
<totfact> 0.17355505E+00</totfact>
</mgrwt>
</event>
<event>
12    1  0.1541840E-007  0.2032176E+04  0.7818608E-02  0.8591723E-01
          2   -1    0    0  501    0  0.00000000000E+00  0.00000000000E+00  0.13846754446E+04  0.13846754446E+04  0.00000000000E+00 0. -1.
         -2   -1    0    0    0  501 -0.00000000000E+00 -0.00000000000E+00 -0.74561519331E+03  0.74561519331E+03  0.00000000000E+00 0.  1.
         23    2    1    2    0    0 -0.18368786487E+03 -0.32691709517E+03 -0.49981856519E+03  0.63154159558E+03  0.91706979126E+02 0.  0.
        254    2    1    2    0    0  0.18368786487E+03  0.32691709517E+03  0.11388788165E+04  0.14987490423E+04  0.89921505460E+03 0.  0.
        -24    2    4    4    0    0 -0.32487706520E+03  0.10724995598E+03  0.19616343614E+03  0.40212078274E+03  0.78570794029E+02 0.  0.
         24    2    4    4    0    0  0.50856493007E+03  0.21966713919E+03  0.94271538034E+03  0.10966282596E+04  0.83602100850E+02 0.  0.
         13    1    3    3    0    0 -0.18824877917E+03 -0.28751590691E+03 -0.42228771139E+03  0.54445377286E+03  0.00000000000E+00 0.  1.
        -13    1    3    3    0    0  0.45609142990E+01 -0.39401188258E+02 -0.77530853797E+02  0.87087822719E+02  0.00000000000E+00 0. -1.
          2    1    6    6  502    0  0.49508473433E+03  0.21623232418E+03  0.93700043893E+03  0.10815891710E+04  0.00000000000E+00 0. -1.
          3    1    5    5  503    0 -0.10670776409E+03  0.40273732725E+02  0.24779612691E+02  0.11671567877E+03  0.00000000000E+00 0. -1.
         -4    1    5    5    0  503 -0.21816930111E+03  0.66976223256E+02  0.17138382345E+03  0.28540510397E+03  0.00000000000E+00 0.  1.
         -1    1    6    6    0  502  0.13480195745E+02  0.34348150021E+01  0.57149414047E+01  0.15039088625E+02  0.00000000000E+00 0.  1.
<mgrwt>
<rscale>  0 0.20321762E+04</rscale>
<asrwt>0</asrwt>
<pdfrwt beam="1">  1        2 0.21302699E+00 0.20321762E+04</pdfrwt>
<pdfrwt beam="2">  1       -2 0.11471003E+00 0.20321762E+04</pdfrwt>
<totfact> 0.81197326E+00</totfact>
</mgrwt>
</event>
<event>
12    1  0.1541840E-007  0.1247152E+04  0.7818608E-02  0.9072557E-01
          1   -1    0    0  501    0  0.00000000000E+00  0.00000000000E+00  0.10012089539E+04  0.10012089539E+04  0.00000000000E+00 0. -1.
         -1   -1    0    0    0  501 -0.00000000000E+00 -0.00000000000E+00 -0.38837753163E+03  0.38837753163E+03  0.00000000000E+00 0.  1.
         23    2    1    2    0    0  0.66142463027E+02 -0.73624139974E+01  0.46312089332E+03  0.47687864561E+03  0.92213069890E+02 0.  0.
        254    2    1    2    0    0 -0.66142463027E+02  0.73624139974E+01  0.14971052891E+03  0.91270783987E+03  0.89788269164E+03 0.  0.
        -24    2    4    4    0    0 -0.44992289454E+03 -0.12865571801E+03  0.98230294351E+01  0.47493537434E+03  0.80524611668E+02 0.  0.
         24    2    4    4    0    0  0.38378043152E+03  0.13601813201E+03  0.13988749947E+03  0.43777246553E+03  0.79296073156E+02 0.  0.
         11    1    3    3    0    0  0.84270824280E+02 -0.13807937033E+02  0.43146501880E+03  0.43983439315E+03  0.00000000000E+00 0. -1.
        -11    1    3    3    0    0 -0.18128361254E+02  0.64455230354E+01  0.31655874514E+02  0.37044252458E+02  0.00000000000E+00 0.  1.
          2    1    6    6  502    0  0.19869416524E+03  0.80187078379E+02  0.11405643995E+03  0.24273073628E+03  0.00000000000E+00 0. -1.
          1    1    5    5  503    0 -0.91603245153E+02  0.65865373287E+01  0.14603073630E+01  0.91851344541E+02  0.00000000000E+00 0. -1.
         -2    1    5    5    0  503 -0.35831964939E+03 -0.13524225534E+03  0.83627220721E+01  0.38308402980E+03  0.00000000000E+00 0.  1.
         -3    1    6    6    0  502  0.18508626628E+03  0.55831053630E+02  0.25831059516E+02  0.19504172925E+03  0.00000000000E+00 0.  1.
<mgrwt>
<rscale>  0 0.12471521E+04</rscale>
<asrwt>0</asrwt>
<pdfrwt beam="1">  1        1 0.15403215E+00 0.12471521E+04</pdfrwt>
<pdfrwt beam="2">  1       -1 0.59750390E-01 0.12471521E+04</pdfrwt>
<totfact> 0.42292154E+01</totfact>
</mgrwt>
</event>
<event>
12    1  0.1541840E-007  0.2453346E+04  0.7818608E-02  0.8419797E-01
          3   -1    0    0  501    0  0.00000000000E+00  0.00000000000E+00  0.68118650120E+03  0.68118650120E+03  0.00000000000E+00 0. -1.
         -3   -1    0    0    0  501 -0.00000000000E+00 -0.00000000000E+00 -0.22089781766E+04  0.22089781766E+04  0.00000000000E+00 0.  1.
         23    2    1    2    0    0 -0.55001412553E+03  0.57854069624E+03  0.16161191421E+03  0.81954456309E+03  0.91159226530E+02 0.  0.
        254    2    1    2    0    0  0.55001412553E+03 -0.57854069624E+03 -0.16894035896E+04  0.20706201147E+04  0.89227702837E+03 0.  0.
        -24    2    4    4    0    0 -0.23514659113E+02 -0.43075954345E+03 -0.23367029585E+03  0.49704093084E+03  0.79631377626E+02 0.  0.
         24    2    4    4    0    0  0.57352878464E+03 -0.14778115279E+03 -0.14557332937E+04  0.15735791838E+04  0.78851058437E+02 0.  0.
         11    1    3    3    0    0 -0.27720751515E+03  0.29417307692E+03  0.12827231150E+03  0.42407026722E+03  0.00000000000E+00 0. -1.
        -11    1    3    3    0    0 -0.27280661038E+03  0.28436761932E+03  0.33339602711E+02  0.39547429587E+03  0.00000000000E+00 0.  1.
          4    1    6    6  502    0  0.33032863143E+03 -0.97035068609E+02 -0.94157308343E+03  0.10025431067E+04  0.00000000000E+00 0. -1.
          1    1    5    5  503    0 -0.69360155023E+01 -0.41314450673E+03 -0.22895879543E+03  0.47239667839E+03  0.00000000000E+00 0. -1.
         -2    1    5    5    0  503 -0.16578643611E+02 -0.17615036719E+02 -0.47115004276E+01  0.24644252451E+02  0.00000000000E+00 0.  1.
         -3    1    6    6    0  502  0.24320015321E+03 -0.50746084181E+02 -0.51416021029E+03  0.57103607717E+03  0.00000000000E+00 0.  1.
<mgrwt>
<rscale>  0 0.24533456E+04</rscale>
<asrwt>0</asrwt>
<pdfrwt beam="1">  1        3 0.10479792E+00 0.24533456E+04</pdfrwt>
<pdfrwt beam="2">  1       -3 0.33984280E+00 0.24533456E+04</pdfrwt>
<totfact> 0.41661384E-02</totfact>
</mgrwt>
</event>
<event>
12    1  0.1541840E-007  0.2629762E+04  0.7818608E-02  0.8358161E-01
         -2   -1    0    0    0  501 -0.00000000000E+00  0.00000000000E+00  0.13333764656E+04  0.13333764656E+04  0.00000000000E+00 0.  1.
          2   -1    0    0  501    0  0.00000000000E+00 -0.00000000000E+00 -0.12966423073E+04  0.12966423073E+04  0.00000000000E+00 0. -1.
         23    2    1    2    0    0  0.89917757284E+03 -0.72260184330E+03 -0.85605057558E+02  0.11601774708E+04  0.89497522218E+02 0.  0.
        254    2    1    2    0    0 -0.89917757284E+03  0.72260184330E+03  0.12233921587E+03  0.14698413020E+04  0.90265876048E+03 0.  0.
        -24    2    4    4    0    0 -0.10558494962E+02  0.48342243828E+03  0.22672612108E+03  0.54029492603E+03  0.81884903790E+02 0.  0.
         24    2    4    4    0    0 -0.88861907788E+03  0.23917940503E+03 -0.10438690521E+03  0.92954637597E+03  0.79430382921E+02 0.  0.
         11    1    3    3    0    0  0.61275994428E+03 -0.52626939449E+03 -0.28278517429E+02  0.80822886576E+03  0.00000000000E+00 0.  1.
        -11    1    3    3    0    0  0.28641762856E+03 -0.19633244882E+03 -0.57326540129E+02  0.35194860507E+03  0.00000000000E+00 0. -1.
          2    1    6    6  502    0 -0.32604740770E+02  0.25467663592E+02 -0.40109998670E+01  0.41566322058E+02  0.00000000000E+00 0. -1.
          1    1    5    5  503    0  0.35135924081E+02  0.16873491736E+03  0.84366187298E+02  0.19189491671E+03  0.00000000000E+00 0. -1.
         -2    1    5    5    0  503 -0.45694419042E+02  0.31468752091E+03  0.14235993378E+03  0.34840000932E+03  0.00000000000E+00 0.  1.
         -1    1    6    6    0  502 -0.85601433711E+03  0.21371174143E+03 -0.10037590535E+03  0.88798005391E+03  0.00000000000E+00 0.  1.
<mgrwt>
<rscale>  0 0.26297622E+04</rscale>
<asrwt>0</asrwt>
<pdfrwt beam="1">  1        2 0.19948343E+00 0.26297622E+04</pdfrwt>
<pdfrwt beam="2">  1       -2 0.20513484E+00 0.26297622E+04</pdfrwt>
<totfact> 0.18040312E+00</totfact>
</mgrwt>
</event>
<event>
12    1  0.1541840E-007  0.2475135E+04  0.7818608E-02  0.8411898E-01
          2   -1    0    0  501    0  0.00000000000E+00  0.00000000000E+00  0.54010400719E+03  0.54010400719E+03  0.00000000000E+00 0. -1.
         -2   -1    0    0    0  501 -0.00000000000E+00 -0.00000000000E+00 -0.28356999861E+04  0.28356999861E+04  0.00000000000E+00 0.  1.
         23    2    1    2    0    0 -0.10699253689E+04 -0.38978587267E+02 -0.11272841219E+04  0.15569661506E+04  0.84347360738E+02 0.  0.
        254    2    1    2    0    0  0.10699253689E+04  0.38978587267E+02 -0.11683118570E+04  0.18188378427E+04  0.89272553325E+03 0.  0.
        -24    2    4    4    0    0  0.11856580885E+04  0.25977664134E+02 -0.82229507562E+03  0.14453892782E+04  0.80752909072E+02 0.  0.
         24    2    4    4    0    0 -0.11573271958E+03  0.13000923133E+02 -0.34601678139E+03  0.37344856456E+03  0.78569275084E+02 0.  0.
         11    1    3    3    0    0 -0.37902301481E+03 -0.27535783370E+02 -0.34584196886E+03  0.51383200810E+03  0.00000000000E+00 0. -1.
        -11    1    3    3    0    0 -0.69090235407E+03 -0.11442803896E+02 -0.78144215306E+03  0.10431341425E+04  0.00000000000E+00 0.  1.
          2    1    6    6  502    0 -0.80726327071E+01 -0.24129328681E+02 -0.83588729192E+02  0.87375440195E+02  0.00000000000E+00 0. -1.
          3    1    5    5  503    0  0.45405590300E+01  0.47265468757E+01 -0.92141354735E+01  0.11307396438E+02  0.00000000000E+00 0. -1.
         -4    1    5    5    0  503  0.11811175294E+04  0.21251117258E+02 -0.81308094015E+03  0.14340818817E+04  0.00000000000E+00 0.  1.
         -1    1    6    6    0  502 -0.10766008687E+03  0.37130251814E+02 -0.26242805220E+03  0.28607312436E+03  0.00000000000E+00 0.  1.
<mgrwt>
<rscale>  0 0.24751347E+04</rscale>
<asrwt>0</asrwt>
<pdfrwt beam="1">  1        2 0.83092924E-01 0.24751347E+04</pdfrwt>
<pdfrwt beam="2">  1       -2 0.43626154E+00 0.24751347E+04</pdfrwt>
<totfact> 0.21506740E-01</totfact>
</mgrwt>
</event>
<event>
12    1  0.1541840E-007  0.1838717E+04  0.7818608E-02  0.8685977E-01
          2   -1    0    0  501    0  0.00000000000E+00  0.00000000000E+00  0.34177459475E+04  0.34177459475E+04  0.00000000000E+00 0. -1.
         -2   -1    0    0    0  501 -0.00000000000E+00 -0.00000000000E+00 -0.24730336560E+03  0.24730336560E+03  0.00000000000E+00 0.  1.
         23    2    1    2    0    0  0.13979126087E+03 -0.52757362355E+03  0.20267776128E+04  0.21009976562E+04  0.92131073748E+02 0.  0.
        254    2    1    2    0    0 -0.13979126087E+03  0.52757362355E+03  0.11436649690E+04  0.15640516568E+04  0.91674014798E+03 0.  0.
        -24    2    4    4    0    0  0.35010846587E+02 -0.50026174360E+02  0.90436780010E+03  0.90991005927E+03  0.79541313810E+02 0.  0.
         24    2    4    4    0    0 -0.17480210746E+03  0.57759979791E+03  0.23929716891E+03  0.65414159753E+03  0.80379047360E+02 0.  0.
         11    1    3    3    0    0  0.14804770972E+03 -0.52002824754E+03  0.20034257710E+04  0.20751053762E+04  0.00000000000E+00 0. -1.
        -11    1    3    3    0    0 -0.82564488441E+01 -0.75453760096E+01  0.23351841889E+02  0.25892280051E+02  0.00000000000E+00 0.  1.
          4    1    6    6  502    0 -0.65038331516E+02  0.18674992317E+03  0.39449698869E+02  0.20164770545E+03  0.00000000000E+00 0. -1.
          1    1    5    5  503    0 -0.14423233630E+02 -0.12747967341E+02  0.54677151134E+02  0.57966638644E+02  0.00000000000E+00 0. -1.
         -2    1    5    5    0  503  0.49434080217E+02 -0.37278207019E+02  0.84969064897E+03  0.85194342063E+03  0.00000000000E+00 0.  1.
         -3    1    6    6    0  502 -0.10976377594E+03  0.39084987473E+03  0.19984747004E+03  0.45249389208E+03  0.00000000000E+00 0.  1.
<mgrwt>
<rscale>  0 0.18387170E+04</rscale>
<asrwt>0</asrwt>
<pdfrwt beam="1">  1        2 0.52580704E+00 0.18387170E+04</pdfrwt>
<pdfrwt beam="2">  1       -2 0.38046674E-01 0.18387170E+04</pdfrwt>
<totfact> 0.57291390E+00</totfact>
</mgrwt>
</event>
<event>
12    1  0.1541840E-007  0.3467986E+04  0.7818608E-02  0.8121419E-01
         -2   -1    0    0    0  501 -0.00000000000E+00  0.00000000000E+00  0.13200288739E+04  0.13200288739E+04  0.00000000000E+00 0.  1.
          2   -1    0    0  501    0  0.00000000000E+00 -0.00000000000E+00 -0.22777769788E+04  0.22777769788E+04  0.00000000000E+00 0. -1.
         23    2    1    2    0    0 -0.59522633717E+03 -0.68106561889E+03 -0.18398583502E+04  0.20522680412E+04  0.92631497805E+02 0.  0.
        254    2    1    2    0    0  0.59522633717E+03  0.68106561889E+03  0.88211024528E+03  0.15455378116E+04  0.89018193223E+03 0.  0.
        -24    2    4    4    0    0  0.27003178480E+03  0.15299257261E+03  0.86172540925E+03  0.91930433790E+03  0.78904325988E+02 0.  0.
         24    2    4    4    0    0  0.32519455237E+03  0.52807304628E+03  0.20384836029E+02  0.62623347367E+03  0.84499602971E+02 0.  0.
         11    1    3    3    0    0 -0.18333853166E+02 -0.14246065414E+02 -0.22623632062E+02  0.32417730941E+02  0.00000000000E+00 0.  1.
        -11    1    3    3    0    0 -0.57689248401E+03 -0.66681955348E+03 -0.18172347181E+04  0.20198503102E+04  0.00000000000E+00 0. -1.
          4    1    6    6  502    0  0.10939365430E+03  0.23503194761E+03 -0.20312400511E+02  0.26003765422E+03  0.00000000000E+00 0. -1.
          1    1    5    5  503    0  0.17207351617E+03  0.10703261732E+03  0.65975302916E+03  0.69017340982E+03  0.00000000000E+00 0. -1.
         -2    1    5    5    0  503  0.97958268636E+02  0.45959955287E+02  0.20197238009E+03  0.22913092808E+03  0.00000000000E+00 0.  1.
         -3    1    6    6    0  502  0.21580089807E+03  0.29304109867E+03  0.40697236541E+02  0.36619581944E+03  0.00000000000E+00 0.  1.
<mgrwt>
<rscale>  0 0.34679858E+04</rscale>
<asrwt>0</asrwt>
<pdfrwt beam="1">  1        2 0.35042722E+00 0.34679858E+04</pdfrwt>
<pdfrwt beam="2">  1       -2 0.20308137E+00 0.34679858E+04</pdfrwt>
<totfact> 0.48817115E-01</totfact>
</mgrwt>
</event>
<event>
12    1  0.1541840E-007  0.1422465E+04  0.7818608E-02  0.8937716E-01
         -2   -1    0    0    0  501 -0.00000000000E+00  0.00000000000E+00  0.19963084268E+03  0.19963084268E+03  0.00000000000E+00 0.  1.
          2   -1    0    0  501    0  0.00000000000E+00 -0.00000000000E+00 -0.25339339248E+04  0.25339339248E+04  0.00000000000E+00 0. -1.
         23    2    1    2    0    0  0.61047346582E+02 -0.12813282830E+02  0.92378590408E+02  0.14341939959E+03  0.90246116107E+02 0.  0.
        254    2    1    2    0    0 -0.61047346582E+02  0.12813282830E+02 -0.24266816725E+04  0.25901453678E+04  0.90342577350E+03 0.  0.
        -24    2    4    4    0    0 -0.14686292136E+03 -0.16537075838E+03 -0.10264691948E+03  0.25634684378E+03  0.79127168802E+02 0.  0.
         24    2    4    4    0    0  0.85815574777E+02  0.17818404120E+03 -0.23240347530E+04  0.23337985241E+04  0.79775637244E+02 0.  0.
         13    1    3    3    0    0  0.57260413577E+02 -0.40135711435E+01  0.10959498504E+03  0.12371711467E+03  0.00000000000E+00 0.  1.
        -13    1    3    3    0    0  0.37869330053E+01 -0.87997116861E+01 -0.17216394628E+02  0.19702284927E+02  0.00000000000E+00 0. -1.
          2    1    6    6  502    0  0.37667977877E+02  0.75824770413E+02 -0.14506993824E+04  0.14531679085E+04  0.00000000000E+00 0. -1.
          1    1    5    5  503    0 -0.41664854045E+02 -0.90276005564E+02 -0.15915361298E+02  0.10069268081E+03  0.00000000000E+00 0. -1.
         -2    1    5    5    0  503 -0.10519806731E+03 -0.75094752811E+02 -0.86731558180E+02  0.15565416297E+03  0.00000000000E+00 0.  1.
         -1    1    6    6    0  502  0.48147596900E+02  0.10235927079E+03 -0.87333537064E+03  0.88063061553E+03  0.00000000000E+00 0.  1.
<mgrwt>
<rscale>  0 0.14224646E+04</rscale>
<asrwt>0</asrwt>
<pdfrwt beam="1">  1        2 0.38983600E+00 0.14224646E+04</pdfrwt>
<pdfrwt beam="2">  1       -2 0.30712436E-01 0.14224646E+04</pdfrwt>
<totfact> 0.31841775E+01</totfact>
</mgrwt>
</event>
<event>
12    1  0.1541840E-007  0.1887091E+04  0.7818608E-02  0.8661309E-01
          2   -1    0    0  501    0  0.00000000000E+00  0.00000000000E+00  0.12755606294E+04  0.12755606294E+04  0.00000000000E+00 0.  1.
         -2   -1    0    0    0  501 -0.00000000000E+00 -0.00000000000E+00 -0.69795019603E+03  0.69795019603E+03  0.00000000000E+00 0. -1.
         23    2    1    2    0    0  0.18889036757E+02  0.29811948415E+03  0.83381626391E+03  0.89035074005E+03  0.90790174648E+02 0.  0.
        254    2    1    2    0    0 -0.18889036757E+02 -0.29811948415E+03 -0.25620583052E+03  0.10831600854E+04  0.10091393960E+04 0.  0.
        -24    2    4    4    0    0  0.48342662369E+03 -0.16095894081E+03 -0.20218980002E+03  0.55401625708E+03  0.80275879055E+02 0.  0.
         24    2    4    4    0    0 -0.50231566045E+03 -0.13716054334E+03 -0.54016030494E+02  0.52914382832E+03  0.77080620908E+02 0.  0.
         13    1    3    3    0    0  0.48301772727E+02  0.11440808342E+03  0.38378742050E+03  0.40337954204E+03  0.00000000000E+00 0. -1.
        -13    1    3    3    0    0 -0.29412735970E+02  0.18371140073E+03  0.45002884341E+03  0.48697119801E+03  0.00000000000E+00 0.  1.
          4    1    6    6  502    0 -0.16757721046E+03 -0.22129968398E+02  0.10509872021E+02  0.16935853795E+03  0.00000000000E+00 0. -1.
          1    1    5    5  503    0  0.39224550006E+03 -0.16009062690E+03 -0.15321477316E+03  0.45051116285E+03  0.00000000000E+00 0. -1.
         -2    1    5    5    0  503  0.91181123630E+02 -0.86831391020E+00 -0.48975026864E+02  0.10350509423E+03  0.00000000000E+00 0.  1.
         -3    1    6    6    0  502 -0.33473844999E+03 -0.11503057494E+03 -0.64525902514E+02  0.35978529037E+03  0.00000000000E+00 0.  1.
<mgrwt>
<rscale>  0 0.18870907E+04</rscale>
<asrwt>0</asrwt>
<pdfrwt beam="1">  1        2 0.19624010E+00 0.18870907E+04</pdfrwt>
<pdfrwt beam="2">  1       -2 0.10737695E+00 0.18870907E+04</pdfrwt>
<totfact> 0.11158572E+01</totfact>
</mgrwt>
</event>
<event>
12    1  0.1541840E-007  0.1344215E+04  0.7818608E-02  0.8995219E-01
         -2   -1    0    0    0  501 -0.00000000000E+00  0.00000000000E+00  0.38941125080E+03  0.38941125080E+03  0.00000000000E+00 0. -1.
          2   -1    0    0  501    0  0.00000000000E+00 -0.00000000000E+00 -0.11600292270E+04  0.11600292270E+04  0.00000000000E+00 0.  1.
         23    2    1    2    0    0  0.30081761163E+03  0.14806183596E+03 -0.38224859883E+03  0.51640423249E+03  0.90254070777E+02 0.  0.
        254    2    1    2    0    0 -0.30081761163E+03 -0.14806183596E+03 -0.38836937733E+03  0.10330362453E+04  0.89661561890E+03 0.  0.
        -24    2    4    4    0    0 -0.10250756652E+03  0.15607386483E+03 -0.58083864209E+03  0.61482218080E+03  0.75933743430E+02 0.  0.
         24    2    4    4    0    0 -0.19831004511E+03 -0.30413570079E+03  0.19246926475E+03  0.41821406447E+03  0.77673594977E+02 0.  0.
         11    1    3    3    0    0  0.19522165545E+03  0.66015677858E+02 -0.28200090695E+03  0.34927650365E+03  0.00000000000E+00 0.  1.
        -11    1    3    3    0    0  0.10559595618E+03  0.82046158106E+02 -0.10024769189E+03  0.16712772885E+03  0.00000000000E+00 0. -1.
          2    1    6    6  502    0 -0.45655375195E+02 -0.34764139083E+02  0.83576619401E+01  0.57989733259E+02  0.00000000000E+00 0. -1.
          1    1    5    5  503    0 -0.82863036314E+01  0.23350887326E+02 -0.18759526163E+03  0.18922449353E+03  0.00000000000E+00 0. -1.
         -2    1    5    5    0  503 -0.94221262893E+02  0.13272297750E+03 -0.39324338046E+03  0.42559768727E+03  0.00000000000E+00 0.  1.
         -1    1    6    6    0  502 -0.15265466991E+03 -0.26937156171E+03  0.18411160281E+03  0.36022433121E+03  0.00000000000E+00 0.  1.
<mgrwt>
<rscale>  0 0.13442149E+04</rscale>
<asrwt>0</asrwt>
<pdfrwt beam="1">  1        2 0.17846603E+00 0.13442149E+04</pdfrwt>
<pdfrwt beam="2">  1       -2 0.59909424E-01 0.13442149E+04</pdfrwt>
<totfact> 0.50829657E+01</totfact>
</mgrwt>
</event>
<event>
12    1  0.1541840E-007  0.1686856E+04  0.7818608E-02  0.8768897E-01
          1   -1    0    0  501    0  0.00000000000E+00  0.00000000000E+00  0.16130018249E+04  0.16130018249E+04  0.00000000000E+00 0. -1.
         -1   -1    0    0    0  501 -0.00000000000E+00 -0.00000000000E+00 -0.44102283332E+03  0.44102283332E+03  0.00000000000E+00 0.  1.
         23    2    1    2    0    0  0.36381151105E+03  0.18243016174E+03  0.85296794848E+03  0.94938778380E+03  0.90240032261E+02 0.  0.
        254    2    1    2    0    0 -0.36381151105E+03 -0.18243016174E+03  0.31901104315E+03  0.11046368744E+04  0.97612243046E+03 0.  0.
        -24    2    4    4    0    0 -0.69524263246E+03 -0.10216302883E+03  0.20625228197E+03  0.73676224485E+03  0.80492230493E+02 0.  0.
         24    2    4    4    0    0  0.33143112141E+03 -0.80267132904E+02  0.11275876118E+03  0.36787462960E+03  0.79547495349E+02 0.  0.
         13    1    3    3    0    0  0.21488543146E+03  0.62561049928E+02  0.41468964885E+03  0.47122939052E+03  0.00000000000E+00 0.  1.
        -13    1    3    3    0    0  0.14892607959E+03  0.11986911181E+03  0.43827829963E+03  0.47815839329E+03  0.00000000000E+00 0. -1.
          4    1    6    6  502    0  0.18980906973E+03 -0.69505009574E+02  0.99298232968E+02  0.22520783374E+03  0.00000000000E+00 0. -1.
          1    1    5    5  503    0 -0.63959086282E+02 -0.19755451871E+02 -0.18727714448E+01  0.66966781837E+02  0.00000000000E+00 0. -1.
         -2    1    5    5    0  503 -0.63128354618E+03 -0.82407576960E+02  0.20812505341E+03  0.66979546301E+03  0.00000000000E+00 0.  1.
         -3    1    6    6    0  502  0.14162205168E+03 -0.10762123330E+02  0.13460528209E+02  0.14266679586E+03  0.00000000000E+00 0.  1.
<mgrwt>
<rscale>  0 0.16868558E+04</rscale>
<asrwt>0</asrwt>
<pdfrwt beam="1">  1        1 0.24815412E+00 0.16868558E+04</pdfrwt>
<pdfrwt beam="2">  1       -1 0.67849667E-01 0.16868558E+04</pdfrwt>
<totfact> 0.11453720E+01</totfact>
</mgrwt>
</event>
<event>
12    1  0.1541840E-007  0.1310251E+04  0.7818608E-02  0.9021476E-01
          1   -1    0    0  501    0  0.00000000000E+00  0.00000000000E+00  0.22512745119E+04  0.22512745119E+04  0.00000000000E+00 0. -1.
         -1   -1    0    0    0  501 -0.00000000000E+00 -0.00000000000E+00 -0.19064276472E+03  0.19064276472E+03  0.00000000000E+00 0.  1.
         23    2    1    2    0    0  0.25769018188E+03  0.37672222512E+02  0.14892113436E+03  0.31318522319E+03  0.89911365113E+02 0.  0.
        254    2    1    2    0    0 -0.25769018188E+03 -0.37672222512E+02  0.19117106128E+04  0.21287320534E+04  0.89946609828E+03 0.  0.
        -24    2    4    4    0    0 -0.24298693552E+03  0.14690352966E+03  0.10857547304E+03  0.31438634206E+03  0.80167579920E+02 0.  0.
         24    2    4    4    0    0 -0.14703246360E+02 -0.18457575217E+03  0.18031351398E+04  0.18143457114E+04  0.79181022458E+02 0.  0.
         13    1    3    3    0    0  0.30072396240E+02  0.21685222682E+02  0.55230510160E+02  0.66520727228E+02  0.00000000000E+00 0. -1.
        -13    1    3    3    0    0  0.22761778564E+03  0.15986999830E+02  0.93690624204E+02  0.24666449596E+03  0.00000000000E+00 0.  1.
          4    1    6    6  502    0  0.26042342692E+02 -0.25818026057E+02  0.27138529208E+03  0.27385169497E+03  0.00000000000E+00 0. -1.
          1    1    5    5  503    0 -0.68946130093E+02  0.65852408714E+01  0.42522445639E+02  0.81271721006E+02  0.00000000000E+00 0. -1.
         -2    1    5    5    0  503 -0.17404080543E+03  0.14031828878E+03  0.66053027400E+02  0.23311462106E+03  0.00000000000E+00 0.  1.
         -1    1    6    6    0  502 -0.40745589051E+02 -0.15875772611E+03  0.15317498477E+04  0.15404940164E+04  0.00000000000E+00 0.  1.
<mgrwt>
<rscale>  0 0.13102507E+04</rscale>
<asrwt>0</asrwt>
<pdfrwt beam="1">  1        1 0.34634991E+00 0.13102507E+04</pdfrwt>
<pdfrwt beam="2">  1       -1 0.29329658E-01 0.13102507E+04</pdfrwt>
<totfact> 0.21003765E+01</totfact>
</mgrwt>
</event>
<event>
12    1  0.1541840E-007  0.2100827E+04  0.7818608E-02  0.8560879E-01
         -2   -1    0    0    0  501 -0.00000000000E+00  0.00000000000E+00  0.87566612360E+03  0.87566612360E+03  0.00000000000E+00 0.  1.
          2   -1    0    0  501    0  0.00000000000E+00 -0.00000000000E+00 -0.12600334716E+04  0.12600334716E+04  0.00000000000E+00 0. -1.
         23    2    1    2    0    0  0.31031458897E+03  0.66680862939E+03  0.29291783264E+03  0.79689019995E+03  0.91127612401E+02 0.  0.
        254    2    1    2    0    0 -0.31031458897E+03 -0.66680862939E+03 -0.67728518068E+03  0.13388093953E+04  0.89037435307E+03 0.  0.
        -24    2    4    4    0    0  0.19635497840E+03 -0.32800835085E+03 -0.60500275130E+03  0.72001249182E+03  0.79024701998E+02 0.  0.
         24    2    4    4    0    0 -0.50666956737E+03 -0.33880027853E+03 -0.72282429373E+02  0.61879690347E+03  0.78645908384E+02 0.  0.
         11    1    3    3    0    0  0.13689056059E+03  0.27714687792E+03  0.17118495350E+03  0.35334643882E+03  0.00000000000E+00 0.  1.
        -11    1    3    3    0    0  0.17342402838E+03  0.38966175146E+03  0.12173287914E+03  0.44354376113E+03  0.00000000000E+00 0. -1.
          2    1    6    6  502    0 -0.16490118367E+03 -0.10907850764E+03  0.13445902730E+02  0.19816991070E+03  0.00000000000E+00 0. -1.
          1    1    5    5  503    0 -0.40839997767E+01 -0.26949473614E+01 -0.24879179730E+02  0.25355776058E+02  0.00000000000E+00 0. -1.
         -2    1    5    5    0  503  0.20043897818E+03 -0.32531340349E+03 -0.58012357157E+03  0.69465671577E+03  0.00000000000E+00 0.  1.
         -1    1    6    6    0  502 -0.34176838370E+03 -0.22972177089E+03 -0.85728332103E+02  0.42062699277E+03  0.00000000000E+00 0.  1.
<mgrwt>
<rscale>  0 0.21008271E+04</rscale>
<asrwt>0</asrwt>
<pdfrwt beam="1">  1        2 0.19385130E+00 0.21008271E+04</pdfrwt>
<pdfrwt beam="2">  1       -2 0.13471787E+00 0.21008271E+04</pdfrwt>
<totfact> 0.63781138E+00</totfact>
</mgrwt>
</event>
<event>
12    1  0.1541840E-007  0.1712539E+04  0.7818608E-02  0.8754245E-01
         -1   -1    0    0    0  501 -0.00000000000E+00  0.00000000000E+00  0.75167988703E+03  0.75167988703E+03  0.00000000000E+00 0.  1.
          1   -1    0    0  501    0  0.00000000000E+00 -0.00000000000E+00 -0.97541190144E+03  0.97541190144E+03  0.00000000000E+00 0. -1.
         23    2    1    2    0    0  0.49808348561E+03  0.32908445346E+03  0.18819902274E+02  0.60375141102E+03  0.88192071252E+02 0.  0.
        254    2    1    2    0    0 -0.49808348561E+03 -0.32908445346E+03 -0.24255191669E+03  0.11233403775E+04  0.92015131102E+03 0.  0.
        -24    2    4    4    0    0 -0.67005696470E+03 -0.31562832545E+03 -0.42760482831E+03  0.85854940296E+03  0.75256975421E+02 0.  0.
         24    2    4    4    0    0  0.17197347909E+03 -0.13456128012E+02  0.18505291162E+03  0.26479097449E+03  0.78190377822E+02 0.  0.
         11    1    3    3    0    0  0.69391553151E+02  0.20717056240E+02 -0.17243089586E+02  0.74442650453E+02  0.00000000000E+00 0. -1.
        -11    1    3    3    0    0  0.42869193246E+03  0.30836739722E+03  0.36062991860E+02  0.52930876057E+03  0.00000000000E+00 0.  1.
          4    1    6    6  502    0  0.15848392196E+03 -0.32331331819E+02  0.17806579780E+03  0.24056162804E+03  0.00000000000E+00 0. -1.
          3    1    5    5  503    0 -0.41964840937E+03 -0.21921367890E+03 -0.30763447384E+03  0.56462234636E+03  0.00000000000E+00 0. -1.
         -4    1    5    5    0  503 -0.25040855533E+03 -0.96414646550E+02 -0.11997035447E+03  0.29392705660E+03  0.00000000000E+00 0.  1.
         -3    1    6    6    0  502  0.13489557130E+02  0.18875203806E+02  0.69871138177E+01  0.24229346459E+02  0.00000000000E+00 0.  1.
<mgrwt>
<rscale>  0 0.17125391E+04</rscale>
<asrwt>0</asrwt>
<pdfrwt beam="1">  1        1 0.15006337E+00 0.17125391E+04</pdfrwt>
<pdfrwt beam="2">  1       -1 0.11564306E+00 0.17125391E+04</pdfrwt>
<totfact> 0.10187488E+01</totfact>
</mgrwt>
</event>
<event>
12    1  0.1541840E-007  0.1330093E+04  0.7818608E-02  0.9006036E-01
          2   -1    0    0  501    0  0.00000000000E+00  0.00000000000E+00  0.17549644900E+04  0.17549644900E+04  0.00000000000E+00 0. -1.
         -2   -1    0    0    0  501 -0.00000000000E+00 -0.00000000000E+00 -0.25202023521E+03  0.25202023521E+03  0.00000000000E+00 0.  1.
         23    2    1    2    0    0 -0.17407632161E+03  0.30364636750E+03  0.43742639050E+03  0.56906312759E+03  0.99936549082E+02 0.  0.
        254    2    1    2    0    0  0.17407632161E+03 -0.30364636750E+03  0.10655178643E+04  0.14379215977E+04  0.89988139194E+03 0.  0.
        -24    2    4    4    0    0  0.42047611580E+03 -0.32886493547E+03  0.27515994792E+03  0.60589724139E+03  0.80287984359E+02 0.  0.
         24    2    4    4    0    0 -0.24639979419E+03  0.25218567978E+02  0.79035791642E+03  0.83202435628E+03  0.79057312392E+02 0.  0.
         11    1    3    3    0    0 -0.40437435781E+02  0.15758295196E+03  0.15948556236E+03  0.22782277665E+03  0.00000000000E+00 0.  1.
        -11    1    3    3    0    0 -0.13363888583E+03  0.14606341554E+03  0.27794082814E+03  0.34124035094E+03  0.00000000000E+00 0. -1.
          2    1    6    6  502    0 -0.37954345695E+02  0.21445273367E+02  0.23100963845E+03  0.23508697362E+03  0.00000000000E+00 0. -1.
          1    1    5    5  503    0  0.33802794291E+03 -0.29932574760E+03  0.24180894045E+03  0.51218195697E+03  0.00000000000E+00 0. -1.
         -4    1    5    5    0  503  0.82448172893E+02 -0.29539187877E+02  0.33351007468E+02  0.93715284415E+02  0.00000000000E+00 0.  1.
         -1    1    6    6    0  502 -0.20844544850E+03  0.37732946115E+01  0.55934827797E+03  0.59693738266E+03  0.00000000000E+00 0.  1.
<mgrwt>
<rscale>  0 0.13300926E+04</rscale>
<asrwt>0</asrwt>
<pdfrwt beam="1">  1        2 0.26999453E+00 0.13300926E+04</pdfrwt>
<pdfrwt beam="2">  1       -2 0.38772345E-01 0.13300926E+04</pdfrwt>
<totfact> 0.56197399E+01</totfact>
</mgrwt>
</event>
<event>
12    1  0.1541840E-007  0.1020698E+04  0.7818608E-02  0.9286130E-01
          2   -1    0    0  501    0  0.00000000000E+00  0.00000000000E+00  0.19987836539E+04  0.19987836539E+04  0.00000000000E+00 0. -1.
         -2   -1    0    0    0  501 -0.00000000000E+00 -0.00000000000E+00 -0.13030733681E+03  0.13030733681E+03  0.00000000000E+00 0.  1.
         23    2    1    2    0    0  0.50348462086E+02  0.25083621359E+02  0.29019231626E+03  0.30857869276E+03  0.88572419623E+02 0.  0.
        254    2    1    2    0    0 -0.50348462086E+02 -0.25083621359E+02  0.15782840008E+04  0.18205122979E+04  0.90560503753E+03 0.  0.
        -24    2    4    4    0    0  0.12786481342E+03  0.36563258110E+03  0.11181652560E+04  0.11862625210E+04  0.82997796074E+02 0.  0.
         24    2    4    4    0    0 -0.17821327551E+03 -0.39071620246E+03  0.46011874486E+03  0.63424977696E+03  0.78386209088E+02 0.  0.
         13    1    3    3    0    0  0.58435675275E+02  0.39764693692E-01  0.94381080992E+02  0.11100683842E+03  0.00000000000E+00 0.  1.
        -13    1    3    3    0    0 -0.80872131887E+01  0.25043856666E+02  0.19581123527E+03  0.19757185435E+03  0.00000000000E+00 0. -1.
          4    1    6    6  502    0 -0.80709008475E+02 -0.92585004860E+02  0.12561244460E+03  0.17568270664E+03  0.00000000000E+00 0. -1.
          1    1    5    5  503    0  0.75891266762E+02  0.15795591055E+03  0.39619000011E+03  0.43321596258E+03  0.00000000000E+00 0. -1.
         -2    1    5    5    0  503  0.51973546661E+02  0.20767667055E+03  0.72197525585E+03  0.75304655839E+03  0.00000000000E+00 0.  1.
         -3    1    6    6    0  502 -0.97504267034E+02 -0.29813119760E+03  0.33450630026E+03  0.45856707032E+03  0.00000000000E+00 0.  1.
<mgrwt>
<rscale>  0 0.10206981E+04</rscale>
<asrwt>0</asrwt>
<pdfrwt beam="1">  1        2 0.30750515E+00 0.10206981E+04</pdfrwt>
<pdfrwt beam="2">  1       -2 0.20047284E-01 0.10206981E+04</pdfrwt>
<totfact> 0.14252347E+02</totfact>
</mgrwt>
</event>
<event>
12    1  0.1541840E-007  0.1072107E+04  0.7818608E-02  0.9232813E-01
          2   -1    0    0  501    0  0.00000000000E+00  0.00000000000E+00  0.11680707145E+04  0.11680707145E+04  0.00000000000E+00 0. -1.
         -2   -1    0    0    0  501 -0.00000000000E+00 -0.00000000000E+00 -0.24600680753E+03  0.24600680753E+03  0.00000000000E+00 0.  1.
         23    2    1    2    0    0 -0.42022028712E+02 -0.44886762268E+02  0.30746495221E+03  0.32649708751E+03  0.91021859988E+02 0.  0.
        254    2    1    2    0    0  0.42022028712E+02  0.44886762268E+02  0.61459895479E+03  0.10875804345E+04  0.89516403750E+03 0.  0.
        -24    2    4    4    0    0  0.34523685020E+03  0.29624348393E+03  0.47220874122E+03  0.66127779626E+03  0.85781956336E+02 0.  0.
         24    2    4    4    0    0 -0.30321482149E+03 -0.25135672166E+03  0.14239021357E+03  0.42630263828E+03  0.79621209402E+02 0.  0.
         13    1    3    3    0    0 -0.12535626200E+02  0.79809212349E+01  0.18858263945E+01  0.14979765324E+02  0.00000000000E+00 0.  1.
        -13    1    3    3    0    0 -0.29486402512E+02 -0.52867683503E+02  0.30557912581E+03  0.31151732219E+03  0.00000000000E+00 0. -1.
          2    1    6    6  502    0 -0.24768733583E+03 -0.19957368380E+03  0.79900158405E+02  0.32796753941E+03  0.00000000000E+00 0. -1.
          1    1    5    5  503    0  0.23297565375E+03  0.24374947403E+03  0.37046075537E+03  0.50093176441E+03  0.00000000000E+00 0. -1.
         -2    1    5    5    0  503  0.11226119645E+03  0.52494009904E+02  0.10174798585E+03  0.16034603185E+03  0.00000000000E+00 0.  1.
         -1    1    6    6    0  502 -0.55527485661E+02 -0.51783037862E+02  0.62490055170E+02  0.98335098867E+02  0.00000000000E+00 0.  1.
<mgrwt>
<rscale>  0 0.10721070E+04</rscale>
<asrwt>0</asrwt>
<pdfrwt beam="1">  1        2 0.17970318E+00 0.10721070E+04</pdfrwt>
<pdfrwt beam="2">  1       -2 0.37847202E-01 0.10721070E+04</pdfrwt>
<totfact> 0.12958398E+02</totfact>
</mgrwt>
</event>
<event>
12    1  0.1541840E-007  0.1289269E+04  0.7818608E-02  0.9038119E-01
          1   -1    0    0  501    0  0.00000000000E+00  0.00000000000E+00  0.11164982392E+04  0.11164982392E+04  0.00000000000E+00 0. -1.
         -1   -1    0    0    0  501 -0.00000000000E+00 -0.00000000000E+00 -0.37219353574E+03  0.37219353574E+03  0.00000000000E+00 0.  1.
         23    2    1    2    0    0  0.89931097716E+02  0.21900495018E+03  0.43452927834E+03  0.50291998186E+03  0.89788885054E+02 0.  0.
        254    2    1    2    0    0 -0.89931097716E+02 -0.21900495018E+03  0.30977542517E+03  0.98577179313E+03  0.90539187292E+03 0.  0.
        -24    2    4    4    0    0  0.14632686084E+03 -0.32230333980E+03  0.52733742556E+03  0.64027673208E+03  0.81108200555E+02 0.  0.
         24    2    4    4    0    0 -0.23625795855E+03  0.10329838963E+03 -0.21756200039E+03  0.34549506105E+03  0.74466320673E+02 0.  0.
         11    1    3    3    0    0  0.10651384247E+03  0.20218179996E+03  0.40584953216E+03  0.46576444865E+03  0.00000000000E+00 0. -1.
        -11    1    3    3    0    0 -0.16582744757E+02  0.16823150219E+02  0.28679746179E+02  0.37155533207E+02  0.00000000000E+00 0.  1.
          2    1    6    6  502    0 -0.51508512663E+02  0.33232626576E+02 -0.94746007647E+02  0.11284653433E+03  0.00000000000E+00 0. -1.
          1    1    5    5  503    0  0.32815995276E+02 -0.14619556413E+03  0.26625748840E+03  0.30552100197E+03  0.00000000000E+00 0. -1.
         -2    1    5    5    0  503  0.11351086556E+03 -0.17610777568E+03  0.26107993716E+03  0.33475573011E+03  0.00000000000E+00 0.  1.
         -1    1    6    6    0  502 -0.18474944589E+03  0.70065763053E+02 -0.12281599274E+03  0.23264852671E+03  0.00000000000E+00 0.  1.
<mgrwt>
<rscale>  0 0.12892687E+04</rscale>
<asrwt>0</asrwt>
<pdfrwt beam="1">  1        1 0.17176896E+00 0.12892687E+04</pdfrwt>
<pdfrwt beam="2">  1       -1 0.57260544E-01 0.12892687E+04</pdfrwt>
<totfact> 0.37416705E+01</totfact>
</mgrwt>
</event>
<event>
12    1  0.1541840E-007  0.2770630E+04  0.7818608E-02  0.8312445E-01
          3   -1    0    0  501    0  0.00000000000E+00  0.00000000000E+00  0.81640040505E+03  0.81640040505E+03  0.00000000000E+00 0. -1.
         -3   -1    0    0    0  501 -0.00000000000E+00 -0.00000000000E+00 -0.23506819266E+04  0.23506819266E+04  0.00000000000E+00 0.  1.
         23    2    1    2    0    0 -0.92468101737E+03  0.28245476328E+03  0.19389181422E+03  0.99183150601E+03  0.10639559908E+03 0.  0.
        254    2    1    2    0    0  0.92468101737E+03 -0.28245476328E+03 -0.17281733358E+04  0.21752508257E+04  0.90017631539E+03 0.  0.
        -24    2    4    4    0    0  0.91453143904E+03 -0.51716657130E+03 -0.12487562245E+04  0.16339191547E+04  0.80440539764E+02 0.  0.
         24    2    4    4    0    0  0.10149578323E+02  0.23471180801E+03 -0.47941711131E+03  0.54133167096E+03  0.89479408847E+02 0.  0.
         13    1    3    3    0    0 -0.80941838180E+03  0.27292875416E+03  0.19500412131E+03  0.87617054787E+03  0.00000000000E+00 0. -1.
        -13    1    3    3    0    0 -0.11526263557E+03  0.95260091297E+01 -0.11123070932E+01  0.11566095813E+03  0.00000000000E+00 0.  1.
          4    1    6    6  502    0 -0.39719559560E+02  0.91546202293E+02 -0.19082686883E+03  0.21534447853E+03  0.00000000000E+00 0. -1.
          1    1    5    5  503    0  0.19741360180E+02  0.48634130769E+00 -0.28226629166E+02  0.34448518454E+02  0.00000000000E+00 0. -1.
         -2    1    5    5    0  503  0.89479007887E+03 -0.51765291260E+03 -0.12205295953E+04  0.15994706363E+04  0.00000000000E+00 0.  1.
         -3    1    6    6    0  502  0.49869137883E+02  0.14316560572E+03 -0.28859024248E+03  0.32598719243E+03  0.00000000000E+00 0.  1.
<mgrwt>
<rscale>  0 0.27706300E+04</rscale>
<asrwt>0</asrwt>
<pdfrwt beam="1">  1        3 0.12560006E+00 0.27706300E+04</pdfrwt>
<pdfrwt beam="2">  1       -3 0.36164337E+00 0.27706300E+04</pdfrwt>
<totfact> 0.19803303E-02</totfact>
</mgrwt>
</event>
<event>
12    1  0.1541840E-007  0.1985127E+04  0.7818608E-02  0.8613606E-01
          2   -1    0    0  501    0  0.00000000000E+00  0.00000000000E+00  0.41592465536E+03  0.41592465536E+03  0.00000000000E+00 0.  1.
         -2   -1    0    0    0  501 -0.00000000000E+00 -0.00000000000E+00 -0.23686548889E+04  0.23686548889E+04  0.00000000000E+00 0. -1.
         23    2    1    2    0    0 -0.34690475773E+03  0.69372619973E+03 -0.56640763257E+03  0.96468239509E+03  0.90529365537E+02 0.  0.
        254    2    1    2    0    0  0.34690475773E+03 -0.69372619973E+03 -0.13863226009E+04  0.18198971492E+04  0.88799568044E+03 0.  0.
        -24    2    4    4    0    0  0.27168789453E+03 -0.68704380907E+01 -0.17019369017E+02  0.28409594449E+03  0.80989701799E+02 0.  0.
         24    2    4    4    0    0  0.75216863196E+02 -0.68685576164E+03 -0.13693032319E+04  0.15358012047E+04  0.79155451356E+02 0.  0.
         13    1    3    3    0    0 -0.29788678354E+03  0.63407584478E+03 -0.48241244865E+03  0.85059419428E+03  0.00000000000E+00 0.  1.
        -13    1    3    3    0    0 -0.49017974189E+02  0.59650354951E+02 -0.83995183927E+02  0.11408820080E+03  0.00000000000E+00 0. -1.
          4    1    6    6  502    0  0.56987742113E+02 -0.59973653395E+03 -0.12428852852E+04  0.13811934495E+04  0.00000000000E+00 0. -1.
          1    1    5    5  503    0  0.23087926756E+03 -0.33786562469E+02 -0.34578299130E+01  0.23336393162E+03  0.00000000000E+00 0. -1.
         -2    1    5    5    0  503  0.40808626973E+02  0.26916124379E+02 -0.13561539104E+02  0.50732012870E+02  0.00000000000E+00 0.  1.
         -3    1    6    6    0  502  0.18229121083E+02 -0.87119227694E+02 -0.12641794676E+03  0.15460775515E+03  0.00000000000E+00 0.  1.
<mgrwt>
<rscale>  0 0.19851267E+04</rscale>
<asrwt>0</asrwt>
<pdfrwt beam="1">  1        2 0.63988409E-01 0.19851267E+04</pdfrwt>
<pdfrwt beam="2">  1       -2 0.36440844E+00 0.19851267E+04</pdfrwt>
<totfact> 0.89455670E-01</totfact>
</mgrwt>
</event>
<event>
12    1  0.1541840E-007  0.1488742E+04  0.7818608E-02  0.8891974E-01
          2   -1    0    0  501    0  0.00000000000E+00  0.00000000000E+00  0.82064839057E+03  0.82064839057E+03  0.00000000000E+00 0. -1.
         -2   -1    0    0    0  501 -0.00000000000E+00 -0.00000000000E+00 -0.67518304253E+03  0.67518304253E+03  0.00000000000E+00 0.  1.
         23    2    1    2    0    0  0.77662093671E+02  0.32535183185E+03  0.36413692648E+03  0.50249328150E+03  0.89546532297E+02 0.  0.
        254    2    1    2    0    0 -0.77662093671E+02 -0.32535183185E+03 -0.21867157844E+03  0.99333815159E+03  0.90940541505E+03 0.  0.
        -24    2    4    4    0    0 -0.27179765897E+03 -0.30697236939E+03 -0.49378918693E+03  0.64646603330E+03  0.77359990233E+02 0.  0.
         24    2    4    4    0    0  0.19413556530E+03 -0.18379462454E+02  0.27511760849E+03  0.34687211829E+03  0.81265894393E+02 0.  0.
         13    1    3    3    0    0 -0.11232700085E+02  0.26480916827E+01  0.12712773048E+02  0.17169756531E+02  0.00000000000E+00 0.  1.
        -13    1    3    3    0    0  0.88894793756E+02  0.32270374017E+03  0.35142415343E+03  0.48532352497E+03  0.00000000000E+00 0. -1.
          4    1    6    6  502    0  0.54040137525E+02  0.28079332064E+02  0.56354597903E+02  0.82973646766E+02  0.00000000000E+00 0. -1.
          3    1    5    5  503    0 -0.20898417994E+03 -0.22699581901E+03 -0.31603925919E+03  0.44168122290E+03  0.00000000000E+00 0. -1.
         -4    1    5    5    0  503 -0.62813479029E+02 -0.79976550386E+02 -0.17774992774E+03  0.20478481040E+03  0.00000000000E+00 0.  1.
         -3    1    6    6    0  502  0.14009542777E+03 -0.46458794518E+02  0.21876301059E+03  0.26389847153E+03  0.00000000000E+00 0.  1.
<mgrwt>
<rscale>  0 0.14887416E+04</rscale>
<asrwt>0</asrwt>
<pdfrwt beam="1">  1        2 0.12625360E+00 0.14887416E+04</pdfrwt>
<pdfrwt beam="2">  1       -2 0.10387431E+00 0.14887416E+04</pdfrwt>
<totfact> 0.24287598E+01</totfact>
</mgrwt>
</event>
<event>
12    1  0.1541840E-007  0.1671176E+04  0.7818608E-02  0.8777977E-01
         -2   -1    0    0    0  501 -0.00000000000E+00  0.00000000000E+00  0.68564342971E+03  0.68564342971E+03  0.00000000000E+00 0.  1.
          2   -1    0    0  501    0  0.00000000000E+00 -0.00000000000E+00 -0.10183236961E+04  0.10183236961E+04  0.00000000000E+00 0. -1.
         23    2    1    2    0    0  0.12758852132E+03 -0.56694147183E+03 -0.13755917163E+02  0.58835482277E+03  0.90943438295E+02 0.  0.
        254    2    1    2    0    0 -0.12758852132E+03  0.56694147183E+03 -0.31892434923E+03  0.11156123030E+04  0.89731633603E+03 0.  0.
        -24    2    4    4    0    0  0.29026489172E+03  0.42209919039E+03  0.67429300819E+02  0.52304677156E+03  0.81300558004E+02 0.  0.
         24    2    4    4    0    0 -0.41785341304E+03  0.14484228144E+03 -0.38635365005E+03  0.59256553148E+03  0.79271715749E+02 0.  0.
         11    1    3    3    0    0  0.12917337049E+03 -0.56706998048E+03 -0.19971595747E+02  0.58193898911E+03  0.00000000000E+00 0.  1.
        -11    1    3    3    0    0 -0.15848491729E+01  0.12850864901E+00  0.62156785839E+01  0.64158336662E+01  0.00000000000E+00 0. -1.
          4    1    6    6  502    0 -0.37958900346E+03  0.10457900939E+03 -0.34025253290E+03  0.52038098245E+03  0.00000000000E+00 0. -1.
          3    1    5    5  503    0  0.29098423952E+03  0.40091546241E+03  0.54879788968E+02  0.49841431248E+03  0.00000000000E+00 0. -1.
         -4    1    5    5    0  503 -0.71934779812E+00  0.21183727983E+02  0.12549511851E+02  0.24632459077E+02  0.00000000000E+00 0.  1.
         -3    1    6    6    0  502 -0.38264409576E+02  0.40263272053E+02 -0.46101117143E+02  0.72184549028E+02  0.00000000000E+00 0.  1.
<mgrwt>
<rscale>  0 0.16711756E+04</rscale>
<asrwt>0</asrwt>
<pdfrwt beam="1">  1        2 0.15666518E+00 0.16711756E+04</pdfrwt>
<pdfrwt beam="2">  1       -2 0.10548360E+00 0.16711756E+04</pdfrwt>
<totfact> 0.17000980E+01</totfact>
</mgrwt>
</event>
<event>
12    1  0.1541840E-007  0.2096924E+04  0.7818608E-02  0.8562600E-01
          2   -1    0    0  501    0  0.00000000000E+00  0.00000000000E+00  0.13172353373E+04  0.13172353373E+04  0.00000000000E+00 0.  1.
         -2   -1    0    0    0  501 -0.00000000000E+00 -0.00000000000E+00 -0.83452985716E+03  0.83452985716E+03  0.00000000000E+00 0. -1.
         23    2    1    2    0    0  0.62376589896E+03 -0.28908757905E+03 -0.31779018697E+03  0.76290414539E+03  0.91523805916E+02 0.  0.
        254    2    1    2    0    0 -0.62376589896E+03  0.28908757905E+03  0.80049566708E+03  0.13888610490E+04  0.90304273180E+03 0.  0.
        -24    2    4    4    0    0 -0.60205688387E+03  0.38819794938E+02  0.70402438046E+02  0.61250499739E+03  0.78907544949E+02 0.  0.
         24    2    4    4    0    0 -0.21709015097E+02  0.25026778411E+03  0.73009322904E+03  0.77635605166E+03  0.81162496019E+02 0.  0.
         13    1    3    3    0    0  0.35895503177E+03 -0.19206082390E+03 -0.22971270005E+03  0.46744411374E+03  0.00000000000E+00 0. -1.
        -13    1    3    3    0    0  0.26481086719E+03 -0.97026755147E+02 -0.88077486926E+02  0.29546003165E+03  0.00000000000E+00 0.  1.
          2    1    6    6  502    0 -0.37564488300E+02  0.49964469190E+02  0.19543370174E+03  0.20518740394E+03  0.00000000000E+00 0. -1.
          1    1    5    5  503    0 -0.10400933692E+03 -0.89683077838E+01 -0.13223969813E+02  0.10522949249E+03  0.00000000000E+00 0. -1.
         -2    1    5    5    0  503 -0.49804754694E+03  0.47788102722E+02  0.83626407859E+02  0.50727550490E+03  0.00000000000E+00 0.  1.
         -1    1    6    6    0  502  0.15855473203E+02  0.20030331492E+03  0.53465952730E+03  0.57116864771E+03  0.00000000000E+00 0.  1.
<mgrwt>
<rscale>  0 0.20969237E+04</rscale>
<asrwt>0</asrwt>
<pdfrwt beam="1">  1        2 0.20265159E+00 0.20969237E+04</pdfrwt>
<pdfrwt beam="2">  1       -2 0.12838921E+00 0.20969237E+04</pdfrwt>
<totfact> 0.66751914E+00</totfact>
</mgrwt>
</event>
<event>
12    1  0.1541840E-007  0.1117680E+04  0.7818608E-02  0.9188129E-01
          1   -1    0    0  501    0  0.00000000000E+00  0.00000000000E+00  0.67593848977E+03  0.67593848977E+03  0.00000000000E+00 0. -1.
         -1   -1    0    0    0  501 -0.00000000000E+00 -0.00000000000E+00 -0.46202780219E+03  0.46202780219E+03  0.00000000000E+00 0.  1.
         23    2    1    2    0    0 -0.11882565976E+03 -0.13147857135E+03 -0.31863225828E+02  0.20133839926E+03  0.90087367115E+02 0.  0.
        254    2    1    2    0    0  0.11882565976E+03  0.13147857135E+03  0.24577391341E+03  0.93662789270E+03  0.88626228664E+03 0.  0.
        -24    2    4    4    0    0 -0.29273626492E+03  0.41457757949E+02  0.37889073497E+03  0.48753532010E+03  0.81970926602E+02 0.  0.
         24    2    4    4    0    0  0.41156192468E+03  0.90020813402E+02 -0.13311682156E+03  0.44909257260E+03  0.80480344774E+02 0.  0.
         11    1    3    3    0    0 -0.71603337662E+01 -0.71818882262E+02 -0.13035657063E+02  0.73342692779E+02  0.00000000000E+00 0. -1.
        -11    1    3    3    0    0 -0.11166532599E+03 -0.59659689089E+02 -0.18827568766E+02  0.12799570648E+03  0.00000000000E+00 0.  1.
          2    1    6    6  502    0  0.11562716727E+03  0.27270476548E+02 -0.53578342942E+00  0.11880070608E+03  0.00000000000E+00 0. -1.
          3    1    5    5  503    0 -0.23897911797E+03  0.10069782008E+02  0.25969544780E+03  0.35306393889E+03  0.00000000000E+00 0. -1.
         -4    1    5    5    0  503 -0.53757146943E+02  0.31387975941E+02  0.11919528716E+03  0.13447138121E+03  0.00000000000E+00 0.  1.
         -1    1    6    6    0  502  0.29593475741E+03  0.62750336854E+02 -0.13258103813E+03  0.33029186652E+03  0.00000000000E+00 0.  1.
<mgrwt>
<rscale>  0 0.11176804E+04</rscale>
<asrwt>0</asrwt>
<pdfrwt beam="1">  1        1 0.10399054E+00 0.11176804E+04</pdfrwt>
<pdfrwt beam="2">  1       -1 0.71081200E-01 0.11176804E+04</pdfrwt>
<totfact> 0.57179501E+01</totfact>
</mgrwt>
</event>
<event>
12    1  0.1541840E-007  0.1508072E+04  0.7818608E-02  0.8879103E-01
          4   -1    0    0  501    0  0.00000000000E+00  0.00000000000E+00  0.77593960311E+03  0.77593960311E+03  0.00000000000E+00 0. -1.
         -4   -1    0    0    0  501 -0.00000000000E+00 -0.00000000000E+00 -0.73275065210E+03  0.73275065210E+03  0.00000000000E+00 0.  1.
         23    2    1    2    0    0  0.15121083404E+03 -0.31779780206E+03  0.33937752208E+03  0.49712130312E+03  0.89957368779E+02 0.  0.
        254    2    1    2    0    0 -0.15121083404E+03  0.31779780206E+03 -0.29618857106E+03  0.10115689521E+04  0.90093502313E+03 0.  0.
        -24    2    4    4    0    0 -0.45729127662E+03  0.13865204399E+03  0.76078517778E+02  0.49124394866E+03  0.84811409881E+02 0.  0.
         24    2    4    4    0    0  0.30608044258E+03  0.17914575806E+03 -0.37226708884E+03  0.52032500344E+03  0.79855393126E+02 0.  0.
         11    1    3    3    0    0  0.12760097390E+03 -0.25580573910E+03  0.31759690201E+03  0.42730127177E+03  0.00000000000E+00 0. -1.
        -11    1    3    3    0    0  0.23609860135E+02 -0.61992062963E+02  0.21780620069E+02  0.69820031342E+02  0.00000000000E+00 0.  1.
          2    1    6    6  502    0  0.74853263906E+02  0.83156211451E+02 -0.95249820286E+02  0.14693704395E+03  0.00000000000E+00 0. -1.
          1    1    5    5  503    0 -0.10256999408E+03 -0.35079632943E+01  0.25621806369E+02  0.10577989626E+03  0.00000000000E+00 0. -1.
         -2    1    5    5    0  503 -0.35472128254E+03  0.14216000729E+03  0.50456711408E+02  0.38546405239E+03  0.00000000000E+00 0.  1.
         -1    1    6    6    0  502  0.23122717868E+03  0.95989546613E+02 -0.27701726855E+03  0.37338795949E+03  0.00000000000E+00 0.  1.
<mgrwt>
<rscale>  0 0.15080719E+04</rscale>
<asrwt>0</asrwt>
<pdfrwt beam="1">  1        4 0.11937532E+00 0.15080719E+04</pdfrwt>
<pdfrwt beam="2">  1       -4 0.11273087E+00 0.15080719E+04</pdfrwt>
<totfact> 0.63970713E-01</totfact>
</mgrwt>
</event>
<event>
12    1  0.1541840E-007  0.1278472E+04  0.7818608E-02  0.9046814E-01
          2   -1    0    0  501    0  0.00000000000E+00  0.00000000000E+00  0.79284271110E+03  0.79284271110E+03  0.00000000000E+00 0. -1.
         -2   -1    0    0    0  501 -0.00000000000E+00 -0.00000000000E+00 -0.51538920947E+03  0.51538920947E+03  0.00000000000E+00 0.  1.
         23    2    1    2    0    0 -0.13838971678E+03 -0.12972238378E+03 -0.17797127792E+03  0.27504991160E+03  0.89437506325E+02 0.  0.
        254    2    1    2    0    0  0.13838971678E+03  0.12972238378E+03  0.45542477956E+03  0.10331820090E+04  0.90778506447E+03 0.  0.
        -24    2    4    4    0    0 -0.17267440207E+03 -0.31198731621E+03  0.27926759366E+03  0.45937987259E+03  0.76726422261E+02 0.  0.
         24    2    4    4    0    0  0.31106411885E+03  0.44170969999E+03  0.17615718590E+03  0.57380213638E+03  0.79681820159E+02 0.  0.
         11    1    3    3    0    0 -0.30028746418E+02 -0.38234604183E+02 -0.14788516183E+01  0.48639465155E+02  0.00000000000E+00 0. -1.
        -11    1    3    3    0    0 -0.10836097036E+03 -0.91487779601E+02 -0.17649242631E+03  0.22641044644E+03  0.00000000000E+00 0.  1.
          2    1    6    6  502    0  0.27262102575E+03  0.36252028852E+03  0.11932260092E+03  0.46902139222E+03  0.00000000000E+00 0. -1.
          1    1    5    5  503    0 -0.17032209284E+03 -0.30390537682E+03  0.28422332777E+03  0.44961204768E+03  0.00000000000E+00 0. -1.
         -2    1    5    5    0  503 -0.23523092298E+01 -0.80819393934E+01 -0.49557341119E+01  0.97678249196E+01  0.00000000000E+00 0.  1.
         -1    1    6    6    0  502  0.38443093095E+02  0.79189411472E+02  0.56834584975E+02  0.10478074415E+03  0.00000000000E+00 0.  1.
<mgrwt>
<rscale>  0 0.12784719E+04</rscale>
<asrwt>0</asrwt>
<pdfrwt beam="1">  1        2 0.12197580E+00 0.12784719E+04</pdfrwt>
<pdfrwt beam="2">  1       -2 0.79290648E-01 0.12784719E+04</pdfrwt>
<totfact> 0.48279679E+01</totfact>
</mgrwt>
</event>
<event>
12    1  0.1541840E-007  0.1776890E+04  0.7818608E-02  0.8718687E-01
          1   -1    0    0  501    0  0.00000000000E+00  0.00000000000E+00  0.11088918907E+04  0.11088918907E+04  0.00000000000E+00 0. -1.
         -1   -1    0    0    0  501 -0.00000000000E+00 -0.00000000000E+00 -0.71182284046E+03  0.71182284046E+03  0.00000000000E+00 0.  1.
         23    2    1    2    0    0  0.43134138599E+03 -0.36640125302E+03  0.59425491518E+03  0.82568504577E+03  0.91168092585E+02 0.  0.
        254    2    1    2    0    0 -0.43134138599E+03  0.36640125302E+03 -0.19718586492E+03  0.99502968541E+03  0.79428995968E+03 0.  0.
        -24    2    4    4    0    0 -0.47399117970E+03  0.49779345250E+03  0.58074634995E+02  0.69399368115E+03  0.76082892101E+02 0.  0.
         24    2    4    4    0    0  0.42649793706E+02 -0.13139219948E+03 -0.25526049991E+03  0.30103600426E+03  0.79886407216E+02 0.  0.
         11    1    3    3    0    0  0.40151745130E+03 -0.35366835237E+03  0.52698330401E+03  0.75100530615E+03  0.00000000000E+00 0.  1.
        -11    1    3    3    0    0  0.29823934696E+02 -0.12732900646E+02  0.67271611165E+02  0.74679739611E+02  0.00000000000E+00 0. -1.
          2    1    6    6  502    0 -0.16082423819E+01  0.92188138666E+01 -0.33253934995E+02  0.34545580981E+02  0.00000000000E+00 0. -1.
          3    1    5    5  503    0 -0.31087742387E+03  0.27663791473E+03  0.20620992440E+02  0.41665157370E+03  0.00000000000E+00 0. -1.
         -4    1    5    5    0  503 -0.16311375583E+03  0.22115553777E+03  0.37453642554E+02  0.27734210746E+03  0.00000000000E+00 0.  1.
         -1    1    6    6    0  502  0.44258036088E+02 -0.14061101335E+03 -0.22200656492E+03  0.26649042328E+03  0.00000000000E+00 0.  1.
<mgrwt>
<rscale>  0 0.17768901E+04</rscale>
<asrwt>0</asrwt>
<pdfrwt beam="1">  1        1 0.17059875E+00 0.17768901E+04</pdfrwt>
<pdfrwt beam="2">  1       -1 0.10951121E+00 0.17768901E+04</pdfrwt>
<totfact> 0.91053119E+00</totfact>
</mgrwt>
</event>
<event>
12    1  0.1541840E-007  0.1210976E+04  0.7818608E-02  0.9103304E-01
          2   -1    0    0  501    0  0.00000000000E+00  0.00000000000E+00  0.46822029249E+03  0.46822029249E+03  0.00000000000E+00 0.  1.
         -2   -1    0    0    0  501 -0.00000000000E+00 -0.00000000000E+00 -0.78299770826E+03  0.78299770826E+03  0.00000000000E+00 0. -1.
         23    2    1    2    0    0 -0.15534728644E+03 -0.20675818956E+03 -0.41036529408E+02  0.27741551278E+03  0.91616819595E+02 0.  0.
        254    2    1    2    0    0  0.15534728644E+03  0.20675818956E+03 -0.27374088635E+03  0.97380248797E+03  0.89803980110E+03 0.  0.
        -24    2    4    4    0    0  0.21941746390E+03 -0.25694320724E+03  0.10672231342E+03  0.36540089897E+03  0.89243092581E+02 0.  0.
         24    2    4    4    0    0 -0.64070177462E+02  0.46370139680E+03 -0.38046319978E+03  0.60840158900E+03  0.79222939095E+02 0.  0.
         11    1    3    3    0    0 -0.15781925802E+03 -0.18873918173E+03 -0.16103474561E+02  0.24655368343E+03  0.00000000000E+00 0.  1.
        -11    1    3    3    0    0  0.24719715814E+01 -0.18019007829E+02 -0.24933054848E+02  0.30861829347E+02  0.00000000000E+00 0. -1.
          4    1    6    6  502    0 -0.28070291592E+02  0.39092710032E+03 -0.33340104594E+03  0.51455631030E+03  0.00000000000E+00 0. -1.
          1    1    5    5  503    0  0.10302191695E+03 -0.17643425218E+03  0.88694108690E+02  0.22273124081E+03  0.00000000000E+00 0. -1.
         -2    1    5    5    0  503  0.11639554695E+03 -0.80508955062E+02  0.18028204734E+02  0.14266965816E+03  0.00000000000E+00 0.  1.
         -3    1    6    6    0  502 -0.35999885870E+02  0.72774296477E+02 -0.47062153841E+02  0.93845278702E+02  0.00000000000E+00 0.  1.
<mgrwt>
<rscale>  0 0.12109755E+04</rscale>
<asrwt>0</asrwt>
<pdfrwt beam="1">  1        2 0.72033892E-01 0.12109755E+04</pdfrwt>
<pdfrwt beam="2">  1       -2 0.12046118E+00 0.12109755E+04</pdfrwt>
<totfact> 0.34448822E+01</totfact>
</mgrwt>
</event>
<event>
12    1  0.1541840E-007  0.2013188E+04  0.7818608E-02  0.8600479E-01
         -2   -1    0    0    0  501 -0.00000000000E+00  0.00000000000E+00  0.45091540558E+03  0.45091540558E+03  0.00000000000E+00 0.  1.
          2   -1    0    0  501    0  0.00000000000E+00 -0.00000000000E+00 -0.22470552572E+04  0.22470552572E+04  0.00000000000E+00 0. -1.
         23    2    1    2    0    0  0.53764795293E+03 -0.20592009179E+03 -0.14620404834E+04  0.15738640656E+04  0.89539468308E+02 0.  0.
        254    2    1    2    0    0 -0.53764795293E+03  0.20592009179E+03 -0.33409936818E+03  0.11241065971E+04  0.90582826652E+03 0.  0.
        -24    2    4    4    0    0 -0.24070113195E+03  0.31530704558E+03  0.23535487074E+03  0.46783776550E+03  0.78260409719E+02 0.  0.
         24    2    4    4    0    0 -0.29694682098E+03 -0.10938695379E+03 -0.56945423891E+03  0.65626883165E+03  0.79168990283E+02 0.  0.
         13    1    3    3    0    0  0.19214723096E+02  0.66523024363E+01 -0.31391003379E+02  0.37401254050E+02  0.00000000000E+00 0.  1.
        -13    1    3    3    0    0  0.51843322983E+03 -0.21257239423E+03 -0.14306494800E+04  0.15364628116E+04  0.00000000000E+00 0. -1.
          4    1    6    6  502    0 -0.94507866365E+02 -0.75472969410E+02 -0.21056802684E+03  0.24283080497E+03  0.00000000000E+00 0. -1.
          1    1    5    5  503    0 -0.11181533882E+03  0.14541698538E+03  0.15431257133E+03  0.23971053231E+03  0.00000000000E+00 0. -1.
         -2    1    5    5    0  503 -0.12888579313E+03  0.16989006021E+03  0.81042299411E+02  0.22812723318E+03  0.00000000000E+00 0.  1.
         -1    1    6    6    0  502 -0.20243895462E+03 -0.33913984382E+02 -0.35888621208E+03  0.41343802668E+03  0.00000000000E+00 0.  1.
<mgrwt>
<rscale>  0 0.20131883E+04</rscale>
<asrwt>0</asrwt>
<pdfrwt beam="1">  1        2 0.34570081E+00 0.20131883E+04</pdfrwt>
<pdfrwt beam="2">  1       -2 0.69371600E-01 0.20131883E+04</pdfrwt>
<totfact> 0.85478396E+00</totfact>
</mgrwt>
</event>
<event>
12    1  0.1541840E-007  0.1645735E+04  0.7818608E-02  0.8792934E-01
         -1   -1    0    0    0  501 -0.00000000000E+00  0.00000000000E+00  0.11243273721E+04  0.11243273721E+04  0.00000000000E+00 0.  1.
          1   -1    0    0  501    0  0.00000000000E+00 -0.00000000000E+00 -0.60223623905E+03  0.60223623905E+03  0.00000000000E+00 0. -1.
         23    2    1    2    0    0  0.14963228128E+03 -0.71991035145E+02  0.75577163629E+03  0.77899468410E+03  0.89829966555E+02 0.  0.
        254    2    1    2    0    0 -0.14963228128E+03  0.71991035145E+02 -0.23368050328E+03  0.94756892701E+03  0.90316541402E+03 0.  0.
        -24    2    4    4    0    0 -0.15732561484E+02 -0.39287680978E+03 -0.21934563571E+03  0.45724837020E+03  0.79773823974E+02 0.  0.
         24    2    4    4    0    0 -0.13389971979E+03  0.46486784493E+03 -0.14334867577E+02  0.49032055681E+03  0.78597148768E+02 0.  0.
         11    1    3    3    0    0  0.11391652021E+03 -0.59265128921E+02  0.69919128513E+03  0.71088521035E+03  0.00000000000E+00 0.  1.
        -11    1    3    3    0    0  0.35715761064E+02 -0.12725906224E+02  0.56580351154E+02  0.68109473749E+02  0.00000000000E+00 0. -1.
          2    1    6    6  502    0 -0.31892334389E+02  0.82965812167E+02  0.26948885419E+02  0.92879973119E+02  0.00000000000E+00 0. -1.
          1    1    5    5  503    0 -0.39390945538E+02 -0.11516110684E+03 -0.79858216030E+02  0.14557150060E+03  0.00000000000E+00 0. -1.
         -4    1    5    5    0  503  0.23658384053E+02 -0.27771570294E+03 -0.13948741968E+03  0.31167686960E+03  0.00000000000E+00 0.  1.
         -1    1    6    6    0  502 -0.10200738540E+03  0.38190203276E+03 -0.41283752996E+02  0.39744058369E+03  0.00000000000E+00 0.  1.
<mgrwt>
<rscale>  0 0.16457347E+04</rscale>
<asrwt>0</asrwt>
<pdfrwt beam="1">  1        1 0.92651729E-01 0.16457347E+04</pdfrwt>
<pdfrwt beam="2">  1       -1 0.17297344E+00 0.16457347E+04</pdfrwt>
<totfact> 0.76196348E+00</totfact>
</mgrwt>
</event>
<event>
12    1  0.1541840E-007  0.1275646E+04  0.7818608E-02  0.9049105E-01
         -2   -1    0    0    0  501 -0.00000000000E+00  0.00000000000E+00  0.95665283337E+02  0.95665283337E+02  0.00000000000E+00 0.  1.
          2   -1    0    0  501    0  0.00000000000E+00 -0.00000000000E+00 -0.42525131134E+04  0.42525131134E+04  0.00000000000E+00 0. -1.
         23    2    1    2    0    0 -0.18987005960E+03 -0.54411885466E+02 -0.26069547400E+03  0.33990747319E+03  0.92540085123E+02 0.  0.
        254    2    1    2    0    0  0.18987005960E+03  0.54411885466E+02 -0.38961523560E+04  0.40082709235E+04  0.92044626246E+03 0.  0.
        -24    2    4    4    0    0  0.10430113143E+03 -0.11846168907E+02 -0.25040939534E+02  0.13489971373E+03  0.80943352892E+02 0.  0.
         24    2    4    4    0    0  0.85568928171E+02  0.66258054372E+02 -0.38711114165E+04  0.38733712098E+04  0.76083891792E+02 0.  0.
         11    1    3    3    0    0 -0.92092197970E+02 -0.49298051755E+02 -0.19735494332E+03  0.22329407625E+03  0.00000000000E+00 0.  1.
        -11    1    3    3    0    0 -0.97777861631E+02 -0.51138337109E+01 -0.63340530681E+02  0.11661339695E+03  0.00000000000E+00 0. -1.
          2    1    6    6  502    0  0.91486127260E+02  0.57015690433E+02 -0.37885860038E+04  0.37901193132E+04  0.00000000000E+00 0. -1.
          3    1    5    5  503    0  0.11111675476E+03 -0.14260646956E+02 -0.33966511957E+01  0.11207959885E+03  0.00000000000E+00 0. -1.
         -4    1    5    5    0  503 -0.68156233268E+01  0.24144780489E+01 -0.21644288338E+02  0.22820114883E+02  0.00000000000E+00 0.  1.
         -1    1    6    6    0  502 -0.59171990892E+01  0.92423639392E+01 -0.82525412730E+02  0.83251896570E+02  0.00000000000E+00 0.  1.
<mgrwt>
<rscale>  0 0.12756455E+04</rscale>
<asrwt>0</asrwt>
<pdfrwt beam="1">  1        2 0.65423286E+00 0.12756455E+04</pdfrwt>
<pdfrwt beam="2">  1       -2 0.14717734E-01 0.12756455E+04</pdfrwt>
<totfact> 0.77702596E+00</totfact>
</mgrwt>
</event>
<event>
12    1  0.1541840E-007  0.1329364E+04  0.7818608E-02  0.9006598E-01
         -1   -1    0    0    0  501 -0.00000000000E+00  0.00000000000E+00  0.16136127459E+04  0.16136127459E+04  0.00000000000E+00 0.  1.
          1   -1    0    0  501    0  0.00000000000E+00 -0.00000000000E+00 -0.27379679488E+03  0.27379679488E+03  0.00000000000E+00 0. -1.
         23    2    1    2    0    0  0.62140385903E+02  0.16235740714E+02 -0.13410287644E+03  0.17412404153E+03  0.90612215141E+02 0.  0.
        254    2    1    2    0    0 -0.62140385903E+02 -0.16235740714E+02  0.14739188275E+04  0.17132854993E+04  0.87108292670E+03 0.  0.
        -24    2    4    4    0    0  0.97198299208E+02  0.28187358446E+03  0.12777167183E+04  0.13147538839E+04  0.84365491982E+02 0.  0.
         24    2    4    4    0    0 -0.15933868511E+03 -0.29810932517E+03  0.19620210923E+03  0.39853161534E+03  0.77937118452E+02 0.  0.
         11    1    3    3    0    0  0.52771214015E+02 -0.29825975663E+02 -0.96364822843E+02  0.11384449453E+03  0.00000000000E+00 0. -1.
        -11    1    3    3    0    0  0.93691718879E+01  0.46061716377E+02 -0.37738053597E+02  0.60279547002E+02  0.00000000000E+00 0.  1.
          2    1    6    6  502    0 -0.88070486836E+02 -0.19764449601E+03  0.16316252326E+03  0.27100141411E+03  0.00000000000E+00 0. -1.
          1    1    5    5  503    0  0.42166709585E+02  0.20267674951E+03  0.73784957227E+03  0.76634058191E+03  0.00000000000E+00 0. -1.
         -2    1    5    5    0  503  0.55031589623E+02  0.79196834944E+02  0.53986714599E+03  0.54841330203E+03  0.00000000000E+00 0.  1.
         -1    1    6    6    0  502 -0.71268198275E+02 -0.10046482917E+03  0.33039585967E+02  0.12753020123E+03  0.00000000000E+00 0.  1.
<mgrwt>
<rscale>  0 0.13293638E+04</rscale>
<asrwt>0</asrwt>
<pdfrwt beam="1">  1        1 0.42122585E-01 0.13293638E+04</pdfrwt>
<pdfrwt beam="2">  1       -1 0.24824811E+00 0.13293638E+04</pdfrwt>
<totfact> 0.69414254E+00</totfact>
</mgrwt>
</event>
<event>
12    1  0.1541840E-007  0.1211738E+04  0.7818608E-02  0.9102644E-01
         -1   -1    0    0    0  501 -0.00000000000E+00  0.00000000000E+00  0.28028020177E+03  0.28028020177E+03  0.00000000000E+00 0.  1.
          1   -1    0    0  501    0  0.00000000000E+00 -0.00000000000E+00 -0.13096792562E+04  0.13096792562E+04  0.00000000000E+00 0. -1.
         23    2    1    2    0    0 -0.18335679673E+03 -0.55801034365E+02 -0.27982782141E+01  0.21198440446E+03  0.90532243024E+02 0.  0.
        254    2    1    2    0    0  0.18335679673E+03  0.55801034365E+02 -0.10266007762E+04  0.13779750535E+04  0.89898421788E+03 0.  0.
        -24    2    4    4    0    0  0.35761408615E+03 -0.28613599656E+03 -0.30271033506E+03  0.55472569214E+03  0.79532404926E+02 0.  0.
         24    2    4    4    0    0 -0.17425728941E+03  0.34193703093E+03 -0.72389044113E+03  0.82324936134E+03  0.80222217337E+02 0.  0.
         13    1    3    3    0    0 -0.18192735142E+03 -0.71974322042E+02 -0.10101559191E+01  0.19564990325E+03  0.00000000000E+00 0.  1.
        -13    1    3    3    0    0 -0.14294453134E+01  0.16173287677E+02 -0.17881222951E+01  0.16334501202E+02  0.00000000000E+00 0. -1.
          4    1    6    6  502    0 -0.77953389985E+02  0.10721287832E+03 -0.31887267886E+03  0.34532755119E+03  0.00000000000E+00 0. -1.
          3    1    5    5  503    0  0.28719180647E+02 -0.11207857597E+02 -0.45020881809E+02  0.54564523344E+02  0.00000000000E+00 0. -1.
         -4    1    5    5    0  503  0.32889490550E+03 -0.27492813896E+03 -0.25768945325E+03  0.50016116880E+03  0.00000000000E+00 0.  1.
         -3    1    6    6    0  502 -0.96303899430E+02  0.23472415261E+03 -0.40501776227E+03  0.47792181015E+03  0.00000000000E+00 0.  1.
<mgrwt>
<rscale>  0 0.12117379E+04</rscale>
<asrwt>0</asrwt>
<pdfrwt beam="1">  1        1 0.20148911E+00 0.12117379E+04</pdfrwt>
<pdfrwt beam="2">  1       -1 0.43120032E-01 0.12117379E+04</pdfrwt>
<totfact> 0.46666214E+01</totfact>
</mgrwt>
</event>
<event>
12    1  0.1541840E-007  0.1587824E+04  0.7818608E-02  0.8828063E-01
          2   -1    0    0  501    0  0.00000000000E+00  0.00000000000E+00  0.27000182336E+04  0.27000182336E+04  0.00000000000E+00 0. -1.
         -2   -1    0    0    0  501 -0.00000000000E+00 -0.00000000000E+00 -0.23344149045E+03  0.23344149045E+03  0.00000000000E+00 0.  1.
         23    2    1    2    0    0 -0.49677635721E+03  0.12150402464E+03  0.56886535217E+03  0.77036282912E+03  0.91110496082E+02 0.  0.
        254    2    1    2    0    0  0.49677635721E+03 -0.12150402464E+03  0.18977113910E+04  0.21630968950E+04  0.90339895745E+03 0.  0.
        -24    2    4    4    0    0  0.30263899079E+03 -0.50294464304E+03  0.94202469565E+03  0.11128294412E+04  0.80219481899E+02 0.  0.
         24    2    4    4    0    0  0.19413736642E+03  0.38144061840E+03  0.95568669536E+03  0.10502674538E+04  0.80860387912E+02 0.  0.
         13    1    3    3    0    0 -0.19210406593E+03  0.24336267600E+02  0.15934511640E+03  0.25077298935E+03  0.00000000000E+00 0. -1.
        -13    1    3    3    0    0 -0.30467229128E+03  0.97167757041E+02  0.40952023577E+03  0.51958983977E+03  0.00000000000E+00 0.  1.
          4    1    6    6  502    0  0.74770627808E+02  0.19978015253E+03  0.55192457306E+03  0.59171233761E+03  0.00000000000E+00 0. -1.
          3    1    5    5  503    0  0.33938935556E+02 -0.69209557384E+02  0.79780303571E+02  0.11093561654E+03  0.00000000000E+00 0. -1.
         -4    1    5    5    0  503  0.26870005524E+03 -0.43373508566E+03  0.86224439208E+03  0.10018938247E+04  0.00000000000E+00 0.  1.
         -3    1    6    6    0  502  0.11936673861E+03  0.18166046587E+03  0.40376212230E+03  0.45855511615E+03  0.00000000000E+00 0.  1.
<mgrwt>
<rscale>  0 0.15878240E+04</rscale>
<asrwt>0</asrwt>
<pdfrwt beam="1">  1        2 0.41538740E+00 0.15878240E+04</pdfrwt>
<pdfrwt beam="2">  1       -2 0.35914077E-01 0.15878240E+04</pdfrwt>
<totfact> 0.18648602E+01</totfact>
</mgrwt>
</event>
<event>
12    1  0.1541840E-007  0.1211857E+04  0.7818608E-02  0.9102541E-01
          2   -1    0    0  501    0  0.00000000000E+00  0.00000000000E+00  0.68991994773E+03  0.68991994773E+03  0.00000000000E+00 0. -1.
         -2   -1    0    0    0  501 -0.00000000000E+00 -0.00000000000E+00 -0.53216219158E+03  0.53216219158E+03  0.00000000000E+00 0.  1.
         23    2    1    2    0    0  0.16815972098E+03  0.20444318212E+03 -0.25400562993E+02  0.28113568523E+03  0.91199662471E+02 0.  0.
        254    2    1    2    0    0 -0.16815972098E+03 -0.20444318212E+03  0.18315831915E+03  0.94094645408E+03  0.88417111075E+03 0.  0.
        -24    2    4    4    0    0  0.65923840766E+02  0.31213380146E+03  0.16561457420E+03  0.36796368381E+03  0.78712277452E+02 0.  0.
         24    2    4    4    0    0 -0.23408356175E+03 -0.51657698358E+03  0.17543744950E+02  0.57298277027E+03  0.79715608235E+02 0.  0.
         11    1    3    3    0    0  0.16620900133E+03  0.21334243363E+03 -0.21740028610E+02  0.27131725885E+03  0.00000000000E+00 0.  1.
        -11    1    3    3    0    0  0.19507196527E+01 -0.88992515074E+01 -0.36605343829E+01  0.98184263772E+01  0.00000000000E+00 0. -1.
          4    1    6    6  502    0 -0.18878463100E+03 -0.46473356003E+03 -0.12577963168E+01  0.50161588967E+03  0.00000000000E+00 0. -1.
          1    1    5    5  503    0  0.43413055000E+02  0.28093017060E+03  0.16657658981E+03  0.32947566582E+03  0.00000000000E+00 0. -1.
         -2    1    5    5    0  503  0.22510785767E+02  0.31203630856E+02 -0.96201560726E+00  0.38488017986E+02  0.00000000000E+00 0.  1.
         -3    1    6    6    0  502 -0.45298930749E+02 -0.51843423544E+02  0.18801541267E+02  0.71366880594E+02  0.00000000000E+00 0.  1.
<mgrwt>
<rscale>  0 0.12118569E+04</rscale>
<asrwt>0</asrwt>
<pdfrwt beam="1">  1        2 0.10614153E+00 0.12118569E+04</pdfrwt>
<pdfrwt beam="2">  1       -2 0.81871106E-01 0.12118569E+04</pdfrwt>
<totfact> 0.54012939E+01</totfact>
</mgrwt>
</event>
<event>
12    1  0.1541840E-007  0.1420411E+04  0.7818608E-02  0.8939175E-01
         -1   -1    0    0    0  501 -0.00000000000E+00  0.00000000000E+00  0.56669439143E+03  0.56669439143E+03  0.00000000000E+00 0.  1.
          1   -1    0    0  501    0  0.00000000000E+00 -0.00000000000E+00 -0.89005911645E+03  0.89005911645E+03  0.00000000000E+00 0. -1.
         23    2    1    2    0    0  0.26339747239E+03 -0.96934755545E+02 -0.41000086177E+03  0.50520017525E+03  0.91388922326E+02 0.  0.
        254    2    1    2    0    0 -0.26339747239E+03  0.96934755545E+02  0.86636136753E+02  0.95155333264E+03  0.90508195727E+03 0.  0.
        -24    2    4    4    0    0  0.13678627127E+02 -0.31755318659E+03 -0.18629007965E+03  0.37713675586E+03  0.80628826679E+02 0.  0.
         24    2    4    4    0    0 -0.27707609951E+03  0.41448794213E+03  0.27292621640E+03  0.57441657678E+03  0.83031710705E+02 0.  0.
         13    1    3    3    0    0  0.13519851957E+03 -0.32677597195E+02 -0.12890503736E+03  0.18963906167E+03  0.00000000000E+00 0.  1.
        -13    1    3    3    0    0  0.12819895281E+03 -0.64257158350E+02 -0.28109582442E+03  0.31556111358E+03  0.00000000000E+00 0. -1.
          2    1    6    6  502    0 -0.63811157517E+01  0.55294831594E+02  0.30515456478E+02  0.63477792363E+02  0.00000000000E+00 0. -1.
          1    1    5    5  503    0  0.31327683142E+02 -0.15012032780E+03 -0.12542032452E+03  0.19811056093E+03  0.00000000000E+00 0. -1.
         -2    1    5    5    0  503 -0.17649056016E+02 -0.16743285879E+03 -0.60869755126E+02  0.17902619493E+03  0.00000000000E+00 0.  1.
         -1    1    6    6    0  502 -0.27069498376E+03  0.35919311054E+03  0.24241075992E+03  0.51093878442E+03  0.00000000000E+00 0.  1.
<mgrwt>
<rscale>  0 0.14204105E+04</rscale>
<asrwt>0</asrwt>
<pdfrwt beam="1">  1        1 0.13693217E+00 0.14204105E+04</pdfrwt>
<pdfrwt beam="2">  1       -1 0.87183753E-01 0.14204105E+04</pdfrwt>
<totfact> 0.23392604E+01</totfact>
</mgrwt>
</event>
<event>
12    1  0.1541840E-007  0.2702481E+04  0.7818608E-02  0.8334200E-01
         -1   -1    0    0    0  501 -0.00000000000E+00  0.00000000000E+00  0.12791507447E+04  0.12791507447E+04  0.00000000000E+00 0.  1.
          1   -1    0    0  501    0  0.00000000000E+00 -0.00000000000E+00 -0.14273930674E+04  0.14273930674E+04  0.00000000000E+00 0. -1.
         23    2    1    2    0    0 -0.58177351512E+02 -0.37644242405E+03  0.10695661929E+04  0.11389602305E+04  0.90360737192E+02 0.  0.
        254    2    1    2    0    0  0.58177351512E+02  0.37644242405E+03 -0.12178085155E+04  0.15675835816E+04  0.91058618586E+03 0.  0.
        -24    2    4    4    0    0 -0.21150965171E+03  0.45592530912E+03 -0.11644731015E+04  0.12707242813E+04  0.78347780310E+02 0.  0.
         24    2    4    4    0    0  0.26968700322E+03 -0.79482885062E+02 -0.53335414082E+02  0.29685930034E+03  0.78944088286E+02 0.  0.
         11    1    3    3    0    0  0.21484331627E+02 -0.13740273890E+03  0.40676697869E+03  0.42988424502E+03  0.00000000000E+00 0. -1.
        -11    1    3    3    0    0 -0.79661683139E+02 -0.23903968516E+03  0.66279921421E+03  0.70907598549E+03  0.00000000000E+00 0.  1.
          4    1    6    6  502    0  0.20984657454E+03 -0.92935941161E+02 -0.52903387730E+02  0.23552376194E+03  0.00000000000E+00 0. -1.
          1    1    5    5  503    0 -0.10541773186E+03  0.25469414173E+03 -0.54371946442E+03  0.60960057416E+03  0.00000000000E+00 0. -1.
         -2    1    5    5    0  503 -0.10609191985E+03  0.20123116738E+03 -0.62075363704E+03  0.66112370710E+03  0.00000000000E+00 0.  1.
         -3    1    6    6    0  502  0.59840428683E+02  0.13453056099E+02 -0.43202635159E+00  0.61335538395E+02  0.00000000000E+00 0.  1.
<mgrwt>
<rscale>  0 0.27024810E+04</rscale>
<asrwt>0</asrwt>
<pdfrwt beam="1">  1        1 0.21959893E+00 0.27024810E+04</pdfrwt>
<pdfrwt beam="2">  1       -1 0.19679242E+00 0.27024810E+04</pdfrwt>
<totfact> 0.10164414E+00</totfact>
</mgrwt>
</event>
<event>
12    1  0.1541840E-007  0.1416970E+04  0.7818608E-02  0.8941625E-01
         -2   -1    0    0    0  501 -0.00000000000E+00  0.00000000000E+00  0.33724585043E+03  0.33724585043E+03  0.00000000000E+00 0.  1.
          2   -1    0    0  501    0  0.00000000000E+00 -0.00000000000E+00 -0.14883837009E+04  0.14883837009E+04  0.00000000000E+00 0. -1.
         23    2    1    2    0    0  0.28884565954E+02 -0.38210767120E+03 -0.14784027392E+03  0.42026644344E+03  0.89031153801E+02 0.  0.
        254    2    1    2    0    0 -0.28884565954E+02  0.38210767120E+03 -0.10032975766E+04  0.14053631079E+04  0.90642089970E+03 0.  0.
        -24    2    4    4    0    0  0.28471970008E+03  0.54560918721E+03 -0.65123212353E+03  0.89956286553E+03  0.79720621799E+02 0.  0.
         24    2    4    4    0    0 -0.31360426604E+03 -0.16350151601E+03 -0.35206545306E+03  0.50580024241E+03  0.82482850159E+02 0.  0.
         13    1    3    3    0    0  0.16054068523E+02 -0.11584152176E+03 -0.32292472338E+01  0.11699324475E+03  0.00000000000E+00 0. -1.
        -13    1    3    3    0    0  0.12830497431E+02 -0.26626614944E+03 -0.14461102669E+03  0.30327319869E+03  0.00000000000E+00 0.  1.
          2    1    6    6  502    0 -0.46520563301E+02 -0.57381159634E+02 -0.52204380153E+02  0.90454726786E+02  0.00000000000E+00 0. -1.
          3    1    5    5  503    0  0.92326579704E+02  0.25427639271E+03 -0.26007101302E+03  0.37525672948E+03  0.00000000000E+00 0. -1.
         -4    1    5    5    0  503  0.19239312038E+03  0.29133279449E+03 -0.39116111051E+03  0.52430613604E+03  0.00000000000E+00 0.  1.
         -1    1    6    6    0  502 -0.26708370273E+03 -0.10612035637E+03 -0.29986107291E+03  0.41534551562E+03  0.00000000000E+00 0.  1.
<mgrwt>
<rscale>  0 0.14169703E+04</rscale>
<asrwt>0</asrwt>
<pdfrwt beam="1">  1        2 0.22898211E+00 0.14169703E+04</pdfrwt>
<pdfrwt beam="2">  1       -2 0.51883976E-01 0.14169703E+04</pdfrwt>
<totfact> 0.43937277E+01</totfact>
</mgrwt>
</event>
<event>
12    1  0.1541840E-007  0.1172436E+04  0.7818608E-02  0.9137331E-01
         -1   -1    0    0    0  501 -0.00000000000E+00  0.00000000000E+00  0.17939857094E+03  0.17939857094E+03  0.00000000000E+00 0.  1.
          1   -1    0    0  501    0  0.00000000000E+00 -0.00000000000E+00 -0.19155752686E+04  0.19155752686E+04  0.00000000000E+00 0. -1.
         23    2    1    2    0    0 -0.21843205734E+03  0.21217016429E+02 -0.28922570050E+03  0.37468560527E+03  0.92601681980E+02 0.  0.
        254    2    1    2    0    0  0.21843205734E+03 -0.21217016429E+02 -0.14469509972E+04  0.17202882343E+04  0.90419118296E+03 0.  0.
        -24    2    4    4    0    0  0.12526051058E+03  0.31728338344E+03 -0.12710779095E+04  0.13184380736E+04  0.79252513787E+02 0.  0.
         24    2    4    4    0    0  0.93171546757E+02 -0.33850039987E+03 -0.17587308766E+03  0.40185016069E+03  0.85374181371E+02 0.  0.
         11    1    3    3    0    0 -0.20530972044E+02 -0.19089895512E+02 -0.93594784894E+01  0.29555790657E+02  0.00000000000E+00 0. -1.
        -11    1    3    3    0    0 -0.19790108529E+03  0.40306911941E+02 -0.27986622201E+03  0.34512981461E+03  0.00000000000E+00 0.  1.
          4    1    6    6  502    0  0.77262339944E+02 -0.33041905811E+03 -0.15143192724E+03  0.37158828255E+03  0.00000000000E+00 0. -1.
          1    1    5    5  503    0  0.10195975417E+03  0.15417497335E+03 -0.63353578025E+03  0.65994946680E+03  0.00000000000E+00 0. -1.
         -4    1    5    5    0  503  0.23300756410E+02  0.16310841009E+03 -0.63754212928E+03  0.65848860681E+03  0.00000000000E+00 0.  1.
         -3    1    6    6    0  502  0.15909206812E+02 -0.80813417543E+01 -0.24441160416E+02  0.30261878138E+02  0.00000000000E+00 0.  1.
<mgrwt>
<rscale>  0 0.11724359E+04</rscale>
<asrwt>0</asrwt>
<pdfrwt beam="1">  1        1 0.29470390E+00 0.11724359E+04</pdfrwt>
<pdfrwt beam="2">  1       -1 0.27599779E-01 0.11724359E+04</pdfrwt>
<totfact> 0.39869437E+01</totfact>
</mgrwt>
</event>
<event>
12    1  0.1541840E-007  0.1325811E+04  0.7818608E-02  0.9009344E-01
         -2   -1    0    0    0  501 -0.00000000000E+00  0.00000000000E+00  0.48992344184E+03  0.48992344184E+03  0.00000000000E+00 0.  1.
          2   -1    0    0  501    0  0.00000000000E+00 -0.00000000000E+00 -0.89696390184E+03  0.89696390184E+03  0.00000000000E+00 0. -1.
         23    2    1    2    0    0  0.12421511398E+03 -0.83334594143E+02  0.16790570365E+03  0.24298650590E+03  0.92065561480E+02 0.  0.
        254    2    1    2    0    0 -0.12421511398E+03  0.83334594143E+02 -0.57494616365E+03  0.11439008378E+04  0.97753362420E+03 0.  0.
        -24    2    4    4    0    0  0.93833009799E+02 -0.21504123214E+03 -0.70219159907E+03  0.74457900975E+03  0.79230642463E+02 0.  0.
         24    2    4    4    0    0 -0.21804812378E+03  0.29837582628E+03  0.12724543542E+03  0.39932182803E+03  0.81813223303E+02 0.  0.
         13    1    3    3    0    0 -0.16346769530E+01 -0.41500236441E+02  0.27287308826E+02  0.49694456596E+02  0.00000000000E+00 0. -1.
        -13    1    3    3    0    0  0.12584979094E+03 -0.41834357702E+02  0.14061839482E+03  0.19329204931E+03  0.00000000000E+00 0.  1.
          2    1    6    6  502    0 -0.18598088642E+03  0.22559542411E+03  0.12947416392E+03  0.31975888513E+03  0.00000000000E+00 0. -1.
          1    1    5    5  503    0  0.54466921499E+02 -0.18710255484E+03 -0.61208185917E+03  0.64235365173E+03  0.00000000000E+00 0. -1.
         -2    1    5    5    0  503  0.39366088300E+02 -0.27938677303E+02 -0.90109739906E+02  0.10222535803E+03  0.00000000000E+00 0.  1.
         -3    1    6    6    0  502 -0.32067237357E+02  0.72780402172E+02 -0.22287284958E+01  0.79562942899E+02  0.00000000000E+00 0.  1.
<mgrwt>
<rscale>  0 0.13258109E+04</rscale>
<asrwt>0</asrwt>
<pdfrwt beam="1">  1        2 0.13799445E+00 0.13258109E+04</pdfrwt>
<pdfrwt beam="2">  1       -2 0.75372837E-01 0.13258109E+04</pdfrwt>
<totfact> 0.45540389E+01</totfact>
</mgrwt>
</event>
<event>
12    1  0.1541840E-007  0.1671669E+04  0.7818608E-02  0.8777690E-01
          2   -1    0    0  501    0  0.00000000000E+00  0.00000000000E+00  0.31801175414E+04  0.31801175414E+04  0.00000000000E+00 0. -1.
         -2   -1    0    0    0  501 -0.00000000000E+00 -0.00000000000E+00 -0.21968341281E+03  0.21968341281E+03  0.00000000000E+00 0.  1.
         23    2    1    2    0    0 -0.43512238951E+03  0.20128277886E+03  0.17867906909E+04  0.18522499587E+04  0.91447720300E+02 0.  0.
        254    2    1    2    0    0  0.43512238951E+03 -0.20128277886E+03  0.11736434377E+04  0.15475509955E+04  0.88748459927E+03 0.  0.
        -24    2    4    4    0    0 -0.10727005820E+03  0.10309551904E+03  0.79959701792E+03  0.81744161694E+03  0.81974719317E+02 0.  0.
         24    2    4    4    0    0  0.54239244771E+03 -0.30437829789E+03  0.37404641978E+03  0.73010937858E+03  0.79456056855E+02 0.  0.
         11    1    3    3    0    0 -0.19379010252E+03  0.12253445620E+03  0.71771486349E+03  0.75344802214E+03  0.00000000000E+00 0. -1.
        -11    1    3    3    0    0 -0.24133228699E+03  0.78748322655E+02  0.10690758274E+04  0.10988019366E+04  0.00000000000E+00 0.  1.
          4    1    6    6  502    0  0.19568403974E+03 -0.90927454262E+02  0.16996689737E+03  0.27467943416E+03  0.00000000000E+00 0. -1.
          3    1    5    5  503    0 -0.12491324879E+02  0.53074688661E+02  0.16275710215E+03  0.17164740043E+03  0.00000000000E+00 0. -1.
         -4    1    5    5    0  503 -0.94778733325E+02  0.50020830375E+02  0.63683991577E+03  0.64579421651E+03  0.00000000000E+00 0.  1.
         -3    1    6    6    0  502  0.34670840797E+03 -0.21345084363E+03  0.20407952241E+03  0.45542994442E+03  0.00000000000E+00 0.  1.
<mgrwt>
<rscale>  0 0.16716687E+04</rscale>
<asrwt>0</asrwt>
<pdfrwt beam="1">  1        2 0.48924882E+00 0.16716687E+04</pdfrwt>
<pdfrwt beam="2">  1       -2 0.33797451E-01 0.16716687E+04</pdfrwt>
<totfact> 0.10506418E+01</totfact>
</mgrwt>
</event>
<event>
12    1  0.1541840E-007  0.1419242E+04  0.7818608E-02  0.8940007E-01
          2   -1    0    0  501    0  0.00000000000E+00  0.00000000000E+00  0.17764114415E+04  0.17764114415E+04  0.00000000000E+00 0. -1.
         -2   -1    0    0    0  501 -0.00000000000E+00 -0.00000000000E+00 -0.28347141606E+03  0.28347141606E+03  0.00000000000E+00 0.  1.
         23    2    1    2    0    0 -0.20138008569E+03  0.35321970788E+03  0.56805379077E+03  0.70484873177E+03  0.93853740026E+02 0.  0.
        254    2    1    2    0    0  0.20138008569E+03 -0.35321970788E+03  0.92488623462E+03  0.13550341257E+04  0.90298661894E+03 0.  0.
        -24    2    4    4    0    0 -0.57954362160E+02 -0.44015557090E+03  0.73302732589E+02  0.45705486129E+03  0.80188658394E+02 0.  0.
         24    2    4    4    0    0  0.25933444785E+03  0.86935863012E+02  0.85158350204E+03  0.89797926446E+03  0.79750224702E+02 0.  0.
         11    1    3    3    0    0 -0.16855206216E+03  0.23545499203E+03  0.44849085515E+03  0.53384726101E+03  0.00000000000E+00 0. -1.
        -11    1    3    3    0    0 -0.32828023525E+02  0.11776471585E+03  0.11956293562E+03  0.17100147076E+03  0.00000000000E+00 0.  1.
          2    1    6    6  502    0  0.26165062286E+03  0.74329880956E+02  0.80842185929E+03  0.85295479494E+03  0.00000000000E+00 0. -1.
          1    1    5    5  503    0 -0.75676064308E+02 -0.28234334353E+03  0.45193610089E+02  0.29578217109E+03  0.00000000000E+00 0. -1.
         -2    1    5    5    0  503  0.17721702149E+02 -0.15781222737E+03  0.28109122500E+02  0.16127269019E+03  0.00000000000E+00 0.  1.
         -1    1    6    6    0  502 -0.23161750112E+01  0.12605982056E+02  0.43161642747E+02  0.45024469513E+02  0.00000000000E+00 0.  1.
<mgrwt>
<rscale>  0 0.14192419E+04</rscale>
<asrwt>0</asrwt>
<pdfrwt beam="1">  1        2 0.27329406E+00 0.14192419E+04</pdfrwt>
<pdfrwt beam="2">  1       -2 0.43610988E-01 0.14192419E+04</pdfrwt>
<totfact> 0.43094617E+01</totfact>
</mgrwt>
</event>
<event>
12    1  0.1541840E-007  0.2074603E+04  0.7818608E-02  0.8572514E-01
          2   -1    0    0  501    0  0.00000000000E+00  0.00000000000E+00  0.30951362053E+04  0.30951362053E+04  0.00000000000E+00 0. -1.
         -2   -1    0    0    0  501 -0.00000000000E+00 -0.00000000000E+00 -0.34764052979E+03  0.34764052979E+03  0.00000000000E+00 0.  1.
         23    2    1    2    0    0 -0.41889766178E+03  0.12995790020E+03 -0.64979020086E+02  0.45268645893E+03  0.91315114714E+02 0.  0.
        254    2    1    2    0    0  0.41889766178E+03 -0.12995790020E+03  0.28124746956E+04  0.29900902762E+04  0.91556629434E+03 0.  0.
        -24    2    4    4    0    0  0.70437839582E+03 -0.12253322817E+03  0.20547069821E+04  0.21767719994E+04  0.73158995147E+02 0.  0.
         24    2    4    4    0    0 -0.28548073404E+03 -0.74246720343E+01  0.75776771353E+03  0.81331827679E+03  0.75632905746E+02 0.  0.
         11    1    3    3    0    0 -0.27814258971E+03  0.67267914779E+02 -0.81965172471E+02  0.29766854397E+03  0.00000000000E+00 0.  1.
        -11    1    3    3    0    0 -0.14075507207E+03  0.62689985423E+02  0.16986152385E+02  0.15501791496E+03  0.00000000000E+00 0. -1.
          4    1    6    6  502    0 -0.84591743551E+02  0.17861080807E+02  0.15538738808E+03  0.17782019475E+03  0.00000000000E+00 0. -1.
          3    1    5    5  503    0  0.23316770930E+03 -0.73741517229E+02  0.66511265520E+03  0.70864648177E+03  0.00000000000E+00 0. -1.
         -4    1    5    5    0  503  0.47121068652E+03 -0.48791710939E+02  0.13895943269E+04  0.14681255176E+04  0.00000000000E+00 0.  1.
         -3    1    6    6    0  502 -0.20088899049E+03 -0.25285752841E+02  0.60238032545E+03  0.63549808204E+03  0.00000000000E+00 0.  1.
<mgrwt>
<rscale>  0 0.20746034E+04</rscale>
<asrwt>0</asrwt>
<pdfrwt beam="1">  1        2 0.47617478E+00 0.20746034E+04</pdfrwt>
<pdfrwt beam="2">  1       -2 0.53483160E-01 0.20746034E+04</pdfrwt>
<totfact> 0.46225653E+00</totfact>
</mgrwt>
</event>
<event>
12    1  0.1541840E-007  0.2158260E+04  0.7818608E-02  0.8536005E-01
          2   -1    0    0  501    0  0.00000000000E+00  0.00000000000E+00  0.15774756807E+04  0.15774756807E+04  0.00000000000E+00 0. -1.
         -2   -1    0    0    0  501 -0.00000000000E+00 -0.00000000000E+00 -0.73821835573E+03  0.73821835573E+03  0.00000000000E+00 0.  1.
         23    2    1    2    0    0  0.61490639455E+03  0.46026225123E+03 -0.13463825074E+03  0.78506299761E+03  0.90803291187E+02 0.  0.
        254    2    1    2    0    0 -0.61490639455E+03 -0.46026225123E+03  0.97389557569E+03  0.15306310388E+04  0.89688771351E+03 0.  0.
        -24    2    4    4    0    0 -0.22011767525E+03  0.73727319197E+02  0.80335469206E+03  0.84038690064E+03  0.83569569508E+02 0.  0.
         24    2    4    4    0    0 -0.39478871930E+03 -0.53398957043E+03  0.17054088363E+03  0.69024413817E+03  0.79685526165E+02 0.  0.
         11    1    3    3    0    0  0.33780337406E+03  0.27984546338E+03 -0.11668147139E+03  0.45391537611E+03  0.00000000000E+00 0. -1.
        -11    1    3    3    0    0  0.27710302049E+03  0.18041678784E+03 -0.17956779348E+02  0.33114762150E+03  0.00000000000E+00 0.  1.
          2    1    6    6  502    0 -0.31903967247E+02 -0.30755033942E+02  0.31661956004E+02  0.54462966288E+02  0.00000000000E+00 0. -1.
          1    1    5    5  503    0 -0.45922075217E+01  0.22149486742E+02  0.11617774896E+03  0.11835944190E+03  0.00000000000E+00 0. -1.
         -2    1    5    5    0  503 -0.21552546773E+03  0.51577832455E+02  0.68717694311E+03  0.72202745874E+03  0.00000000000E+00 0.  1.
         -1    1    6    6    0  502 -0.36288475205E+03 -0.50323453648E+03  0.13887892762E+03  0.63578117188E+03  0.00000000000E+00 0.  1.
<mgrwt>
<rscale>  0 0.21582600E+04</rscale>
<asrwt>0</asrwt>
<pdfrwt beam="1">  1        2 0.24268857E+00 0.21582600E+04</pdfrwt>
<pdfrwt beam="2">  1       -2 0.11357205E+00 0.21582600E+04</pdfrwt>
<totfact> 0.64020881E+00</totfact>
</mgrwt>
</event>
<event>
12    1  0.1541840E-007  0.2820662E+04  0.7818608E-02  0.8296882E-01
         -1   -1    0    0    0  501 -0.00000000000E+00  0.00000000000E+00  0.16505096825E+04  0.16505096825E+04  0.00000000000E+00 0.  1.
          1   -1    0    0  501    0  0.00000000000E+00 -0.00000000000E+00 -0.12051026135E+04  0.12051026135E+04  0.00000000000E+00 0. -1.
         23    2    1    2    0    0 -0.46813067390E+03  0.29627834082E+03 -0.95108709374E+03  0.11049355428E+04  0.96895360429E+02 0.  0.
        254    2    1    2    0    0  0.46813067390E+03 -0.29627834082E+03  0.13964941628E+04  0.17506767531E+04  0.89874688547E+03 0.  0.
        -24    2    4    4    0    0 -0.18634141871E+03 -0.19355019478E+03  0.82742518257E+03  0.87366076108E+03  0.80410760986E+02 0.  0.
         24    2    4    4    0    0  0.65447209261E+03 -0.10272814604E+03  0.56906898019E+03  0.87701599202E+03  0.80191982437E+02 0.  0.
         13    1    3    3    0    0 -0.73404770352E+02  0.79682678515E+02 -0.13729720158E+03  0.17489457146E+03  0.00000000000E+00 0.  1.
        -13    1    3    3    0    0 -0.39472590355E+03  0.21659566231E+03 -0.81378989216E+03  0.93004097138E+03  0.00000000000E+00 0. -1.
          4    1    6    6  502    0  0.12545608169E+03 -0.35997801664E+02  0.77514569903E+02  0.15180111562E+03  0.00000000000E+00 0. -1.
          3    1    5    5  503    0  0.22081161040E+01 -0.16304240219E+02  0.20677082326E+02  0.26424340282E+02  0.00000000000E+00 0. -1.
         -4    1    5    5    0  503 -0.18854953481E+03 -0.17724595456E+03  0.80674810024E+03  0.84723642080E+03  0.00000000000E+00 0.  1.
         -1    1    6    6    0  502  0.52901601092E+03 -0.66730344380E+02  0.49155441029E+03  0.72521487640E+03  0.00000000000E+00 0.  1.
<mgrwt>
<rscale>  0 0.28206620E+04</rscale>
<asrwt>0</asrwt>
<pdfrwt beam="1">  1        1 0.18540040E+00 0.28206620E+04</pdfrwt>
<pdfrwt beam="2">  1       -1 0.25392457E+00 0.28206620E+04</pdfrwt>
<totfact> 0.60171111E-01</totfact>
</mgrwt>
</event>
<event>
12    1  0.1541840E-007  0.1989804E+04  0.7818608E-02  0.8611403E-01
          2   -1    0    0  501    0  0.00000000000E+00  0.00000000000E+00  0.16554551203E+04  0.16554551203E+04  0.00000000000E+00 0.  1.
         -2   -1    0    0    0  501 -0.00000000000E+00 -0.00000000000E+00 -0.59792005872E+03  0.59792005872E+03  0.00000000000E+00 0. -1.
         23    2    1    2    0    0 -0.21237153612E+03 -0.49817270552E+03 -0.21456325518E+03  0.58944618748E+03  0.90175959016E+02 0.  0.
        254    2    1    2    0    0  0.21237153612E+03  0.49817270552E+03  0.12720983168E+04  0.16639289916E+04  0.92582279490E+03 0.  0.
        -24    2    4    4    0    0  0.23948225474E+01  0.33451353069E+03  0.13350929497E+04  0.13787030426E+04  0.80273643871E+02 0.  0.
         24    2    4    4    0    0  0.20997671357E+03  0.16365917483E+03 -0.62994632947E+02  0.28522594895E+03  0.80690596906E+02 0.  0.
         11    1    3    3    0    0 -0.11143052272E+03 -0.15256667105E+03 -0.77031262889E+02  0.20402736574E+03  0.00000000000E+00 0.  1.
        -11    1    3    3    0    0 -0.10094101339E+03 -0.34560603447E+03 -0.13753199229E+03  0.38541882174E+03  0.00000000000E+00 0. -1.
          4    1    6    6  502    0  0.83853768366E+02  0.61483743353E+02 -0.65499232300E+02  0.12288960329E+03  0.00000000000E+00 0. -1.
          3    1    5    5  503    0  0.29257352262E+02  0.28064983180E+03  0.10445743872E+04  0.10820147740E+04  0.00000000000E+00 0. -1.
         -4    1    5    5    0  503 -0.26862529714E+02  0.53863698896E+02  0.29051856251E+03  0.29668826860E+03  0.00000000000E+00 0.  1.
         -3    1    6    6    0  502  0.12612294520E+03  0.10217543148E+03  0.25045993523E+01  0.16233634566E+03  0.00000000000E+00 0.  1.
<mgrwt>
<rscale>  0 0.19898038E+04</rscale>
<asrwt>0</asrwt>
<pdfrwt beam="1">  1        2 0.25468540E+00 0.19898038E+04</pdfrwt>
<pdfrwt beam="2">  1       -2 0.91987702E-01 0.19898038E+04</pdfrwt>
<totfact> 0.97005131E+00</totfact>
</mgrwt>
</event>
<event>
12    1  0.1541840E-007  0.2818270E+04  0.7818608E-02  0.8297619E-01
         -1   -1    0    0    0  501 -0.00000000000E+00  0.00000000000E+00  0.14165721998E+04  0.14165721998E+04  0.00000000000E+00 0.  1.
          1   -1    0    0  501    0  0.00000000000E+00 -0.00000000000E+00 -0.14017368088E+04  0.14017368088E+04  0.00000000000E+00 0. -1.
         23    2    1    2    0    0  0.30834946972E+02 -0.12638586522E+04 -0.53454128403E+02  0.12684640232E+04  0.88623629378E+02 0.  0.
        254    2    1    2    0    0 -0.30834946972E+02  0.12638586522E+04  0.68289519397E+02  0.15498449855E+04  0.89390521530E+03 0.  0.
        -24    2    4    4    0    0  0.19386425144E+01 -0.12918792219E+03  0.27451832574E+02  0.15353484503E+03  0.78269201803E+02 0.  0.
         24    2    4    4    0    0 -0.32773589486E+02  0.13930465744E+04  0.40837686823E+02  0.13963101405E+04  0.79758542851E+02 0.  0.
         11    1    3    3    0    0 -0.22487515963E+02 -0.60715246594E+03 -0.49537888157E+02  0.60958494702E+03  0.00000000000E+00 0. -1.
        -11    1    3    3    0    0  0.53322462936E+02 -0.65670618623E+03 -0.39162402457E+01  0.65887907618E+03  0.00000000000E+00 0.  1.
          2    1    6    6  502    0  0.93330017156E+00  0.53930032564E+02  0.17012998104E+02  0.56557595122E+02  0.00000000000E+00 0. -1.
          3    1    5    5  503    0 -0.43078854572E+01 -0.66979065181E+01 -0.20386193497E+02  0.21886450469E+02  0.00000000000E+00 0. -1.
         -2    1    5    5    0  503  0.62465279716E+01 -0.12249001567E+03  0.47838026071E+02  0.13164839456E+03  0.00000000000E+00 0.  1.
         -1    1    6    6    0  502 -0.33706889658E+02  0.13391165418E+04  0.23824688720E+02  0.13397525453E+04  0.00000000000E+00 0.  1.
<mgrwt>
<rscale>  0 0.28182700E+04</rscale>
<asrwt>0</asrwt>
<pdfrwt beam="1">  1        1 0.21565182E+00 0.28182700E+04</pdfrwt>
<pdfrwt beam="2">  1       -1 0.21793418E+00 0.28182700E+04</pdfrwt>
<totfact> 0.75245156E-01</totfact>
</mgrwt>
</event>
<event>
12    1  0.1541840E-007  0.1411719E+04  0.7818608E-02  0.8945379E-01
          1   -1    0    0  501    0  0.00000000000E+00  0.00000000000E+00  0.17913161646E+04  0.17913161646E+04  0.00000000000E+00 0. -1.
         -1   -1    0    0    0  501 -0.00000000000E+00 -0.00000000000E+00 -0.27814038292E+03  0.27814038292E+03  0.00000000000E+00 0.  1.
         23    2    1    2    0    0 -0.16539969631E+02  0.18440785933E+03  0.98528331354E+03  0.10066391567E+04  0.90880991451E+02 0.  0.
        254    2    1    2    0    0  0.16539969631E+02 -0.18440785933E+03  0.52789246810E+03  0.10628173908E+04  0.90367611409E+03 0.  0.
        -24    2    4    4    0    0 -0.11409845327E+03  0.30947086856E+03  0.22279690180E+02  0.33972612098E+03  0.78273732242E+02 0.  0.
         24    2    4    4    0    0  0.13063842290E+03 -0.49387872789E+03  0.50561277792E+03  0.72309126984E+03  0.78956367174E+02 0.  0.
         13    1    3    3    0    0 -0.12950529590E+02 -0.64516411737E+01  0.97228469262E+02  0.98299110502E+02  0.00000000000E+00 0.  1.
        -13    1    3    3    0    0 -0.35894400403E+01  0.19085950050E+03  0.88805484428E+03  0.90834004616E+03  0.00000000000E+00 0. -1.
          2    1    6    6  502    0  0.12727225301E+03 -0.35969679705E+03  0.39471531766E+03  0.54898105085E+03  0.00000000000E+00 0. -1.
          3    1    5    5  503    0 -0.10246211635E+03  0.16872811316E+03  0.20803249973E+02  0.19849543236E+03  0.00000000000E+00 0. -1.
         -4    1    5    5    0  503 -0.11636336918E+02  0.14074275540E+03  0.14764402066E+01  0.14123068862E+03  0.00000000000E+00 0.  1.
         -1    1    6    6    0  502  0.33661698848E+01 -0.13418193084E+03  0.11089746026E+03  0.17411021899E+03  0.00000000000E+00 0.  1.
<mgrwt>
<rscale>  0 0.14117186E+04</rscale>
<asrwt>0</asrwt>
<pdfrwt beam="1">  1        1 0.27558710E+00 0.14117186E+04</pdfrwt>
<pdfrwt beam="2">  1       -1 0.42790829E-01 0.14117186E+04</pdfrwt>
<totfact> 0.21645762E+01</totfact>
</mgrwt>
</event>
<event>
12    1  0.1541840E-007  0.1399970E+04  0.7818608E-02  0.8953840E-01
          1   -1    0    0  501    0  0.00000000000E+00  0.00000000000E+00  0.15495629753E+04  0.15495629753E+04  0.00000000000E+00 0. -1.
         -1   -1    0    0    0  501 -0.00000000000E+00 -0.00000000000E+00 -0.31620462155E+03  0.31620462155E+03  0.00000000000E+00 0.  1.
         23    2    1    2    0    0 -0.48740423011E+02  0.40046647366E+03  0.29650714666E+03  0.50857873727E+03  0.89369002567E+02 0.  0.
        254    2    1    2    0    0  0.48740423011E+02 -0.40046647366E+03  0.93685120705E+03  0.13571888595E+04  0.89527782890E+03 0.  0.
        -24    2    4    4    0    0 -0.17816609158E+03 -0.58145620849E+03  0.84203733633E+03  0.10416490229E+04  0.78557829258E+02 0.  0.
         24    2    4    4    0    0  0.22690651459E+03  0.18098973482E+03  0.94813870719E+02  0.31553983664E+03  0.79573035314E+02 0.  0.
         11    1    3    3    0    0 -0.38081733671E+02  0.21960783923E+03  0.10995925833E+03  0.24853341825E+03  0.00000000000E+00 0.  1.
        -11    1    3    3    0    0 -0.10658689340E+02  0.18085863443E+03  0.18654788833E+03  0.26004531903E+03  0.00000000000E+00 0. -1.
          2    1    6    6  502    0  0.15896446784E+03  0.16861253222E+03  0.77417052930E+02  0.24432209916E+03  0.00000000000E+00 0. -1.
          3    1    5    5  503    0 -0.35670079582E+02 -0.24779833386E+03  0.34873842432E+03  0.42929576918E+03  0.00000000000E+00 0. -1.
         -4    1    5    5    0  503 -0.14249601200E+03 -0.33365787463E+03  0.49329891201E+03  0.61235325371E+03  0.00000000000E+00 0.  1.
         -1    1    6    6    0  502  0.67942046756E+02  0.12377202605E+02  0.17396817790E+02  0.71217737474E+02  0.00000000000E+00 0.  1.
<mgrwt>
<rscale>  0 0.13999700E+04</rscale>
<asrwt>0</asrwt>
<pdfrwt beam="1">  1        1 0.23839430E+00 0.13999700E+04</pdfrwt>
<pdfrwt beam="2">  1       -1 0.48646866E-01 0.13999700E+04</pdfrwt>
<totfact> 0.24924288E+01</totfact>
</mgrwt>
</event>
<event>
12    1  0.1541840E-007  0.1500671E+04  0.7818608E-02  0.8884007E-01
         -1   -1    0    0    0  501 -0.00000000000E+00  0.00000000000E+00  0.24645597193E+03  0.24645597193E+03  0.00000000000E+00 0.  1.
          1   -1    0    0  501    0  0.00000000000E+00 -0.00000000000E+00 -0.22843960854E+04  0.22843960854E+04  0.00000000000E+00 0. -1.
         23    2    1    2    0    0  0.88718984583E+02  0.77828529673E+02  0.12491812318E+03  0.19423773396E+03  0.90528567531E+02 0.  0.
        254    2    1    2    0    0 -0.88718984583E+02 -0.77828529673E+02 -0.21628582366E+04  0.23366143233E+04  0.87628899686E+03 0.  0.
        -24    2    4    4    0    0 -0.14595242095E+02 -0.32825053517E+03 -0.19794605509E+04  0.20081398947E+04  0.80002057171E+02 0.  0.
         24    2    4    4    0    0 -0.74123742488E+02  0.25042200550E+03 -0.18339768572E+03  0.32847442863E+03  0.77815352617E+02 0.  0.
         11    1    3    3    0    0  0.86306278741E+02  0.68104077043E+02  0.13883244632E+03  0.17709146566E+03  0.00000000000E+00 0.  1.
        -11    1    3    3    0    0  0.24127058424E+01  0.97244526300E+01 -0.13914323133E+02  0.17146268302E+02  0.00000000000E+00 0. -1.
          2    1    6    6  502    0 -0.80224116511E+02  0.21647375521E+03 -0.18196536424E+03  0.29395269917E+03  0.00000000000E+00 0. -1.
          1    1    5    5  503    0  0.27780657653E+02 -0.15884234336E+03 -0.83421632966E+03  0.84965848413E+03  0.00000000000E+00 0. -1.
         -2    1    5    5    0  503 -0.42375899748E+02 -0.16940819181E+03 -0.11452442213E+04  0.11584814106E+04  0.00000000000E+00 0.  1.
         -1    1    6    6    0  502  0.61003740225E+01  0.33948250282E+02 -0.14323214788E+01  0.34521729465E+02  0.00000000000E+00 0.  1.
<mgrwt>
<rscale>  0 0.15006706E+04</rscale>
<asrwt>0</asrwt>
<pdfrwt beam="1">  1        1 0.35144556E+00 0.15006706E+04</pdfrwt>
<pdfrwt beam="2">  1       -1 0.37916303E-01 0.15006706E+04</pdfrwt>
<totfact> 0.12411052E+01</totfact>
</mgrwt>
</event>
<event>
12    1  0.1541840E-007  0.1845574E+04  0.7818608E-02  0.8682432E-01
         -1   -1    0    0    0  501 -0.00000000000E+00  0.00000000000E+00  0.46693996697E+03  0.46693996697E+03  0.00000000000E+00 0.  1.
          1   -1    0    0  501    0  0.00000000000E+00 -0.00000000000E+00 -0.18236518938E+04  0.18236518938E+04  0.00000000000E+00 0. -1.
         23    2    1    2    0    0 -0.57576958158E+03  0.19352576609E+03 -0.94960954178E+03  0.11309459986E+04  0.91201627181E+02 0.  0.
        254    2    1    2    0    0  0.57576958158E+03 -0.19352576609E+03 -0.40710238504E+03  0.11596458621E+04  0.90004629903E+03 0.  0.
        -24    2    4    4    0    0  0.53097705762E+03 -0.51868075958E+03 -0.29216255269E+03  0.80255451968E+03  0.88138718988E+02 0.  0.
         24    2    4    4    0    0  0.44792523962E+02  0.32515499349E+03 -0.11493983235E+03  0.35709134244E+03  0.81061222498E+02 0.  0.
         13    1    3    3    0    0 -0.13787946494E+03  0.11107014819E+02 -0.24917199634E+03  0.28499262515E+03  0.00000000000E+00 0. -1.
        -13    1    3    3    0    0 -0.43789011664E+03  0.18241875127E+03 -0.70043754545E+03  0.84595337350E+03  0.00000000000E+00 0.  1.
          2    1    6    6  502    0  0.43437885589E+01  0.26720523235E+03 -0.86171432295E+02  0.28078999348E+03  0.00000000000E+00 0. -1.
          1    1    5    5  503    0  0.44876019789E+03 -0.40504439250E+03 -0.26320957964E+03  0.65933751442E+03  0.00000000000E+00 0. -1.
         -2    1    5    5    0  503  0.82216859727E+02 -0.11363636708E+03 -0.28952973052E+02  0.14321700526E+03  0.00000000000E+00 0.  1.
         -1    1    6    6    0  502  0.40448735404E+02  0.57949761136E+02 -0.28768400052E+02  0.76301348959E+02  0.00000000000E+00 0.  1.
<mgrwt>
<rscale>  0 0.18455741E+04</rscale>
<asrwt>0</asrwt>
<pdfrwt beam="1">  1        1 0.28056182E+00 0.18455741E+04</pdfrwt>
<pdfrwt beam="2">  1       -1 0.71836919E-01 0.18455741E+04</pdfrwt>
<totfact> 0.72168242E+00</totfact>
</mgrwt>
</event>
<event>
12    1  0.1541840E-007  0.1649914E+04  0.7818608E-02  0.8790457E-01
         -1   -1    0    0    0  501 -0.00000000000E+00  0.00000000000E+00  0.76661752848E+03  0.76661752848E+03  0.00000000000E+00 0.  1.
          1   -1    0    0  501    0  0.00000000000E+00 -0.00000000000E+00 -0.88773593606E+03  0.88773593606E+03  0.00000000000E+00 0. -1.
         23    2    1    2    0    0 -0.55336106043E+03 -0.10678680614E+03 -0.18326833468E+03  0.59977176191E+03  0.92341749623E+02 0.  0.
        254    2    1    2    0    0  0.55336106043E+03  0.10678680614E+03  0.62149927095E+02  0.10545817026E+04  0.88919518045E+03 0.  0.
        -24    2    4    4    0    0  0.31181460989E+03  0.48881373728E+03  0.10085420860E+03  0.59400602346E+03  0.80649636175E+02 0.  0.
         24    2    4    4    0    0  0.24154645053E+03 -0.38202693114E+03 -0.38704281505E+02  0.46057567918E+03  0.79640887504E+02 0.  0.
         11    1    3    3    0    0 -0.40594429762E+02  0.12232850017E+02 -0.28524125971E+02  0.51099668391E+02  0.00000000000E+00 0.  1.
        -11    1    3    3    0    0 -0.51276663066E+03 -0.11901965616E+03 -0.15474420870E+03  0.54867209352E+03  0.00000000000E+00 0. -1.
          4    1    6    6  502    0  0.99152598366E+02 -0.22180332125E+03 -0.11650172640E+01  0.24295947882E+03  0.00000000000E+00 0. -1.
          1    1    5    5  503    0  0.98808815686E+02  0.91981282244E+02  0.22989616459E+02  0.13693889442E+03  0.00000000000E+00 0. -1.
         -2    1    5    5    0  503  0.21300579421E+03  0.39683245504E+03  0.77864592141E+02  0.45706712904E+03  0.00000000000E+00 0.  1.
         -3    1    6    6    0  502  0.14239385217E+03 -0.16022360989E+03 -0.37539264241E+02  0.21761620036E+03  0.00000000000E+00 0.  1.
<mgrwt>
<rscale>  0 0.16499139E+04</rscale>
<asrwt>0</asrwt>
<pdfrwt beam="1">  1        1 0.13657476E+00 0.16499139E+04</pdfrwt>
<pdfrwt beam="2">  1       -1 0.11794116E+00 0.16499139E+04</pdfrwt>
<totfact> 0.11497014E+01</totfact>
</mgrwt>
</event>
<event>
12    1  0.1541840E-007  0.2401702E+04  0.7818608E-02  0.8438867E-01
         -1   -1    0    0    0  501 -0.00000000000E+00  0.00000000000E+00  0.10506802606E+04  0.10506802606E+04  0.00000000000E+00 0.  1.
          1   -1    0    0  501    0  0.00000000000E+00 -0.00000000000E+00 -0.13724848609E+04  0.13724848609E+04  0.00000000000E+00 0. -1.
         23    2    1    2    0    0  0.11045627477E+03 -0.10244318246E+04 -0.15313876440E+03  0.10455629771E+04  0.89940568968E+02 0.  0.
        254    2    1    2    0    0 -0.11045627477E+03  0.10244318246E+04 -0.16866583589E+03  0.13776021443E+04  0.89870926996E+03 0.  0.
        -24    2    4    4    0    0 -0.41326638457E+03  0.79703863907E+03 -0.32838867701E+03  0.95899839257E+03  0.76020372098E+02 0.  0.
         24    2    4    4    0    0  0.30281010980E+03  0.22739318556E+03  0.15972284112E+03  0.41860375176E+03  0.79473842062E+02 0.  0.
         13    1    3    3    0    0 -0.42533752608E+01 -0.26697936373E+03 -0.61577695872E+02  0.27402168616E+03  0.00000000000E+00 0. -1.
        -13    1    3    3    0    0  0.11470965003E+03 -0.75745246090E+03 -0.91561068533E+02  0.77154129093E+03  0.00000000000E+00 0.  1.
          2    1    6    6  502    0  0.30759980777E+03  0.22064427006E+03  0.15768593869E+03  0.41008095653E+03  0.00000000000E+00 0. -1.
          3    1    5    5  503    0 -0.29579033816E+03  0.63778448607E+03 -0.26181284678E+03  0.75020459980E+03  0.00000000000E+00 0. -1.
         -4    1    5    5    0  503 -0.11747604641E+03  0.15925415300E+03 -0.66575830228E+02  0.20879379277E+03  0.00000000000E+00 0.  1.
         -1    1    6    6    0  502 -0.47896979623E+01  0.67489154989E+01  0.20369024293E+01  0.85227952274E+01  0.00000000000E+00 0.  1.
<mgrwt>
<rscale>  0 0.24017017E+04</rscale>
<asrwt>0</asrwt>
<pdfrwt beam="1">  1        1 0.21115152E+00 0.24017017E+04</pdfrwt>
<pdfrwt beam="2">  1       -1 0.16164312E+00 0.24017017E+04</pdfrwt>
<totfact> 0.20443455E+00</totfact>
</mgrwt>
</event>
<event>
12    1  0.1541840E-007  0.2449752E+04  0.7818608E-02  0.8421109E-01
          2   -1    0    0  501    0  0.00000000000E+00  0.00000000000E+00  0.26159833735E+04  0.26159833735E+04  0.00000000000E+00 0.  1.
         -2   -1    0    0    0  501 -0.00000000000E+00 -0.00000000000E+00 -0.57352083491E+03  0.57352083491E+03  0.00000000000E+00 0. -1.
         23    2    1    2    0    0  0.39723085186E+02 -0.10197982957E+04  0.12393207984E+04  0.16082680027E+04  0.95097000883E+02 0.  0.
        254    2    1    2    0    0 -0.39723085186E+02  0.10197982957E+04  0.80314174014E+03  0.15812362057E+04  0.90205587184E+03 0.  0.
        -24    2    4    4    0    0  0.35491104475E+03  0.16987979103E+03  0.11989942367E+03  0.41908969806E+03  0.80245312211E+02 0.  0.
         24    2    4    4    0    0 -0.39463412994E+03  0.84991850472E+03  0.68324231648E+03  0.11621465076E+04  0.75278689037E+02 0.  0.
         13    1    3    3    0    0  0.70285898289E+02 -0.66603540943E+03  0.82412391664E+03  0.10619432678E+04  0.00000000000E+00 0.  1.
        -13    1    3    3    0    0 -0.30562813103E+02 -0.35376288632E+03  0.41519688179E+03  0.54632473487E+03  0.00000000000E+00 0. -1.
          4    1    6    6  502    0 -0.24450599601E+03  0.56536712289E+03  0.40896905420E+03  0.73937734144E+03  0.00000000000E+00 0. -1.
          1    1    5    5  503    0  0.28666206201E+03  0.10196710413E+03  0.10377308538E+03  0.32146738773E+03  0.00000000000E+00 0. -1.
         -2    1    5    5    0  503  0.68248982741E+02  0.67912686904E+02  0.16126338285E+02  0.97622310330E+02  0.00000000000E+00 0.  1.
         -3    1    6    6    0  502 -0.15012813392E+03  0.28455138182E+03  0.27427326227E+03  0.42276916620E+03  0.00000000000E+00 0.  1.
<mgrwt>
<rscale>  0 0.24497518E+04</rscale>
<asrwt>0</asrwt>
<pdfrwt beam="1">  1        2 0.40245897E+00 0.24497518E+04</pdfrwt>
<pdfrwt beam="2">  1       -2 0.88233976E-01 0.24497518E+04</pdfrwt>
<totfact> 0.29499615E+00</totfact>
</mgrwt>
</event>
<event>
12    1  0.1541840E-007  0.2967113E+04  0.7818608E-02  0.8253185E-01
          1   -1    0    0  501    0  0.00000000000E+00  0.00000000000E+00  0.13048115270E+04  0.13048115270E+04  0.00000000000E+00 0. -1.
         -1   -1    0    0    0  501 -0.00000000000E+00 -0.00000000000E+00 -0.16867880319E+04  0.16867880319E+04  0.00000000000E+00 0.  1.
         23    2    1    2    0    0  0.12547169710E+04  0.47962827597E+03 -0.98056408352E+02  0.13499521674E+04  0.91639699312E+02 0.  0.
        254    2    1    2    0    0 -0.12547169710E+04 -0.47962827597E+03 -0.28392009660E+03  0.16416473915E+04  0.90002087539E+03 0.  0.
        -24    2    4    4    0    0 -0.79910195858E+03 -0.52639712166E+03 -0.54932235128E+03  0.11061627353E+04  0.78632573035E+02 0.  0.
         24    2    4    4    0    0 -0.45561501246E+03  0.46768845692E+02  0.26540225469E+03  0.53548465613E+03  0.80827567355E+02 0.  0.
         13    1    3    3    0    0  0.95831820495E+03  0.39720056085E+03 -0.10112604788E+03  0.10422900484E+04  0.00000000000E+00 0. -1.
        -13    1    3    3    0    0  0.29639876610E+03  0.82427715113E+02  0.30696395266E+01  0.30766211897E+03  0.00000000000E+00 0.  1.
          2    1    6    6  502    0 -0.35151622022E+03  0.58067539325E+02  0.23367039980E+03  0.42607199855E+03  0.00000000000E+00 0. -1.
          3    1    5    5  503    0 -0.67431726054E+03 -0.40823149681E+03 -0.45273394296E+03  0.90902406237E+03  0.00000000000E+00 0. -1.
         -4    1    5    5    0  503 -0.12478469804E+03 -0.11816562485E+03 -0.96588408323E+02  0.19713867297E+03  0.00000000000E+00 0.  1.
         -1    1    6    6    0  502 -0.10409879224E+03 -0.11298693633E+02  0.31731854881E+02  0.10941265758E+03  0.00000000000E+00 0.  1.
<mgrwt>
<rscale>  0 0.29671134E+04</rscale>
<asrwt>0</asrwt>
<pdfrwt beam="1">  1        1 0.20074024E+00 0.29671134E+04</pdfrwt>
<pdfrwt beam="2">  1       -1 0.25950585E+00 0.29671134E+04</pdfrwt>
<totfact> 0.46295059E-01</totfact>
</mgrwt>
</event>
<event>
12    1  0.1541840E-007  0.1513944E+04  0.7818608E-02  0.8875233E-01
          2   -1    0    0  501    0  0.00000000000E+00  0.00000000000E+00  0.16130750749E+04  0.16130750749E+04  0.00000000000E+00 0. -1.
         -2   -1    0    0    0  501 -0.00000000000E+00 -0.00000000000E+00 -0.35522645946E+03  0.35522645946E+03  0.00000000000E+00 0.  1.
         23    2    1    2    0    0  0.14057687340E+03 -0.69072477814E+01  0.10053138151E+04  0.10191726858E+04  0.90815908930E+02 0.  0.
        254    2    1    2    0    0 -0.14057687340E+03  0.69072477814E+01  0.25253480036E+03  0.94912884854E+03  0.90402554075E+03 0.  0.
        -24    2    4    4    0    0  0.15011375335E+03  0.16837513311E+03 -0.24752641733E+03  0.34422090885E+03  0.79588833513E+02 0.  0.
         24    2    4    4    0    0 -0.29069062676E+03 -0.16146788533E+03  0.50006121769E+03  0.60490793969E+03  0.72659999855E+02 0.  0.
         11    1    3    3    0    0  0.11736264975E+03  0.32460220560E+02  0.73967024342E+03  0.74962639126E+03  0.00000000000E+00 0. -1.
        -11    1    3    3    0    0  0.23214223651E+02 -0.39367468342E+02  0.26564357166E+03  0.26954629456E+03  0.00000000000E+00 0.  1.
          2    1    6    6  502    0 -0.27373692804E+03 -0.14366896916E+03  0.48761123329E+03  0.57735378522E+03  0.00000000000E+00 0. -1.
          3    1    5    5  503    0  0.12381468324E+03  0.16405587984E+03 -0.18612510873E+03  0.27728498625E+03  0.00000000000E+00 0. -1.
         -4    1    5    5    0  503  0.26299070110E+02  0.43192532651E+01 -0.61401308599E+02  0.66935922606E+02  0.00000000000E+00 0.  1.
         -1    1    6    6    0  502 -0.16953698716E+02 -0.17798916171E+02  0.12449984403E+02  0.27554154472E+02  0.00000000000E+00 0.  1.
<mgrwt>
<rscale>  0 0.15139444E+04</rscale>
<asrwt>0</asrwt>
<pdfrwt beam="1">  1        2 0.24816539E+00 0.15139444E+04</pdfrwt>
<pdfrwt beam="2">  1       -2 0.54650226E-01 0.15139444E+04</pdfrwt>
<totfact> 0.33339107E+01</totfact>
</mgrwt>
</event>
<event>
12    1  0.1541840E-007  0.2452210E+04  0.7818608E-02  0.8420211E-01
          2   -1    0    0  501    0  0.00000000000E+00  0.00000000000E+00  0.26481874066E+04  0.26481874066E+04  0.00000000000E+00 0. -1.
         -2   -1    0    0    0  501 -0.00000000000E+00 -0.00000000000E+00 -0.56768408219E+03  0.56768408219E+03  0.00000000000E+00 0.  1.
         23    2    1    2    0    0 -0.32041169349E+03 -0.78700708952E+03  0.17031517430E+04  0.19055198145E+04  0.90752914527E+02 0.  0.
        254    2    1    2    0    0  0.32041169349E+03  0.78700708952E+03  0.37735158144E+03  0.13103516743E+04  0.92335447260E+03 0.  0.
        -24    2    4    4    0    0 -0.23274523368E+03  0.42452107172E+03  0.41599495583E+03  0.64334163861E+03  0.80300538935E+02 0.  0.
         24    2    4    4    0    0  0.55315692717E+03  0.36248601780E+03 -0.38643374386E+02  0.66701003571E+03  0.77655509570E+02 0.  0.
         13    1    3    3    0    0 -0.73287810019E+01 -0.29520438827E+02  0.31776709633E+02  0.43987800747E+02  0.00000000000E+00 0.  1.
        -13    1    3    3    0    0 -0.31308291249E+03 -0.75748665070E+03  0.16713750333E+04  0.18615320137E+04  0.00000000000E+00 0. -1.
          2    1    6    6  502    0  0.83971993469E+02  0.84773177141E+02  0.93453581827E+01  0.11968760575E+03  0.00000000000E+00 0. -1.
          1    1    5    5  503    0 -0.44966475696E+02  0.82676215195E+02  0.42282942581E+02  0.10317551904E+03  0.00000000000E+00 0. -1.
         -2    1    5    5    0  503 -0.18777875798E+03  0.34184485653E+03  0.37371201325E+03  0.54016611957E+03  0.00000000000E+00 0.  1.
         -1    1    6    6    0  502  0.46918493371E+03  0.27771284066E+03 -0.47988732569E+02  0.54732242996E+03  0.00000000000E+00 0.  1.
<mgrwt>
<rscale>  0 0.24522103E+04</rscale>
<asrwt>0</asrwt>
<pdfrwt beam="1">  1        2 0.40741344E+00 0.24522103E+04</pdfrwt>
<pdfrwt beam="2">  1       -2 0.87336015E-01 0.24522103E+04</pdfrwt>
<totfact> 0.28901858E+00</totfact>
</mgrwt>
</event>
<event>
12    1  0.1541840E-007  0.3055576E+04  0.7818608E-02  0.8228036E-01
          1   -1    0    0  501    0  0.00000000000E+00  0.00000000000E+00  0.15083570765E+04  0.15083570765E+04  0.00000000000E+00 0. -1.
         -1   -1    0    0    0  501 -0.00000000000E+00 -0.00000000000E+00 -0.15474696317E+04  0.15474696317E+04  0.00000000000E+00 0.  1.
         23    2    1    2    0    0 -0.69049425743E+02  0.49353900933E+03 -0.13297225721E+04  0.14226634617E+04  0.86374935910E+02 0.  0.
        254    2    1    2    0    0  0.69049425743E+02 -0.49353900933E+03  0.12906100170E+04  0.16331632464E+04  0.86787061057E+03 0.  0.
        -24    2    4    4    0    0  0.12134079644E+03  0.22691386880E+03  0.42628276971E+03  0.50391975649E+03  0.77489537953E+02 0.  0.
         24    2    4    4    0    0 -0.52291370693E+02 -0.72045287813E+03  0.86432724724E+03  0.11292434899E+04  0.79640016269E+02 0.  0.
         13    1    3    3    0    0 -0.77346723512E+01  0.33986116349E+03 -0.91955411236E+03  0.98038013095E+03  0.00000000000E+00 0.  1.
        -13    1    3    3    0    0 -0.61314753392E+02  0.15367784584E+03 -0.41016845977E+03  0.44228333077E+03  0.00000000000E+00 0. -1.
          2    1    6    6  502    0  0.13390820122E+02 -0.36347201690E+03  0.42720108664E+03  0.56106326698E+03  0.00000000000E+00 0. -1.
          1    1    5    5  503    0  0.12872877867E+03  0.22040269146E+03  0.42198912181E+03  0.49317670645E+03  0.00000000000E+00 0. -1.
         -2    1    5    5    0  503 -0.73879822320E+01  0.65111773390E+01  0.42936479044E+01  0.10743050038E+02  0.00000000000E+00 0.  1.
         -1    1    6    6    0  502 -0.65682190815E+02 -0.35698086124E+03  0.43712616061E+03  0.56818022296E+03  0.00000000000E+00 0.  1.
<mgrwt>
<rscale>  0 0.30555764E+04</rscale>
<asrwt>0</asrwt>
<pdfrwt beam="1">  1        1 0.23205493E+00 0.30555764E+04</pdfrwt>
<pdfrwt beam="2">  1       -1 0.23807225E+00 0.30555764E+04</pdfrwt>
<totfact> 0.45642081E-01</totfact>
</mgrwt>
</event>
<event>
12    1  0.1541840E-007  0.2028028E+04  0.7818608E-02  0.8593628E-01
          1   -1    0    0  501    0  0.00000000000E+00  0.00000000000E+00  0.12570193997E+04  0.12570193997E+04  0.00000000000E+00 0. -1.
         -1   -1    0    0    0  501 -0.00000000000E+00 -0.00000000000E+00 -0.81798575087E+03  0.81798575087E+03  0.00000000000E+00 0.  1.
         23    2    1    2    0    0 -0.35869197317E+03  0.23099287916E+03 -0.53136090383E+03  0.68740860402E+03  0.90379958641E+02 0.  0.
        254    2    1    2    0    0  0.35869197317E+03 -0.23099287916E+03  0.97039455265E+03  0.13875965465E+04  0.89539988067E+03 0.  0.
        -24    2    4    4    0    0 -0.32981171519E+02 -0.39441089408E+03  0.99933100539E+02  0.41606440155E+03  0.80468941867E+02 0.  0.
         24    2    4    4    0    0  0.39167314469E+03  0.16341801493E+03  0.87046145211E+03  0.97153214499E+03  0.77834884564E+02 0.  0.
         11    1    3    3    0    0 -0.31865821948E+02  0.32229213980E+02 -0.21925564797E+02  0.50347623915E+02  0.00000000000E+00 0. -1.
        -11    1    3    3    0    0 -0.32682615122E+03  0.19876366518E+03 -0.50943533904E+03  0.63706098011E+03  0.00000000000E+00 0.  1.
          2    1    6    6  502    0  0.28054837881E+03  0.80757118492E+02  0.62111503427E+03  0.68630386188E+03  0.00000000000E+00 0. -1.
          3    1    5    5  503    0 -0.32257047735E+02 -0.50185274045E+02  0.14979052564E+02  0.61509762438E+02  0.00000000000E+00 0. -1.
         -4    1    5    5    0  503 -0.72412378399E+00 -0.34422562004E+03  0.84954047975E+02  0.35455463911E+03  0.00000000000E+00 0.  1.
         -1    1    6    6    0  502  0.11112476588E+03  0.82660896435E+02  0.24934641785E+03  0.28522828311E+03  0.00000000000E+00 0.  1.
<mgrwt>
<rscale>  0 0.20280276E+04</rscale>
<asrwt>0</asrwt>
<pdfrwt beam="1">  1        1 0.19338760E+00 0.20280276E+04</pdfrwt>
<pdfrwt beam="2">  1       -1 0.12584396E+00 0.20280276E+04</pdfrwt>
<totfact> 0.49467113E+00</totfact>
</mgrwt>
</event>
<event>
12    1  0.1541840E-007  0.2673534E+04  0.7818608E-02  0.8343644E-01
          1   -1    0    0  501    0  0.00000000000E+00  0.00000000000E+00  0.18738161921E+04  0.18738161921E+04  0.00000000000E+00 0. -1.
         -1   -1    0    0    0  501 -0.00000000000E+00 -0.00000000000E+00 -0.95364000048E+03  0.95364000048E+03  0.00000000000E+00 0.  1.
         23    2    1    2    0    0  0.76231124939E+03  0.33923354705E+03 -0.47965836242E+03  0.96630661779E+03  0.86478289503E+02 0.  0.
        254    2    1    2    0    0 -0.76231124939E+03 -0.33923354705E+03  0.13998345541E+04  0.18611495748E+04  0.89896780847E+03 0.  0.
        -24    2    4    4    0    0  0.13944874595E+03 -0.29148354102E+02 -0.30023685621E+01  0.16301684666E+03  0.79182692462E+02 0.  0.
         24    2    4    4    0    0 -0.90175999534E+03 -0.31008519295E+03  0.14028369226E+04  0.16981327281E+04  0.79871238981E+02 0.  0.
         13    1    3    3    0    0  0.61170500551E+03  0.30797976688E+03 -0.39933345359E+03  0.79278102760E+03  0.00000000000E+00 0.  1.
        -13    1    3    3    0    0  0.15060624388E+03  0.31253780168E+02 -0.80324908830E+02  0.17352559019E+03  0.00000000000E+00 0. -1.
          4    1    6    6  502    0 -0.63376051990E+03 -0.20322863392E+03  0.10372312580E+04  0.12323972398E+04  0.00000000000E+00 0. -1.
          3    1    5    5  503    0  0.94024181037E+02 -0.56737499846E+02 -0.33895871625E+01  0.10986892104E+03  0.00000000000E+00 0. -1.
         -2    1    5    5    0  503  0.45424564913E+02  0.27589145743E+02  0.38721860040E+00  0.53147925629E+02  0.00000000000E+00 0.  1.
         -3    1    6    6    0  502 -0.26799947544E+03 -0.10685655903E+03  0.36560566466E+03  0.46573548831E+03  0.00000000000E+00 0.  1.
<mgrwt>
<rscale>  0 0.26735340E+04</rscale>
<asrwt>0</asrwt>
<pdfrwt beam="1">  1        1 0.28827941E+00 0.26735340E+04</pdfrwt>
<pdfrwt beam="2">  1       -1 0.14671385E+00 0.26735340E+04</pdfrwt>
<totfact> 0.11761538E+00</totfact>
</mgrwt>
</event>
<event>
12    1  0.1541840E-007  0.1476084E+04  0.7818608E-02  0.8900514E-01
          1   -1    0    0  501    0  0.00000000000E+00  0.00000000000E+00  0.15062948444E+04  0.15062948444E+04  0.00000000000E+00 0. -1.
         -1   -1    0    0    0  501 -0.00000000000E+00 -0.00000000000E+00 -0.36161984177E+03  0.36161984177E+03  0.00000000000E+00 0.  1.
         23    2    1    2    0    0 -0.34405030904E+03  0.61985314839E+02 -0.82124951866E+01  0.36124900456E+03  0.90667545543E+02 0.  0.
        254    2    1    2    0    0  0.34405030904E+03 -0.61985314839E+02  0.11528874978E+04  0.15066656816E+04  0.90480887435E+03 0.  0.
        -24    2    4    4    0    0  0.61079485260E+03 -0.14913096280E+03  0.98217668898E+03  0.11689304791E+04  0.80106307818E+02 0.  0.
         24    2    4    4    0    0 -0.26674454356E+03  0.87145647962E+02  0.17071080882E+03  0.33773520250E+03  0.78586711875E+02 0.  0.
         13    1    3    3    0    0 -0.68608393954E+02  0.44548608561E+01  0.34023721564E+02  0.76710958378E+02  0.00000000000E+00 0.  1.
        -13    1    3    3    0    0 -0.27544191508E+03  0.57530453983E+02 -0.42236216751E+02  0.28453804618E+03  0.00000000000E+00 0. -1.
          2    1    6    6  502    0 -0.33339261571E+02 -0.77181147180E+01  0.15273466109E+01  0.34255049913E+02  0.00000000000E+00 0. -1.
          1    1    5    5  503    0  0.71846636131E+01  0.72423288405E+01  0.13567586747E+02  0.16974985373E+02  0.00000000000E+00 0. -1.
         -4    1    5    5    0  503  0.60361018898E+03 -0.15637329164E+03  0.96860910224E+03  0.11519554937E+04  0.00000000000E+00 0.  1.
         -1    1    6    6    0  502 -0.23340528199E+03  0.94863762680E+02  0.16918346221E+03  0.30348015259E+03  0.00000000000E+00 0.  1.
<mgrwt>
<rscale>  0 0.14760841E+04</rscale>
<asrwt>0</asrwt>
<pdfrwt beam="1">  1        1 0.23173767E+00 0.14760841E+04</pdfrwt>
<pdfrwt beam="2">  1       -1 0.55633822E-01 0.14760841E+04</pdfrwt>
<totfact> 0.20507798E+01</totfact>
</mgrwt>
</event>
<event>
12    1  0.1541840E-007  0.1271768E+04  0.7818608E-02  0.9052258E-01
         -2   -1    0    0    0  501 -0.00000000000E+00  0.00000000000E+00  0.45606365969E+03  0.45606365969E+03  0.00000000000E+00 0.  1.
          2   -1    0    0  501    0  0.00000000000E+00 -0.00000000000E+00 -0.88660479122E+03  0.88660479122E+03  0.00000000000E+00 0. -1.
         23    2    1    2    0    0 -0.16072064303E+03 -0.16568134858E+03 -0.33153766223E+03  0.41345380640E+03  0.88007921146E+02 0.  0.
        254    2    1    2    0    0  0.16072064303E+03  0.16568134858E+03 -0.99003469300E+02  0.92921464451E+03  0.89462658929E+03 0.  0.
        -24    2    4    4    0    0  0.36245627648E+02  0.52438685194E+03 -0.11552801027E+02  0.53152853745E+03  0.78062813849E+02 0.  0.
         24    2    4    4    0    0  0.12447501539E+03 -0.35870550336E+03 -0.87450668273E+02  0.39768610706E+03  0.79642656717E+02 0.  0.
         11    1    3    3    0    0 -0.10685743207E+03 -0.14993389797E+03 -0.29050062131E+03  0.34393210890E+03  0.00000000000E+00 0. -1.
        -11    1    3    3    0    0 -0.53863210965E+02 -0.15747450607E+02 -0.41037040926E+02  0.69521697506E+02  0.00000000000E+00 0.  1.
          4    1    6    6  502    0  0.42429210287E+02 -0.12969784298E+03 -0.71106957490E+02  0.15387646917E+03  0.00000000000E+00 0. -1.
          1    1    5    5  503    0  0.18293691494E+02  0.39016490888E+03  0.24603396268E+02  0.39136765627E+03  0.00000000000E+00 0. -1.
         -2    1    5    5    0  503  0.17951936154E+02  0.13422194306E+03 -0.36156197295E+02  0.14016088118E+03  0.00000000000E+00 0.  1.
         -3    1    6    6    0  502  0.82045805099E+02 -0.22900766038E+03 -0.16343710783E+02  0.24380963789E+03  0.00000000000E+00 0.  1.
<mgrwt>
<rscale>  0 0.12717676E+04</rscale>
<asrwt>0</asrwt>
<pdfrwt beam="1">  1        2 0.13640074E+00 0.12717676E+04</pdfrwt>
<pdfrwt beam="2">  1       -2 0.70163640E-01 0.12717676E+04</pdfrwt>
<totfact> 0.54404351E+01</totfact>
</mgrwt>
</event>
<event>
12    1  0.1541840E-007  0.1353510E+04  0.7818608E-02  0.8988176E-01
         -1   -1    0    0    0  501 -0.00000000000E+00  0.00000000000E+00  0.27880875416E+03  0.27880875416E+03  0.00000000000E+00 0.  1.
          1   -1    0    0  501    0  0.00000000000E+00 -0.00000000000E+00 -0.16426927986E+04  0.16426927986E+04  0.00000000000E+00 0. -1.
         23    2    1    2    0    0  0.25441858826E+03  0.11418907609E+03 -0.69895515588E+03  0.75798211745E+03  0.90722749557E+02 0.  0.
        254    2    1    2    0    0 -0.25441858826E+03 -0.11418907609E+03 -0.66492888854E+03  0.11635194353E+04  0.91316980149E+03 0.  0.
        -24    2    4    4    0    0 -0.35795839999E+03 -0.29409725601E+03 -0.78442634368E+01  0.47020050018E+03  0.79997286106E+02 0.  0.
         24    2    4    4    0    0  0.10353981173E+03  0.17990817992E+03 -0.65708462511E+03  0.69331893512E+03  0.76442759205E+02 0.  0.
         13    1    3    3    0    0  0.25291773335E+03  0.11038454927E+03 -0.61671212926E+03  0.67563746117E+03  0.00000000000E+00 0. -1.
        -13    1    3    3    0    0  0.15008549153E+01  0.38045268183E+01 -0.82243026628E+02  0.82344656285E+02  0.00000000000E+00 0.  1.
          2    1    6    6  502    0  0.58374828673E+02  0.13333931479E+03 -0.54204395653E+03  0.56124740026E+03  0.00000000000E+00 0. -1.
          3    1    5    5  503    0 -0.17362857857E+03 -0.19399748351E+03 -0.17128794905E+01  0.26035522054E+03  0.00000000000E+00 0. -1.
         -4    1    5    5    0  503 -0.18432982142E+03 -0.10009977249E+03 -0.61313839463E+01  0.20984527964E+03  0.00000000000E+00 0.  1.
         -1    1    6    6    0  502  0.45164983053E+02  0.46568865134E+02 -0.11504066857E+03  0.13207153486E+03  0.00000000000E+00 0.  1.
<mgrwt>
<rscale>  0 0.13535097E+04</rscale>
<asrwt>0</asrwt>
<pdfrwt beam="1">  1        1 0.25272197E+00 0.13535097E+04</pdfrwt>
<pdfrwt beam="2">  1       -1 0.42893654E-01 0.13535097E+04</pdfrwt>
<totfact> 0.27334384E+01</totfact>
</mgrwt>
</event>
<event>
12    1  0.1541840E-007  0.1717276E+04  0.7818608E-02  0.8751572E-01
          2   -1    0    0  501    0  0.00000000000E+00  0.00000000000E+00  0.10756297747E+04  0.10756297747E+04  0.00000000000E+00 0. -1.
         -2   -1    0    0    0  501 -0.00000000000E+00 -0.00000000000E+00 -0.68542086576E+03  0.68542086576E+03  0.00000000000E+00 0.  1.
         23    2    1    2    0    0 -0.38075759313E+03 -0.24117591990E+03  0.58040901640E+03  0.74018787100E+03  0.88663910285E+02 0.  0.
        254    2    1    2    0    0  0.38075759313E+03  0.24117591990E+03 -0.19020010746E+03  0.10208627695E+04  0.89601481247E+03 0.  0.
        -24    2    4    4    0    0 -0.28590373566E+03  0.26011063722E+02 -0.75898347226E+02  0.30682077388E+03  0.77206908179E+02 0.  0.
         24    2    4    4    0    0  0.66666132879E+03  0.21516485618E+03 -0.11430176023E+03  0.71404199560E+03  0.77832104237E+02 0.  0.
         11    1    3    3    0    0 -0.35699033210E+03 -0.24265738892E+03  0.52358906060E+03  0.67857955318E+03  0.00000000000E+00 0. -1.
        -11    1    3    3    0    0 -0.23767261030E+02  0.14814690233E+01  0.56819955799E+02  0.61608317818E+02  0.00000000000E+00 0.  1.
          2    1    6    6  502    0  0.20581133362E+03  0.34315954172E+02 -0.52321073432E+02  0.21511249262E+03  0.00000000000E+00 0. -1.
          1    1    5    5  503    0 -0.23661127287E+03  0.11673073020E+02 -0.31566712207E+02  0.23899291287E+03  0.00000000000E+00 0. -1.
         -2    1    5    5    0  503 -0.49292462790E+02  0.14337990702E+02 -0.44331635019E+02  0.67827861006E+02  0.00000000000E+00 0.  1.
         -1    1    6    6    0  502  0.46084999517E+03  0.18084890201E+03 -0.61980686799E+02  0.49892950298E+03  0.00000000000E+00 0.  1.
<mgrwt>
<rscale>  0 0.17172759E+04</rscale>
<asrwt>0</asrwt>
<pdfrwt beam="1">  1        2 0.16548150E+00 0.17172759E+04</pdfrwt>
<pdfrwt beam="2">  1       -2 0.10544936E+00 0.17172759E+04</pdfrwt>
<totfact> 0.15599298E+01</totfact>
</mgrwt>
</event>
<event>
12    1  0.1541840E-007  0.2010309E+04  0.7818608E-02  0.8601816E-01
         -1   -1    0    0    0  501 -0.00000000000E+00  0.00000000000E+00  0.21957776314E+04  0.21957776314E+04  0.00000000000E+00 0.  1.
          1   -1    0    0  501    0  0.00000000000E+00 -0.00000000000E+00 -0.46012673381E+03  0.46012673381E+03  0.00000000000E+00 0. -1.
         23    2    1    2    0    0 -0.25571616775E+03 -0.14506242804E+03 -0.29279209285E+03  0.42468688988E+03  0.90542135631E+02 0.  0.
        254    2    1    2    0    0  0.25571616775E+03  0.14506242804E+03  0.20284429905E+04  0.22312174753E+04  0.88165559618E+03 0.  0.
        -24    2    4    4    0    0 -0.30329604226E+03 -0.74877644370E+02  0.66340564051E+03  0.73757679075E+03  0.79481617448E+02 0.  0.
         24    2    4    4    0    0  0.55901221000E+03  0.21994007241E+03  0.13650373499E+04  0.14936406846E+04  0.82263245428E+02 0.  0.
         11    1    3    3    0    0 -0.25494640152E+03 -0.12829090239E+03 -0.25261812613E+03  0.38114582634E+03  0.00000000000E+00 0. -1.
        -11    1    3    3    0    0 -0.76976622735E+00 -0.16771525647E+02 -0.40173966715E+02  0.43541063540E+02  0.00000000000E+00 0.  1.
          4    1    6    6  502    0  0.30050015808E+02  0.29570808878E+02  0.13020730796E+03  0.13686262906E+03  0.00000000000E+00 0. -1.
          1    1    5    5  503    0 -0.17193381368E+02 -0.17037627860E+02  0.10189489692E+03  0.10473043084E+03  0.00000000000E+00 0. -1.
         -2    1    5    5    0  503 -0.28610266089E+03 -0.57840016511E+02  0.56151074359E+03  0.63284635991E+03  0.00000000000E+00 0.  1.
         -3    1    6    6    0  502  0.52896219420E+03  0.19036926353E+03  0.12348300420E+04  0.13567780555E+04  0.00000000000E+00 0.  1.
<mgrwt>
<rscale>  0 0.20103094E+04</rscale>
<asrwt>0</asrwt>
<pdfrwt beam="1">  1        1 0.70788730E-01 0.20103094E+04</pdfrwt>
<pdfrwt beam="2">  1       -1 0.33781194E+00 0.20103094E+04</pdfrwt>
<totfact> 0.86236810E-01</totfact>
</mgrwt>
</event>
<event>
12    1  0.1541840E-007  0.1568574E+04  0.7818608E-02  0.8840090E-01
         -2   -1    0    0    0  501 -0.00000000000E+00  0.00000000000E+00  0.30775989935E+03  0.30775989935E+03  0.00000000000E+00 0.  1.
          2   -1    0    0  501    0  0.00000000000E+00 -0.00000000000E+00 -0.19986568806E+04  0.19986568806E+04  0.00000000000E+00 0. -1.
         23    2    1    2    0    0 -0.19627986699E+03  0.19002413039E+03  0.84179878466E+02  0.30020456582E+03  0.91660095398E+02 0.  0.
        254    2    1    2    0    0  0.19627986699E+03 -0.19002413039E+03 -0.17750768597E+04  0.20062122141E+04  0.89406634759E+03 0.  0.
        -24    2    4    4    0    0  0.64273373432E+02 -0.51944215727E+03 -0.74721650060E+03  0.91591838231E+03  0.81380359997E+02 0.  0.
         24    2    4    4    0    0  0.13200649356E+03  0.32941802689E+03 -0.10278603591E+04  0.10902938318E+04  0.79383695314E+02 0.  0.
         11    1    3    3    0    0 -0.18310069509E+03  0.14071235502E+03  0.91982420301E+02  0.24856909913E+03  0.00000000000E+00 0.  1.
        -11    1    3    3    0    0 -0.13179171900E+02  0.49311775363E+02 -0.78025418353E+01  0.51635466692E+02  0.00000000000E+00 0. -1.
          4    1    6    6  502    0  0.15973835453E+02  0.14416420501E+03 -0.40521176222E+03  0.43038942095E+03  0.00000000000E+00 0. -1.
          1    1    5    5  503    0  0.33615359023E+02 -0.16174548720E+03 -0.29948813581E+03  0.34203031808E+03  0.00000000000E+00 0. -1.
         -2    1    5    5    0  503  0.30658014409E+02 -0.35769667007E+03 -0.44772836479E+03  0.57388806423E+03  0.00000000000E+00 0.  1.
         -3    1    6    6    0  502  0.11603265811E+03  0.18525382188E+03 -0.62264859688E+03  0.65990441085E+03  0.00000000000E+00 0.  1.
<mgrwt>
<rscale>  0 0.15685744E+04</rscale>
<asrwt>0</asrwt>
<pdfrwt beam="1">  1        2 0.30748567E+00 0.15685744E+04</pdfrwt>
<pdfrwt beam="2">  1       -2 0.47347678E-01 0.15685744E+04</pdfrwt>
<totfact> 0.27204255E+01</totfact>
</mgrwt>
</event>
<event>
12    1  0.1541840E-007  0.1339518E+04  0.7818608E-02  0.8998801E-01
          1   -1    0    0  501    0  0.00000000000E+00  0.00000000000E+00  0.87774964386E+03  0.87774964386E+03  0.00000000000E+00 0.  1.
         -1   -1    0    0    0  501 -0.00000000000E+00 -0.00000000000E+00 -0.51105348284E+03  0.51105348284E+03  0.00000000000E+00 0. -1.
         23    2    1    2    0    0  0.34922602536E+03  0.11566991370E+02  0.73489508157E+02  0.36826630800E+03  0.90148509258E+02 0.  0.
        254    2    1    2    0    0 -0.34922602536E+03 -0.11566991370E+02  0.29320665286E+03  0.10205368187E+04  0.91292532277E+03 0.  0.
        -24    2    4    4    0    0  0.11275592660E+00 -0.26807590906E+03 -0.21154694533E+03  0.35048043035E+03  0.78865177669E+02 0.  0.
         24    2    4    4    0    0 -0.34933878129E+03  0.25650891769E+03  0.50475359819E+03  0.67005638834E+03  0.79780697584E+02 0.  0.
         11    1    3    3    0    0  0.26459868017E+03  0.25339378167E+02  0.90618498809E+02  0.28083136926E+03  0.00000000000E+00 0.  1.
        -11    1    3    3    0    0  0.84627345185E+02 -0.13772386797E+02 -0.17128990653E+02  0.87434938737E+02  0.00000000000E+00 0. -1.
          2    1    6    6  502    0 -0.14765483418E+03  0.62157050792E+02  0.19731623430E+03  0.25416361923E+03  0.00000000000E+00 0. -1.
          1    1    5    5  503    0  0.15315644761E+02 -0.13116797798E+03 -0.14928669911E+03  0.19931413887E+03  0.00000000000E+00 0. -1.
         -2    1    5    5    0  503 -0.15202888835E+02 -0.13690793108E+03 -0.62260246219E+02  0.15116629148E+03  0.00000000000E+00 0.  1.
         -1    1    6    6    0  502 -0.20168394711E+03  0.19435186690E+03  0.30743736389E+03  0.41589276912E+03  0.00000000000E+00 0.  1.
<mgrwt>
<rscale>  0 0.13395178E+04</rscale>
<asrwt>0</asrwt>
<pdfrwt beam="1">  1        1 0.13503841E+00 0.13395178E+04</pdfrwt>
<pdfrwt beam="2">  1       -1 0.78623613E-01 0.13395178E+04</pdfrwt>
<totfact> 0.30109688E+01</totfact>
</mgrwt>
</event>
<event>
12    1  0.1541840E-007  0.1723219E+04  0.7818608E-02  0.8748231E-01
         -2   -1    0    0    0  501 -0.00000000000E+00  0.00000000000E+00  0.56010652268E+03  0.56010652268E+03  0.00000000000E+00 0.  1.
          2   -1    0    0  501    0  0.00000000000E+00 -0.00000000000E+00 -0.13254101380E+04  0.13254101380E+04  0.00000000000E+00 0. -1.
         23    2    1    2    0    0 -0.53437041575E+03 -0.30097619340E+03 -0.40999707771E+03  0.74345586345E+03  0.92144489493E+02 0.  0.
        254    2    1    2    0    0  0.53437041575E+03  0.30097619340E+03 -0.35530653764E+03  0.11420607973E+04  0.89550082006E+03 0.  0.
        -24    2    4    4    0    0  0.39800098875E+03 -0.85559618266E+02 -0.54377150700E+03  0.68401745516E+03  0.80418852421E+02 0.  0.
         24    2    4    4    0    0  0.13636942700E+03  0.38653581167E+03  0.18846496935E+03  0.45804334210E+03  0.79234489012E+02 0.  0.
         13    1    3    3    0    0 -0.42808094137E+03 -0.20014509840E+03 -0.33156637864E+03  0.57727603122E+03  0.00000000000E+00 0. -1.
        -13    1    3    3    0    0 -0.10628947438E+03 -0.10083109500E+03 -0.78430699072E+02  0.16617983223E+03  0.00000000000E+00 0.  1.
          4    1    6    6  502    0  0.29658433667E+02  0.14944521331E+03  0.35698316558E+02  0.15648598746E+03  0.00000000000E+00 0. -1.
          3    1    5    5  503    0  0.25820765860E+03 -0.21954003866E+02 -0.37498030009E+03  0.45581070490E+03  0.00000000000E+00 0. -1.
         -4    1    5    5    0  503  0.13979333015E+03 -0.63605614400E+02 -0.16879120691E+03  0.22820675027E+03  0.00000000000E+00 0.  1.
         -3    1    6    6    0  502  0.10671099334E+03  0.23709059836E+03  0.15276665280E+03  0.30155735464E+03  0.00000000000E+00 0.  1.
<mgrwt>
<rscale>  0 0.17232189E+04</rscale>
<asrwt>0</asrwt>
<pdfrwt beam="1">  1        2 0.20390925E+00 0.17232189E+04</pdfrwt>
<pdfrwt beam="2">  1       -2 0.86170235E-01 0.17232189E+04</pdfrwt>
<totfact> 0.17725223E+01</totfact>
</mgrwt>
</event>
<event>
12    1  0.1541840E-007  0.1169647E+04  0.7818608E-02  0.9139847E-01
         -2   -1    0    0    0  501 -0.00000000000E+00  0.00000000000E+00  0.33643316146E+03  0.33643316146E+03  0.00000000000E+00 0.  1.
          2   -1    0    0  501    0  0.00000000000E+00 -0.00000000000E+00 -0.10166023058E+04  0.10166023058E+04  0.00000000000E+00 0. -1.
         23    2    1    2    0    0 -0.32654344219E+02 -0.66781516474E+02 -0.38581663240E+03  0.40470860000E+03  0.96997422362E+02 0.  0.
        254    2    1    2    0    0  0.32654344219E+02  0.66781516474E+02 -0.29435251198E+03  0.94832686729E+03  0.89841770284E+03 0.  0.
        -24    2    4    4    0    0 -0.39580943302E+03  0.10627151421E+03 -0.29237186109E+03  0.51057301431E+03  0.85116131215E+02 0.  0.
         24    2    4    4    0    0  0.42846377723E+03 -0.39489997734E+02 -0.19806508875E+01  0.43775385297E+03  0.80522322934E+02 0.  0.
         13    1    3    3    0    0 -0.42836719649E+02  0.24334145372E+00 -0.73092353863E+02  0.84720339698E+02  0.00000000000E+00 0.  1.
        -13    1    3    3    0    0  0.10182375429E+02 -0.67024857927E+02 -0.31272427853E+03  0.31998826031E+03  0.00000000000E+00 0. -1.
          4    1    6    6  502    0  0.46462663115E+02  0.19565361616E+02  0.82223913147E+01  0.51080232555E+02  0.00000000000E+00 0. -1.
          1    1    5    5  503    0 -0.30500255711E+03  0.51490812773E+02 -0.24419162670E+03  0.39409061673E+03  0.00000000000E+00 0. -1.
         -2    1    5    5    0  503 -0.90806875903E+02  0.54780701434E+02 -0.48180234390E+02  0.11648239758E+03  0.00000000000E+00 0.  1.
         -3    1    6    6    0  502  0.38200111412E+03 -0.59055359349E+02 -0.10203042202E+02  0.38667362042E+03  0.00000000000E+00 0.  1.
<mgrwt>
<rscale>  0 0.11696473E+04</rscale>
<asrwt>0</asrwt>
<pdfrwt beam="1">  1        2 0.15640035E+00 0.11696473E+04</pdfrwt>
<pdfrwt beam="2">  1       -2 0.51758949E-01 0.11696473E+04</pdfrwt>
<totfact> 0.85653020E+01</totfact>
</mgrwt>
</event>
<event>
12    1  0.1541840E-007  0.1401820E+04  0.7818608E-02  0.8952502E-01
          2   -1    0    0  501    0  0.00000000000E+00  0.00000000000E+00  0.30461883520E+04  0.30461883520E+04  0.00000000000E+00 0. -1.
         -2   -1    0    0    0  501 -0.00000000000E+00 -0.00000000000E+00 -0.16127522869E+03  0.16127522869E+03  0.00000000000E+00 0.  1.
         23    2    1    2    0    0 -0.71757366206E+02 -0.13370668551E+03 -0.39905831144E+01  0.17694320263E+03  0.90919606508E+02 0.  0.
        254    2    1    2    0    0  0.71757366206E+02  0.13370668551E+03  0.28889037064E+04  0.30305203781E+04  0.90291889975E+03 0.  0.
        -24    2    4    4    0    0  0.40634582010E+03  0.30689824282E+03  0.19173694492E+04  0.19853554565E+04  0.77635217883E+02 0.  0.
         24    2    4    4    0    0 -0.33458845389E+03 -0.17319155731E+03  0.97153425725E+03  0.10451649216E+04  0.80908289220E+02 0.  0.
         13    1    3    3    0    0 -0.16673167725E+02 -0.11131485439E+03 -0.22263634246E+02  0.11473735547E+03  0.00000000000E+00 0.  1.
        -13    1    3    3    0    0 -0.55084198481E+02 -0.22391831119E+02  0.18273051131E+02  0.62205847159E+02  0.00000000000E+00 0. -1.
          4    1    6    6  502    0 -0.86290474496E+02 -0.23029381909E+02  0.31389803114E+03  0.32635620474E+03  0.00000000000E+00 0. -1.
          1    1    5    5  503    0  0.21557053264E+03  0.11974248811E+03  0.85105445786E+03  0.88606016063E+03  0.00000000000E+00 0. -1.
         -2    1    5    5    0  503  0.19077528746E+03  0.18715575471E+03  0.10663149913E+04  0.10992952959E+04  0.00000000000E+00 0.  1.
         -3    1    6    6    0  502 -0.24829797940E+03 -0.15016217540E+03  0.65763622611E+03  0.71880871683E+03  0.00000000000E+00 0.  1.
<mgrwt>
<rscale>  0 0.14018199E+04</rscale>
<asrwt>0</asrwt>
<pdfrwt beam="1">  1        2 0.46864432E+00 0.14018199E+04</pdfrwt>
<pdfrwt beam="2">  1       -2 0.24811576E-01 0.14018199E+04</pdfrwt>
<totfact> 0.23273278E+01</totfact>
</mgrwt>
</event>
<event>
12    1  0.1541840E-007  0.2203654E+04  0.7818608E-02  0.8516909E-01
         -2   -1    0    0    0  501 -0.00000000000E+00  0.00000000000E+00  0.22621664013E+04  0.22621664013E+04  0.00000000000E+00 0.  1.
          2   -1    0    0  501    0  0.00000000000E+00 -0.00000000000E+00 -0.53666355894E+03  0.53666355894E+03  0.00000000000E+00 0. -1.
         23    2    1    2    0    0  0.86900908194E+03  0.14727868620E+03  0.10169565026E+04  0.13488278076E+04  0.90929260451E+02 0.  0.
        254    2    1    2    0    0 -0.86900908194E+03 -0.14727868620E+03  0.70854633973E+03  0.14500021526E+04  0.90752439705E+03 0.  0.
        -24    2    4    4    0    0  0.71321465093E+02 -0.10551928025E+03 -0.12070786930E+03  0.19299960334E+03  0.80357870117E+02 0.  0.
         24    2    4    4    0    0 -0.94033054703E+03 -0.41759405951E+02  0.82925420903E+03  0.12570025493E+04  0.80171566708E+02 0.  0.
         13    1    3    3    0    0  0.65676100587E+03  0.14257999536E+03  0.80769764746E+03  0.10507328698E+04  0.00000000000E+00 0.  1.
        -13    1    3    3    0    0  0.21224807607E+03  0.46986908407E+01  0.20925885519E+03  0.29809493784E+03  0.00000000000E+00 0. -1.
          2    1    6    6  502    0 -0.82722539672E+03 -0.13095240411E+02  0.74174919877E+03  0.11111549020E+04  0.00000000000E+00 0. -1.
          3    1    5    5  503    0  0.14790157390E+02 -0.78922844894E+02 -0.97605124612E+02  0.12638957454E+03  0.00000000000E+00 0. -1.
         -4    1    5    5    0  503  0.56531307703E+02 -0.26596435356E+02 -0.23102744688E+02  0.66610028797E+02  0.00000000000E+00 0.  1.
         -1    1    6    6    0  502 -0.11310515032E+03 -0.28664165540E+02  0.87505010263E+02  0.14584764734E+03  0.00000000000E+00 0.  1.
<mgrwt>
<rscale>  0 0.22036536E+04</rscale>
<asrwt>0</asrwt>
<pdfrwt beam="1">  1        2 0.82563626E-01 0.22036536E+04</pdfrwt>
<pdfrwt beam="2">  1       -2 0.34802559E+00 0.22036536E+04</pdfrwt>
<totfact> 0.83028847E-01</totfact>
</mgrwt>
</event>
<event>
12    1  0.1541840E-007  0.2906443E+04  0.7818608E-02  0.8270963E-01
          1   -1    0    0  501    0  0.00000000000E+00  0.00000000000E+00  0.29180977369E+04  0.29180977369E+04  0.00000000000E+00 0.  1.
         -1   -1    0    0    0  501 -0.00000000000E+00 -0.00000000000E+00 -0.72370866756E+03  0.72370866756E+03  0.00000000000E+00 0. -1.
         23    2    1    2    0    0  0.99193836158E+03 -0.55034845631E+03  0.16483482625E+03  0.11498972221E+04  0.90928350329E+02 0.  0.
        254    2    1    2    0    0 -0.99193836158E+03  0.55034845631E+03  0.20295542431E+04  0.24919091823E+04  0.89649083147E+03 0.  0.
        -24    2    4    4    0    0 -0.93279040852E+03  0.66977095562E+03  0.20333025068E+04  0.23366130407E+04  0.82160442983E+02 0.  0.
         24    2    4    4    0    0 -0.59147953064E+02 -0.11942249931E+03 -0.37482637950E+01  0.15529614162E+03  0.79640620468E+02 0.  0.
         11    1    3    3    0    0  0.40645483197E+03 -0.26581979334E+03  0.98694769116E+02  0.49558687474E+03  0.00000000000E+00 0.  1.
        -11    1    3    3    0    0  0.58548352961E+03 -0.28452866297E+03  0.66140057137E+02  0.65431034735E+03  0.00000000000E+00 0. -1.
          2    1    6    6  502    0 -0.15527190115E+02  0.19504891637E+01  0.18699368687E+02  0.24383691890E+02  0.00000000000E+00 0. -1.
          3    1    5    5  503    0 -0.10740166644E+03  0.81602511270E+02  0.29607149695E+03  0.32534968743E+03  0.00000000000E+00 0. -1.
         -4    1    5    5    0  503 -0.82538874208E+03  0.58816844435E+03  0.17372310099E+04  0.20112633533E+04  0.00000000000E+00 0.  1.
         -1    1    6    6    0  502 -0.43620762949E+02 -0.12137298847E+03 -0.22447632482E+02  0.13091244973E+03  0.00000000000E+00 0.  1.
<mgrwt>
<rscale>  0 0.29064429E+04</rscale>
<asrwt>0</asrwt>
<pdfrwt beam="1">  1        1 0.44893811E+00 0.29064429E+04</pdfrwt>
<pdfrwt beam="2">  1       -1 0.11133980E+00 0.29064429E+04</pdfrwt>
<totfact> 0.43583592E-01</totfact>
</mgrwt>
</event>
<event>
12    1  0.1541840E-007  0.1904767E+04  0.7818608E-02  0.8652487E-01
         -2   -1    0    0    0  501 -0.00000000000E+00  0.00000000000E+00  0.62538674234E+03  0.62538674234E+03  0.00000000000E+00 0. -1.
          2   -1    0    0  501    0  0.00000000000E+00 -0.00000000000E+00 -0.14503578417E+04  0.14503578417E+04  0.00000000000E+00 0.  1.
         23    2    1    2    0    0 -0.94706345468E+02  0.68440429663E+02 -0.11116252578E+04  0.11215712983E+04  0.92509885919E+02 0.  0.
        254    2    1    2    0    0  0.94706345468E+02 -0.68440429663E+02  0.28665415840E+03  0.95417328582E+03  0.90256449552E+03 0.  0.
        -24    2    4    4    0    0  0.11999594536E+03 -0.49302405622E+02 -0.31275215142E+03  0.34866063048E+03  0.83189980931E+02 0.  0.
         24    2    4    4    0    0 -0.25289599895E+02 -0.19138024041E+02  0.59940630982E+03  0.60551265534E+03  0.79698329322E+02 0.  0.
         11    1    3    3    0    0 -0.94669100630E+02  0.25477874859E+02 -0.58134791931E+03  0.58955641291E+03  0.00000000000E+00 0. -1.
        -11    1    3    3    0    0 -0.37244838420E-01  0.42962554803E+02 -0.53027733850E+03  0.53201488535E+03  0.00000000000E+00 0.  1.
          4    1    6    6  502    0 -0.51819645782E+01 -0.62570153632E+01  0.55527867921E+03  0.55533810835E+03  0.00000000000E+00 0. -1.
          3    1    5    5  503    0  0.55653409692E+02  0.20297381484E+02 -0.11460602708E+03  0.12901095747E+03  0.00000000000E+00 0. -1.
         -4    1    5    5    0  503  0.64342535671E+02 -0.69599787106E+02 -0.19814612434E+03  0.21964967301E+03  0.00000000000E+00 0.  1.
         -3    1    6    6    0  502 -0.20107635316E+02 -0.12881008677E+02  0.44127630613E+02  0.50174546995E+02  0.00000000000E+00 0.  1.
<mgrwt>
<rscale>  0 0.19047672E+04</rscale>
<asrwt>0</asrwt>
<pdfrwt beam="1">  1        2 0.22313197E+00 0.19047672E+04</pdfrwt>
<pdfrwt beam="2">  1       -2 0.96213346E-01 0.19047672E+04</pdfrwt>
<totfact> 0.11472631E+01</totfact>
</mgrwt>
</event>
<event>
12    1  0.1541840E-007  0.1495465E+04  0.7818608E-02  0.8887474E-01
         -2   -1    0    0    0  501 -0.00000000000E+00  0.00000000000E+00  0.41243188153E+03  0.41243188153E+03  0.00000000000E+00 0.  1.
          2   -1    0    0  501    0  0.00000000000E+00 -0.00000000000E+00 -0.13556266702E+04  0.13556266702E+04  0.00000000000E+00 0. -1.
         23    2    1    2    0    0  0.31654121671E+03 -0.19673276696E+03  0.35834461697E+02  0.38651987556E+03  0.95975945365E+02 0.  0.
        254    2    1    2    0    0 -0.31654121671E+03  0.19673276696E+03 -0.97902925037E+03  0.13815386762E+04  0.90069346462E+03 0.  0.
        -24    2    4    4    0    0 -0.41260775432E+03 -0.55339610436E+02 -0.69579449251E+02  0.42979698547E+03  0.81095730829E+02 0.  0.
         24    2    4    4    0    0  0.96066537605E+02  0.25207237740E+03 -0.90944980112E+03  0.95174169070E+03  0.77097613268E+02 0.  0.
         11    1    3    3    0    0  0.12635754199E+03 -0.71227118354E+02  0.60832348059E+02  0.15728987690E+03  0.00000000000E+00 0. -1.
        -11    1    3    3    0    0  0.19018367472E+03 -0.12550564861E+03 -0.24997886362E+02  0.22922999866E+03  0.00000000000E+00 0.  1.
          2    1    6    6  502    0  0.63480016737E+02  0.20829234035E+03 -0.80451896610E+03  0.83346636309E+03  0.00000000000E+00 0. -1.
          1    1    5    5  503    0 -0.18178466193E+03 -0.51820103920E+02 -0.11910538369E+01  0.18903016979E+03  0.00000000000E+00 0. -1.
         -2    1    5    5    0  503 -0.23082309239E+03 -0.35195065164E+01 -0.68388395414E+02  0.24076681568E+03  0.00000000000E+00 0.  1.
         -1    1    6    6    0  502  0.32586520868E+02  0.43780037041E+02 -0.10493083501E+03  0.11827532761E+03  0.00000000000E+00 0.  1.
<mgrwt>
<rscale>  0 0.14954647E+04</rscale>
<asrwt>0</asrwt>
<pdfrwt beam="1">  1        2 0.20855795E+00 0.14954647E+04</pdfrwt>
<pdfrwt beam="2">  1       -2 0.63451058E-01 0.14954647E+04</pdfrwt>
<totfact> 0.34101329E+01</totfact>
</mgrwt>
</event>
<event>
12    1  0.1852851E-007  0.2115478E+04  0.7818608E-02  0.8554456E-01
          1   -1    0    0  501    0  0.00000000000E+00  0.00000000000E+00  0.11105184118E+04  0.11105184118E+04  0.00000000000E+00 0. -1.
         -1   -1    0    0    0  501 -0.00000000000E+00 -0.00000000000E+00 -0.10074679164E+04  0.10074679164E+04  0.00000000000E+00 0.  1.
         23    2    1    2    0    0 -0.49061168305E+02  0.11785391484E+03  0.92935865258E+03  0.94266069177E+03  0.92763846364E+02 0.  0.
        254    2    1    2    0    0  0.49061168305E+02 -0.11785391484E+03 -0.82630815716E+03  0.11753256365E+04  0.82601975621E+03 0.  0.
        -24    2    4    4    0    0  0.28450750795E+03 -0.28544040396E+03 -0.15375901284E+03  0.43872020900E+03  0.80080218912E+02 0.  0.
         24    2    4    4    0    0 -0.23544633965E+03  0.16758648913E+03 -0.67254914432E+03  0.73660542746E+03  0.82127912737E+02 0.  0.
         11    1    3    3    0    0  0.87979403487E+01  0.87288117073E+02  0.41613268212E+03  0.42527994106E+03  0.00000000000E+00 0. -1.
        -11    1    3    3    0    0 -0.57859108653E+02  0.30565797762E+02  0.51322597046E+03  0.51738075071E+03  0.00000000000E+00 0.  1.
          4    1    6    6  502    0 -0.21690033341E+03  0.16475852826E+03 -0.56260771016E+03  0.62507484576E+03  0.00000000000E+00 0. -1.
          1    1    5    5  503    0  0.28990072455E+03 -0.27929941249E+03 -0.15238708822E+03  0.43043282469E+03  0.00000000000E+00 0. -1.
         -2    1    5    5    0  503 -0.53932166005E+01 -0.61409914739E+01 -0.13719246170E+01  0.82873843122E+01  0.00000000000E+00 0.  1.
         -1    1    6    6    0  502 -0.18546006237E+02  0.28279608615E+01 -0.10994143416E+03  0.11153058170E+03  0.00000000000E+00 0.  1.
<mgrwt>
<rscale>  0 0.21154779E+04</rscale>
<asrwt>0</asrwt>
<pdfrwt beam="1">  1        1 0.17084899E+00 0.21154779E+04</pdfrwt>
<pdfrwt beam="2">  1       -1 0.15499506E+00 0.21154779E+04</pdfrwt>
<totfact> 0.36495915E+00</totfact>
</mgrwt>
</event>
<event>
12    1  0.1541840E-007  0.2191852E+04  0.7818608E-02  0.8521827E-01
         -2   -1    0    0    0  501 -0.00000000000E+00  0.00000000000E+00  0.41846952121E+03  0.41846952121E+03  0.00000000000E+00 0.  1.
          2   -1    0    0  501    0  0.00000000000E+00 -0.00000000000E+00 -0.28701117531E+04  0.28701117531E+04  0.00000000000E+00 0. -1.
         23    2    1    2    0    0 -0.49822965027E+03 -0.36706589908E+03 -0.20123228482E+04  0.21073319956E+04  0.91840817400E+02 0.  0.
        254    2    1    2    0    0  0.49822965027E+03  0.36706589908E+03 -0.43931938375E+03  0.11812492787E+04  0.90519510543E+03 0.  0.
        -24    2    4    4    0    0 -0.13355801810E+03  0.36510273979E+03  0.14950037954E+02  0.39897338866E+03  0.88422318581E+02 0.  0.
         24    2    4    4    0    0  0.63178766836E+03  0.19631592888E+01 -0.45426942171E+03  0.78227589007E+03  0.80220625782E+02 0.  0.
         11    1    3    3    0    0 -0.25053910988E+03 -0.15760785726E+03 -0.82477984878E+03  0.87628299150E+03  0.00000000000E+00 0. -1.
        -11    1    3    3    0    0 -0.24769054039E+03 -0.20945804183E+03 -0.11875429994E+04  0.12310490041E+04  0.00000000000E+00 0.  1.
          2    1    6    6  502    0  0.50149716452E+02 -0.45800557425E+01 -0.12570203397E+02  0.51903573907E+02  0.00000000000E+00 0. -1.
          1    1    5    5  503    0 -0.63543682481E+02  0.18849540061E+03 -0.36299458935E+02  0.20220278522E+03  0.00000000000E+00 0. -1.
         -2    1    5    5    0  503 -0.70014335614E+02  0.17660733919E+03  0.51249496889E+02  0.19677060344E+03  0.00000000000E+00 0.  1.
         -1    1    6    6    0  502  0.58163795191E+03  0.65432150313E+01 -0.44169921831E+03  0.73037231617E+03  0.00000000000E+00 0.  1.
<mgrwt>
<rscale>  0 0.21918525E+04</rscale>
<asrwt>0</asrwt>
<pdfrwt beam="1">  1        2 0.44155565E+00 0.21918525E+04</pdfrwt>
<pdfrwt beam="2">  1       -2 0.64379927E-01 0.21918525E+04</pdfrwt>
<totfact> 0.42758902E+00</totfact>
</mgrwt>
</event>
<event>
12    1  0.1541840E-007  0.1458566E+04  0.7818608E-02  0.8912483E-01
          1   -1    0    0  501    0  0.00000000000E+00  0.00000000000E+00  0.11746428164E+04  0.11746428164E+04  0.00000000000E+00 0. -1.
         -1   -1    0    0    0  501 -0.00000000000E+00 -0.00000000000E+00 -0.45277896374E+03  0.45277896374E+03  0.00000000000E+00 0.  1.
         23    2    1    2    0    0  0.38572940288E+03  0.19955643676E+03  0.10041202965E+03  0.45477990456E+03  0.90178945405E+02 0.  0.
        254    2    1    2    0    0 -0.38572940288E+03 -0.19955643676E+03  0.62145182298E+03  0.11726418756E+04  0.89458183321E+03 0.  0.
        -24    2    4    4    0    0 -0.44103842296E+03  0.19259297757E+03  0.76738629165E+02  0.49429356977E+03  0.82646054797E+02 0.  0.
         24    2    4    4    0    0  0.55309020083E+02 -0.39214941433E+03  0.54471319382E+03  0.67834830578E+03  0.81263211699E+02 0.  0.
         13    1    3    3    0    0  0.14934573795E+03  0.39566960382E+02  0.63213086772E+02  0.16692988988E+03  0.00000000000E+00 0. -1.
        -13    1    3    3    0    0  0.23638366494E+03  0.15998947637E+03  0.37198942878E+02  0.28785001468E+03  0.00000000000E+00 0.  1.
          4    1    6    6  502    0  0.87216712853E+01 -0.28060435317E+03  0.41501368610E+03  0.50105012745E+03  0.00000000000E+00 0. -1.
          3    1    5    5  503    0 -0.72867584099E+02  0.15577777541E+02 -0.14012647180E+02  0.75820223203E+02  0.00000000000E+00 0. -1.
         -4    1    5    5    0  503 -0.36817083886E+03  0.17701520003E+03  0.90751276345E+02  0.41847334657E+03  0.00000000000E+00 0.  1.
         -1    1    6    6    0  502  0.46587348797E+02 -0.11154506116E+03  0.12969950771E+03  0.17729817833E+03  0.00000000000E+00 0.  1.
<mgrwt>
<rscale>  0 0.14585658E+04</rscale>
<asrwt>0</asrwt>
<pdfrwt beam="1">  1        1 0.18071428E+00 0.14585658E+04</pdfrwt>
<pdfrwt beam="2">  1       -1 0.69658303E-01 0.14585658E+04</pdfrwt>
<totfact> 0.22563445E+01</totfact>
</mgrwt>
</event>
<event>
12    1  0.1541840E-007  0.3219821E+04  0.7818608E-02  0.8183602E-01
         -2   -1    0    0    0  501 -0.00000000000E+00  0.00000000000E+00  0.16834108596E+04  0.16834108596E+04  0.00000000000E+00 0.  1.
          2   -1    0    0  501    0  0.00000000000E+00 -0.00000000000E+00 -0.15396193756E+04  0.15396193756E+04  0.00000000000E+00 0. -1.
         23    2    1    2    0    0  0.17781659361E+03  0.14605392256E+04  0.78635933587E+02  0.14762539626E+04  0.91370571918E+02 0.  0.
        254    2    1    2    0    0 -0.17781659361E+03 -0.14605392256E+04  0.65155550375E+02  0.17467762726E+04  0.93924891812E+03 0.  0.
        -24    2    4    4    0    0  0.38332936771E+02 -0.44955676435E+03  0.44837594584E+03  0.64116818815E+03  0.80529238640E+02 0.  0.
         24    2    4    4    0    0 -0.21614953038E+03 -0.10109824613E+04 -0.38322039547E+03  0.11056080844E+04  0.81885336796E+02 0.  0.
         11    1    3    3    0    0  0.18833638046E+03  0.13980892925E+04  0.78921985612E+02  0.14129235442E+04  0.00000000000E+00 0.  1.
        -11    1    3    3    0    0 -0.10519786851E+02  0.62449933119E+02 -0.28605202515E+00  0.63330418344E+02  0.00000000000E+00 0. -1.
          4    1    6    6  502    0 -0.43530955059E+02 -0.16028960012E+03 -0.92925892123E+02  0.19032320242E+03  0.00000000000E+00 0. -1.
          3    1    5    5  503    0  0.39754290899E+02 -0.11765120403E+03  0.94958003224E+02  0.15633052111E+03  0.00000000000E+00 0. -1.
         -4    1    5    5    0  503 -0.14213541281E+01 -0.33190556032E+03  0.35341794262E+03  0.48483766704E+03  0.00000000000E+00 0.  1.
         -3    1    6    6    0  502 -0.17261857533E+03 -0.85069286115E+03 -0.29029450334E+03  0.91528488200E+03  0.00000000000E+00 0.  1.
<mgrwt>
<rscale>  0 0.32198211E+04</rscale>
<asrwt>0</asrwt>
<pdfrwt beam="1">  1        2 0.23686452E+00 0.32198211E+04</pdfrwt>
<pdfrwt beam="2">  1       -2 0.25898629E+00 0.32198211E+04</pdfrwt>
<totfact> 0.57368061E-01</totfact>
</mgrwt>
</event>
<event>
12    1  0.1541840E-007  0.1600860E+04  0.7818608E-02  0.8820020E-01
          1   -1    0    0  501    0  0.00000000000E+00  0.00000000000E+00  0.88434021871E+03  0.88434021871E+03  0.00000000000E+00 0. -1.
         -1   -1    0    0    0  501 -0.00000000000E+00 -0.00000000000E+00 -0.72448115733E+03  0.72448115733E+03  0.00000000000E+00 0.  1.
         23    2    1    2    0    0 -0.52477587332E+03 -0.95360005070E+02  0.15666930147E+03  0.56351197250E+03  0.92288814822E+02 0.  0.
        254    2    1    2    0    0  0.52477587332E+03  0.95360005070E+02  0.31897599034E+01  0.10453094035E+04  0.89898738968E+03 0.  0.
        -24    2    4    4    0    0  0.49223977729E+03  0.31471056617E+03 -0.29926378546E+03  0.66181642394E+03  0.84258096994E+02 0.  0.
         24    2    4    4    0    0  0.32536096031E+02 -0.21935056110E+03  0.30245354536E+03  0.38349297961E+03  0.80096517459E+02 0.  0.
         13    1    3    3    0    0 -0.40708965809E+03 -0.84350377217E+02  0.15948612763E+03  0.44527834078E+03  0.00000000000E+00 0. -1.
        -13    1    3    3    0    0 -0.11768621522E+03 -0.11009627852E+02 -0.28168261547E+01  0.11823363172E+03  0.00000000000E+00 0.  1.
          2    1    6    6  502    0  0.14407217776E+02 -0.18592172168E+03  0.28739136420E+03  0.34259050006E+03  0.00000000000E+00 0. -1.
          1    1    5    5  503    0  0.30363558813E+03  0.19042647185E+03 -0.22878127998E+03  0.42520311103E+03  0.00000000000E+00 0. -1.
         -2    1    5    5    0  503  0.18860418915E+03  0.12428409432E+03 -0.70482505477E+02  0.23661331291E+03  0.00000000000E+00 0.  1.
         -1    1    6    6    0  502  0.18128878254E+02 -0.33428839421E+02  0.15062181159E+02  0.40902479547E+02  0.00000000000E+00 0.  1.
<mgrwt>
<rscale>  0 0.16008596E+04</rscale>
<asrwt>0</asrwt>
<pdfrwt beam="1">  1        1 0.13605234E+00 0.16008596E+04</pdfrwt>
<pdfrwt beam="2">  1       -1 0.11145864E+00 0.16008596E+04</pdfrwt>
<totfact> 0.13307821E+01</totfact>
</mgrwt>
</event>
<event>
12    1  0.1541840E-007  0.1654651E+04  0.7818608E-02  0.8787660E-01
         -2   -1    0    0    0  501 -0.00000000000E+00  0.00000000000E+00  0.84816099193E+03  0.84816099193E+03  0.00000000000E+00 0.  1.
          2   -1    0    0  501    0  0.00000000000E+00 -0.00000000000E+00 -0.80700194119E+03  0.80700194119E+03  0.00000000000E+00 0. -1.
         23    2    1    2    0    0 -0.70388861625E+02  0.13997697497E+03 -0.52162076698E+03  0.54986691206E+03  0.75612506061E+02 0.  0.
        254    2    1    2    0    0  0.70388861625E+02 -0.13997697497E+03  0.56277981771E+03  0.11052960211E+04  0.93830167089E+03 0.  0.
        -24    2    4    4    0    0 -0.34322286981E+03 -0.39724009986E+02  0.57127993035E+03  0.67245689723E+03  0.80359097069E+02 0.  0.
         24    2    4    4    0    0  0.41361173143E+03 -0.10025296499E+03 -0.85001126355E+01  0.43283912383E+03  0.78435539385E+02 0.  0.
         11    1    3    3    0    0 -0.25252082720E+02  0.11990694834E+03 -0.40721723047E+03  0.42525429655E+03  0.00000000000E+00 0. -1.
        -11    1    3    3    0    0 -0.45136778906E+02  0.20070026631E+02 -0.11440353651E+03  0.12461261551E+03  0.00000000000E+00 0.  1.
          4    1    6    6  502    0  0.36851787191E+03 -0.86394435710E+02  0.17612403958E+02  0.37891901142E+03  0.00000000000E+00 0. -1.
          3    1    5    5  503    0 -0.20946232071E+03  0.46625798834E+01  0.28905328479E+03  0.35699860629E+03  0.00000000000E+00 0. -1.
         -4    1    5    5    0  503 -0.13376054910E+03 -0.44386589869E+02  0.28222664556E+03  0.31545829094E+03  0.00000000000E+00 0.  1.
         -3    1    6    6    0  502  0.45093859524E+02 -0.13858529277E+02 -0.26112516593E+02  0.53920112419E+02  0.00000000000E+00 0.  1.
<mgrwt>
<rscale>  0 0.16546511E+04</rscale>
<asrwt>0</asrwt>
<pdfrwt beam="1">  1        2 0.12415414E+00 0.16546511E+04</pdfrwt>
<pdfrwt beam="2">  1       -2 0.13048631E+00 0.16546511E+04</pdfrwt>
<totfact> 0.13984541E+01</totfact>
</mgrwt>
</event>
<event>
12    1  0.1541840E-007  0.1945038E+04  0.7818608E-02  0.8632757E-01
         -2   -1    0    0    0  501 -0.00000000000E+00  0.00000000000E+00  0.40162766916E+03  0.40162766916E+03  0.00000000000E+00 0.  1.
          2   -1    0    0  501    0  0.00000000000E+00 -0.00000000000E+00 -0.23549000178E+04  0.23549000178E+04  0.00000000000E+00 0. -1.
         23    2    1    2    0    0  0.14910289474E+03 -0.68891152210E+03 -0.11855033413E+04  0.13821990824E+04  0.90693840763E+02 0.  0.
        254    2    1    2    0    0 -0.14910289474E+03  0.68891152210E+03 -0.76776900736E+03  0.13743286045E+04  0.89581198143E+03 0.  0.
        -24    2    4    4    0    0 -0.31674268464E+03 -0.73357237688E+02 -0.11431898722E+03  0.35333074156E+03  0.77888185873E+02 0.  0.
         24    2    4    4    0    0  0.16763978989E+03  0.76226875979E+03 -0.65345002014E+03  0.10209978630E+04  0.79265036847E+02 0.  0.
         13    1    3    3    0    0  0.12808149550E+03 -0.64285568696E+03 -0.10530025827E+04  0.12403558937E+04  0.00000000000E+00 0.  1.
        -13    1    3    3    0    0  0.21021399245E+02 -0.46055835144E+02 -0.13250075853E+03  0.14184318873E+03  0.00000000000E+00 0. -1.
          4    1    6    6  502    0 -0.17101012837E+00  0.28070304986E+01  0.23309421640E+01  0.36526642408E+01  0.00000000000E+00 0. -1.
          3    1    5    5  503    0 -0.30585557452E+02  0.15997056890E+02 -0.10468186981E+02  0.36068893696E+02  0.00000000000E+00 0. -1.
         -4    1    5    5    0  503 -0.28615712718E+03 -0.89354294578E+02 -0.10385080024E+03  0.31726184786E+03  0.00000000000E+00 0.  1.
         -3    1    6    6    0  502  0.16781080002E+03  0.75946172929E+03 -0.65578096231E+03  0.10173451987E+04  0.00000000000E+00 0.  1.
<mgrwt>
<rscale>  0 0.19450378E+04</rscale>
<asrwt>0</asrwt>
<pdfrwt beam="1">  1        2 0.36229231E+00 0.19450378E+04</pdfrwt>
<pdfrwt beam="2">  1       -2 0.61788872E-01 0.19450378E+04</pdfrwt>
<totfact> 0.95831253E+00</totfact>
</mgrwt>
</event>
<event>
12    1  0.1541840E-007  0.2132724E+04  0.7818608E-02  0.8546964E-01
          1   -1    0    0  501    0  0.00000000000E+00  0.00000000000E+00  0.13162955460E+04  0.13162955460E+04  0.00000000000E+00 0. -1.
         -1   -1    0    0    0  501 -0.00000000000E+00 -0.00000000000E+00 -0.86388507244E+03  0.86388507244E+03  0.00000000000E+00 0.  1.
         23    2    1    2    0    0  0.37189878309E+03  0.76969028364E+03  0.35906034463E+03  0.93166494328E+03  0.91342201912E+02 0.  0.
        254    2    1    2    0    0 -0.37189878309E+03 -0.76969028364E+03  0.93350128881E+02  0.12485156751E+04  0.90517694782E+03 0.  0.
        -24    2    4    4    0    0 -0.61408423665E+03 -0.25392218794E+03  0.64341992263E+02  0.67237778751E+03  0.79850297028E+02 0.  0.
         24    2    4    4    0    0  0.24218545356E+03 -0.51576809569E+03  0.29008136618E+02  0.57613788761E+03  0.80142816882E+02 0.  0.
         11    1    3    3    0    0  0.92737865360E+02  0.17592529501E+03  0.12579187817E+03  0.23531599544E+03  0.00000000000E+00 0.  1.
        -11    1    3    3    0    0  0.27916091773E+03  0.59376498863E+03  0.23326846646E+03  0.69634894784E+03  0.00000000000E+00 0. -1.
          4    1    6    6  502    0  0.24956542154E+02 -0.11329949546E+03  0.25447466252E+02  0.11877364273E+03  0.00000000000E+00 0. -1.
          3    1    5    5  503    0 -0.14635497010E+03 -0.24934436375E+02  0.17821054715E+02  0.14952957361E+03  0.00000000000E+00 0. -1.
         -4    1    5    5    0  503 -0.46772926654E+03 -0.22898775157E+03  0.46520937548E+02  0.52284821390E+03  0.00000000000E+00 0.  1.
         -3    1    6    6    0  502  0.21722891140E+03 -0.40246860023E+03  0.35606703658E+01  0.45736424488E+03  0.00000000000E+00 0.  1.
<mgrwt>
<rscale>  0 0.21327241E+04</rscale>
<asrwt>0</asrwt>
<pdfrwt beam="1">  1        1 0.20250701E+00 0.21327241E+04</pdfrwt>
<pdfrwt beam="2">  1       -1 0.13290540E+00 0.21327241E+04</pdfrwt>
<totfact> 0.38723216E+00</totfact>
</mgrwt>
</event>
<event>
12    1  0.1541840E-007  0.1787246E+04  0.7818608E-02  0.8713111E-01
         -2   -1    0    0    0  501 -0.00000000000E+00  0.00000000000E+00  0.34539897492E+03  0.34539897492E+03  0.00000000000E+00 0. -1.
          2   -1    0    0  501    0  0.00000000000E+00 -0.00000000000E+00 -0.23120002027E+04  0.23120002027E+04  0.00000000000E+00 0.  1.
         23    2    1    2    0    0 -0.43464840837E+03 -0.24200556828E+03 -0.13764046874E+04  0.14663690721E+04  0.90898064914E+02 0.  0.
        254    2    1    2    0    0  0.43464840837E+03  0.24200556828E+03 -0.59019654032E+03  0.11910301054E+04  0.90704730961E+03 0.  0.
        -24    2    4    4    0    0 -0.47442577342E+02  0.25343118584E+03  0.14635524777E+03  0.30695892961E+03  0.79534657964E+02 0.  0.
         24    2    4    4    0    0  0.48209098571E+03 -0.11425617556E+02 -0.73655178810E+03  0.88407117582E+03  0.80814875700E+02 0.  0.
         11    1    3    3    0    0 -0.13311512835E+03 -0.65355269627E+02 -0.29990100742E+03  0.33456174754E+03  0.00000000000E+00 0. -1.
        -11    1    3    3    0    0 -0.30153328001E+03 -0.17665029866E+03 -0.10765036800E+04  0.11318073246E+04  0.00000000000E+00 0.  1.
          4    1    6    6  502    0  0.21923191266E+03 -0.38051059600E+02 -0.29492891214E+03  0.36945037270E+03  0.00000000000E+00 0. -1.
          1    1    5    5  503    0 -0.36636105312E+02  0.19096945745E+03  0.14667672083E+03  0.24356846743E+03  0.00000000000E+00 0. -1.
         -2    1    5    5    0  503 -0.10806472030E+02  0.62461728391E+02 -0.32147305736E+00  0.63390462187E+02  0.00000000000E+00 0.  1.
         -3    1    6    6    0  502  0.26285907305E+03  0.26625442044E+02 -0.44162287595E+03  0.51462080313E+03  0.00000000000E+00 0.  1.
<mgrwt>
<rscale>  0 0.17872465E+04</rscale>
<asrwt>0</asrwt>
<pdfrwt beam="1">  1        2 0.35569234E+00 0.17872465E+04</pdfrwt>
<pdfrwt beam="2">  1       -2 0.53138303E-01 0.17872465E+04</pdfrwt>
<totfact> 0.14092025E+01</totfact>
</mgrwt>
</event>
<event>
12    1  0.1541840E-007  0.1149124E+04  0.7818608E-02  0.9158592E-01
         -1   -1    0    0    0  501 -0.00000000000E+00  0.00000000000E+00  0.13367737631E+04  0.13367737631E+04  0.00000000000E+00 0.  1.
          1   -1    0    0  501    0  0.00000000000E+00 -0.00000000000E+00 -0.24695396733E+03  0.24695396733E+03  0.00000000000E+00 0. -1.
         23    2    1    2    0    0 -0.15039085303E+03  0.11407795704E+03  0.10234209153E+03  0.23346334901E+03  0.91651746698E+02 0.  0.
        254    2    1    2    0    0  0.15039085303E+03 -0.11407795704E+03  0.98747770427E+03  0.13502643815E+04  0.90137145197E+03 0.  0.
        -24    2    4    4    0    0  0.59169279971E+01 -0.24699257181E+03  0.10862742327E+04  0.11168460380E+04  0.79454536360E+02 0.  0.
         24    2    4    4    0    0  0.14447392503E+03  0.13291461477E+03 -0.98796528414E+02  0.23341834349E+03  0.78640696963E+02 0.  0.
         13    1    3    3    0    0 -0.11378027121E+03  0.52949019030E+02  0.10277168667E+03  0.16220841012E+03  0.00000000000E+00 0.  1.
        -13    1    3    3    0    0 -0.36610581819E+02  0.61128938015E+02 -0.42959513785E+00  0.71254938888E+02  0.00000000000E+00 0. -1.
          2    1    6    6  502    0  0.62090854574E+02  0.16142904006E+02 -0.93668484783E+01  0.64835217451E+02  0.00000000000E+00 0. -1.
          1    1    5    5  503    0 -0.18609883702E+02 -0.11364776977E+02  0.11920397883E+03  0.12118198916E+03  0.00000000000E+00 0. -1.
         -2    1    5    5    0  503  0.24526811699E+02 -0.23562779483E+03  0.96707025385E+03  0.99566404880E+03  0.00000000000E+00 0.  1.
         -1    1    6    6    0  502  0.82383070455E+02  0.11677171076E+03 -0.89429679936E+02  0.16858312604E+03  0.00000000000E+00 0.  1.
<mgrwt>
<rscale>  0 0.11491242E+04</rscale>
<asrwt>0</asrwt>
<pdfrwt beam="1">  1        1 0.37992919E-01 0.11491242E+04</pdfrwt>
<pdfrwt beam="2">  1       -1 0.20565750E+00 0.11491242E+04</pdfrwt>
<totfact> 0.15457162E+01</totfact>
</mgrwt>
</event>
<event>
12    1  0.1541840E-007  0.2131415E+04  0.7818608E-02  0.8547530E-01
          1   -1    0    0  501    0  0.00000000000E+00  0.00000000000E+00  0.84783149499E+03  0.84783149499E+03  0.00000000000E+00 0. -1.
         -1   -1    0    0    0  501 -0.00000000000E+00 -0.00000000000E+00 -0.13395739104E+04  0.13395739104E+04  0.00000000000E+00 0.  1.
         23    2    1    2    0    0 -0.17103171905E+03 -0.86153777805E+02 -0.10752340180E+04  0.10957519720E+04  0.88712277574E+02 0.  0.
        254    2    1    2    0    0  0.17103171905E+03  0.86153777805E+02  0.58349160259E+03  0.10916534335E+04  0.90253556502E+03 0.  0.
        -24    2    4    4    0    0  0.52674278222E+03  0.14352808584E+03  0.31640664714E+03  0.63583848201E+03  0.78224924447E+02 0.  0.
         24    2    4    4    0    0 -0.35571106317E+03 -0.57374308031E+02  0.26708495545E+03  0.45581495145E+03  0.81306364169E+02 0.  0.
         13    1    3    3    0    0 -0.36672436481E+02 -0.34253361762E+02 -0.50969337168E+03  0.51215768424E+03  0.00000000000E+00 0. -1.
        -13    1    3    3    0    0 -0.13435928257E+03 -0.51900416044E+02 -0.56554064637E+03  0.58359428775E+03  0.00000000000E+00 0.  1.
          4    1    6    6  502    0 -0.31008790175E+03 -0.76197906005E+02  0.24054217263E+03  0.39977639313E+03  0.00000000000E+00 0. -1.
          1    1    5    5  503    0  0.45872085899E+03  0.12725682103E+03  0.24312081880E+03  0.53453424353E+03  0.00000000000E+00 0. -1.
         -2    1    5    5    0  503  0.68021923227E+02  0.16271264808E+02  0.73285828344E+02  0.10130423848E+03  0.00000000000E+00 0.  1.
         -3    1    6    6    0  502 -0.45623161420E+02  0.18823597975E+02  0.26542782819E+02  0.56038558319E+02  0.00000000000E+00 0.  1.
<mgrwt>
<rscale>  0 0.21314154E+04</rscale>
<asrwt>0</asrwt>
<pdfrwt beam="1">  1        1 0.13043562E+00 0.21314154E+04</pdfrwt>
<pdfrwt beam="2">  1       -1 0.20608829E+00 0.21314154E+04</pdfrwt>
<totfact> 0.25212825E+00</totfact>
</mgrwt>
</event>
<event>
12    1  0.1541840E-007  0.1222052E+04  0.7818608E-02  0.9093770E-01
         -2   -1    0    0    0  501 -0.00000000000E+00  0.00000000000E+00  0.48315877364E+03  0.48315877364E+03  0.00000000000E+00 0.  1.
          2   -1    0    0  501    0  0.00000000000E+00 -0.00000000000E+00 -0.77273315291E+03  0.77273315291E+03  0.00000000000E+00 0. -1.
         23    2    1    2    0    0  0.77300776903E+01  0.27014938992E+03 -0.76247150718E+01  0.28572601406E+03  0.92416296482E+02 0.  0.
        254    2    1    2    0    0 -0.77300776903E+01 -0.27014938992E+03 -0.28194966419E+03  0.97016591249E+03  0.88807985995E+03 0.  0.
        -24    2    4    4    0    0  0.24297551176E+03  0.23860276110E+03 -0.16037451694E+03  0.38449726311E+03  0.78420550471E+02 0.  0.
         24    2    4    4    0    0 -0.25070558945E+03 -0.50875215102E+03 -0.12157514726E+03  0.58566864938E+03  0.80902451714E+02 0.  0.
         11    1    3    3    0    0 -0.37897483584E+02  0.18576534576E+03 -0.14420100213E+01  0.18959710530E+03  0.00000000000E+00 0.  1.
        -11    1    3    3    0    0  0.45627561274E+02  0.84384044163E+02 -0.61827050505E+01  0.96128908758E+02  0.00000000000E+00 0. -1.
          4    1    6    6  502    0 -0.20740211350E+03 -0.33702827306E+03 -0.88497271170E+02  0.40550642477E+03  0.00000000000E+00 0. -1.
          3    1    5    5  503    0  0.71855843317E+02  0.12450919382E+03 -0.68467063712E+02  0.15922795099E+03  0.00000000000E+00 0. -1.
         -4    1    5    5    0  503  0.17111966844E+03  0.11409356728E+03 -0.91907453225E+02  0.22526931211E+03  0.00000000000E+00 0.  1.
         -3    1    6    6    0  502 -0.43303475945E+02 -0.17172387796E+03 -0.33077876087E+02  0.18016222461E+03  0.00000000000E+00 0.  1.
<mgrwt>
<rscale>  0 0.12220520E+04</rscale>
<asrwt>0</asrwt>
<pdfrwt beam="1">  1        2 0.11888202E+00 0.12220520E+04</pdfrwt>
<pdfrwt beam="2">  1       -2 0.74332121E-01 0.12220520E+04</pdfrwt>
<totfact> 0.57907102E+01</totfact>
</mgrwt>
</event>
<event>
12    1  0.1541840E-007  0.2799922E+04  0.7818608E-02  0.8303292E-01
         -2   -1    0    0    0  501 -0.00000000000E+00  0.00000000000E+00  0.92731835383E+03  0.92731835383E+03  0.00000000000E+00 0.  1.
          2   -1    0    0  501    0  0.00000000000E+00 -0.00000000000E+00 -0.21135041699E+04  0.21135041699E+04  0.00000000000E+00 0. -1.
         23    2    1    2    0    0  0.11011789904E+04 -0.35512754677E+03 -0.10577858481E+04  0.15711417337E+04  0.10423388857E+03 0.  0.
        254    2    1    2    0    0 -0.11011789904E+04  0.35512754677E+03 -0.12839996802E+03  0.14696807901E+04  0.89708657864E+03 0.  0.
        -24    2    4    4    0    0  0.43531002396E+02  0.28997718528E+03 -0.10123670439E+03  0.32006215830E+03  0.78798468943E+02 0.  0.
         24    2    4    4    0    0 -0.11447099928E+04  0.65150361488E+02 -0.27163263621E+02  0.11496186318E+04  0.79244043489E+02 0.  0.
         13    1    3    3    0    0  0.12720953563E+03 -0.76503670649E+02 -0.12487772332E+03  0.19398330691E+03  0.00000000000E+00 0.  1.
        -13    1    3    3    0    0  0.97396945477E+03 -0.27862387612E+03 -0.93290812474E+03  0.13771584268E+04  0.00000000000E+00 0. -1.
          2    1    6    6  502    0 -0.75992347551E+03  0.11014646694E+02  0.12612726092E+01  0.76000434333E+03  0.00000000000E+00 0. -1.
          3    1    5    5  503    0  0.41405556595E+02  0.26376947980E+03 -0.11461525004E+03  0.29056051716E+03  0.00000000000E+00 0. -1.
         -4    1    5    5    0  503  0.21254458009E+01  0.26207705480E+02  0.13378545647E+02  0.29501641141E+02  0.00000000000E+00 0.  1.
         -1    1    6    6    0  502 -0.38478651729E+03  0.54135714793E+02 -0.28424536230E+02  0.38961428845E+03  0.00000000000E+00 0.  1.
<mgrwt>
<rscale>  0 0.27999223E+04</rscale>
<asrwt>0</asrwt>
<pdfrwt beam="1">  1        2 0.32515449E+00 0.27999223E+04</pdfrwt>
<pdfrwt beam="2">  1       -2 0.14266436E+00 0.27999223E+04</pdfrwt>
<totfact> 0.17181214E+00</totfact>
</mgrwt>
</event>
<event>
12    1  0.1812028E-007  0.1660920E+04  0.7818608E-02  0.8783973E-01
         -2   -1    0    0    0  501 -0.00000000000E+00  0.00000000000E+00  0.26349577367E+03  0.26349577367E+03  0.00000000000E+00 0. -1.
          2   -1    0    0  501    0  0.00000000000E+00 -0.00000000000E+00 -0.26173606250E+04  0.26173606250E+04  0.00000000000E+00 0.  1.
         23    2    1    2    0    0  0.20403927911E+03  0.35093731211E+03 -0.11140262213E+03  0.43070354062E+03  0.91137101275E+02 0.  0.
        254    2    1    2    0    0 -0.20403927911E+03 -0.35093731211E+03 -0.22424622291E+04  0.24501528580E+04  0.89990174685E+03 0.  0.
        -24    2    4    4    0    0  0.12976522142E+03 -0.36463181610E+03 -0.35436803078E+03  0.53080530064E+03  0.79888622168E+02 0.  0.
         24    2    4    4    0    0 -0.33380450054E+03  0.13694503981E+02 -0.18880941984E+04  0.19193475574E+04  0.85920661213E+02 0.  0.
         11    1    3    3    0    0  0.19763691186E+03  0.27843512182E+03 -0.76171556131E+02  0.34984078087E+03  0.00000000000E+00 0. -1.
        -11    1    3    3    0    0  0.64023672573E+01  0.72502190290E+02 -0.35231066001E+02  0.80862759754E+02  0.00000000000E+00 0.  1.
          4    1    6    6  502    0 -0.49784987262E+02 -0.20497984727E+02 -0.19685351328E+03  0.20408336048E+03  0.00000000000E+00 0. -1.
          3    1    5    5  503    0 -0.87135990671E+01 -0.15771378079E+02 -0.68112412746E+01  0.19262818664E+02  0.00000000000E+00 0. -1.
         -4    1    5    5    0  503  0.13847882049E+03 -0.34886043802E+03 -0.34755678950E+03  0.51154248198E+03  0.00000000000E+00 0.  1.
         -3    1    6    6    0  502 -0.28401951327E+03  0.34192488708E+02 -0.16912406851E+04  0.17152641969E+04  0.00000000000E+00 0.  1.
<mgrwt>
<rscale>  0 0.16609196E+04</rscale>
<asrwt>0</asrwt>
<pdfrwt beam="1">  1        2 0.40267085E+00 0.16609196E+04</pdfrwt>
<pdfrwt beam="2">  1       -2 0.40537812E-01 0.16609196E+04</pdfrwt>
<totfact> 0.16385594E+01</totfact>
</mgrwt>
</event>
<event>
12    1  0.1541840E-007  0.1635885E+04  0.7818608E-02  0.8798801E-01
         -1   -1    0    0    0  501 -0.00000000000E+00  0.00000000000E+00  0.99944338510E+03  0.99944338510E+03  0.00000000000E+00 0.  1.
          1   -1    0    0  501    0  0.00000000000E+00 -0.00000000000E+00 -0.66940292616E+03  0.66940292616E+03  0.00000000000E+00 0. -1.
         23    2    1    2    0    0  0.25060609536E+03  0.18239471998E+03 -0.36968594575E+03  0.49132270223E+03  0.93054018366E+02 0.  0.
        254    2    1    2    0    0 -0.25060609536E+03 -0.18239471998E+03  0.69972640469E+03  0.11775236090E+04  0.89491539235E+03 0.  0.
        -24    2    4    4    0    0  0.32531723745E+03 -0.93475666266E+02  0.17593879106E+03  0.38985234198E+03  0.80382741819E+02 0.  0.
         24    2    4    4    0    0 -0.57592333281E+03 -0.88919053717E+02  0.52378761363E+03  0.78767126704E+03  0.80487746546E+02 0.  0.
         13    1    3    3    0    0  0.22901796801E+03  0.18752566152E+03 -0.31471603241E+03  0.43204315116E+03  0.00000000000E+00 0. -1.
        -13    1    3    3    0    0  0.21588127348E+02 -0.51309415417E+01 -0.54969913339E+02  0.59279551078E+02  0.00000000000E+00 0.  1.
          2    1    6    6  502    0 -0.29906890957E+03 -0.14481783566E+02  0.30135485321E+03  0.42481370303E+03  0.00000000000E+00 0. -1.
          3    1    5    5  503    0 -0.13101560813E+01 -0.85898774767E+01  0.11585095796E+02  0.14481607253E+02  0.00000000000E+00 0. -1.
         -4    1    5    5    0  503  0.32662739353E+03 -0.84885788789E+02  0.16435369526E+03  0.37537073472E+03  0.00000000000E+00 0.  1.
         -1    1    6    6    0  502 -0.27685442324E+03 -0.74437270151E+02  0.22243276042E+03  0.36285756401E+03  0.00000000000E+00 0.  1.
<mgrwt>
<rscale>  0 0.16358855E+04</rscale>
<asrwt>0</asrwt>
<pdfrwt beam="1">  1        1 0.10298507E+00 0.16358855E+04</pdfrwt>
<pdfrwt beam="2">  1       -1 0.15376052E+00 0.16358855E+04</pdfrwt>
<totfact> 0.90972861E+00</totfact>
</mgrwt>
</event>
<event>
12    1  0.1541840E-007  0.2372142E+04  0.7818608E-02  0.8450007E-01
         -2   -1    0    0    0  501 -0.00000000000E+00  0.00000000000E+00  0.44367095270E+03  0.44367095270E+03  0.00000000000E+00 0.  1.
          2   -1    0    0  501    0  0.00000000000E+00 -0.00000000000E+00 -0.31707385543E+04  0.31707385543E+04  0.00000000000E+00 0. -1.
         23    2    1    2    0    0  0.22474585044E+03 -0.38424666674E+03 -0.25558841556E+04  0.25959744287E+04  0.91559923411E+02 0.  0.
        254    2    1    2    0    0 -0.22474585044E+03  0.38424666674E+03 -0.17118344606E+03  0.10184350783E+04  0.89986112171E+03 0.  0.
        -24    2    4    4    0    0 -0.81277366997E+02  0.27730093660E+03 -0.53055755963E+03  0.60912985775E+03  0.77756284014E+02 0.  0.
         24    2    4    4    0    0 -0.14346848344E+03  0.10694573014E+03  0.35937411357E+03  0.40930522057E+03  0.79752210905E+02 0.  0.
         11    1    3    3    0    0  0.16351545214E+03 -0.24434049175E+03 -0.18952066075E+04  0.19178758208E+04  0.00000000000E+00 0. -1.
        -11    1    3    3    0    0  0.61230398305E+02 -0.13990617499E+03 -0.66067754812E+03  0.67809860792E+03  0.00000000000E+00 0.  1.
          2    1    6    6  502    0 -0.23371942497E+02  0.58958619707E+01  0.12452790071E+03  0.12683929572E+03  0.00000000000E+00 0. -1.
          1    1    5    5  503    0 -0.95778165512E+02  0.23615005537E+03 -0.43644623367E+03  0.50539649833E+03  0.00000000000E+00 0. -1.
         -2    1    5    5    0  503  0.14500798515E+02  0.41150881225E+02 -0.94111325960E+02  0.10373335942E+03  0.00000000000E+00 0.  1.
         -1    1    6    6    0  502 -0.12009654095E+03  0.10104986817E+03  0.23484621286E+03  0.28246592485E+03  0.00000000000E+00 0.  1.
<mgrwt>
<rscale>  0 0.23721422E+04</rscale>
<asrwt>0</asrwt>
<pdfrwt beam="1">  1        2 0.48780595E+00 0.23721422E+04</pdfrwt>
<pdfrwt beam="2">  1       -2 0.68257067E-01 0.23721422E+04</pdfrwt>
<totfact> 0.24007278E+00</totfact>
</mgrwt>
</event>
<event>
12    1  0.1541840E-007  0.2305265E+04  0.7818608E-02  0.8475848E-01
         -2   -1    0    0    0  501 -0.00000000000E+00  0.00000000000E+00  0.32594361184E+03  0.32594361184E+03  0.00000000000E+00 0.  1.
          2   -1    0    0  501    0  0.00000000000E+00 -0.00000000000E+00 -0.40760464482E+04  0.40760464482E+04  0.00000000000E+00 0. -1.
         23    2    1    2    0    0 -0.67200356620E+03 -0.70402235843E+03 -0.14686326636E+04  0.17638632804E+04  0.84234774258E+02 0.  0.
        254    2    1    2    0    0  0.67200356620E+03  0.70402235843E+03 -0.22814701728E+04  0.26381267797E+04  0.89853796920E+03 0.  0.
        -24    2    4    4    0    0  0.84713575794E+03  0.38209422532E+03 -0.18074699300E+04  0.20339163788E+04  0.78951240908E+02 0.  0.
         24    2    4    4    0    0 -0.17513219174E+03  0.32192813311E+03 -0.47400024274E+03  0.60421040088E+03  0.78006223756E+02 0.  0.
         11    1    3    3    0    0 -0.46593424292E+03 -0.53239547290E+03 -0.11036540561E+04  0.13109507748E+04  0.00000000000E+00 0. -1.
        -11    1    3    3    0    0 -0.20606932328E+03 -0.17162688553E+03 -0.36497860747E+03  0.45291250562E+03  0.00000000000E+00 0.  1.
          4    1    6    6  502    0 -0.13865639549E+03  0.19095642052E+03 -0.26460853718E+03  0.35455271611E+03  0.00000000000E+00 0. -1.
          1    1    5    5  503    0  0.23133526336E+03  0.13859767214E+03 -0.56184878369E+03  0.62321695623E+03  0.00000000000E+00 0. -1.
         -2    1    5    5    0  503  0.61580049457E+03  0.24349655318E+03 -0.12456211463E+04  0.14106994225E+04  0.00000000000E+00 0.  1.
         -3    1    6    6    0  502 -0.36475796245E+02  0.13097171259E+03 -0.20939170556E+03  0.24965768477E+03  0.00000000000E+00 0.  1.
<mgrwt>
<rscale>  0 0.23052647E+04</rscale>
<asrwt>0</asrwt>
<pdfrwt beam="1">  1        2 0.62708408E+00 0.23052647E+04</pdfrwt>
<pdfrwt beam="2">  1       -2 0.50145170E-01 0.23052647E+04</pdfrwt>
<totfact> 0.10165906E+00</totfact>
</mgrwt>
</event>
<event>
12    1  0.1541840E-007  0.1416258E+04  0.7818608E-02  0.8942134E-01
         -1   -1    0    0    0  501 -0.00000000000E+00  0.00000000000E+00  0.31677177140E+03  0.31677177140E+03  0.00000000000E+00 0.  1.
          1   -1    0    0  501    0  0.00000000000E+00 -0.00000000000E+00 -0.15829905178E+04  0.15829905178E+04  0.00000000000E+00 0. -1.
         23    2    1    2    0    0  0.36975824879E+02  0.11975913955E+03 -0.84090115997E+03  0.85490550579E+03  0.89661585176E+02 0.  0.
        254    2    1    2    0    0 -0.36975824879E+02 -0.11975913955E+03 -0.42531758647E+03  0.10448567835E+04  0.94610844275E+03 0.  0.
        -24    2    4    4    0    0 -0.80951372787E+02  0.40456541718E+03 -0.15287676629E+03  0.44704082191E+03  0.79043590833E+02 0.  0.
         24    2    4    4    0    0  0.43975547909E+02 -0.52432455673E+03 -0.27244082018E+03  0.59781596155E+03  0.79434462167E+02 0.  0.
         13    1    3    3    0    0  0.13231892377E+02  0.12818510431E+03 -0.71086972998E+03  0.72245572664E+03  0.00000000000E+00 0. -1.
        -13    1    3    3    0    0  0.23743932502E+02 -0.84259647623E+01 -0.13003142999E+03  0.13244977915E+03  0.00000000000E+00 0.  1.
          2    1    6    6  502    0  0.26222739805E+01 -0.34695622014E+03 -0.14786021894E+03  0.37715797666E+03  0.00000000000E+00 0. -1.
          1    1    5    5  503    0 -0.51233311964E+02  0.35948305429E+03 -0.11430043634E+03  0.38068032300E+03  0.00000000000E+00 0. -1.
         -2    1    5    5    0  503 -0.29718060824E+02  0.45082362892E+02 -0.38576329952E+02  0.66360498910E+02  0.00000000000E+00 0.  1.
         -1    1    6    6    0  502  0.41353273928E+02 -0.17736833659E+03 -0.12458060125E+03  0.22065798489E+03  0.00000000000E+00 0.  1.
<mgrwt>
<rscale>  0 0.14162580E+04</rscale>
<asrwt>0</asrwt>
<pdfrwt beam="1">  1        1 0.24353700E+00 0.14162580E+04</pdfrwt>
<pdfrwt beam="2">  1       -1 0.48734120E-01 0.14162580E+04</pdfrwt>
<totfact> 0.23526851E+01</totfact>
</mgrwt>
</event>
<event>
12    1  0.1541840E-007  0.3607390E+04  0.7818608E-02  0.8088801E-01
          2   -1    0    0  501    0  0.00000000000E+00  0.00000000000E+00  0.25685433746E+04  0.25685433746E+04  0.00000000000E+00 0.  1.
         -2   -1    0    0    0  501 -0.00000000000E+00 -0.00000000000E+00 -0.12665993414E+04  0.12665993414E+04  0.00000000000E+00 0. -1.
         23    2    1    2    0    0 -0.56020657939E+03  0.99619158831E+02  0.22996666296E+04  0.23707927131E+04  0.91848204244E+02 0.  0.
        254    2    1    2    0    0  0.56020657939E+03 -0.99619158831E+02 -0.99772259644E+03  0.14643500029E+04  0.90835849926E+03 0.  0.
        -24    2    4    4    0    0  0.14865749835E+03  0.11517509557E+03 -0.97094835208E+03  0.99225537843E+03  0.80409447010E+02 0.  0.
         24    2    4    4    0    0  0.41154908104E+03 -0.21479425440E+03 -0.26774244359E+02  0.47209462448E+03  0.81530708763E+02 0.  0.
         13    1    3    3    0    0 -0.10883989742E+03  0.55919223868E+02  0.53102023919E+03  0.54493630572E+03  0.00000000000E+00 0. -1.
        -13    1    3    3    0    0 -0.45136668197E+03  0.43699934964E+02  0.17686463905E+04  0.18258564074E+04  0.00000000000E+00 0.  1.
          2    1    6    6  502    0  0.86606746131E+02 -0.84444910379E+02 -0.13749126614E+02  0.12174033780E+03  0.00000000000E+00 0. -1.
          1    1    5    5  503    0  0.15796632201E+03  0.10753755198E+03 -0.87973661565E+03  0.90025229625E+03  0.00000000000E+00 0. -1.
         -2    1    5    5    0  503 -0.93088236603E+01  0.76375435895E+01 -0.91211736427E+02  0.92003082188E+02  0.00000000000E+00 0.  1.
         -1    1    6    6    0  502  0.32494233491E+03 -0.13034934402E+03 -0.13025117746E+02  0.35035428668E+03  0.00000000000E+00 0.  1.
<mgrwt>
<rscale>  0 0.36073898E+04</rscale>
<asrwt>0</asrwt>
<pdfrwt beam="1">  1        2 0.39516052E+00 0.36073898E+04</pdfrwt>
<pdfrwt beam="2">  1       -2 0.19486144E+00 0.36073898E+04</pdfrwt>
<totfact> 0.37193152E-01</totfact>
</mgrwt>
</event>
<event>
12    1  0.1541840E-007  0.1824377E+04  0.7818608E-02  0.8693442E-01
          2   -1    0    0  501    0  0.00000000000E+00  0.00000000000E+00  0.25220754256E+04  0.25220754256E+04  0.00000000000E+00 0. -1.
         -2   -1    0    0    0  501 -0.00000000000E+00 -0.00000000000E+00 -0.32992187436E+03  0.32992187436E+03  0.00000000000E+00 0.  1.
         23    2    1    2    0    0 -0.83241697350E+02  0.25861420345E+03 -0.15373693492E+03  0.32630105583E+03  0.95009723037E+02 0.  0.
        254    2    1    2    0    0  0.83241697350E+02 -0.25861420345E+03  0.23458904862E+04  0.25256962442E+04  0.89561646822E+03 0.  0.
        -24    2    4    4    0    0  0.41628083807E+03 -0.36888320599E+03  0.12062322998E+04  0.13307503290E+04  0.80842571867E+02 0.  0.
         24    2    4    4    0    0 -0.33303914072E+03  0.11026900254E+03  0.11396581864E+04  0.11949459151E+04  0.77463772201E+02 0.  0.
         13    1    3    3    0    0 -0.74100623065E+02  0.25981821022E+03 -0.16104639522E+03  0.31453512700E+03  0.00000000000E+00 0.  1.
        -13    1    3    3    0    0 -0.91410742849E+01 -0.12040067684E+01  0.73094603019E+01  0.11765928832E+02  0.00000000000E+00 0. -1.
          4    1    6    6  502    0  0.41561673265E+01  0.28998962026E+01  0.11003042724E+02  0.12114044494E+02  0.00000000000E+00 0. -1.
          1    1    5    5  503    0  0.25271927005E+03 -0.27416578481E+03  0.78489063185E+03  0.86895754268E+03  0.00000000000E+00 0. -1.
         -2    1    5    5    0  503  0.16356156802E+03 -0.94717421179E+02  0.42134166790E+03  0.46179278634E+03  0.00000000000E+00 0.  1.
         -3    1    6    6    0  502 -0.33719530805E+03  0.10736910633E+03  0.11286551437E+04  0.11828318706E+04  0.00000000000E+00 0.  1.
<mgrwt>
<rscale>  0 0.18243770E+04</rscale>
<asrwt>0</asrwt>
<pdfrwt beam="1">  1        2 0.38801159E+00 0.18243770E+04</pdfrwt>
<pdfrwt beam="2">  1       -2 0.50757213E-01 0.18243770E+04</pdfrwt>
<totfact> 0.11699855E+01</totfact>
</mgrwt>
</event>
<event>
12    1  0.1541840E-007  0.1716593E+04  0.7818608E-02  0.8751957E-01
         -2   -1    0    0    0  501 -0.00000000000E+00  0.00000000000E+00  0.54888090766E+03  0.54888090766E+03  0.00000000000E+00 0.  1.
          2   -1    0    0  501    0  0.00000000000E+00 -0.00000000000E+00 -0.13421354300E+04  0.13421354300E+04  0.00000000000E+00 0. -1.
         23    2    1    2    0    0 -0.27810508049E+02  0.34735047655E+03  0.27458275336E+03  0.45250031540E+03  0.89079004696E+02 0.  0.
        254    2    1    2    0    0  0.27810508049E+02 -0.34735047655E+03 -0.10678372757E+04  0.14385160222E+04  0.89868021064E+03 0.  0.
        -24    2    4    4    0    0  0.43949493850E+03 -0.11862000332E+03 -0.36573163568E+03  0.58944546739E+03  0.80373027420E+02 0.  0.
         24    2    4    4    0    0 -0.41168443045E+03 -0.22873047323E+03 -0.70210563998E+03  0.84907055483E+03  0.78528833840E+02 0.  0.
         11    1    3    3    0    0  0.24232522114E+02  0.35295830614E+02  0.40674695250E+02  0.59054564772E+02  0.00000000000E+00 0. -1.
        -11    1    3    3    0    0 -0.52043030163E+02  0.31205464594E+03  0.23390805811E+03  0.39344575063E+03  0.00000000000E+00 0.  1.
          2    1    6    6  502    0 -0.24388370010E+03 -0.12546238581E+03 -0.47421680372E+03  0.54781533966E+03  0.00000000000E+00 0. -1.
          3    1    5    5  503    0  0.24027653267E+03 -0.51119894554E+02 -0.14842964534E+03  0.28701466058E+03  0.00000000000E+00 0. -1.
         -2    1    5    5    0  503  0.19921840583E+03 -0.67500108771E+02 -0.21730199033E+03  0.30243080681E+03  0.00000000000E+00 0.  1.
         -1    1    6    6    0  502 -0.16780073035E+03 -0.10326808742E+03 -0.22788883625E+03  0.30125521518E+03  0.00000000000E+00 0.  1.
<mgrwt>
<rscale>  0 0.17165926E+04</rscale>
<asrwt>0</asrwt>
<pdfrwt beam="1">  1        2 0.20648237E+00 0.17165926E+04</pdfrwt>
<pdfrwt beam="2">  1       -2 0.84443217E-01 0.17165926E+04</pdfrwt>
<totfact> 0.18162297E+01</totfact>
</mgrwt>
</event>
<event>
12    1  0.1541840E-007  0.2238305E+04  0.7818608E-02  0.8502652E-01
          1   -1    0    0  501    0  0.00000000000E+00  0.00000000000E+00  0.21062525183E+04  0.21062525183E+04  0.00000000000E+00 0. -1.
         -1   -1    0    0    0  501 -0.00000000000E+00 -0.00000000000E+00 -0.59465917080E+03  0.59465917080E+03  0.00000000000E+00 0.  1.
         23    2    1    2    0    0 -0.84841889430E+03  0.35304976413E+03  0.84440438759E+03  0.12514395949E+04  0.92862984415E+02 0.  0.
        254    2    1    2    0    0  0.84841889430E+03 -0.35304976413E+03  0.66718895992E+03  0.14494720942E+04  0.90076050500E+03 0.  0.
        -24    2    4    4    0    0  0.79498887508E+03  0.53715310037E+02  0.64933115667E+03  0.10309757633E+04  0.79921383459E+02 0.  0.
         24    2    4    4    0    0  0.53430019221E+02 -0.40676507416E+03  0.17857803255E+02  0.41849633083E+03  0.80670225408E+02 0.  0.
         13    1    3    3    0    0 -0.38159679921E+03  0.14891992271E+03  0.31545928206E+03  0.51701820005E+03  0.00000000000E+00 0. -1.
        -13    1    3    3    0    0 -0.46682209509E+03  0.20412984142E+03  0.52894510553E+03  0.73442139490E+03  0.00000000000E+00 0.  1.
          4    1    6    6  502    0  0.20555167770E+02 -0.16553388065E+03 -0.32347405107E+02  0.16991272813E+03  0.00000000000E+00 0. -1.
          3    1    5    5  503    0  0.71811153862E+03  0.53531475743E+02  0.61415225554E+03  0.94643161072E+03  0.00000000000E+00 0. -1.
         -4    1    5    5    0  503  0.76877336462E+02  0.18383429401E+00  0.35178901129E+02  0.84544152613E+02  0.00000000000E+00 0.  1.
         -3    1    6    6    0  502  0.32874851451E+02 -0.24123119352E+03  0.50205208362E+02  0.24858360270E+03  0.00000000000E+00 0.  1.
<mgrwt>
<rscale>  0 0.22383051E+04</rscale>
<asrwt>0</asrwt>
<pdfrwt beam="1">  1        1 0.32403885E+00 0.22383051E+04</pdfrwt>
<pdfrwt beam="2">  1       -1 0.91486027E-01 0.22383051E+04</pdfrwt>
<totfact> 0.26708321E+00</totfact>
</mgrwt>
</event>
<event>
12    1  0.1541840E-007  0.1264791E+04  0.7818608E-02  0.9057962E-01
         -2   -1    0    0    0  501 -0.00000000000E+00  0.00000000000E+00  0.28924464098E+03  0.28924464098E+03  0.00000000000E+00 0.  1.
          2   -1    0    0  501    0  0.00000000000E+00 -0.00000000000E+00 -0.13826505183E+04  0.13826505183E+04  0.00000000000E+00 0. -1.
         23    2    1    2    0    0 -0.36176634784E+02  0.71374707254E+02  0.11120509748E+03  0.16445284822E+03  0.90967399890E+02 0.  0.
        254    2    1    2    0    0  0.36176634784E+02 -0.71374707254E+02 -0.12046109748E+04  0.15074423110E+04  0.90271347767E+03 0.  0.
        -24    2    4    4    0    0 -0.77475836699E+02 -0.39143655643E+02 -0.13179961382E+04  0.13232075493E+04  0.78928241605E+02 0.  0.
         24    2    4    4    0    0  0.11365247148E+03 -0.32231051611E+02  0.11338516339E+03  0.18423476169E+03  0.84442448889E+02 0.  0.
         11    1    3    3    0    0 -0.43138391569E+02  0.89670304411E+02  0.80283604005E+02  0.12785594000E+03  0.00000000000E+00 0.  1.
        -11    1    3    3    0    0  0.69617567851E+01 -0.18295597157E+02  0.30921493480E+02  0.36596908229E+02  0.00000000000E+00 0. -1.
          2    1    6    6  502    0  0.18042410051E+01 -0.29657464494E+02  0.42269363994E+02  0.51667394150E+02  0.00000000000E+00 0. -1.
          3    1    5    5  503    0  0.30211520536E+01  0.15341166023E+02 -0.34854848039E+03  0.34889901393E+03  0.00000000000E+00 0. -1.
         -4    1    5    5    0  503 -0.80496988753E+02 -0.54484821665E+02 -0.96944765779E+03  0.97430853541E+03  0.00000000000E+00 0.  1.
         -1    1    6    6    0  502  0.11184823048E+03 -0.25735871170E+01  0.71115799400E+02  0.13256736754E+03  0.00000000000E+00 0.  1.
<mgrwt>
<rscale>  0 0.12647913E+04</rscale>
<asrwt>0</asrwt>
<pdfrwt beam="1">  1        2 0.21271546E+00 0.12647913E+04</pdfrwt>
<pdfrwt beam="2">  1       -2 0.44499176E-01 0.12647913E+04</pdfrwt>
<totfact> 0.69640914E+01</totfact>
</mgrwt>
</event>
<event>
12    1  0.1541840E-007  0.1793891E+04  0.7818608E-02  0.8709555E-01
         -2   -1    0    0    0  501 -0.00000000000E+00  0.00000000000E+00  0.50452175158E+03  0.50452175158E+03  0.00000000000E+00 0. -1.
          2   -1    0    0  501    0  0.00000000000E+00 -0.00000000000E+00 -0.15946020482E+04  0.15946020482E+04  0.00000000000E+00 0.  1.
         23    2    1    2    0    0 -0.19552724675E+03  0.46244469616E+03 -0.98451758577E+03  0.11092859065E+04  0.95678338783E+02 0.  0.
        254    2    1    2    0    0  0.19552724675E+03 -0.46244469616E+03 -0.10556271086E+03  0.98983789326E+03  0.84649250899E+03 0.  0.
        -24    2    4    4    0    0 -0.40113099208E+02 -0.32682152846E+03  0.32862559169E+03  0.47198491727E+03  0.79709537895E+02 0.  0.
         24    2    4    4    0    0  0.23564034596E+03 -0.13562316771E+03 -0.43418830255E+03  0.51785297599E+03  0.75711336040E+02 0.  0.
         11    1    3    3    0    0 -0.83247603780E+02  0.12929226730E+03 -0.38060399757E+03  0.41049489264E+03  0.00000000000E+00 0. -1.
        -11    1    3    3    0    0 -0.11227964297E+03  0.33315242887E+03 -0.60391358820E+03  0.69879101390E+03  0.00000000000E+00 0.  1.
          4    1    6    6  502    0  0.22525613008E+03 -0.14384522761E+03 -0.42372434562E+03  0.50097314770E+03  0.00000000000E+00 0. -1.
          3    1    5    5  503    0 -0.29635324939E+02 -0.15521647520E+03  0.21125709423E+03  0.26381805571E+03  0.00000000000E+00 0. -1.
         -4    1    5    5    0  503 -0.10477774269E+02 -0.17160505325E+03  0.11736849746E+03  0.20816686156E+03  0.00000000000E+00 0.  1.
         -3    1    6    6    0  502  0.10384215874E+02  0.82220599004E+01 -0.10463956927E+02  0.16879828284E+02  0.00000000000E+00 0.  1.
<mgrwt>
<rscale>  0 0.17938912E+04</rscale>
<asrwt>0</asrwt>
<pdfrwt beam="1">  1        2 0.24532339E+00 0.17938912E+04</pdfrwt>
<pdfrwt beam="2">  1       -2 0.77618732E-01 0.17938912E+04</pdfrwt>
<totfact> 0.15689510E+01</totfact>
</mgrwt>
</event>
<event>
12    1  0.1541840E-007  0.1483269E+04  0.7818608E-02  0.8895656E-01
         -1   -1    0    0    0  501 -0.00000000000E+00  0.00000000000E+00  0.62636405795E+03  0.62636405795E+03  0.00000000000E+00 0.  1.
          1   -1    0    0  501    0  0.00000000000E+00 -0.00000000000E+00 -0.87811831314E+03  0.87811831314E+03  0.00000000000E+00 0. -1.
         23    2    1    2    0    0 -0.79298794466E+02 -0.49726537995E+01 -0.53595926748E+03  0.54946781018E+03  0.91375663788E+02 0.  0.
        254    2    1    2    0    0  0.79298794466E+02  0.49726537995E+01  0.28420501229E+03  0.95501456091E+03  0.90827710334E+03 0.  0.
        -24    2    4    4    0    0 -0.19377816100E+03 -0.37928643988E+03  0.14883437829E+03  0.45809453833E+03  0.79314278225E+02 0.  0.
         24    2    4    4    0    0  0.27307695547E+03  0.38425909368E+03  0.13537063401E+03  0.49692002258E+03  0.79863794086E+02 0.  0.
         13    1    3    3    0    0  0.62744381280E+01 -0.30216065436E+02 -0.10888679551E+03  0.11317558668E+03  0.00000000000E+00 0.  1.
        -13    1    3    3    0    0 -0.85573232594E+02  0.25243411636E+02 -0.42707247197E+03  0.43629222349E+03  0.00000000000E+00 0. -1.
          4    1    6    6  502    0  0.56042923875E+02  0.13740764424E+03  0.27081560647E+02  0.15084787350E+03  0.00000000000E+00 0. -1.
          1    1    5    5  503    0 -0.40494941319E+02 -0.11577289654E+03  0.77247249247E+02  0.14494944416E+03  0.00000000000E+00 0. -1.
         -2    1    5    5    0  503 -0.15328321968E+03 -0.26351354334E+03  0.71587129040E+02  0.31314509417E+03  0.00000000000E+00 0.  1.
         -3    1    6    6    0  502  0.21703403159E+03  0.24685144944E+03  0.10828907336E+03  0.34607214908E+03  0.00000000000E+00 0.  1.
<mgrwt>
<rscale>  0 0.14832690E+04</rscale>
<asrwt>0</asrwt>
<pdfrwt beam="1">  1        1 0.13509512E+00 0.14832690E+04</pdfrwt>
<pdfrwt beam="2">  1       -1 0.96363701E-01 0.14832690E+04</pdfrwt>
<totfact> 0.19059960E+01</totfact>
</mgrwt>
</event>
<event>
12    1  0.1541840E-007  0.1728483E+04  0.7818608E-02  0.8745284E-01
          1   -1    0    0  501    0  0.00000000000E+00  0.00000000000E+00  0.34326199859E+04  0.34326199859E+04  0.00000000000E+00 0. -1.
         -1   -1    0    0    0  501 -0.00000000000E+00 -0.00000000000E+00 -0.21759277700E+03  0.21759277700E+03  0.00000000000E+00 0.  1.
         23    2    1    2    0    0  0.62176069611E+03  0.36529372002E+02  0.11311035378E+04  0.12943934060E+04  0.90212626530E+02 0.  0.
        254    2    1    2    0    0 -0.62176069611E+03 -0.36529372002E+02  0.20839236711E+04  0.23558193569E+04  0.90511116291E+03 0.  0.
        -24    2    4    4    0    0 -0.24869171188E+03  0.16376567170E+03  0.98936646371E+02  0.32461647923E+03  0.83190358879E+02 0.  0.
         24    2    4    4    0    0 -0.37306898423E+03 -0.20029504370E+03  0.19849870247E+04  0.20312028777E+04  0.79454832789E+02 0.  0.
         11    1    3    3    0    0  0.23857573545E+03 -0.10953126874E+01  0.35042529481E+03  0.42393097138E+03  0.00000000000E+00 0.  1.
        -11    1    3    3    0    0  0.38318496066E+03  0.37624684689E+02  0.78067824297E+03  0.87046243458E+03  0.00000000000E+00 0. -1.
          4    1    6    6  502    0 -0.25887597396E+03 -0.95783241774E+02  0.12723051404E+04  0.13019030569E+04  0.00000000000E+00 0. -1.
          3    1    5    5  503    0 -0.74551103612E+02  0.52213393962E+02 -0.87789836473E+01  0.91439466931E+02  0.00000000000E+00 0. -1.
         -4    1    5    5    0  503 -0.17414060827E+03  0.11155227774E+03  0.10771563002E+03  0.23317701230E+03  0.00000000000E+00 0.  1.
         -3    1    6    6    0  502 -0.11419301027E+03 -0.10451180193E+03  0.71268188436E+03  0.72929982081E+03  0.00000000000E+00 0.  1.
<mgrwt>
<rscale>  0 0.17284829E+04</rscale>
<asrwt>0</asrwt>
<pdfrwt beam="1">  1        1 0.52809534E+00 0.17284829E+04</pdfrwt>
<pdfrwt beam="2">  1       -1 0.33475814E-01 0.17284829E+04</pdfrwt>
<totfact> 0.22672748E+00</totfact>
</mgrwt>
</event>
<event>
12    1  0.1541840E-007  0.1580659E+04  0.7818608E-02  0.8832519E-01
         -1   -1    0    0    0  501 -0.00000000000E+00  0.00000000000E+00  0.17955985868E+03  0.17955985868E+03  0.00000000000E+00 0.  1.
          1   -1    0    0  501    0  0.00000000000E+00 -0.00000000000E+00 -0.34786202530E+04  0.34786202530E+04  0.00000000000E+00 0. -1.
         23    2    1    2    0    0 -0.21645196540E+03 -0.22175280854E+03 -0.21072262972E+04  0.21318227027E+04  0.90772279151E+02 0.  0.
        254    2    1    2    0    0  0.21645196540E+03  0.22175280854E+03 -0.11918340972E+04  0.15263574090E+04  0.90181631362E+03 0.  0.
        -24    2    4    4    0    0 -0.25736147743E+03 -0.10899104753E+03 -0.71823737989E+03  0.77509623806E+03  0.82433402662E+02 0.  0.
         24    2    4    4    0    0  0.47381344282E+03  0.33074385606E+03 -0.47359671727E+03  0.75126117097E+03  0.78796062531E+02 0.  0.
         11    1    3    3    0    0 -0.22211712915E+03 -0.20618894268E+03 -0.20487958510E+04  0.20710901328E+04  0.00000000000E+00 0. -1.
        -11    1    3    3    0    0  0.56651637511E+01 -0.15563865857E+02 -0.58430446168E+02  0.60732569846E+02  0.00000000000E+00 0.  1.
          4    1    6    6  502    0  0.12491503613E+02  0.96255666999E+01 -0.34727946153E+02  0.38140784481E+02  0.00000000000E+00 0. -1.
          1    1    5    5  503    0 -0.12425804496E+03 -0.44007907589E+02 -0.23241115336E+03  0.26719225639E+03  0.00000000000E+00 0. -1.
         -2    1    5    5    0  503 -0.13310343247E+03 -0.64983139938E+02 -0.48582622653E+03  0.50790398167E+03  0.00000000000E+00 0.  1.
         -3    1    6    6    0  502  0.46132193921E+03  0.32111828936E+03 -0.43886877112E+03  0.71312038649E+03  0.00000000000E+00 0.  1.
<mgrwt>
<rscale>  0 0.15806588E+04</rscale>
<asrwt>0</asrwt>
<pdfrwt beam="1">  1        1 0.53517232E+00 0.15806588E+04</pdfrwt>
<pdfrwt beam="2">  1       -1 0.27624595E-01 0.15806588E+04</pdfrwt>
<totfact> 0.29716862E+00</totfact>
</mgrwt>
</event>
<event>
12    1  0.1541840E-007  0.1472103E+04  0.7818608E-02  0.8903219E-01
          1   -1    0    0  501    0  0.00000000000E+00  0.00000000000E+00  0.50620697525E+03  0.50620697525E+03  0.00000000000E+00 0. -1.
         -1   -1    0    0    0  501 -0.00000000000E+00 -0.00000000000E+00 -0.10702576743E+04  0.10702576743E+04  0.00000000000E+00 0.  1.
         23    2    1    2    0    0  0.34114147675E+03 -0.22338108830E+03  0.76229469314E+02  0.42476313790E+03  0.91302648151E+02 0.  0.
        254    2    1    2    0    0 -0.34114147675E+03  0.22338108830E+03 -0.64028016841E+03  0.11517015117E+04  0.86612993265E+03 0.  0.
        -24    2    4    4    0    0 -0.21681626863E+03 -0.26832274608E+03 -0.51295849899E+03  0.62292200177E+03  0.76805001127E+02 0.  0.
         24    2    4    4    0    0 -0.12432520812E+03  0.49170383438E+03 -0.12732166942E+03  0.52877950993E+03  0.78533715713E+02 0.  0.
         11    1    3    3    0    0  0.17542940522E+03 -0.16782793778E+03  0.36218332843E+02  0.24546580321E+03  0.00000000000E+00 0.  1.
        -11    1    3    3    0    0  0.16571207153E+03 -0.55553150522E+02  0.40011136471E+02  0.17929733469E+03  0.00000000000E+00 0. -1.
          2    1    6    6  502    0 -0.58252813258E+01  0.14823591933E+02 -0.20430285963E+02  0.25905006559E+02  0.00000000000E+00 0. -1.
          1    1    5    5  503    0 -0.16990532087E+02 -0.29158568620E+02 -0.18625182185E+02  0.38546046697E+02  0.00000000000E+00 0. -1.
         -2    1    5    5    0  503 -0.19982573654E+03 -0.23916417746E+03 -0.49433331681E+03  0.58437595507E+03  0.00000000000E+00 0.  1.
         -1    1    6    6    0  502 -0.11849992679E+03  0.47688024244E+03 -0.10689138345E+03  0.50287450337E+03  0.00000000000E+00 0.  1.
<mgrwt>
<rscale>  0 0.14721031E+04</rscale>
<asrwt>0</asrwt>
<pdfrwt beam="1">  1        1 0.77877998E-01 0.14721031E+04</pdfrwt>
<pdfrwt beam="2">  1       -1 0.16465502E+00 0.14721031E+04</pdfrwt>
<totfact> 0.11387388E+01</totfact>
</mgrwt>
</event>
<event>
12    1  0.1541840E-007  0.1460290E+04  0.7818608E-02  0.8911298E-01
         -1   -1    0    0    0  501 -0.00000000000E+00  0.00000000000E+00  0.48219182401E+03  0.48219182401E+03  0.00000000000E+00 0.  1.
          1   -1    0    0  501    0  0.00000000000E+00 -0.00000000000E+00 -0.11056011306E+04  0.11056011306E+04  0.00000000000E+00 0. -1.
         23    2    1    2    0    0  0.83250726514E+02 -0.30046271394E+03 -0.51989928603E+03  0.61293443528E+03  0.90470041475E+02 0.  0.
        254    2    1    2    0    0 -0.83250726514E+02  0.30046271394E+03 -0.10351002061E+03  0.97485851938E+03  0.91783783018E+03 0.  0.
        -24    2    4    4    0    0 -0.43796203601E+03  0.21003201848E+03 -0.27417360961E+03  0.56332381357E+03  0.78983270075E+02 0.  0.
         24    2    4    4    0    0  0.35471130950E+03  0.90430695457E+02  0.17066358900E+03  0.41153470581E+03  0.78974234490E+02 0.  0.
         13    1    3    3    0    0  0.13279999956E+02 -0.79885179219E+02 -0.70137203655E+02  0.10713182344E+03  0.00000000000E+00 0.  1.
        -13    1    3    3    0    0  0.69970726559E+02 -0.22057753472E+03 -0.44976208238E+03  0.50580261184E+03  0.00000000000E+00 0. -1.
          2    1    6    6  502    0  0.10851384462E+02 -0.87638442905E+01 -0.21503848953E+01  0.14113173516E+02  0.00000000000E+00 0. -1.
          1    1    5    5  503    0 -0.13894508870E+03  0.86642332265E+02 -0.13045493308E+03  0.20935883306E+03  0.00000000000E+00 0. -1.
         -2    1    5    5    0  503 -0.29901694731E+03  0.12338968621E+03 -0.14371867653E+03  0.35396498051E+03  0.00000000000E+00 0.  1.
         -1    1    6    6    0  502  0.34385992504E+03  0.99194539748E+02  0.17281397390E+03  0.39742153230E+03  0.00000000000E+00 0.  1.
<mgrwt>
<rscale>  0 0.14602901E+04</rscale>
<asrwt>0</asrwt>
<pdfrwt beam="1">  1        1 0.17009248E+00 0.14602901E+04</pdfrwt>
<pdfrwt beam="2">  1       -1 0.74183359E-01 0.14602901E+04</pdfrwt>
<totfact> 0.22293119E+01</totfact>
</mgrwt>
</event>
<event>
12    1  0.1541840E-007  0.1821320E+04  0.7818608E-02  0.8695043E-01
          2   -1    0    0  501    0  0.00000000000E+00  0.00000000000E+00  0.18264468603E+04  0.18264468603E+04  0.00000000000E+00 0. -1.
         -2   -1    0    0    0  501 -0.00000000000E+00 -0.00000000000E+00 -0.45405166712E+03  0.45405166712E+03  0.00000000000E+00 0.  1.
         23    2    1    2    0    0 -0.11985176415E+03  0.65872228401E+03  0.27661457095E+03  0.72999905273E+03  0.90019460669E+02 0.  0.
        254    2    1    2    0    0  0.11985176415E+03 -0.65872228401E+03  0.10957806223E+04  0.15504994747E+04  0.86892689922E+03 0.  0.
        -24    2    4    4    0    0  0.47511548145E+03 -0.48256494750E+03  0.79073238914E+03  0.10438030826E+04  0.75256326538E+02 0.  0.
         24    2    4    4    0    0 -0.35526371730E+03 -0.17615733651E+03  0.30504823313E+03  0.50669639216E+03  0.80268880992E+02 0.  0.
         13    1    3    3    0    0 -0.34761513831E+02  0.23303471087E+03  0.14379462991E+03  0.27602614895E+03  0.00000000000E+00 0. -1.
        -13    1    3    3    0    0 -0.85090250315E+02  0.42568757314E+03  0.13281994104E+03  0.45397290377E+03  0.00000000000E+00 0.  1.
          2    1    6    6  502    0 -0.95569822289E+02 -0.47456499599E+02  0.12967730027E+03  0.16793425050E+03  0.00000000000E+00 0. -1.
          3    1    5    5  503    0  0.86620530881E+02 -0.95599478121E+02  0.19817429522E+03  0.23646443258E+03  0.00000000000E+00 0. -1.
         -4    1    5    5    0  503  0.38849495057E+03 -0.38696546938E+03  0.59255809392E+03  0.80733865000E+03  0.00000000000E+00 0.  1.
         -1    1    6    6    0  502 -0.25969389501E+03 -0.12870083691E+03  0.17537093286E+03  0.33876214166E+03  0.00000000000E+00 0.  1.
<mgrwt>
<rscale>  0 0.18213196E+04</rscale>
<asrwt>0</asrwt>
<pdfrwt beam="1">  1        2 0.28099182E+00 0.18213196E+04</pdfrwt>
<pdfrwt beam="2">  1       -2 0.69854103E-01 0.18213196E+04</pdfrwt>
<totfact> 0.14680082E+01</totfact>
</mgrwt>
</event>
<event>
12    1  0.1541840E-007  0.1299030E+04  0.7818608E-02  0.9030334E-01
         -2   -1    0    0    0  501 -0.00000000000E+00  0.00000000000E+00  0.43709688136E+03  0.43709688136E+03  0.00000000000E+00 0.  1.
          2   -1    0    0  501    0  0.00000000000E+00 -0.00000000000E+00 -0.96516363576E+03  0.96516363576E+03  0.00000000000E+00 0. -1.
         23    2    1    2    0    0 -0.10857573112E+03 -0.16831659009E+03  0.14049740191E+03  0.26082174434E+03  0.90384171678E+02 0.  0.
        254    2    1    2    0    0  0.10857573112E+03  0.16831659009E+03 -0.66856415631E+03  0.11414387728E+04  0.90320832427E+03 0.  0.
        -24    2    4    4    0    0  0.42597244221E+03 -0.15793975240E+03 -0.29937923733E+03  0.54978296187E+03  0.78967654800E+02 0.  0.
         24    2    4    4    0    0 -0.31739671109E+03  0.32625634248E+03 -0.36918491897E+03  0.59165581092E+03  0.81087736259E+02 0.  0.
         11    1    3    3    0    0 -0.79143262433E+02 -0.55473880624E+02  0.32748229578E+02  0.10204633242E+03  0.00000000000E+00 0. -1.
        -11    1    3    3    0    0 -0.29432468688E+02 -0.11284270946E+03  0.10774917233E+03  0.15877541192E+03  0.00000000000E+00 0.  1.
          4    1    6    6  502    0 -0.97803428252E+02  0.14284321123E+03 -0.10657207407E+03  0.20329117183E+03  0.00000000000E+00 0. -1.
          1    1    5    5  503    0  0.13870809683E+02 -0.24138932759E+02 -0.18532829491E+02  0.33444778440E+02  0.00000000000E+00 0. -1.
         -2    1    5    5    0  503  0.41210163253E+03 -0.13380081964E+03 -0.28084640784E+03  0.51633818343E+03  0.00000000000E+00 0.  1.
         -3    1    6    6    0  502 -0.21959328284E+03  0.18341313125E+03 -0.26261284490E+03  0.38836463908E+03  0.00000000000E+00 0.  1.
<mgrwt>
<rscale>  0 0.12990304E+04</rscale>
<asrwt>0</asrwt>
<pdfrwt beam="1">  1        2 0.14848671E+00 0.12990304E+04</pdfrwt>
<pdfrwt beam="2">  1       -2 0.67245674E-01 0.12990304E+04</pdfrwt>
<totfact> 0.52779760E+01</totfact>
</mgrwt>
</event>
<event>
12    1  0.1541840E-007  0.1483585E+04  0.7818608E-02  0.8895443E-01
          1   -1    0    0  501    0  0.00000000000E+00  0.00000000000E+00  0.19052279727E+04  0.19052279727E+04  0.00000000000E+00 0. -1.
         -1   -1    0    0    0  501 -0.00000000000E+00 -0.00000000000E+00 -0.28881364221E+03  0.28881364221E+03  0.00000000000E+00 0.  1.
         23    2    1    2    0    0  0.37898908506E+03 -0.22355713950E+03  0.29610070618E+03  0.53821641457E+03  0.91601088960E+02 0.  0.
        254    2    1    2    0    0 -0.37898908506E+03  0.22355713950E+03  0.13203136243E+04  0.16558252003E+04  0.89717250645E+03 0.  0.
        -24    2    4    4    0    0  0.10116774102E+03 -0.40825022041E+02 -0.74530210506E+02  0.15500537533E+03  0.81057509554E+02 0.  0.
         24    2    4    4    0    0 -0.48015682608E+03  0.26438216154E+03  0.13948438348E+04  0.15008198250E+04  0.80139370224E+02 0.  0.
         11    1    3    3    0    0  0.33454843621E+03 -0.22590661775E+03  0.27815705381E+03  0.49023239662E+03  0.00000000000E+00 0.  1.
        -11    1    3    3    0    0  0.44440648853E+02  0.23494782497E+01  0.17943652374E+02  0.47984017954E+02  0.00000000000E+00 0. -1.
          4    1    6    6  502    0 -0.22236236185E+03  0.89789773352E+02  0.53308100933E+03  0.58453621434E+03  0.00000000000E+00 0. -1.
          3    1    5    5  503    0 -0.13599812897E+02 -0.99784304867E+01 -0.12146068544E+02  0.20785835727E+02  0.00000000000E+00 0. -1.
         -4    1    5    5    0  503  0.11476755392E+03 -0.30846591554E+02 -0.62384141961E+02  0.13421953960E+03  0.00000000000E+00 0.  1.
         -3    1    6    6    0  502 -0.25779446423E+03  0.17459238819E+03  0.86176282548E+03  0.91628361067E+03  0.00000000000E+00 0.  1.
<mgrwt>
<rscale>  0 0.14835846E+04</rscale>
<asrwt>0</asrwt>
<pdfrwt beam="1">  1        1 0.29311199E+00 0.14835846E+04</pdfrwt>
<pdfrwt beam="2">  1       -1 0.44432869E-01 0.14835846E+04</pdfrwt>
<totfact> 0.16793744E+01</totfact>
</mgrwt>
</event>
<event>
12    1  0.1541840E-007  0.1530605E+04  0.7818608E-02  0.8864352E-01
         -2   -1    0    0    0  501 -0.00000000000E+00  0.00000000000E+00  0.38167684321E+03  0.38167684321E+03  0.00000000000E+00 0.  1.
          2   -1    0    0  501    0  0.00000000000E+00 -0.00000000000E+00 -0.15345121820E+04  0.15345121820E+04  0.00000000000E+00 0. -1.
         23    2    1    2    0    0 -0.11517859207E+03 -0.27696084170E+03  0.11545822282E+03  0.33393836555E+03  0.90613546793E+02 0.  0.
        254    2    1    2    0    0  0.11517859207E+03  0.27696084170E+03 -0.12682935616E+04  0.15822506596E+04  0.89720408806E+03 0.  0.
        -24    2    4    4    0    0  0.25125350013E+03 -0.14552805241E+03 -0.80527460153E+02  0.31160843538E+03  0.79425498396E+02 0.  0.
         24    2    4    4    0    0 -0.13607490806E+03  0.42248889411E+03 -0.11877661014E+04  0.12706422242E+04  0.82037211548E+02 0.  0.
         13    1    3    3    0    0 -0.23551039979E+02 -0.37309907154E+02  0.54692725336E+02  0.70270725488E+02  0.00000000000E+00 0. -1.
        -13    1    3    3    0    0 -0.91627552093E+02 -0.23965093455E+03  0.60765497486E+02  0.26366764006E+03  0.00000000000E+00 0.  1.
          2    1    6    6  502    0 -0.13860733738E+03  0.42330712055E+03 -0.11572688623E+04  0.12400290851E+04  0.00000000000E+00 0. -1.
          3    1    5    5  503    0  0.24901837764E+03 -0.13526060954E+03 -0.90133737484E+02  0.29737127556E+03  0.00000000000E+00 0. -1.
         -4    1    5    5    0  503  0.22351224926E+01 -0.10267442864E+02  0.96062773319E+01  0.14237159819E+02  0.00000000000E+00 0.  1.
         -3    1    6    6    0  502  0.25324293215E+01 -0.81822643840E+00 -0.30497239144E+02  0.30613139143E+02  0.00000000000E+00 0.  1.
<mgrwt>
<rscale>  0 0.15306048E+04</rscale>
<asrwt>0</asrwt>
<pdfrwt beam="1">  1        2 0.23607880E+00 0.15306048E+04</pdfrwt>
<pdfrwt beam="2">  1       -2 0.58719513E-01 0.15306048E+04</pdfrwt>
<totfact> 0.31710734E+01</totfact>
</mgrwt>
</event>
<event>
12    1  0.1541840E-007  0.1545060E+04  0.7818608E-02  0.8855029E-01
         -2   -1    0    0    0  501 -0.00000000000E+00  0.00000000000E+00  0.39912007541E+03  0.39912007541E+03  0.00000000000E+00 0.  1.
          2   -1    0    0  501    0  0.00000000000E+00 -0.00000000000E+00 -0.14952959137E+04  0.14952959137E+04  0.00000000000E+00 0. -1.
         23    2    1    2    0    0 -0.22554647748E+03 -0.49615666792E+02  0.18758507034E+03  0.31094104933E+03  0.90350703636E+02 0.  0.
        254    2    1    2    0    0  0.22554647748E+03  0.49615666792E+02 -0.12837609086E+04  0.15834749398E+04  0.89778498899E+03 0.  0.
        -24    2    4    4    0    0  0.13417227045E+02 -0.34245297168E+03 -0.19305223784E+03  0.40184206526E+03  0.82181622567E+02 0.  0.
         24    2    4    4    0    0  0.21212925044E+03  0.39206863847E+03 -0.10907086708E+04  0.11816328745E+04  0.88849363567E+02 0.  0.
         11    1    3    3    0    0 -0.67001748882E+02  0.25193103627E+02  0.41478749809E+02  0.82730970678E+02  0.00000000000E+00 0. -1.
        -11    1    3    3    0    0 -0.15854472860E+03 -0.74808770420E+02  0.14610632054E+03  0.22821007865E+03  0.00000000000E+00 0.  1.
          4    1    6    6  502    0  0.58708061896E+02  0.18269518274E+03 -0.53262058319E+03  0.56613501214E+03  0.00000000000E+00 0. -1.
          3    1    5    5  503    0  0.11201033280E+02 -0.34169017815E+03 -0.17578981094E+03  0.38442125152E+03  0.00000000000E+00 0. -1.
         -4    1    5    5    0  503  0.22161937656E+01 -0.76279352400E+00 -0.17262426905E+02  0.17420813741E+02  0.00000000000E+00 0.  1.
         -3    1    6    6    0  502  0.15342118854E+03  0.20937345573E+03 -0.55808808760E+03  0.61549786237E+03  0.00000000000E+00 0.  1.
<mgrwt>
<rscale>  0 0.15450600E+04</rscale>
<asrwt>0</asrwt>
<pdfrwt beam="1">  1        2 0.23004553E+00 0.15450600E+04</pdfrwt>
<pdfrwt beam="2">  1       -2 0.61403087E-01 0.15450600E+04</pdfrwt>
<totfact> 0.30323601E+01</totfact>
</mgrwt>
</event>
<event>
12    1  0.1541840E-007  0.1604195E+04  0.7818608E-02  0.8817975E-01
          1   -1    0    0  501    0  0.00000000000E+00  0.00000000000E+00  0.13738558864E+04  0.13738558864E+04  0.00000000000E+00 0. -1.
         -1   -1    0    0    0  501 -0.00000000000E+00 -0.00000000000E+00 -0.46828825876E+03  0.46828825876E+03  0.00000000000E+00 0.  1.
         23    2    1    2    0    0 -0.12618546750E+03  0.45257828991E+03  0.18633756718E+02  0.48197266543E+03  0.10583266331E+03 0.  0.
        254    2    1    2    0    0  0.12618546750E+03 -0.45257828991E+03  0.88693387095E+03  0.13601714798E+04  0.91796780021E+03 0.  0.
        -24    2    4    4    0    0 -0.28643106072E+03 -0.13687366364E+02  0.63757928666E+03  0.70352833190E+03  0.78833181224E+02 0.  0.
         24    2    4    4    0    0  0.41261652821E+03 -0.43889092355E+03  0.24935458429E+03  0.65664314786E+03  0.78261566576E+02 0.  0.
         11    1    3    3    0    0 -0.93451551209E+02  0.42859205872E+03  0.30416732067E+02  0.43971527471E+03  0.00000000000E+00 0.  1.
        -11    1    3    3    0    0 -0.32733916286E+02  0.23986231188E+02 -0.11782975349E+02  0.42257390716E+02  0.00000000000E+00 0. -1.
          2    1    6    6  502    0  0.31860097754E+03 -0.35587465962E+03  0.22851407313E+03  0.52950168826E+03  0.00000000000E+00 0. -1.
          3    1    5    5  503    0 -0.20154387169E+03 -0.45543441219E+02  0.45158187144E+03  0.49660882379E+03  0.00000000000E+00 0. -1.
         -4    1    5    5    0  503 -0.84887189026E+02  0.31856074856E+02  0.18599741522E+03  0.20691950810E+03  0.00000000000E+00 0.  1.
         -1    1    6    6    0  502  0.94015550673E+02 -0.83016263927E+02  0.20840511151E+02  0.12714145960E+03  0.00000000000E+00 0.  1.
<mgrwt>
<rscale>  0 0.16041952E+04</rscale>
<asrwt>0</asrwt>
<pdfrwt beam="1">  1        1 0.21136244E+00 0.16041952E+04</pdfrwt>
<pdfrwt beam="2">  1       -1 0.72044348E-01 0.16041952E+04</pdfrwt>
<totfact> 0.14947919E+01</totfact>
</mgrwt>
</event>
<event>
12    1  0.1541840E-007  0.1288358E+04  0.7818608E-02  0.9038848E-01
          2   -1    0    0  501    0  0.00000000000E+00  0.00000000000E+00  0.17916294002E+04  0.17916294002E+04  0.00000000000E+00 0. -1.
         -2   -1    0    0    0  501 -0.00000000000E+00 -0.00000000000E+00 -0.23161420699E+03  0.23161420699E+03  0.00000000000E+00 0.  1.
         23    2    1    2    0    0  0.76677123015E+02 -0.26502604090E+03  0.16163796796E+03  0.33300234374E+03  0.92981421241E+02 0.  0.
        254    2    1    2    0    0 -0.76677123015E+02  0.26502604090E+03  0.13983772253E+04  0.16902412635E+04  0.90848141480E+03 0.  0.
        -24    2    4    4    0    0 -0.27933714824E+02  0.59566015084E+03  0.81706804371E+03  0.10147367359E+04  0.80617290312E+02 0.  0.
         24    2    4    4    0    0 -0.48743408191E+02 -0.33063410994E+03  0.58130918156E+03  0.67550452753E+03  0.81799557735E+02 0.  0.
         13    1    3    3    0    0  0.36845215591E+02 -0.60600232327E+02  0.85885485013E+02  0.11138345751E+03  0.00000000000E+00 0. -1.
        -13    1    3    3    0    0  0.39831907424E+02 -0.20442580858E+03  0.75752482952E+02  0.22161888623E+03  0.00000000000E+00 0.  1.
          2    1    6    6  502    0 -0.68056505155E+02 -0.19258651291E+03  0.36182186191E+03  0.41549526183E+03  0.00000000000E+00 0. -1.
          1    1    5    5  503    0  0.23791332503E+02  0.95744634222E+02  0.14983680995E+03  0.17939936483E+03  0.00000000000E+00 0. -1.
         -2    1    5    5    0  503 -0.51725047327E+02  0.49991551662E+03  0.66723123375E+03  0.83533737111E+03  0.00000000000E+00 0.  1.
         -1    1    6    6    0  502  0.19313096964E+02 -0.13804759703E+03  0.21948731965E+03  0.26000926570E+03  0.00000000000E+00 0.  1.
<mgrwt>
<rscale>  0 0.12883584E+04</rscale>
<asrwt>0</asrwt>
<pdfrwt beam="1">  1        2 0.27563528E+00 0.12883584E+04</pdfrwt>
<pdfrwt beam="2">  1       -2 0.35632956E-01 0.12883584E+04</pdfrwt>
<totfact> 0.63331492E+01</totfact>
</mgrwt>
</event>
<event>
12    1  0.1541840E-007  0.1613841E+04  0.7818608E-02  0.8812090E-01
         -1   -1    0    0    0  501 -0.00000000000E+00  0.00000000000E+00  0.32758837536E+03  0.32758837536E+03  0.00000000000E+00 0.  1.
          1   -1    0    0  501    0  0.00000000000E+00 -0.00000000000E+00 -0.19876179217E+04  0.19876179217E+04  0.00000000000E+00 0. -1.
         23    2    1    2    0    0  0.26083673497E+03 -0.21501155931E+03 -0.11985376819E+04  0.12486976890E+04  0.92128011663E+02 0.  0.
        254    2    1    2    0    0 -0.26083673497E+03  0.21501155931E+03 -0.46149186444E+03  0.10665086081E+04  0.90011115829E+03 0.  0.
        -24    2    4    4    0    0  0.22102362818E+03  0.34378142104E+03 -0.62377704927E+02  0.42285034989E+03  0.88737425390E+02 0.  0.
         24    2    4    4    0    0 -0.48186036315E+03 -0.12876986173E+03 -0.39911415951E+03  0.64365825821E+03  0.78947794019E+02 0.  0.
         13    1    3    3    0    0  0.12568599194E+03 -0.13949212618E+03 -0.52410704316E+03  0.55672543909E+03  0.00000000000E+00 0. -1.
        -13    1    3    3    0    0  0.13515074303E+03 -0.75519433126E+02 -0.67443063878E+03  0.69197224991E+03  0.00000000000E+00 0.  1.
          2    1    6    6  502    0 -0.44817959688E+03 -0.12128850834E+03 -0.34098542355E+03  0.57606155260E+03  0.00000000000E+00 0. -1.
          1    1    5    5  503    0  0.20729021650E+03  0.34439862862E+03 -0.68564012965E+02  0.40777527282E+03  0.00000000000E+00 0. -1.
         -2    1    5    5    0  503  0.13733411678E+02 -0.61720757729E+00  0.61863080381E+01  0.15075077069E+02  0.00000000000E+00 0.  1.
         -1    1    6    6    0  502 -0.33680766271E+02 -0.74813533873E+01 -0.58128735958E+02  0.67596705609E+02  0.00000000000E+00 0.  1.
<mgrwt>
<rscale>  0 0.16138408E+04</rscale>
<asrwt>0</asrwt>
<pdfrwt beam="1">  1        1 0.30578737E+00 0.16138408E+04</pdfrwt>
<pdfrwt beam="2">  1       -1 0.50398212E-01 0.16138408E+04</pdfrwt>
<totfact> 0.11517102E+01</totfact>
</mgrwt>
</event>
<event>
12    1  0.1541840E-007  0.1901645E+04  0.7818608E-02  0.8654038E-01
         -1   -1    0    0    0  501 -0.00000000000E+00  0.00000000000E+00  0.32830833403E+03  0.32830833403E+03  0.00000000000E+00 0.  1.
          1   -1    0    0  501    0  0.00000000000E+00 -0.00000000000E+00 -0.27537030746E+04  0.27537030746E+04  0.00000000000E+00 0. -1.
         23    2    1    2    0    0 -0.10326049147E+03 -0.54197332564E+03 -0.17334983494E+04  0.18215187804E+04  0.92283937190E+02 0.  0.
        254    2    1    2    0    0  0.10326049147E+03  0.54197332564E+03 -0.69189639113E+03  0.12604926282E+04  0.89762087482E+03 0.  0.
        -24    2    4    4    0    0  0.25550055612E+02 -0.21868091975E+03 -0.34570862995E+03  0.41762426198E+03  0.80133746724E+02 0.  0.
         24    2    4    4    0    0  0.77710435859E+02  0.76065424540E+03 -0.34618776118E+03  0.84286836624E+03  0.77118894738E+02 0.  0.
         11    1    3    3    0    0 -0.72358317733E+02 -0.37793353251E+03 -0.10613280773E+04  0.11289316936E+04  0.00000000000E+00 0. -1.
        -11    1    3    3    0    0 -0.30902173737E+02 -0.16403979313E+03 -0.67217027206E+03  0.69258708674E+03  0.00000000000E+00 0.  1.
          4    1    6    6  502    0  0.28062227020E+02  0.58247891361E+03 -0.27399752016E+03  0.64431654832E+03  0.00000000000E+00 0. -1.
          3    1    5    5  503    0  0.20540238438E+02 -0.74550738897E+02 -0.61070949317E+02  0.98536160447E+02  0.00000000000E+00 0. -1.
         -4    1    5    5    0  503  0.50098171733E+01 -0.14413018086E+03 -0.28463768063E+03  0.31908810153E+03  0.00000000000E+00 0.  1.
         -3    1    6    6    0  502  0.49648208839E+02  0.17817533179E+03 -0.72190241019E+02  0.19855181791E+03  0.00000000000E+00 0.  1.
<mgrwt>
<rscale>  0 0.19016453E+04</rscale>
<asrwt>0</asrwt>
<pdfrwt beam="1">  1        1 0.42364664E+00 0.19016453E+04</pdfrwt>
<pdfrwt beam="2">  1       -1 0.50508973E-01 0.19016453E+04</pdfrwt>
<totfact> 0.33162993E+00</totfact>
</mgrwt>
</event>
<event>
12    1  0.1541840E-007  0.1476933E+04  0.7818608E-02  0.8899939E-01
          2   -1    0    0  501    0  0.00000000000E+00  0.00000000000E+00  0.11813360152E+04  0.11813360152E+04  0.00000000000E+00 0. -1.
         -2   -1    0    0    0  501 -0.00000000000E+00 -0.00000000000E+00 -0.46162348084E+03  0.46162348084E+03  0.00000000000E+00 0.  1.
         23    2    1    2    0    0  0.11987789634E+03  0.23746303578E+03 -0.18602201356E+03  0.33728774114E+03  0.91648390058E+02 0.  0.
        254    2    1    2    0    0 -0.11987789634E+03 -0.23746303578E+03  0.90573454796E+03  0.13056717550E+04  0.90203340122E+03 0.  0.
        -24    2    4    4    0    0  0.53306443298E+02 -0.19772386181E+03  0.10438451917E+04  0.10668018868E+04  0.80729046993E+02 0.  0.
         24    2    4    4    0    0 -0.17318433963E+03 -0.39739173978E+02 -0.13811064371E+03  0.23886986818E+03  0.80076504505E+02 0.  0.
         13    1    3    3    0    0  0.46793435951E+02  0.14014027847E+03 -0.52941277530E+02  0.15694490168E+03  0.00000000000E+00 0. -1.
        -13    1    3    3    0    0  0.73084460385E+02  0.97322757313E+02 -0.13308073603E+03  0.18034283945E+03  0.00000000000E+00 0.  1.
          2    1    6    6  502    0 -0.13257044382E+03  0.52111717188E+00 -0.12018154495E+03  0.17893797217E+03  0.00000000000E+00 0. -1.
          3    1    5    5  503    0  0.66738514258E+01 -0.13641671219E+03  0.53494243259E+03  0.55210276746E+03  0.00000000000E+00 0. -1.
         -2    1    5    5    0  503  0.46632591873E+02 -0.61307149620E+02  0.50890275908E+03  0.51469911931E+03  0.00000000000E+00 0.  1.
         -1    1    6    6    0  502 -0.40613895813E+02 -0.40260291149E+02 -0.17929098762E+02  0.59931896006E+02  0.00000000000E+00 0.  1.
<mgrwt>
<rscale>  0 0.14769326E+04</rscale>
<asrwt>0</asrwt>
<pdfrwt beam="1">  1        2 0.18174400E+00 0.14769326E+04</pdfrwt>
<pdfrwt beam="2">  1       -2 0.71018997E-01 0.14769326E+04</pdfrwt>
<totfact> 0.33882151E+01</totfact>
</mgrwt>
</event>
<event>
12    1  0.1541840E-007  0.1372364E+04  0.7818608E-02  0.8974069E-01
          1   -1    0    0  501    0  0.00000000000E+00  0.00000000000E+00  0.18146458663E+04  0.18146458663E+04  0.00000000000E+00 0. -1.
         -1   -1    0    0    0  501 -0.00000000000E+00 -0.00000000000E+00 -0.25946994040E+03  0.25946994040E+03  0.00000000000E+00 0.  1.
         23    2    1    2    0    0 -0.25011505676E+02 -0.10134683668E+03  0.10040047258E+04  0.10134429672E+04  0.90246338745E+02 0.  0.
        254    2    1    2    0    0  0.25011505676E+02  0.10134683668E+03  0.55117120012E+03  0.10606728395E+04  0.90018910451E+03 0.  0.
        -24    2    4    4    0    0  0.20076967037E+03 -0.16861431374E+03  0.65752959957E+03  0.71235519109E+03  0.79784062495E+02 0.  0.
         24    2    4    4    0    0 -0.17575816469E+03  0.26996115042E+03 -0.10635839944E+03  0.34831764841E+03  0.79013415750E+02 0.  0.
         11    1    3    3    0    0 -0.17507121855E+01 -0.11201965003E+03  0.78697519149E+03  0.79490969236E+03  0.00000000000E+00 0. -1.
        -11    1    3    3    0    0 -0.23260793490E+02  0.10672813347E+02  0.21702953426E+03  0.21853327481E+03  0.00000000000E+00 0.  1.
          4    1    6    6  502    0 -0.79704706556E+02  0.15527389577E+03 -0.93926348384E+02  0.19820439419E+03  0.00000000000E+00 0. -1.
          3    1    5    5  503    0  0.14926773299E+02 -0.17088241603E+02  0.14183674290E+03  0.14364009955E+03  0.00000000000E+00 0. -1.
         -4    1    5    5    0  503  0.18584289707E+03 -0.15152607214E+03  0.51569285667E+03  0.56871509154E+03  0.00000000000E+00 0.  1.
         -3    1    6    6    0  502 -0.96053458136E+02  0.11468725465E+03 -0.12432051060E+02  0.15011325422E+03  0.00000000000E+00 0.  1.
<mgrwt>
<rscale>  0 0.13723645E+04</rscale>
<asrwt>0</asrwt>
<pdfrwt beam="1">  1        1 0.27917628E+00 0.13723645E+04</pdfrwt>
<pdfrwt beam="2">  1       -1 0.39918453E-01 0.13723645E+04</pdfrwt>
<totfact> 0.23796523E+01</totfact>
</mgrwt>
</event>
<event>
12    1  0.1541840E-007  0.1267043E+04  0.7818608E-02  0.9056116E-01
         -2   -1    0    0    0  501 -0.00000000000E+00  0.00000000000E+00  0.13845197806E+03  0.13845197806E+03  0.00000000000E+00 0. -1.
          2   -1    0    0  501    0  0.00000000000E+00 -0.00000000000E+00 -0.28988359516E+04  0.28988359516E+04  0.00000000000E+00 0.  1.
         23    2    1    2    0    0  0.18896462144E+03  0.21640225341E+03 -0.46938924667E+03  0.55796823252E+03  0.92003913925E+02 0.  0.
        254    2    1    2    0    0 -0.18896462144E+03 -0.21640225341E+03 -0.22909947269E+04  0.24793196972E+04  0.90323405529E+03 0.  0.
        -24    2    4    4    0    0  0.26110083187E+03  0.17789722737E+03 -0.10536195188E+04  0.11024647936E+04  0.74117897779E+02 0.  0.
         24    2    4    4    0    0 -0.45006545331E+03 -0.39429948078E+03 -0.12373752081E+04  0.13768549036E+04  0.81246705231E+02 0.  0.
         11    1    3    3    0    0  0.15913403922E+03  0.20880919930E+03 -0.36828335412E+03  0.45228039209E+03  0.00000000000E+00 0. -1.
        -11    1    3    3    0    0  0.29830582220E+02  0.75930541141E+01 -0.10110589255E+03  0.10568784043E+03  0.00000000000E+00 0.  1.
          4    1    6    6  502    0 -0.30582450648E+03 -0.28743730366E+03 -0.94098703670E+03  0.10303423875E+04  0.00000000000E+00 0. -1.
          3    1    5    5  503    0  0.21680854294E+03  0.17649598155E+03 -0.88406974015E+03  0.92721954318E+03  0.00000000000E+00 0. -1.
         -4    1    5    5    0  503  0.44292288931E+02  0.14012458206E+01 -0.16954977866E+03  0.17524525041E+03  0.00000000000E+00 0.  1.
         -3    1    6    6    0  502 -0.14424094683E+03 -0.10686217712E+03 -0.29638817138E+03  0.34651251604E+03  0.00000000000E+00 0.  1.
<mgrwt>
<rscale>  0 0.12670431E+04</rscale>
<asrwt>0</asrwt>
<pdfrwt beam="1">  1        2 0.44597471E+00 0.12670431E+04</pdfrwt>
<pdfrwt beam="2">  1       -2 0.21300307E-01 0.12670431E+04</pdfrwt>
<totfact> 0.38210620E+01</totfact>
</mgrwt>
</event>
<event>
12    1  0.1541840E-007  0.2809520E+04  0.7818608E-02  0.8300319E-01
          4   -1    0    0  501    0  0.00000000000E+00  0.00000000000E+00  0.19967916631E+04  0.19967916631E+04  0.00000000000E+00 0. -1.
         -4   -1    0    0    0  501 -0.00000000000E+00 -0.00000000000E+00 -0.98826069777E+03  0.98826069777E+03  0.00000000000E+00 0.  1.
         23    2    1    2    0    0 -0.89968995766E+02 -0.10053044708E+04  0.12520437170E+04  0.16108065689E+04  0.91393840734E+02 0.  0.
        254    2    1    2    0    0  0.89968995766E+02  0.10053044708E+04 -0.24351275162E+03  0.13742457920E+04  0.90028969641E+03 0.  0.
        -24    2    4    4    0    0  0.12169925940E+03  0.11311828425E+04 -0.34411444707E+03  0.11916894975E+04  0.85579044410E+02 0.  0.
         24    2    4    4    0    0 -0.31730263638E+02 -0.12587837179E+03  0.10060169546E+03  0.18255629445E+03  0.79711513604E+02 0.  0.
         11    1    3    3    0    0 -0.53852995153E+02 -0.30305085404E+03  0.43414258070E+03  0.53218393963E+03  0.00000000000E+00 0.  1.
        -11    1    3    3    0    0 -0.36116000613E+02 -0.70225361672E+03  0.81790113629E+03  0.10786226293E+04  0.00000000000E+00 0. -1.
          2    1    6    6  502    0  0.83818966506E+01 -0.13043925295E+02 -0.10882641002E+02  0.18942862871E+02  0.00000000000E+00 0. -1.
          3    1    5    5  503    0 -0.76149244961E+01  0.57233517737E+02 -0.44564996005E+01  0.57909610742E+02  0.00000000000E+00 0. -1.
         -4    1    5    5    0  503  0.12931418390E+03  0.10739493248E+04 -0.33965794747E+03  0.11337798868E+04  0.00000000000E+00 0.  1.
         -3    1    6    6    0  502 -0.40112160289E+02 -0.11283444649E+03  0.11148433646E+03  0.16361343158E+03  0.00000000000E+00 0.  1.
<mgrwt>
<rscale>  0 0.28095200E+04</rscale>
<asrwt>0</asrwt>
<pdfrwt beam="1">  1        4 0.30719872E+00 0.28095200E+04</pdfrwt>
<pdfrwt beam="2">  1       -4 0.15204011E+00 0.28095200E+04</pdfrwt>
<totfact> 0.13834757E-02</totfact>
</mgrwt>
</event>
<event>
12    1  0.1541840E-007  0.2090624E+04  0.7818608E-02  0.8565385E-01
         -2   -1    0    0    0  501 -0.00000000000E+00  0.00000000000E+00  0.54595045380E+03  0.54595045380E+03  0.00000000000E+00 0.  1.
          2   -1    0    0  501    0  0.00000000000E+00 -0.00000000000E+00 -0.20014227388E+04  0.20014227388E+04  0.00000000000E+00 0. -1.
         23    2    1    2    0    0 -0.77885220918E+03  0.10216910398E+03 -0.98455836826E+03  0.12629463380E+04  0.92892317845E+02 0.  0.
        254    2    1    2    0    0  0.77885220918E+03 -0.10216910398E+03 -0.47091391673E+03  0.12844268546E+04  0.90052381322E+03 0.  0.
        -24    2    4    4    0    0  0.76816310852E+03  0.26679811422E+03 -0.32967184442E+03  0.88128720868E+03  0.82023314581E+02 0.  0.
         24    2    4    4    0    0  0.10689100654E+02 -0.36896721821E+03 -0.14124207231E+03  0.40313964587E+03  0.79505887194E+02 0.  0.
         13    1    3    3    0    0 -0.10471100166E+03 -0.17950649734E+02 -0.13276672514E+03  0.17004006292E+03  0.00000000000E+00 0.  1.
        -13    1    3    3    0    0 -0.67414120751E+03  0.12011975372E+03 -0.85179164312E+03  0.10929062751E+04  0.00000000000E+00 0. -1.
          2    1    6    6  502    0 -0.26105332129E+02 -0.78488562278E+02 -0.49065018173E+02  0.96173378761E+02  0.00000000000E+00 0. -1.
          1    1    5    5  503    0  0.37039875045E+03  0.12879190983E+03 -0.11484744024E+03  0.40862271707E+03  0.00000000000E+00 0. -1.
         -2    1    5    5    0  503  0.39776435807E+03  0.13800620439E+03 -0.21482440417E+03  0.47266449161E+03  0.00000000000E+00 0.  1.
         -1    1    6    6    0  502  0.36794432783E+02 -0.29047865593E+03 -0.92177054137E+02  0.30696626711E+03  0.00000000000E+00 0.  1.
<mgrwt>
<rscale>  0 0.20906245E+04</rscale>
<asrwt>0</asrwt>
<pdfrwt beam="1">  1        2 0.30791119E+00 0.20906245E+04</pdfrwt>
<pdfrwt beam="2">  1       -2 0.83992377E-01 0.20906245E+04</pdfrwt>
<totfact> 0.76141064E+00</totfact>
</mgrwt>
</event>
<event>
12    1  0.1541840E-007  0.2081014E+04  0.7818608E-02  0.8569653E-01
          3   -1    0    0  501    0  0.00000000000E+00  0.00000000000E+00  0.91219764898E+03  0.91219764898E+03  0.00000000000E+00 0. -1.
         -3   -1    0    0    0  501 -0.00000000000E+00 -0.00000000000E+00 -0.11868643557E+04  0.11868643557E+04  0.00000000000E+00 0.  1.
         23    2    1    2    0    0  0.56302583153E+02  0.21143085398E+03  0.71074922114E+03  0.75008143439E+03  0.97901562698E+02 0.  0.
        254    2    1    2    0    0 -0.56302583153E+02 -0.21143085398E+03 -0.98541592786E+03  0.13489805703E+04  0.89489163660E+03 0.  0.
        -24    2    4    4    0    0  0.28720039215E+03 -0.35440795922E+03 -0.26335216762E+03  0.53274243857E+03  0.79819013113E+02 0.  0.
         24    2    4    4    0    0 -0.34350297530E+03  0.14297710525E+03 -0.72206376024E+03  0.81623813172E+03  0.80198922406E+02 0.  0.
         11    1    3    3    0    0  0.59746695725E+02  0.22010513218E+03  0.65535328114E+03  0.69390479171E+03  0.00000000000E+00 0. -1.
        -11    1    3    3    0    0 -0.34441125713E+01 -0.86742782015E+01  0.55395939997E+02  0.56176642671E+02  0.00000000000E+00 0.  1.
          4    1    6    6  502    0 -0.20538600098E+03  0.42821069356E+02 -0.41149039605E+03  0.46188894706E+03  0.00000000000E+00 0. -1.
          3    1    5    5  503    0  0.27002586596E+03 -0.35451059955E+03 -0.25698767088E+03  0.51442627894E+03  0.00000000000E+00 0. -1.
         -4    1    5    5    0  503  0.17174526194E+02  0.10264032561E+00 -0.63644967429E+01  0.18316159636E+02  0.00000000000E+00 0.  1.
         -3    1    6    6    0  502 -0.13811697432E+03  0.10015603589E+03 -0.31057336419E+03  0.35434918466E+03  0.00000000000E+00 0.  1.
<mgrwt>
<rscale>  0 0.20810141E+04</rscale>
<asrwt>0</asrwt>
<pdfrwt beam="1">  1        3 0.14033810E+00 0.20810141E+04</pdfrwt>
<pdfrwt beam="2">  1       -3 0.18259452E+00 0.20810141E+04</pdfrwt>
<totfact> 0.17571650E-01</totfact>
</mgrwt>
</event>
<event>
12    1  0.1541840E-007  0.1778241E+04  0.7818608E-02  0.8717957E-01
          2   -1    0    0  501    0  0.00000000000E+00  0.00000000000E+00  0.22781894492E+04  0.22781894492E+04  0.00000000000E+00 0. -1.
         -2   -1    0    0    0  501 -0.00000000000E+00 -0.00000000000E+00 -0.34700173540E+03  0.34700173540E+03  0.00000000000E+00 0.  1.
         23    2    1    2    0    0 -0.49941893213E+03  0.43730076176E+03  0.65271442923E+03  0.93549406702E+03  0.91988028010E+02 0.  0.
        254    2    1    2    0    0  0.49941893213E+03 -0.43730076176E+03  0.12784732845E+04  0.16896971175E+04  0.88313712624E+03 0.  0.
        -24    2    4    4    0    0  0.40604477003E+03 -0.24654789787E+03  0.10286053367E+03  0.49236192977E+03  0.78624164779E+02 0.  0.
         24    2    4    4    0    0  0.93374162100E+02 -0.19075286389E+03  0.11756127509E+04  0.11973351878E+04  0.80254735910E+02 0.  0.
         11    1    3    3    0    0 -0.29771088199E+03  0.30734426340E+03  0.38025198669E+03  0.57243675535E+03  0.00000000000E+00 0. -1.
        -11    1    3    3    0    0 -0.20170805014E+03  0.12995649836E+03  0.27246244254E+03  0.36305731167E+03  0.00000000000E+00 0.  1.
          2    1    6    6  502    0  0.55009333710E+02 -0.17680558212E+03  0.91537313145E+03  0.93391338487E+03  0.00000000000E+00 0. -1.
          3    1    5    5  503    0  0.24542185898E+03 -0.10341607809E+03  0.59805429335E+02  0.27295322576E+03  0.00000000000E+00 0. -1.
         -4    1    5    5    0  503  0.16062291105E+03 -0.14313181978E+03  0.43055104333E+02  0.21940870401E+03  0.00000000000E+00 0.  1.
         -1    1    6    6    0  502  0.38364828390E+02 -0.13947281770E+02  0.26023961942E+03  0.26342180290E+03  0.00000000000E+00 0.  1.
<mgrwt>
<rscale>  0 0.17782415E+04</rscale>
<asrwt>0</asrwt>
<pdfrwt beam="1">  1        2 0.35049068E+00 0.17782415E+04</pdfrwt>
<pdfrwt beam="2">  1       -2 0.53384884E-01 0.17782415E+04</pdfrwt>
<totfact> 0.14597661E+01</totfact>
</mgrwt>
</event>
<event>
12    1  0.1541840E-007  0.1448013E+04  0.7818608E-02  0.8919779E-01
         -1   -1    0    0    0  501 -0.00000000000E+00  0.00000000000E+00  0.24737891822E+03  0.24737891822E+03  0.00000000000E+00 0.  1.
          1   -1    0    0  501    0  0.00000000000E+00 -0.00000000000E+00 -0.21189582775E+04  0.21189582775E+04  0.00000000000E+00 0. -1.
         23    2    1    2    0    0 -0.12551544617E+03  0.31438568038E+03 -0.10352930840E+04  0.10929786182E+04  0.90432332637E+02 0.  0.
        254    2    1    2    0    0  0.12551544617E+03 -0.31438568038E+03 -0.83628627535E+03  0.12733585776E+04  0.89859604358E+03 0.  0.
        -24    2    4    4    0    0 -0.14425703658E+03  0.98146048412E+02  0.94355336621E+02  0.21707068394E+03  0.88170362693E+02 0.  0.
         24    2    4    4    0    0  0.26977248275E+03 -0.41253172880E+03 -0.93064161197E+03  0.10562878937E+04  0.81796605300E+02 0.  0.
         11    1    3    3    0    0 -0.81303496123E+02  0.28717819573E+03 -0.88450699390E+03  0.93350639893E+03  0.00000000000E+00 0. -1.
        -11    1    3    3    0    0 -0.44211950050E+02  0.27207484652E+02 -0.15078609007E+03  0.15947221923E+03  0.00000000000E+00 0.  1.
          2    1    6    6  502    0  0.18394220253E+03 -0.31605629751E+03 -0.61893277313E+03  0.71889087818E+03  0.00000000000E+00 0. -1.
          3    1    5    5  503    0 -0.87929354319E+02  0.10659242641E+03  0.72684644555E+02  0.15612999159E+03  0.00000000000E+00 0. -1.
         -4    1    5    5    0  503 -0.56327682258E+02 -0.84463780006E+01  0.21670692066E+02  0.60940692353E+02  0.00000000000E+00 0.  1.
         -1    1    6    6    0  502  0.85830280223E+02 -0.96475431288E+02 -0.31170883884E+03  0.33739701548E+03  0.00000000000E+00 0.  1.
<mgrwt>
<rscale>  0 0.14480133E+04</rscale>
<asrwt>0</asrwt>
<pdfrwt beam="1">  1        1 0.32599358E+00 0.14480133E+04</pdfrwt>
<pdfrwt beam="2">  1       -1 0.38058295E-01 0.14480133E+04</pdfrwt>
<totfact> 0.16047802E+01</totfact>
</mgrwt>
</event>
<event>
12    1  0.1541840E-007  0.1374039E+04  0.7818608E-02  0.8972828E-01
         -3   -1    0    0    0  501 -0.00000000000E+00  0.00000000000E+00  0.96998035207E+03  0.96998035207E+03  0.00000000000E+00 0.  1.
          3   -1    0    0  501    0  0.00000000000E+00 -0.00000000000E+00 -0.48660342356E+03  0.48660342356E+03  0.00000000000E+00 0. -1.
         23    2    1    2    0    0  0.27386299093E+02  0.65401173428E+02  0.55044050900E+03  0.56197658519E+03  0.88349337831E+02 0.  0.
        254    2    1    2    0    0 -0.27386299093E+02 -0.65401173428E+02 -0.67063580486E+02  0.89460719045E+03  0.88926777661E+03 0.  0.
        -24    2    4    4    0    0  0.39199189472E+03 -0.53798914985E+02 -0.19574560150E+03  0.44850122017E+03  0.79278213960E+02 0.  0.
         24    2    4    4    0    0 -0.41937819381E+03 -0.11602258443E+02  0.12868202101E+03  0.44610597028E+03  0.80242085825E+02 0.  0.
         13    1    3    3    0    0  0.36814338701E+02  0.60722290198E+02  0.54592453274E+03  0.55052346681E+03  0.00000000000E+00 0.  1.
        -13    1    3    3    0    0 -0.94280396089E+01  0.46788832302E+01  0.45159762593E+01  0.11453118384E+02  0.00000000000E+00 0. -1.
          4    1    6    6  502    0 -0.15685104145E+03 -0.16234998656E+02  0.87467370090E+02  0.18032294700E+03  0.00000000000E+00 0. -1.
          1    1    5    5  503    0  0.68320669054E+02 -0.88682220406E+01 -0.70426228520E+02  0.98520113914E+02  0.00000000000E+00 0. -1.
         -2    1    5    5    0  503  0.32367122567E+03 -0.44930692944E+02 -0.12531937298E+03  0.34998110626E+03  0.00000000000E+00 0.  1.
         -3    1    6    6    0  502 -0.26252715236E+03  0.46327402126E+01  0.41214650922E+02  0.26578302327E+03  0.00000000000E+00 0.  1.
<mgrwt>
<rscale>  0 0.13740390E+04</rscale>
<asrwt>0</asrwt>
<pdfrwt beam="1">  1        3 0.74862065E-01 0.13740390E+04</pdfrwt>
<pdfrwt beam="2">  1       -3 0.14922775E+00 0.13740390E+04</pdfrwt>
<totfact> 0.14074560E+00</totfact>
</mgrwt>
</event>
<event>
12    1  0.1541840E-007  0.1926561E+04  0.7818608E-02  0.8641747E-01
         -1   -1    0    0    0  501 -0.00000000000E+00  0.00000000000E+00  0.14719536521E+04  0.14719536521E+04  0.00000000000E+00 0. -1.
          1   -1    0    0  501    0  0.00000000000E+00 -0.00000000000E+00 -0.63039308193E+03  0.63039308193E+03  0.00000000000E+00 0.  1.
         23    2    1    2    0    0 -0.44488013209E+03  0.58717057419E+03  0.18632125881E+03  0.76551287852E+03  0.92772520521E+02 0.  0.
        254    2    1    2    0    0  0.44488013209E+03 -0.58717057419E+03  0.65523931132E+03  0.13368338555E+04  0.90282810485E+03 0.  0.
        -24    2    4    4    0    0  0.55991917908E+03 -0.75665246997E+03  0.50801319346E+03  0.10721849932E+04  0.73964906880E+02 0.  0.
         24    2    4    4    0    0 -0.11503904699E+03  0.16948189578E+03  0.14722611785E+03  0.26464886229E+03  0.80033712921E+02 0.  0.
         11    1    3    3    0    0 -0.33110478970E+03  0.37118934773E+03  0.10650824457E+03  0.50868056754E+03  0.00000000000E+00 0. -1.
        -11    1    3    3    0    0 -0.11377534239E+03  0.21598122646E+03  0.79813014233E+02  0.25683231097E+03  0.00000000000E+00 0.  1.
          2    1    6    6  502    0 -0.82357863836E+02  0.51476697812E+02  0.72541143489E+02  0.12122246348E+03  0.00000000000E+00 0. -1.
          3    1    5    5  503    0  0.53132461566E+03 -0.68514199046E+03  0.46112781909E+03  0.98202049868E+03  0.00000000000E+00 0. -1.
         -4    1    5    5    0  503  0.28594563417E+02 -0.71510479517E+02  0.46885374371E+02  0.90164494496E+02  0.00000000000E+00 0.  1.
         -1    1    6    6    0  502 -0.32681183149E+02  0.11800519797E+03  0.74684974363E+02  0.14342639881E+03  0.00000000000E+00 0.  1.
<mgrwt>
<rscale>  0 0.19265611E+04</rscale>
<asrwt>0</asrwt>
<pdfrwt beam="1">  1        1 0.96983551E-01 0.19265611E+04</pdfrwt>
<pdfrwt beam="2">  1       -1 0.22645441E+00 0.19265611E+04</pdfrwt>
<totfact> 0.29639974E+00</totfact>
</mgrwt>
</event>
<event>
12    1  0.1541840E-007  0.1588787E+04  0.7818608E-02  0.8827467E-01
         -2   -1    0    0    0  501 -0.00000000000E+00  0.00000000000E+00  0.42289515841E+03  0.42289515841E+03  0.00000000000E+00 0.  1.
          2   -1    0    0  501    0  0.00000000000E+00 -0.00000000000E+00 -0.14922393894E+04  0.14922393894E+04  0.00000000000E+00 0. -1.
         23    2    1    2    0    0  0.28808443046E+03 -0.44197953100E+03 -0.47074649296E+03  0.71249296398E+03  0.87780511494E+02 0.  0.
        254    2    1    2    0    0 -0.28808443046E+03  0.44197953100E+03 -0.59859773799E+03  0.12026415838E+04  0.89982719575E+03 0.  0.
        -24    2    4    4    0    0  0.24733867513E+02 -0.25717440865E+03 -0.18964973241E+03  0.33069594446E+03  0.81500589044E+02 0.  0.
         24    2    4    4    0    0 -0.31281829797E+03  0.69915393965E+03 -0.40894800557E+03  0.87194563931E+03  0.79869942947E+02 0.  0.
         13    1    3    3    0    0  0.15050709933E+02 -0.17310105684E-01 -0.96440239720E+01  0.17875440344E+02  0.00000000000E+00 0.  1.
        -13    1    3    3    0    0  0.27303372053E+03 -0.44196222089E+03 -0.46110246898E+03  0.69461752364E+03  0.00000000000E+00 0. -1.
          2    1    6    6  502    0 -0.30444750848E+03  0.62394344366E+03 -0.37406334322E+03  0.78861720185E+03  0.00000000000E+00 0. -1.
          1    1    5    5  503    0  0.33654826234E+02 -0.24338889713E+03 -0.19472400274E+03  0.31350955299E+03  0.00000000000E+00 0. -1.
         -2    1    5    5    0  503 -0.89209587216E+01 -0.13785511521E+02  0.50742703294E+01  0.17186391470E+02  0.00000000000E+00 0.  1.
         -1    1    6    6    0  502 -0.83707894888E+01  0.75210495983E+02 -0.34884662355E+02  0.83328437465E+02  0.00000000000E+00 0.  1.
<mgrwt>
<rscale>  0 0.15887867E+04</rscale>
<asrwt>0</asrwt>
<pdfrwt beam="1">  1        2 0.22957529E+00 0.15887867E+04</pdfrwt>
<pdfrwt beam="2">  1       -2 0.65060795E-01 0.15887867E+04</pdfrwt>
<totfact> 0.26810731E+01</totfact>
</mgrwt>
</event>
<event>
12    1  0.1541840E-007  0.1829820E+04  0.7818608E-02  0.8690601E-01
          1   -1    0    0  501    0  0.00000000000E+00  0.00000000000E+00  0.75583051145E+03  0.75583051145E+03  0.00000000000E+00 0. -1.
         -1   -1    0    0    0  501 -0.00000000000E+00 -0.00000000000E+00 -0.11074704549E+04  0.11074704549E+04  0.00000000000E+00 0.  1.
         23    2    1    2    0    0 -0.12401654733E+03 -0.37335186226E+03  0.44298234844E+03  0.59999313381E+03  0.94798114544E+02 0.  0.
        254    2    1    2    0    0  0.12401654733E+03  0.37335186226E+03 -0.79462229186E+03  0.12633078325E+04  0.89986130927E+03 0.  0.
        -24    2    4    4    0    0  0.24059226318E+03  0.45530494630E+03 -0.91945348117E+03  0.10569144735E+04  0.80537376518E+02 0.  0.
         24    2    4    4    0    0 -0.11657571585E+03 -0.81953084046E+02  0.12483118932E+03  0.20639335902E+03  0.81909628939E+02 0.  0.
         13    1    3    3    0    0 -0.98440722444E+02 -0.29801864516E+03  0.40345835743E+03  0.51115979388E+03  0.00000000000E+00 0. -1.
        -13    1    3    3    0    0 -0.25575824888E+02 -0.75333217099E+02  0.39523991008E+02  0.88833339926E+02  0.00000000000E+00 0.  1.
          4    1    6    6  502    0  0.12457349673E+02 -0.10092483516E+02  0.71781581006E+01  0.17566153197E+02  0.00000000000E+00 0. -1.
          1    1    5    5  503    0  0.12094538053E+03  0.17139179366E+03 -0.31472848250E+03  0.37822870026E+03  0.00000000000E+00 0. -1.
         -2    1    5    5    0  503  0.11964688265E+03  0.28391315264E+03 -0.60472499868E+03  0.67868577324E+03  0.00000000000E+00 0.  1.
         -3    1    6    6    0  502 -0.12903306552E+03 -0.71860600529E+02  0.11765303121E+03  0.18882720583E+03  0.00000000000E+00 0.  1.
<mgrwt>
<rscale>  0 0.18298196E+04</rscale>
<asrwt>0</asrwt>
<pdfrwt beam="1">  1        1 0.11628162E+00 0.18298196E+04</pdfrwt>
<pdfrwt beam="2">  1       -1 0.17038007E+00 0.18298196E+04</pdfrwt>
<totfact> 0.55678811E+00</totfact>
</mgrwt>
</event>
<event>
12    1  0.1541840E-007  0.1895354E+04  0.7818608E-02  0.8657172E-01
          1   -1    0    0  501    0  0.00000000000E+00  0.00000000000E+00  0.98021652941E+03  0.98021652941E+03  0.00000000000E+00 0. -1.
         -1   -1    0    0    0  501 -0.00000000000E+00 -0.00000000000E+00 -0.91621787552E+03  0.91621787552E+03  0.00000000000E+00 0.  1.
         23    2    1    2    0    0 -0.27327752895E+03 -0.67106790533E+03  0.15129972037E+02  0.73034663665E+03  0.90357911724E+02 0.  0.
        254    2    1    2    0    0  0.27327752895E+03  0.67106790533E+03  0.48868681858E+02  0.11660877683E+04  0.91233754383E+03 0.  0.
        -24    2    4    4    0    0  0.25039663720E+03  0.45512356224E+03 -0.40010199742E+03  0.66069159910E+03  0.81214825974E+02 0.  0.
         24    2    4    4    0    0  0.22880891750E+02  0.21594434309E+03  0.44897067928E+03  0.50539616919E+03  0.81823727947E+02 0.  0.
         13    1    3    3    0    0 -0.56265935185E+02 -0.13648590531E+03 -0.33395865333E+02  0.15135898266E+03  0.00000000000E+00 0.  1.
        -13    1    3    3    0    0 -0.21701159377E+03 -0.53458200002E+03  0.48525837371E+02  0.57898765399E+03  0.00000000000E+00 0. -1.
          4    1    6    6  502    0  0.37333897785E+02  0.40330107583E+02  0.88771007388E+02  0.10440607863E+03  0.00000000000E+00 0. -1.
          1    1    5    5  503    0  0.10796630223E+03  0.20668723499E+03 -0.23042540444E+03  0.32782953274E+03  0.00000000000E+00 0. -1.
         -2    1    5    5    0  503  0.14243033497E+03  0.24843632725E+03 -0.16967659297E+03  0.33286206636E+03  0.00000000000E+00 0.  1.
         -3    1    6    6    0  502 -0.14453006034E+02  0.17561423551E+03  0.36019967189E+03  0.40099009056E+03  0.00000000000E+00 0.  1.
<mgrwt>
<rscale>  0 0.18953542E+04</rscale>
<asrwt>0</asrwt>
<pdfrwt beam="1">  1        1 0.15080254E+00 0.18953542E+04</pdfrwt>
<pdfrwt beam="2">  1       -1 0.14095660E+00 0.18953542E+04</pdfrwt>
<totfact> 0.60445296E+00</totfact>
</mgrwt>
</event>
<event>
12    1  0.1541840E-007  0.2187384E+04  0.7818608E-02  0.8523697E-01
          1   -1    0    0  501    0  0.00000000000E+00  0.00000000000E+00  0.21406060883E+04  0.21406060883E+04  0.00000000000E+00 0. -1.
         -1   -1    0    0    0  501 -0.00000000000E+00 -0.00000000000E+00 -0.55879623637E+03  0.55879623637E+03  0.00000000000E+00 0.  1.
         23    2    1    2    0    0  0.12925776186E+03  0.80400052853E+03  0.17450333724E+03  0.83800538448E+03  0.93151440321E+02 0.  0.
        254    2    1    2    0    0 -0.12925776186E+03 -0.80400052853E+03  0.14073065147E+04  0.18613969402E+04  0.90618018286E+03 0.  0.
        -24    2    4    4    0    0  0.37786298175E+03 -0.23182716188E+03  0.50479959280E+03  0.67587520413E+03  0.73894497138E+02 0.  0.
         24    2    4    4    0    0 -0.50712074361E+03 -0.57217336665E+03  0.90250692193E+03  0.11855217361E+04  0.79932674887E+02 0.  0.
         11    1    3    3    0    0  0.97669969238E+02  0.61990722306E+03  0.93772047730E+02  0.63452154024E+03  0.00000000000E+00 0.  1.
        -11    1    3    3    0    0  0.31587792621E+02  0.18409330547E+03  0.80731289506E+02  0.20348384424E+03  0.00000000000E+00 0. -1.
          4    1    6    6  502    0 -0.43014918430E+03 -0.51055444471E+03  0.81646099629E+03  0.10546576318E+04  0.00000000000E+00 0. -1.
          1    1    5    5  503    0  0.37312918481E+03 -0.23199397604E+03  0.48041133790E+03  0.65103121819E+03  0.00000000000E+00 0. -1.
         -2    1    5    5    0  503  0.47337969405E+01  0.16681415888E+00  0.24388254900E+02  0.24843985942E+02  0.00000000000E+00 0.  1.
         -3    1    6    6    0  502 -0.76971559308E+02 -0.61618921938E+02  0.86045925639E+02  0.13086410433E+03  0.00000000000E+00 0.  1.
<mgrwt>
<rscale>  0 0.21873844E+04</rscale>
<asrwt>0</asrwt>
<pdfrwt beam="1">  1        1 0.32932401E+00 0.21873844E+04</pdfrwt>
<pdfrwt beam="2">  1       -1 0.85968653E-01 0.21873844E+04</pdfrwt>
<totfact> 0.29150312E+00</totfact>
</mgrwt>
</event>
<event>
12    1  0.1541840E-007  0.1295755E+04  0.7818608E-02  0.9032938E-01
          2   -1    0    0  501    0  0.00000000000E+00  0.00000000000E+00  0.26087855208E+04  0.26087855208E+04  0.00000000000E+00 0. -1.
         -2   -1    0    0    0  501 -0.00000000000E+00 -0.00000000000E+00 -0.16089691399E+03  0.16089691399E+03  0.00000000000E+00 0.  1.
         23    2    1    2    0    0  0.26159809189E+03 -0.16735674926E+03  0.53661453176E+03  0.62626374760E+03  0.88370145766E+02 0.  0.
        254    2    1    2    0    0 -0.26159809189E+03  0.16735674926E+03  0.19112740751E+04  0.21434186872E+04  0.91914810309E+03 0.  0.
        -24    2    4    4    0    0  0.17408090801E+03  0.33098638090E+03  0.13778222484E+04  0.14298816927E+04  0.79444067148E+02 0.  0.
         24    2    4    4    0    0 -0.43567899991E+03 -0.16362963165E+03  0.53345182662E+03  0.71353699454E+03  0.89293582874E+02 0.  0.
         13    1    3    3    0    0  0.63934731060E+02 -0.59046948911E+02  0.85633459381E+02  0.12209537820E+03  0.00000000000E+00 0.  1.
        -13    1    3    3    0    0  0.19766336083E+03 -0.10830980035E+03  0.45098107238E+03  0.50416836940E+03  0.00000000000E+00 0. -1.
          4    1    6    6  502    0 -0.53429218756E+02 -0.33588759755E+02  0.35329284944E+02  0.72325960577E+02  0.00000000000E+00 0. -1.
          3    1    5    5  503    0 -0.56709931843E+00  0.59269009085E+02  0.20607783588E+03  0.21443230046E+03  0.00000000000E+00 0. -1.
         -4    1    5    5    0  503  0.17464800733E+03  0.27171737182E+03  0.11717444126E+04  0.12154493922E+04  0.00000000000E+00 0.  1.
         -3    1    6    6    0  502 -0.38224978115E+03 -0.13004087189E+03  0.49812254167E+03  0.64121103397E+03  0.00000000000E+00 0.  1.
<mgrwt>
<rscale>  0 0.12957554E+04</rscale>
<asrwt>0</asrwt>
<pdfrwt beam="1">  1        2 0.40135159E+00 0.12957554E+04</pdfrwt>
<pdfrwt beam="2">  1       -2 0.24753373E-01 0.12957554E+04</pdfrwt>
<totfact> 0.43328837E+01</totfact>
</mgrwt>
</event>
<event>
12    1  0.1541840E-007  0.1836239E+04  0.7818608E-02  0.8687262E-01
         -2   -1    0    0    0  501 -0.00000000000E+00  0.00000000000E+00  0.34446995384E+03  0.34446995384E+03  0.00000000000E+00 0.  1.
          2   -1    0    0  501    0  0.00000000000E+00 -0.00000000000E+00 -0.24470744807E+04  0.24470744807E+04  0.00000000000E+00 0. -1.
         23    2    1    2    0    0 -0.47925841198E+03 -0.40182767671E+03 -0.12550261258E+04  0.14054542031E+04  0.95167396137E+02 0.  0.
        254    2    1    2    0    0  0.47925841198E+03  0.40182767671E+03 -0.84757840099E+03  0.13860902314E+04  0.90094554582E+03 0.  0.
        -24    2    4    4    0    0 -0.94559077086E+02 -0.18216763540E+03 -0.38135490350E+03  0.44040164327E+03  0.79972360988E+02 0.  0.
         24    2    4    4    0    0  0.57381748907E+03  0.58399531210E+03 -0.46622349748E+03  0.94568858813E+03  0.81520063715E+02 0.  0.
         13    1    3    3    0    0 -0.13229647035E+03 -0.16412065058E+03 -0.46132003448E+03  0.50720224588E+03  0.00000000000E+00 0. -1.
        -13    1    3    3    0    0 -0.34696194163E+03 -0.23770702612E+03 -0.79370609135E+03  0.89825195723E+03  0.00000000000E+00 0.  1.
          2    1    6    6  502    0  0.19782089694E+03  0.19432216532E+03 -0.11461349483E+03  0.30005076971E+03  0.00000000000E+00 0. -1.
          1    1    5    5  503    0 -0.16189515386E+02 -0.30580119524E+02 -0.14381917899E+03  0.14792295415E+03  0.00000000000E+00 0. -1.
         -2    1    5    5    0  503 -0.78369561700E+02 -0.15158751587E+03 -0.23753572451E+03  0.29247868912E+03  0.00000000000E+00 0.  1.
         -1    1    6    6    0  502  0.37599659212E+03  0.38967314678E+03 -0.35161000265E+03  0.64563781842E+03  0.00000000000E+00 0.  1.
<mgrwt>
<rscale>  0 0.18362392E+04</rscale>
<asrwt>0</asrwt>
<pdfrwt beam="1">  1        2 0.37647299E+00 0.18362392E+04</pdfrwt>
<pdfrwt beam="2">  1       -2 0.52995378E-01 0.18362392E+04</pdfrwt>
<totfact> 0.11816809E+01</totfact>
</mgrwt>
</event>
<event>
12    1  0.1541840E-007  0.1197512E+04  0.7818608E-02  0.9115037E-01
          1   -1    0    0  501    0  0.00000000000E+00  0.00000000000E+00  0.94513506421E+03  0.94513506421E+03  0.00000000000E+00 0. -1.
         -1   -1    0    0    0  501 -0.00000000000E+00 -0.00000000000E+00 -0.37931996414E+03  0.37931996414E+03  0.00000000000E+00 0.  1.
         23    2    1    2    0    0 -0.51730713553E+01 -0.20180072304E+03 -0.33952609897E+02  0.22327118704E+03  0.89145671571E+02 0.  0.
        254    2    1    2    0    0  0.51730713553E+01  0.20180072304E+03  0.59976770997E+03  0.11011838413E+04  0.90118491663E+03 0.  0.
        -24    2    4    4    0    0  0.24546770639E+03 -0.26921602352E+03  0.14131170627E+03  0.39780645298E+03  0.74493714535E+02 0.  0.
         24    2    4    4    0    0 -0.24029463504E+03  0.47101674655E+03  0.45845600370E+03  0.70337738833E+03  0.70424114672E+02 0.  0.
         13    1    3    3    0    0 -0.97472310490E+01 -0.17010069482E+03 -0.61385243021E+02  0.18110053272E+03  0.00000000000E+00 0.  1.
        -13    1    3    3    0    0  0.45741596937E+01 -0.31700028215E+02  0.27432633124E+02  0.42170654321E+02  0.00000000000E+00 0. -1.
          4    1    6    6  502    0 -0.11624968968E+03  0.19713748833E+03  0.15644097883E+03  0.27722005611E+03  0.00000000000E+00 0. -1.
          1    1    5    5  503    0  0.75828241238E+02 -0.45270119130E+02  0.54411395808E+02  0.10372996601E+03  0.00000000000E+00 0. -1.
         -2    1    5    5    0  503  0.16963946515E+03 -0.22394590439E+03  0.86900310462E+02  0.29407648697E+03  0.00000000000E+00 0.  1.
         -3    1    6    6    0  502 -0.12404494535E+03  0.27387925823E+03  0.30201502487E+03  0.42615733222E+03  0.00000000000E+00 0.  1.
<mgrwt>
<rscale>  0 0.11975118E+04</rscale>
<asrwt>0</asrwt>
<pdfrwt beam="1">  1        1 0.14540539E+00 0.11975118E+04</pdfrwt>
<pdfrwt beam="2">  1       -1 0.58356918E-01 0.11975118E+04</pdfrwt>
<totfact> 0.49257772E+01</totfact>
</mgrwt>
</event>
<event>
12    1  0.1541840E-007  0.2340957E+04  0.7818608E-02  0.8461945E-01
         -2   -1    0    0    0  501 -0.00000000000E+00  0.00000000000E+00  0.39757215552E+03  0.39757215552E+03  0.00000000000E+00 0.  1.
          2   -1    0    0  501    0  0.00000000000E+00 -0.00000000000E+00 -0.34459666339E+04  0.34459666339E+04  0.00000000000E+00 0. -1.
         23    2    1    2    0    0  0.45026059069E+03 -0.75241537897E+03 -0.20792654563E+04  0.22584444301E+04  0.91448914959E+02 0.  0.
        254    2    1    2    0    0 -0.45026059069E+03  0.75241537897E+03 -0.96912902213E+03  0.15850943594E+04  0.89691112409E+03 0.  0.
        -24    2    4    4    0    0  0.49234302806E+02  0.69339939033E+03 -0.34661329310E+03  0.78100510675E+03  0.81249435248E+02 0.  0.
         24    2    4    4    0    0 -0.49949489350E+03  0.59015988633E+02 -0.62251572903E+03  0.80408925262E+03  0.77818106760E+02 0.  0.
         13    1    3    3    0    0  0.17779261004E+03 -0.25524405259E+03 -0.83674513385E+03  0.89269376473E+03  0.00000000000E+00 0.  1.
        -13    1    3    3    0    0  0.27246798066E+03 -0.49717132638E+03 -0.12425203224E+04  0.13657506653E+04  0.00000000000E+00 0. -1.
          2    1    6    6  502    0 -0.42908732924E+03  0.49557343345E+02 -0.57268703432E+03  0.71731604309E+03  0.00000000000E+00 0. -1.
          3    1    5    5  503    0  0.55645097110E+02  0.68866958049E+03 -0.33762611737E+03  0.76899516452E+03  0.00000000000E+00 0. -1.
         -2    1    5    5    0  503 -0.64107943034E+01  0.47298098427E+01 -0.89871757303E+01  0.12009942229E+02  0.00000000000E+00 0.  1.
         -1    1    6    6    0  502 -0.70407564258E+02  0.94586452880E+01 -0.49828694710E+02  0.86773209529E+02  0.00000000000E+00 0.  1.
<mgrwt>
<rscale>  0 0.23409574E+04</rscale>
<asrwt>0</asrwt>
<pdfrwt beam="1">  1        2 0.53014872E+00 0.23409574E+04</pdfrwt>
<pdfrwt beam="2">  1       -2 0.61164946E-01 0.23409574E+04</pdfrwt>
<totfact> 0.19959769E+00</totfact>
</mgrwt>
</event>
<event>
12    1  0.1690059E-007  0.1713645E+04  0.7818608E-02  0.8753620E-01
          1   -1    0    0  501    0  0.00000000000E+00  0.00000000000E+00  0.87842305497E+03  0.87842305497E+03  0.00000000000E+00 0. -1.
         -1   -1    0    0    0  501 -0.00000000000E+00 -0.00000000000E+00 -0.83575342440E+03  0.83575342440E+03  0.00000000000E+00 0.  1.
         23    2    1    2    0    0 -0.11055729309E+03 -0.47226009735E+03  0.39685440233E+03  0.63311170401E+03  0.89913839320E+02 0.  0.
        254    2    1    2    0    0  0.11055729309E+03  0.47226009735E+03 -0.35418477176E+03  0.10810647754E+04  0.89888913741E+03 0.  0.
        -24    2    4    4    0    0  0.86759608822E+02  0.42066556237E+03  0.22639002947E+03  0.49220803508E+03  0.80805688333E+02 0.  0.
         24    2    4    4    0    0  0.23797684271E+02  0.51594534978E+02 -0.58057480123E+03  0.58885674027E+03  0.80354433146E+02 0.  0.
         13    1    3    3    0    0 -0.11252340951E+03 -0.47528941189E+03  0.39711151513E+03  0.62949114227E+03  0.00000000000E+00 0. -1.
        -13    1    3    3    0    0  0.19661164207E+01  0.30293145401E+01 -0.25711279728E+00  0.36205617455E+01  0.00000000000E+00 0.  1.
          2    1    6    6  502    0  0.14740395149E+02 -0.43584855381E+01 -0.38310066106E+03  0.38340890985E+03  0.00000000000E+00 0. -1.
          1    1    5    5  503    0  0.36304961923E+02  0.27442137742E+03  0.10691949103E+03  0.29674386297E+03  0.00000000000E+00 0. -1.
         -2    1    5    5    0  503  0.50454646899E+02  0.14624418494E+03  0.11947053843E+03  0.19546417211E+03  0.00000000000E+00 0.  1.
         -1    1    6    6    0  502  0.90572891227E+01  0.55953020517E+02 -0.19747414017E+03  0.20544783042E+03  0.00000000000E+00 0.  1.
<mgrwt>
<rscale>  0 0.17136453E+04</rscale>
<asrwt>0</asrwt>
<pdfrwt beam="1">  1        1 0.13514201E+00 0.17136453E+04</pdfrwt>
<pdfrwt beam="2">  1       -1 0.12857745E+00 0.17136453E+04</pdfrwt>
<totfact> 0.93984461E+00</totfact>
</mgrwt>
</event>
<event>
12    1  0.1541840E-007  0.1501846E+04  0.7818608E-02  0.8883226E-01
          2   -1    0    0  501    0  0.00000000000E+00  0.00000000000E+00  0.10832745838E+04  0.10832745838E+04  0.00000000000E+00 0. -1.
         -2   -1    0    0    0  501 -0.00000000000E+00 -0.00000000000E+00 -0.52053779955E+03  0.52053779955E+03  0.00000000000E+00 0.  1.
         23    2    1    2    0    0  0.17686960189E+02 -0.12499084446E+03 -0.28481338897E+03  0.32457685950E+03  0.91082003864E+02 0.  0.
        254    2    1    2    0    0 -0.17686960189E+02  0.12499084446E+03  0.84755017319E+03  0.12792355238E+04  0.94982455725E+03 0.  0.
        -24    2    4    4    0    0  0.37009021589E+03 -0.19321908828E+03  0.53354070759E+03  0.68195675371E+03  0.78095731590E+02 0.  0.
         24    2    4    4    0    0 -0.38777717608E+03  0.31820993274E+03  0.31400946560E+03  0.59727877011E+03  0.80692534676E+02 0.  0.
         11    1    3    3    0    0 -0.23011588541E+02 -0.20677323636E+01 -0.23575950397E+02  0.33009607108E+02  0.00000000000E+00 0. -1.
        -11    1    3    3    0    0  0.40698548730E+02 -0.12292311210E+03 -0.26123743857E+03  0.29156725239E+03  0.00000000000E+00 0.  1.
          4    1    6    6  502    0 -0.32490363098E+02  0.10918271294E+02  0.41072485129E+01  0.34521034640E+02  0.00000000000E+00 0. -1.
          3    1    5    5  503    0 -0.36386643481E+01 -0.43585540186E+00  0.86042455118E+01  0.93521595900E+01  0.00000000000E+00 0. -1.
         -4    1    5    5    0  503  0.37372888024E+03 -0.19278323288E+03  0.52493646208E+03  0.67260459412E+03  0.00000000000E+00 0.  1.
         -3    1    6    6    0  502 -0.35528681299E+03  0.30729166145E+03  0.30990221709E+03  0.56275773547E+03  0.00000000000E+00 0.  1.
<mgrwt>
<rscale>  0 0.15018460E+04</rscale>
<asrwt>0</asrwt>
<pdfrwt beam="1">  1        2 0.16665763E+00 0.15018460E+04</pdfrwt>
<pdfrwt beam="2">  1       -2 0.80082739E-01 0.15018460E+04</pdfrwt>
<totfact> 0.29732449E+01</totfact>
</mgrwt>
</event>
<event>
12    1  0.1541840E-007  0.2113581E+04  0.7818608E-02  0.8555284E-01
         -4   -1    0    0    0  501 -0.00000000000E+00  0.00000000000E+00  0.83451296691E+03  0.83451296691E+03  0.00000000000E+00 0.  1.
          4   -1    0    0  501    0  0.00000000000E+00 -0.00000000000E+00 -0.13382730871E+04  0.13382730871E+04  0.00000000000E+00 0. -1.
         23    2    1    2    0    0 -0.76151902427E+03 -0.56498833870E+02 -0.59596922004E+03  0.97278423900E+03  0.89590858125E+02 0.  0.
        254    2    1    2    0    0  0.76151902427E+03  0.56498833870E+02  0.92209099809E+02  0.12000018150E+04  0.92108549846E+03 0.  0.
        -24    2    4    4    0    0  0.96051135765E+03 -0.12794775444E+02  0.24893809724E+02  0.96474135561E+03  0.85792814410E+02 0.  0.
         24    2    4    4    0    0 -0.19899233338E+03  0.69293609314E+02  0.67315290085E+02  0.23526045943E+03  0.80103573310E+02 0.  0.
         13    1    3    3    0    0 -0.55228854330E+03 -0.80392717431E+02 -0.44122647054E+03  0.71145373875E+03  0.00000000000E+00 0. -1.
        -13    1    3    3    0    0 -0.20923048096E+03  0.23893883561E+02 -0.15474274950E+03  0.26133050025E+03  0.00000000000E+00 0.  1.
          2    1    6    6  502    0 -0.18394110925E+03  0.50554596538E+02  0.33356157946E+02  0.19365622163E+03  0.00000000000E+00 0. -1.
          3    1    5    5  503    0  0.93315114247E+03  0.19179829807E+01  0.27576866743E+02  0.93356050523E+03  0.00000000000E+00 0. -1.
         -4    1    5    5    0  503  0.27360215184E+02 -0.14712758425E+02 -0.26830570191E+01  0.31180850379E+02  0.00000000000E+00 0.  1.
         -1    1    6    6    0  502 -0.15051224135E+02  0.18739012777E+02  0.33959132139E+02  0.41604237806E+02  0.00000000000E+00 0.  1.
<mgrwt>
<rscale>  0 0.21135811E+04</rscale>
<asrwt>0</asrwt>
<pdfrwt beam="1">  1        4 0.20588817E+00 0.21135811E+04</pdfrwt>
<pdfrwt beam="2">  1       -4 0.12838661E+00 0.21135811E+04</pdfrwt>
<totfact> 0.98907350E-02</totfact>
</mgrwt>
</event>
<event>
12    1  0.1541840E-007  0.1116866E+04  0.7818608E-02  0.9188907E-01
          1   -1    0    0  501    0  0.00000000000E+00  0.00000000000E+00  0.48571853593E+03  0.48571853593E+03  0.00000000000E+00 0. -1.
         -1   -1    0    0    0  501 -0.00000000000E+00 -0.00000000000E+00 -0.64203320270E+03  0.64203320270E+03  0.00000000000E+00 0.  1.
         23    2    1    2    0    0 -0.76799225801E+02  0.13128282400E+03 -0.12170935251E+03  0.21498094851E+03  0.90941413969E+02 0.  0.
        254    2    1    2    0    0  0.76799225801E+02 -0.13128282400E+03 -0.34605314263E+02  0.91277079011E+03  0.89934403125E+03 0.  0.
        -24    2    4    4    0    0 -0.36354160007E+03  0.10298907740E+03  0.83650218482E+02  0.39394564348E+03  0.73665228707E+02 0.  0.
         24    2    4    4    0    0  0.44034082587E+03 -0.23427190140E+03 -0.11825553275E+03  0.51882514663E+03  0.80073685046E+02 0.  0.
         11    1    3    3    0    0  0.10250230415E+02  0.13022409198E+02  0.85861593719E+01  0.18664739420E+02  0.00000000000E+00 0. -1.
        -11    1    3    3    0    0 -0.87049456215E+02  0.11826041481E+03 -0.13029551188E+03  0.19631620909E+03  0.00000000000E+00 0.  1.
          4    1    6    6  502    0  0.37367138260E+03 -0.22818347531E+03 -0.10940922991E+03  0.45129633298E+03  0.00000000000E+00 0. -1.
          3    1    5    5  503    0 -0.14018008811E+03  0.47161896117E+02 -0.30420107857E+01  0.14793226618E+03  0.00000000000E+00 0. -1.
         -4    1    5    5    0  503 -0.22336151196E+03  0.55827181283E+02  0.86692229267E+02  0.24601337730E+03  0.00000000000E+00 0.  1.
         -3    1    6    6    0  502  0.66669443273E+02 -0.60884260932E+01 -0.88463028400E+01  0.67528813646E+02  0.00000000000E+00 0.  1.
<mgrwt>
<rscale>  0 0.11168660E+04</rscale>
<asrwt>0</asrwt>
<pdfrwt beam="1">  1        1 0.74725929E-01 0.11168660E+04</pdfrwt>
<pdfrwt beam="2">  1       -1 0.98774338E-01 0.11168660E+04</pdfrwt>
<totfact> 0.45041155E+01</totfact>
</mgrwt>
</event>
<event>
12    1  0.1541840E-007  0.1686937E+04  0.7818608E-02  0.8768850E-01
          2   -1    0    0  501    0  0.00000000000E+00  0.00000000000E+00  0.16746051814E+04  0.16746051814E+04  0.00000000000E+00 0.  1.
         -2   -1    0    0    0  501 -0.00000000000E+00 -0.00000000000E+00 -0.42484012479E+03  0.42484012479E+03  0.00000000000E+00 0. -1.
         23    2    1    2    0    0 -0.16840834153E+03  0.22688107280E+03  0.11055466620E+04  0.11448189514E+04  0.92415469402E+02 0.  0.
        254    2    1    2    0    0  0.16840834153E+03 -0.22688107280E+03  0.14421839458E+03  0.95462635474E+03  0.90037555561E+03 0.  0.
        -24    2    4    4    0    0  0.50108611453E+03 -0.25376421538E+03  0.20978216881E+03  0.60499450199E+03  0.80785010441E+02 0.  0.
         24    2    4    4    0    0 -0.33267777300E+03  0.26883142582E+02 -0.65563774226E+02  0.34963185275E+03  0.80911185662E+02 0.  0.
         13    1    3    3    0    0 -0.18001533017E+02  0.96703115562E+02  0.36585093014E+03  0.37884357040E+03  0.00000000000E+00 0. -1.
        -13    1    3    3    0    0 -0.15040680851E+03  0.13017795723E+03  0.73969573184E+03  0.76597538100E+03  0.00000000000E+00 0.  1.
          4    1    6    6  502    0 -0.16525263361E+03  0.21235623712E+02 -0.73099499876E+02  0.18194208285E+03  0.00000000000E+00 0. -1.
          3    1    5    5  503    0  0.39191986407E+03 -0.22434036402E+03  0.19129034355E+03  0.49043019311E+03  0.00000000000E+00 0. -1.
         -4    1    5    5    0  503  0.10916625046E+03 -0.29423851361E+02  0.18491825260E+02  0.11456430888E+03  0.00000000000E+00 0.  1.
         -3    1    6    6    0  502 -0.16742513939E+03  0.56475188703E+01  0.75357256502E+01  0.16768976990E+03  0.00000000000E+00 0.  1.
<mgrwt>
<rscale>  0 0.16869374E+04</rscale>
<asrwt>0</asrwt>
<pdfrwt beam="1">  1        2 0.25763156E+00 0.16869374E+04</pdfrwt>
<pdfrwt beam="2">  1       -2 0.65360020E-01 0.16869374E+04</pdfrwt>
<totfact> 0.20817141E+01</totfact>
</mgrwt>
</event>
<event>
12    1  0.1586603E-007  0.1764219E+04  0.7818608E-02  0.8725562E-01
         -2   -1    0    0    0  501 -0.00000000000E+00  0.00000000000E+00  0.38711521168E+03  0.38711521168E+03  0.00000000000E+00 0.  1.
          2   -1    0    0  501    0  0.00000000000E+00 -0.00000000000E+00 -0.20100395625E+04  0.20100395625E+04  0.00000000000E+00 0. -1.
         23    2    1    2    0    0 -0.33190312235E+03 -0.21740082105E+02  0.15297282968E+03  0.37771263926E+03  0.92918445125E+02 0.  0.
        254    2    1    2    0    0  0.33190312235E+03  0.21740082105E+02 -0.17758971805E+04  0.20194421349E+04  0.90205511292E+03 0.  0.
        -24    2    4    4    0    0 -0.15390653849E+03 -0.31431301340E+03 -0.78421094021E+03  0.86245802131E+03  0.79794403281E+02 0.  0.
         24    2    4    4    0    0  0.48580966084E+03  0.33605309550E+03 -0.99168624025E+03  0.11569841136E+04  0.78917237532E+02 0.  0.
         11    1    3    3    0    0 -0.24209241647E+03  0.25494198531E+02  0.99159628538E+02  0.26285228590E+03  0.00000000000E+00 0.  1.
        -11    1    3    3    0    0 -0.89810705878E+02 -0.47234280636E+02  0.53813201146E+02  0.11486035336E+03  0.00000000000E+00 0. -1.
          2    1    6    6  502    0  0.89597242947E+00  0.11696424427E+02 -0.12221001117E+02  0.16939952162E+02  0.00000000000E+00 0. -1.
          3    1    5    5  503    0 -0.12812413898E+02 -0.61785422753E+02 -0.21340622902E+03  0.22253946841E+03  0.00000000000E+00 0. -1.
         -4    1    5    5    0  503 -0.14109412459E+03 -0.25252759065E+03 -0.57080471119E+03  0.63991855291E+03  0.00000000000E+00 0.  1.
         -1    1    6    6    0  502  0.48491368841E+03  0.32435667108E+03 -0.97946523914E+03  0.11400441614E+04  0.00000000000E+00 0.  1.
<mgrwt>
<rscale>  0 0.17642187E+04</rscale>
<asrwt>0</asrwt>
<pdfrwt beam="1">  1        2 0.30923685E+00 0.17642187E+04</pdfrwt>
<pdfrwt beam="2">  1       -2 0.59556187E-01 0.17642187E+04</pdfrwt>
<totfact> 0.16429902E+01</totfact>
</mgrwt>
</event>
<event>
12    1  0.1541840E-007  0.3006078E+04  0.7818608E-02  0.8241997E-01
          2   -1    0    0  501    0  0.00000000000E+00  0.00000000000E+00  0.30525053505E+04  0.30525053505E+04  0.00000000000E+00 0. -1.
         -2   -1    0    0    0  501 -0.00000000000E+00 -0.00000000000E+00 -0.74008929044E+03  0.74008929044E+03  0.00000000000E+00 0.  1.
         23    2    1    2    0    0 -0.11218644515E+04 -0.72304875272E+03  0.14320063590E+04  0.19596046321E+04  0.89603322873E+02 0.  0.
        254    2    1    2    0    0  0.11218644515E+04  0.72304875272E+03  0.88040970108E+03  0.18329900089E+04  0.89629893714E+03 0.  0.
        -24    2    4    4    0    0  0.10880600502E+04  0.51953773006E+03  0.34969760754E+03  0.12579995897E+04  0.80501087410E+02 0.  0.
         24    2    4    4    0    0  0.33804401271E+02  0.20351102266E+03  0.53071209353E+03  0.57499041925E+03  0.79994888035E+02 0.  0.
         13    1    3    3    0    0 -0.69717329048E+03 -0.48623605255E+03  0.95433772261E+03  0.12779814492E+04  0.00000000000E+00 0. -1.
        -13    1    3    3    0    0 -0.42469116099E+03 -0.23681270017E+03  0.47766863640E+03  0.68162318284E+03  0.00000000000E+00 0.  1.
          4    1    6    6  502    0  0.13603096744E+02 -0.24954409178E+01  0.43015247013E+02  0.45183879226E+02  0.00000000000E+00 0. -1.
          1    1    5    5  503    0  0.93750617935E+02  0.33362989901E+02  0.88631839737E+01  0.99904071431E+02  0.00000000000E+00 0. -1.
         -2    1    5    5    0  503  0.99430943226E+03  0.48617474016E+03  0.34083442357E+03  0.11580955182E+04  0.00000000000E+00 0.  1.
         -3    1    6    6    0  502  0.20201304527E+02  0.20600646358E+03  0.48769684652E+03  0.52980654002E+03  0.00000000000E+00 0.  1.
<mgrwt>
<rscale>  0 0.30060782E+04</rscale>
<asrwt>0</asrwt>
<pdfrwt beam="1">  1        2 0.46961620E+00 0.30060782E+04</pdfrwt>
<pdfrwt beam="2">  1       -2 0.11385989E+00 0.30060782E+04</pdfrwt>
<totfact> 0.83344591E-01</totfact>
</mgrwt>
</event>
<event>
12    1  0.1541840E-007  0.1498869E+04  0.7818608E-02  0.8885205E-01
          1   -1    0    0  501    0  0.00000000000E+00  0.00000000000E+00  0.16146435245E+04  0.16146435245E+04  0.00000000000E+00 0. -1.
         -1   -1    0    0    0  501 -0.00000000000E+00 -0.00000000000E+00 -0.34784909801E+03  0.34784909801E+03  0.00000000000E+00 0.  1.
         23    2    1    2    0    0  0.17229337286E+03 -0.10880086329E+01 -0.17074330629E+03  0.25977677246E+03  0.92975828956E+02 0.  0.
        254    2    1    2    0    0 -0.17229337286E+03  0.10880086329E+01  0.14375377328E+04  0.17027158501E+04  0.89612518253E+03 0.  0.
        -24    2    4    4    0    0  0.54664207186E+01 -0.41330064081E+03  0.45981494844E+03  0.62344219274E+03  0.80019244141E+02 0.  0.
         24    2    4    4    0    0 -0.17775979358E+03  0.41438864944E+03  0.97772278438E+03  0.10792736573E+04  0.74654452907E+02 0.  0.
         11    1    3    3    0    0  0.10024347294E+03 -0.11027757642E+02 -0.15569691325E+03  0.18550443149E+03  0.00000000000E+00 0.  1.
        -11    1    3    3    0    0  0.72049899926E+02  0.99397490089E+01 -0.15046393038E+02  0.74272340970E+02  0.00000000000E+00 0. -1.
          4    1    6    6  502    0 -0.13067709713E+03  0.34033715070E+03  0.84349608615E+03  0.91890779037E+03  0.00000000000E+00 0. -1.
          1    1    5    5  503    0 -0.23522063232E+02 -0.26868087093E+03  0.25602217784E+03  0.37187370626E+03  0.00000000000E+00 0. -1.
         -2    1    5    5    0  503  0.28988483950E+02 -0.14461976988E+03  0.20379277060E+03  0.25156848648E+03  0.00000000000E+00 0.  1.
         -3    1    6    6    0  502 -0.47082696448E+02  0.74051498746E+02  0.13422669824E+03  0.16036586698E+03  0.00000000000E+00 0.  1.
<mgrwt>
<rscale>  0 0.14988693E+04</rscale>
<asrwt>0</asrwt>
<pdfrwt beam="1">  1        1 0.24840669E+00 0.14988693E+04</pdfrwt>
<pdfrwt beam="2">  1       -1 0.53515247E-01 0.14988693E+04</pdfrwt>
<totfact> 0.18583402E+01</totfact>
</mgrwt>
</event>
<event>
12    1  0.1541840E-007  0.2199926E+04  0.7818608E-02  0.8518459E-01
          1   -1    0    0  501    0  0.00000000000E+00  0.00000000000E+00  0.11811410276E+04  0.11811410276E+04  0.00000000000E+00 0. -1.
         -1   -1    0    0    0  501 -0.00000000000E+00 -0.00000000000E+00 -0.10243638527E+04  0.10243638527E+04  0.00000000000E+00 0.  1.
         23    2    1    2    0    0 -0.51522084411E+03 -0.41180276287E+02 -0.68893686624E+03  0.86606929719E+03  0.91069690402E+02 0.  0.
        254    2    1    2    0    0  0.51522084411E+03  0.41180276287E+02  0.84571404115E+03  0.13394355832E+04  0.90094789453E+03 0.  0.
        -24    2    4    4    0    0  0.63410298905E+02  0.42588564663E+03  0.31288180727E+03  0.53806176720E+03  0.78841549896E+02 0.  0.
         24    2    4    4    0    0  0.45181054520E+03 -0.38470537034E+03  0.53283223388E+03  0.80137381595E+03  0.78478103304E+02 0.  0.
         13    1    3    3    0    0 -0.17287080089E+03  0.11102269788E+02 -0.28984219980E+03  0.33766266448E+03  0.00000000000E+00 0. -1.
        -13    1    3    3    0    0 -0.34235004322E+03 -0.52282546075E+02 -0.39909466644E+03  0.52840663271E+03  0.00000000000E+00 0.  1.
          4    1    6    6  502    0  0.29793168913E+03 -0.21504527780E+03  0.29524192737E+03  0.47135502391E+03  0.00000000000E+00 0. -1.
          3    1    5    5  503    0 -0.10155455431E+02  0.19621775078E+03  0.14608962526E+03  0.24484018789E+03  0.00000000000E+00 0. -1.
         -2    1    5    5    0  503  0.73565754337E+02  0.22966789585E+03  0.16679218201E+03  0.29322157931E+03  0.00000000000E+00 0.  1.
         -3    1    6    6    0  502  0.15387885608E+03 -0.16966009254E+03  0.23759030652E+03  0.33001879204E+03  0.00000000000E+00 0.  1.
<mgrwt>
<rscale>  0 0.21999256E+04</rscale>
<asrwt>0</asrwt>
<pdfrwt beam="1">  1        1 0.18171401E+00 0.21999256E+04</pdfrwt>
<pdfrwt beam="2">  1       -1 0.15759444E+00 0.21999256E+04</pdfrwt>
<totfact> 0.30661960E+00</totfact>
</mgrwt>
</event>
<event>
12    1  0.1541840E-007  0.2711980E+04  0.7818608E-02  0.8331128E-01
         -1   -1    0    0    0  501 -0.00000000000E+00  0.00000000000E+00  0.15852179903E+04  0.15852179903E+04  0.00000000000E+00 0.  1.
          1   -1    0    0  501    0  0.00000000000E+00 -0.00000000000E+00 -0.11599090038E+04  0.11599090038E+04  0.00000000000E+00 0. -1.
         23    2    1    2    0    0 -0.36308387550E+03 -0.80526110987E+03  0.10133973703E+04  0.13474483361E+04  0.91473672736E+02 0.  0.
        254    2    1    2    0    0  0.36308387550E+03  0.80526110987E+03 -0.58808838377E+03  0.13976786579E+04  0.90960558915E+03 0.  0.
        -24    2    4    4    0    0  0.50181997440E+03  0.73061431195E+03 -0.12019107793E+03  0.89791122422E+03  0.78600965821E+02 0.  0.
         24    2    4    4    0    0 -0.13873609890E+03  0.74646797913E+02 -0.46789730584E+03  0.49976743365E+03  0.77587043657E+02 0.  0.
         11    1    3    3    0    0 -0.35741651799E+03 -0.79905444498E+03  0.98459740812E+03  0.13174470120E+04  0.00000000000E+00 0.  1.
        -11    1    3    3    0    0 -0.56673575137E+01 -0.62066648837E+01  0.28799962150E+02  0.30001324137E+02  0.00000000000E+00 0. -1.
          2    1    6    6  502    0 -0.89883317756E+02  0.82296717141E+02 -0.37811092826E+03  0.39726519422E+03  0.00000000000E+00 0. -1.
          3    1    5    5  503    0  0.43115225823E+03  0.58542678954E+03 -0.79524124972E+02  0.73139652866E+03  0.00000000000E+00 0. -1.
         -4    1    5    5    0  503  0.70667716170E+02  0.14518752242E+03 -0.40666952961E+02  0.16651469556E+03  0.00000000000E+00 0.  1.
         -1    1    6    6    0  502 -0.48852781146E+02 -0.76499192277E+01 -0.89786377576E+02  0.10250223943E+03  0.00000000000E+00 0.  1.
<mgrwt>
<rscale>  0 0.27119798E+04</rscale>
<asrwt>0</asrwt>
<pdfrwt beam="1">  1        1 0.17844754E+00 0.27119798E+04</pdfrwt>
<pdfrwt beam="2">  1       -1 0.24387969E+00 0.27119798E+04</pdfrwt>
<totfact> 0.76271648E-01</totfact>
</mgrwt>
</event>
<event>
12    1  0.1541840E-007  0.1751880E+04  0.7818608E-02  0.8732316E-01
          2   -1    0    0  501    0  0.00000000000E+00  0.00000000000E+00  0.46840747860E+03  0.46840747860E+03  0.00000000000E+00 0. -1.
         -2   -1    0    0    0  501 -0.00000000000E+00 -0.00000000000E+00 -0.16380411979E+04  0.16380411979E+04  0.00000000000E+00 0.  1.
         23    2    1    2    0    0 -0.11627129755E+03  0.20044218842E+03 -0.11842361345E+04  0.12100249980E+04  0.89717266786E+02 0.  0.
        254    2    1    2    0    0  0.11627129755E+03 -0.20044218842E+03  0.14602415234E+02  0.89642367848E+03  0.86583260235E+03 0.  0.
        -24    2    4    4    0    0 -0.41263792540E+01  0.26866152229E+03 -0.21749027035E+03  0.35465074645E+03  0.79240732541E+02 0.  0.
         24    2    4    4    0    0  0.12039767680E+03 -0.46910371071E+03  0.23209268559E+03  0.54177293204E+03  0.71393299418E+02 0.  0.
         11    1    3    3    0    0 -0.71696149593E+01  0.45777830317E+01 -0.21611272897E+03  0.21628007559E+03  0.00000000000E+00 0. -1.
        -11    1    3    3    0    0 -0.10910168259E+03  0.19586440539E+03 -0.96812340558E+03  0.99374492244E+03  0.00000000000E+00 0.  1.
          2    1    6    6  502    0  0.10859817949E+02 -0.15405649480E+03  0.93809371309E+02  0.18069736407E+03  0.00000000000E+00 0. -1.
          3    1    5    5  503    0  0.90987174953E+01  0.36031270974E+01 -0.24875015079E+02  0.26730797970E+02  0.00000000000E+00 0. -1.
         -4    1    5    5    0  503 -0.13225096749E+02  0.26505839519E+03 -0.19261525527E+03  0.32791994848E+03  0.00000000000E+00 0.  1.
         -1    1    6    6    0  502  0.10953785885E+03 -0.31504721591E+03  0.13828331428E+03  0.36107556797E+03  0.00000000000E+00 0.  1.
<mgrwt>
<rscale>  0 0.17518798E+04</rscale>
<asrwt>0</asrwt>
<pdfrwt beam="1">  1        2 0.72062689E-01 0.17518798E+04</pdfrwt>
<pdfrwt beam="2">  1       -2 0.25200634E+00 0.17518798E+04</pdfrwt>
<totfact> 0.39316319E+00</totfact>
</mgrwt>
</event>
<event>
12    1  0.1541840E-007  0.2706376E+04  0.7818608E-02  0.8332939E-01
         -2   -1    0    0    0  501 -0.00000000000E+00  0.00000000000E+00  0.12860639020E+04  0.12860639020E+04  0.00000000000E+00 0.  1.
          2   -1    0    0  501    0  0.00000000000E+00 -0.00000000000E+00 -0.14238155837E+04  0.14238155837E+04  0.00000000000E+00 0. -1.
         23    2    1    2    0    0 -0.84348257083E+03  0.81582029415E+03  0.12233720695E+03  0.11832562358E+04  0.90018485703E+02 0.  0.
        254    2    1    2    0    0  0.84348257083E+03 -0.81582029415E+03 -0.26008888869E+03  0.15266232498E+04  0.94122617754E+03 0.  0.
        -24    2    4    4    0    0  0.55310072331E+02 -0.68127723538E+03 -0.21807880113E+03  0.72168799945E+03  0.77957228636E+02 0.  0.
         24    2    4    4    0    0  0.78817249850E+03 -0.13454305877E+03 -0.42010087566E+02  0.80493525039E+03  0.82693335971E+02 0.  0.
         11    1    3    3    0    0 -0.55185003247E+03  0.48567536507E+03  0.10314463369E+03  0.74233269767E+03  0.00000000000E+00 0.  1.
        -11    1    3    3    0    0 -0.29163253835E+03  0.33014492908E+03  0.19192573266E+02  0.44092353815E+03  0.00000000000E+00 0. -1.
          4    1    6    6  502    0  0.27976810318E+03 -0.87820183654E+02 -0.10454182031E+02  0.29341415463E+03  0.00000000000E+00 0. -1.
          1    1    5    5  503    0  0.22806707004E+02 -0.25437157771E+03 -0.12135035928E+03  0.28275599928E+03  0.00000000000E+00 0. -1.
         -2    1    5    5    0  503  0.32503365327E+02 -0.42690565767E+03 -0.96728441843E+02  0.43893200017E+03  0.00000000000E+00 0.  1.
         -3    1    6    6    0  502  0.50840439531E+03 -0.46722875117E+02 -0.31555905535E+02  0.51152109576E+03  0.00000000000E+00 0.  1.
<mgrwt>
<rscale>  0 0.27063760E+04</rscale>
<asrwt>0</asrwt>
<pdfrwt beam="1">  1        2 0.21904855E+00 0.27063760E+04</pdfrwt>
<pdfrwt beam="2">  1       -2 0.19785598E+00 0.27063760E+04</pdfrwt>
<totfact> 0.16896805E+00</totfact>
</mgrwt>
</event>
<event>
12    1  0.1541840E-007  0.3558262E+04  0.7818608E-02  0.8100120E-01
         -2   -1    0    0    0  501 -0.00000000000E+00  0.00000000000E+00  0.14730551120E+04  0.14730551120E+04  0.00000000000E+00 0.  1.
          2   -1    0    0  501    0  0.00000000000E+00 -0.00000000000E+00 -0.21488037942E+04  0.21488037942E+04  0.00000000000E+00 0. -1.
         23    2    1    2    0    0 -0.12341479327E+04  0.10930039988E+04 -0.55623424341E+03  0.17421487154E+04  0.88919918400E+02 0.  0.
        254    2    1    2    0    0  0.12341479327E+04 -0.10930039988E+04 -0.11951443879E+03  0.18797101909E+04  0.89512448277E+03 0.  0.
        -24    2    4    4    0    0  0.10176942861E+04 -0.32148323216E+03 -0.55745239958E+02  0.10716864868E+04  0.79694827725E+02 0.  0.
         24    2    4    4    0    0  0.21645364654E+03 -0.77152076661E+03 -0.63769198835E+02  0.80802370414E+03  0.82093369478E+02 0.  0.
         11    1    3    3    0    0 -0.12256220488E+04  0.10817112181E+04 -0.55918051884E+03  0.17276954067E+04  0.00000000000E+00 0. -1.
        -11    1    3    3    0    0 -0.85258838579E+01  0.11292780686E+02  0.29462754270E+01  0.14453308620E+02  0.00000000000E+00 0.  1.
          2    1    6    6  502    0  0.21003665242E+03 -0.65279969076E+03 -0.41101285574E+02  0.68698773446E+03  0.00000000000E+00 0. -1.
          1    1    5    5  503    0  0.57208049387E+03 -0.14188863708E+03 -0.44886965398E+02  0.59112039084E+03  0.00000000000E+00 0. -1.
         -2    1    5    5    0  503  0.44561379224E+03 -0.17959459509E+03 -0.10858274560E+02  0.48056609592E+03  0.00000000000E+00 0.  1.
         -1    1    6    6    0  502  0.64169941187E+01 -0.11872107585E+03 -0.22667913261E+02  0.12103596968E+03  0.00000000000E+00 0.  1.
<mgrwt>
<rscale>  0 0.35582616E+04</rscale>
<asrwt>0</asrwt>
<pdfrwt beam="1">  1        2 0.33058520E+00 0.35582616E+04</pdfrwt>
<pdfrwt beam="2">  1       -2 0.22662386E+00 0.35582616E+04</pdfrwt>
<totfact> 0.40508349E-01</totfact>
</mgrwt>
</event>
<event>
12    1  0.1541840E-007  0.1444815E+04  0.7818608E-02  0.8922003E-01
         -1   -1    0    0    0  501 -0.00000000000E+00  0.00000000000E+00  0.89339577554E+03  0.89339577554E+03  0.00000000000E+00 0.  1.
          1   -1    0    0  501    0  0.00000000000E+00 -0.00000000000E+00 -0.58414510622E+03  0.58414510622E+03  0.00000000000E+00 0. -1.
         23    2    1    2    0    0  0.41926876822E+03 -0.80585848538E+02  0.11107627390E+02  0.43576701254E+03  0.86539764481E+02 0.  0.
        254    2    1    2    0    0 -0.41926876822E+03  0.80585848538E+02  0.29814304193E+03  0.10417738692E+04  0.90228772693E+03 0.  0.
        -24    2    4    4    0    0  0.10433257636E+03  0.22969552113E+03 -0.17419909526E+03  0.31660164884E+03  0.79031388328E+02 0.  0.
         24    2    4    4    0    0 -0.52360134459E+03 -0.14910967260E+03  0.47234213719E+03  0.72517222039E+03  0.79847305130E+02 0.  0.
         11    1    3    3    0    0  0.33469309759E+02 -0.24737690105E+02  0.19263351379E+02  0.45860927965E+02  0.00000000000E+00 0. -1.
        -11    1    3    3    0    0  0.38579945847E+03 -0.55848158433E+02 -0.81557239881E+01  0.38990608457E+03  0.00000000000E+00 0.  1.
          4    1    6    6  502    0 -0.46521097144E+03 -0.15676486801E+03  0.43042408911E+03  0.65288694908E+03  0.00000000000E+00 0. -1.
          1    1    5    5  503    0  0.67471630477E+02  0.17495963576E+03 -0.16537390515E+03  0.25002364602E+03  0.00000000000E+00 0. -1.
         -2    1    5    5    0  503  0.36860945887E+02  0.54735885376E+02 -0.88251901088E+01  0.66578002824E+02  0.00000000000E+00 0.  1.
         -3    1    6    6    0  502 -0.58390373149E+02  0.76551954105E+01  0.41918048080E+02  0.72285271308E+02  0.00000000000E+00 0.  1.
<mgrwt>
<rscale>  0 0.14448152E+04</rscale>
<asrwt>0</asrwt>
<pdfrwt beam="1">  1        1 0.89868478E-01 0.14448152E+04</pdfrwt>
<pdfrwt beam="2">  1       -1 0.13744550E+00 0.14448152E+04</pdfrwt>
<totfact> 0.15214283E+01</totfact>
</mgrwt>
</event>
<event>
12    1  0.1541840E-007  0.2000340E+04  0.7818608E-02  0.8606462E-01
          1   -1    0    0  501    0  0.00000000000E+00  0.00000000000E+00  0.90588747828E+03  0.90588747828E+03  0.00000000000E+00 0. -1.
         -1   -1    0    0    0  501 -0.00000000000E+00 -0.00000000000E+00 -0.11042652285E+04  0.11042652285E+04  0.00000000000E+00 0.  1.
         23    2    1    2    0    0 -0.70477920473E+03  0.29126056328E+03 -0.30845872521E+03  0.82753954852E+03  0.90158061573E+02 0.  0.
        254    2    1    2    0    0  0.70477920473E+03 -0.29126056328E+03  0.11008097502E+03  0.11826131582E+04  0.89716755281E+03 0.  0.
        -24    2    4    4    0    0  0.80038550862E+03 -0.71379953885E+02  0.30497848331E+03  0.86313306830E+03  0.79213370568E+02 0.  0.
         24    2    4    4    0    0 -0.95606303890E+02 -0.21988060939E+03 -0.19489750829E+03  0.31948008993E+03  0.81206165994E+02 0.  0.
         11    1    3    3    0    0 -0.39679011535E+03  0.11799338103E+03 -0.18211859174E+03  0.45225215871E+03  0.00000000000E+00 0.  1.
        -11    1    3    3    0    0 -0.30798908938E+03  0.17326718225E+03 -0.12634013347E+03  0.37528738981E+03  0.00000000000E+00 0. -1.
          4    1    6    6  502    0 -0.65933552466E+02 -0.19933613424E+03 -0.18980136371E+03  0.28303124460E+03  0.00000000000E+00 0. -1.
          3    1    5    5  503    0  0.71155901943E+03 -0.69946730679E+02  0.24439692106E+03  0.75560481621E+03  0.00000000000E+00 0. -1.
         -4    1    5    5    0  503  0.88826489195E+02 -0.14332232062E+01  0.60581562252E+02  0.10752825208E+03  0.00000000000E+00 0.  1.
         -3    1    6    6    0  502 -0.29672751424E+02 -0.20544475156E+02 -0.50961445780E+01  0.36448845332E+02  0.00000000000E+00 0.  1.
<mgrwt>
<rscale>  0 0.20003400E+04</rscale>
<asrwt>0</asrwt>
<pdfrwt beam="1">  1        1 0.13936730E+00 0.20003400E+04</pdfrwt>
<pdfrwt beam="2">  1       -1 0.16988696E+00 0.20003400E+04</pdfrwt>
<totfact> 0.41154283E+00</totfact>
</mgrwt>
</event>
<event>
12    1  0.1541840E-007  0.1723058E+04  0.7818608E-02  0.8748322E-01
         -1   -1    0    0    0  501 -0.00000000000E+00  0.00000000000E+00  0.32096149479E+03  0.32096149479E+03  0.00000000000E+00 0.  1.
          1   -1    0    0  501    0  0.00000000000E+00 -0.00000000000E+00 -0.23125280123E+04  0.23125280123E+04  0.00000000000E+00 0. -1.
         23    2    1    2    0    0 -0.41436891884E+03 -0.83896303095E+02 -0.24114395040E+02  0.43436119225E+03  0.96684800866E+02 0.  0.
        254    2    1    2    0    0  0.41436891884E+03  0.83896303095E+02 -0.19674521225E+04  0.21991283148E+04  0.88688065731E+03 0.  0.
        -24    2    4    4    0    0  0.39815896209E+03 -0.31212419996E+03 -0.68976615568E+03  0.85910582235E+03  0.79582593459E+02 0.  0.
         24    2    4    4    0    0  0.16209956747E+02  0.39602050306E+03 -0.12776859668E+04  0.13400224925E+04  0.77999032586E+02 0.  0.
         11    1    3    3    0    0 -0.19569518380E+03 -0.39232138072E+02 -0.59761433253E+02  0.20834393326E+03  0.00000000000E+00 0.  1.
        -11    1    3    3    0    0 -0.21867373503E+03 -0.44664165023E+02  0.35647038214E+02  0.22601725899E+03  0.00000000000E+00 0. -1.
          2    1    6    6  502    0 -0.20653544153E+02  0.10142591882E+03 -0.41356627113E+03  0.42632246775E+03  0.00000000000E+00 0. -1.
          3    1    5    5  503    0  0.47426512787E+02 -0.36825503125E+02 -0.44323423048E+02  0.74632148745E+02  0.00000000000E+00 0. -1.
         -4    1    5    5    0  503  0.35073244930E+03 -0.27529869684E+03 -0.64544273263E+03  0.78447367361E+03  0.00000000000E+00 0.  1.
         -1    1    6    6    0  502  0.36863500900E+02  0.29459458424E+03 -0.86411969564E+03  0.91370002471E+03  0.00000000000E+00 0.  1.
<mgrwt>
<rscale>  0 0.17230583E+04</rscale>
<asrwt>0</asrwt>
<pdfrwt beam="1">  1        1 0.35577354E+00 0.17230583E+04</pdfrwt>
<pdfrwt beam="2">  1       -1 0.49378692E-01 0.17230583E+04</pdfrwt>
<totfact> 0.71300382E+00</totfact>
</mgrwt>
</event>
<event>
12    1  0.1541840E-007  0.1575288E+04  0.7818608E-02  0.8835875E-01
         -2   -1    0    0    0  501 -0.00000000000E+00  0.00000000000E+00  0.26580066251E+03  0.26580066251E+03  0.00000000000E+00 0. -1.
          2   -1    0    0  501    0  0.00000000000E+00 -0.00000000000E+00 -0.23340171764E+04  0.23340171764E+04  0.00000000000E+00 0.  1.
         23    2    1    2    0    0  0.14453658487E+03 -0.13232392320E+00 -0.15378753180E+04  0.15474846222E+04  0.93580555847E+02 0.  0.
        254    2    1    2    0    0 -0.14453658487E+03  0.13232392320E+00 -0.53034119593E+03  0.10523332167E+04  0.89735866467E+03 0.  0.
        -24    2    4    4    0    0  0.37426571249E+03 -0.85699949185E+01 -0.20643053763E+03  0.43546742091E+03  0.82885701142E+02 0.  0.
         24    2    4    4    0    0 -0.51880229735E+03  0.87023188417E+01 -0.32391065830E+03  0.61686579582E+03  0.79835715076E+02 0.  0.
         13    1    3    3    0    0  0.11394394070E+03 -0.39591621688E+02 -0.98479495367E+03  0.99215513853E+03  0.00000000000E+00 0.  1.
        -13    1    3    3    0    0  0.30592644169E+02  0.39459297765E+02 -0.55308036430E+03  0.55532948367E+03  0.00000000000E+00 0. -1.
          4    1    6    6  502    0 -0.45833735574E+03  0.20010641808E+02 -0.25650989574E+03  0.52561476774E+03  0.00000000000E+00 0. -1.
          3    1    5    5  503    0  0.22659212564E+03 -0.45497924380E+02 -0.12916782825E+03  0.26476098727E+03  0.00000000000E+00 0. -1.
         -4    1    5    5    0  503  0.14767358684E+03  0.36927929461E+02 -0.77262709382E+02  0.17070643364E+03  0.00000000000E+00 0.  1.
         -3    1    6    6    0  502 -0.60464941614E+02 -0.11308322967E+02 -0.67400762558E+02  0.91251028082E+02  0.00000000000E+00 0.  1.
<mgrwt>
<rscale>  0 0.15752883E+04</rscale>
<asrwt>0</asrwt>
<pdfrwt beam="1">  1        2 0.35907957E+00 0.15752883E+04</pdfrwt>
<pdfrwt beam="2">  1       -2 0.40892409E-01 0.15752883E+04</pdfrwt>
<totfact> 0.23625908E+01</totfact>
</mgrwt>
</event>
<event>
12    1  0.1541840E-007  0.1091748E+04  0.7818608E-02  0.9213273E-01
          1   -1    0    0  501    0  0.00000000000E+00  0.00000000000E+00  0.10677916982E+04  0.10677916982E+04  0.00000000000E+00 0. -1.
         -1   -1    0    0    0  501 -0.00000000000E+00 -0.00000000000E+00 -0.27906033795E+03  0.27906033795E+03  0.00000000000E+00 0.  1.
         23    2    1    2    0    0  0.48306421498E+02  0.42191713665E+01  0.37022066438E+03  0.38487370390E+03  0.93344072423E+02 0.  0.
        254    2    1    2    0    0 -0.48306421498E+02 -0.42191713665E+01  0.41851069591E+03  0.96197833229E+03  0.86481200121E+03 0.  0.
        -24    2    4    4    0    0 -0.22180442181E+01  0.37573783126E+03  0.42237345059E+03  0.57064675078E+03  0.77810955910E+02 0.  0.
         24    2    4    4    0    0 -0.46088377280E+02 -0.37995700263E+03 -0.38627546760E+01  0.39133158151E+03  0.81449514718E+02 0.  0.
         13    1    3    3    0    0  0.17942240494E+02  0.28578776683E+02  0.39851066921E+02  0.52218559970E+02  0.00000000000E+00 0.  1.
        -13    1    3    3    0    0  0.30364181004E+02 -0.24359605316E+02  0.33036959746E+03  0.33265514393E+03  0.00000000000E+00 0. -1.
          4    1    6    6  502    0 -0.95933234012E+01 -0.10179982785E+03 -0.37219888902E+02  0.10881432320E+03  0.00000000000E+00 0. -1.
          1    1    5    5  503    0  0.10946286549E+01  0.11331357824E+02 -0.16922846598E+01  0.11509201076E+02  0.00000000000E+00 0. -1.
         -2    1    5    5    0  503 -0.33126728730E+01  0.36440647343E+03  0.42406573525E+03  0.55913754971E+03  0.00000000000E+00 0.  1.
         -3    1    6    6    0  502 -0.36495053879E+02 -0.27815717478E+03  0.33357134226E+02  0.28251725831E+03  0.00000000000E+00 0.  1.
<mgrwt>
<rscale>  0 0.10917478E+04</rscale>
<asrwt>0</asrwt>
<pdfrwt beam="1">  1        1 0.16427564E+00 0.10917478E+04</pdfrwt>
<pdfrwt beam="2">  1       -1 0.42932360E-01 0.10917478E+04</pdfrwt>
<totfact> 0.71439041E+01</totfact>
</mgrwt>
</event>
<event>
12    1  0.1541840E-007  0.1633219E+04  0.7818608E-02  0.8800396E-01
          2   -1    0    0  501    0  0.00000000000E+00  0.00000000000E+00  0.68915835833E+03  0.68915835833E+03  0.00000000000E+00 0. -1.
         -2   -1    0    0    0  501 -0.00000000000E+00 -0.00000000000E+00 -0.96763073073E+03  0.96763073073E+03  0.00000000000E+00 0.  1.
         23    2    1    2    0    0  0.17056296667E+03  0.94306917825E+02  0.44148172878E+03  0.49097866573E+03  0.90379273105E+02 0.  0.
        254    2    1    2    0    0 -0.17056296667E+03 -0.94306917825E+02 -0.71995410119E+03  0.11658104233E+04  0.89598801052E+03 0.  0.
        -24    2    4    4    0    0 -0.21345224557E+03  0.12630081680E+03  0.12422602842E+03  0.28859470488E+03  0.79630647904E+02 0.  0.
         24    2    4    4    0    0  0.42889278900E+02 -0.22060773463E+03 -0.84418012961E+03  0.87721571845E+03  0.79750000928E+02 0.  0.
         13    1    3    3    0    0  0.17022272589E+03  0.75516820273E+02  0.33893468183E+03  0.38672378398E+03  0.00000000000E+00 0. -1.
        -13    1    3    3    0    0  0.34024078565E+00  0.18790097552E+02  0.10254704695E+03  0.10425488175E+03  0.00000000000E+00 0.  1.
          4    1    6    6  502    0  0.10244502612E+02 -0.19540488938E+03 -0.65556196974E+03  0.68414144502E+03  0.00000000000E+00 0. -1.
          3    1    5    5  503    0 -0.20831719117E+03  0.11047504878E+03  0.93512042946E+02  0.25366373551E+03  0.00000000000E+00 0. -1.
         -4    1    5    5    0  503 -0.51350544003E+01  0.15825768028E+02  0.30713985475E+02  0.34930969370E+02  0.00000000000E+00 0.  1.
         -3    1    6    6    0  502  0.32644776288E+02 -0.25202845246E+02 -0.18861815987E+03  0.19307427343E+03  0.00000000000E+00 0.  1.
<mgrwt>
<rscale>  0 0.16332187E+04</rscale>
<asrwt>0</asrwt>
<pdfrwt beam="1">  1        2 0.10602436E+00 0.16332187E+04</pdfrwt>
<pdfrwt beam="2">  1       -2 0.14886626E+00 0.16332187E+04</pdfrwt>
<totfact> 0.12212796E+01</totfact>
</mgrwt>
</event>
<event>
12    1  0.1541840E-007  0.1968078E+04  0.7818608E-02  0.8621692E-01
         -2   -1    0    0    0  501 -0.00000000000E+00  0.00000000000E+00  0.39822367063E+03  0.39822367063E+03  0.00000000000E+00 0. -1.
          2   -1    0    0  501    0  0.00000000000E+00 -0.00000000000E+00 -0.24316299941E+04  0.24316299941E+04  0.00000000000E+00 0.  1.
         23    2    1    2    0    0 -0.76731206102E+03  0.10087411363E+03 -0.85476215368E+03  0.11567221238E+04  0.91893125237E+02 0.  0.
        254    2    1    2    0    0  0.76731206102E+03 -0.10087411363E+03 -0.11786441697E+04  0.16731315409E+04  0.90067957043E+03 0.  0.
        -24    2    4    4    0    0  0.73929666881E+03 -0.13992499824E+03 -0.13094532835E+04  0.15123732612E+04  0.80413991504E+02 0.  0.
         24    2    4    4    0    0  0.28015392207E+02  0.39050884612E+02  0.13080911372E+03  0.16075827971E+03  0.80139668548E+02 0.  0.
         13    1    3    3    0    0 -0.17887788099E+03  0.23870403940E+02 -0.14465612567E+03  0.23128442919E+03  0.00000000000E+00 0.  1.
        -13    1    3    3    0    0 -0.58843418003E+03  0.77003709691E+02 -0.71010602800E+03  0.92543769457E+03  0.00000000000E+00 0. -1.
          2    1    6    6  502    0  0.49236502214E+02  0.48745459582E+02  0.10659541773E+03  0.12713353634E+03  0.00000000000E+00 0. -1.
          1    1    5    5  503    0  0.34468763089E+03 -0.10418815879E+03 -0.64781328159E+03  0.74116582701E+03  0.00000000000E+00 0. -1.
         -2    1    5    5    0  503  0.39460903792E+03 -0.35736839455E+02 -0.66164000187E+03  0.77120743421E+03  0.00000000000E+00 0.  1.
         -1    1    6    6    0  502 -0.21221110007E+02 -0.96945749691E+01  0.24213695985E+02  0.33624743375E+02  0.00000000000E+00 0.  1.
<mgrwt>
<rscale>  0 0.19680779E+04</rscale>
<asrwt>0</asrwt>
<pdfrwt beam="1">  1        2 0.37409693E+00 0.19680779E+04</pdfrwt>
<pdfrwt beam="2">  1       -2 0.61265179E-01 0.19680779E+04</pdfrwt>
<totfact> 0.88033534E+00</totfact>
</mgrwt>
</event>
<event>
12    1  0.1541840E-007  0.1211734E+04  0.7818608E-02  0.9102648E-01
          1   -1    0    0  501    0  0.00000000000E+00  0.00000000000E+00  0.22394043627E+04  0.22394043627E+04  0.00000000000E+00 0. -1.
         -1   -1    0    0    0  501 -0.00000000000E+00 -0.00000000000E+00 -0.16391622263E+03  0.16391622263E+03  0.00000000000E+00 0.  1.
         23    2    1    2    0    0  0.90779878318E+02 -0.24163791031E+03  0.56174571424E+03  0.62522295678E+03  0.93357550381E+02 0.  0.
        254    2    1    2    0    0 -0.90779878318E+02  0.24163791031E+03  0.15137424258E+04  0.17780976285E+04  0.89642912651E+03 0.  0.
        -24    2    4    4    0    0  0.31909189499E+03  0.11660574016E+03  0.21794685913E+03  0.41100224328E+03  0.77494996577E+02 0.  0.
         24    2    4    4    0    0 -0.40987177331E+03  0.12503217015E+03  0.12957955667E+04  0.13670953852E+04  0.78966623212E+02 0.  0.
         13    1    3    3    0    0 -0.16218798287E+02 -0.14951247702E+02  0.28872840517E+02  0.36334971381E+02  0.00000000000E+00 0.  1.
        -13    1    3    3    0    0  0.10699867661E+03 -0.22668666261E+03  0.53287287372E+03  0.58888798540E+03  0.00000000000E+00 0. -1.
          2    1    6    6  502    0 -0.22474290701E+01  0.23540384036E+01  0.90857513836E-01  0.32558699788E+01  0.00000000000E+00 0. -1.
          3    1    5    5  503    0  0.59155417987E+02  0.27126622631E+02  0.80906644678E+02  0.10383208697E+03  0.00000000000E+00 0. -1.
         -4    1    5    5    0  503  0.25993647700E+03  0.89479117533E+02  0.13704021445E+03  0.30717015631E+03  0.00000000000E+00 0.  1.
         -1    1    6    6    0  502 -0.40762434424E+03  0.12267813174E+03  0.12957047092E+04  0.13638395153E+04  0.00000000000E+00 0.  1.
<mgrwt>
<rscale>  0 0.12117338E+04</rscale>
<asrwt>0</asrwt>
<pdfrwt beam="1">  1        1 0.34452373E+00 0.12117338E+04</pdfrwt>
<pdfrwt beam="2">  1       -1 0.25217882E-01 0.12117338E+04</pdfrwt>
<totfact> 0.28043901E+01</totfact>
</mgrwt>
</event>
<event>
12    1  0.1541840E-007  0.3126554E+04  0.7818608E-02  0.8208488E-01
          2   -1    0    0  501    0  0.00000000000E+00  0.00000000000E+00  0.13460420099E+04  0.13460420099E+04  0.00000000000E+00 0. -1.
         -2   -1    0    0    0  501 -0.00000000000E+00 -0.00000000000E+00 -0.18155713542E+04  0.18155713542E+04  0.00000000000E+00 0.  1.
         23    2    1    2    0    0 -0.13092863096E+04  0.28576524946E+03 -0.70853234692E+03  0.15186182950E+04  0.91055043514E+02 0.  0.
        254    2    1    2    0    0  0.13092863096E+04 -0.28576524946E+03  0.23900300261E+03  0.16429950691E+04  0.92000975183E+03 0.  0.
        -24    2    4    4    0    0  0.88241445984E+03 -0.24587557645E+03 -0.28378270651E+03  0.96221777090E+03  0.78869107327E+02 0.  0.
         24    2    4    4    0    0  0.42687184974E+03 -0.39889673017E+02  0.52278570912E+03  0.68077729817E+03  0.79637113963E+02 0.  0.
         11    1    3    3    0    0 -0.36817937839E+03  0.94714736180E+02 -0.15793760258E+03  0.41166882592E+03  0.00000000000E+00 0. -1.
        -11    1    3    3    0    0 -0.94110693119E+03  0.19105051328E+03 -0.55059474434E+03  0.11069494691E+04  0.00000000000E+00 0.  1.
          4    1    6    6  502    0  0.35222233749E+03 -0.48906053936E+02  0.38703665843E+03  0.52559466522E+03  0.00000000000E+00 0. -1.
          3    1    5    5  503    0  0.39017275793E+02 -0.41779205816E+00  0.33699249125E+00  0.39020967754E+02  0.00000000000E+00 0. -1.
         -4    1    5    5    0  503  0.84339718405E+03 -0.24545778439E+03 -0.28411969900E+03  0.92319680315E+03  0.00000000000E+00 0.  1.
         -3    1    6    6    0  502  0.74649512247E+02  0.90163809184E+01  0.13574905069E+03  0.15518263294E+03  0.00000000000E+00 0.  1.
<mgrwt>
<rscale>  0 0.31265542E+04</rscale>
<asrwt>0</asrwt>
<pdfrwt beam="1">  1        2 0.20708339E+00 0.31265542E+04</pdfrwt>
<pdfrwt beam="2">  1       -2 0.27931867E+00 0.31265542E+04</pdfrwt>
<totfact> 0.55984742E-01</totfact>
</mgrwt>
</event>
<event>
12    1  0.1541840E-007  0.1530937E+04  0.7818608E-02  0.8864137E-01
          2   -1    0    0  501    0  0.00000000000E+00  0.00000000000E+00  0.10219464246E+04  0.10219464246E+04  0.00000000000E+00 0.  1.
         -2   -1    0    0    0  501 -0.00000000000E+00 -0.00000000000E+00 -0.57335856507E+03  0.57335856507E+03  0.00000000000E+00 0. -1.
         23    2    1    2    0    0  0.24222385818E+03  0.31661461779E+03  0.41904961042E+03  0.58585440395E+03  0.93303767151E+02 0.  0.
        254    2    1    2    0    0 -0.24222385818E+03 -0.31661461779E+03  0.29538249132E+02  0.10094505857E+04  0.92693082979E+03 0.  0.
        -24    2    4    4    0    0 -0.15420238602E+03 -0.14839053910E+03 -0.44017536349E+03  0.49583835313E+03  0.79392656212E+02 0.  0.
         24    2    4    4    0    0 -0.88021472160E+02 -0.16822407869E+03  0.46971361263E+03  0.51361223260E+03  0.84377291852E+02 0.  0.
         11    1    3    3    0    0  0.11383505393E+03  0.12433829648E+03  0.24067587194E+03  0.29384231623E+03  0.00000000000E+00 0. -1.
        -11    1    3    3    0    0  0.12838880425E+03  0.19227632132E+03  0.17837373848E+03  0.29201208772E+03  0.00000000000E+00 0.  1.
          4    1    6    6  502    0  0.14900671594E+02 -0.38423324429E+02  0.11392413511E+03  0.12114904224E+03  0.00000000000E+00 0. -1.
          3    1    5    5  503    0 -0.15642963091E+03 -0.12044030035E+03 -0.35548533372E+03  0.40662749275E+03  0.00000000000E+00 0. -1.
         -4    1    5    5    0  503  0.22272448871E+01 -0.27950238750E+02 -0.84690029777E+02  0.89210860380E+02  0.00000000000E+00 0.  1.
         -1    1    6    6    0  502 -0.10292214375E+03 -0.12980075426E+03  0.35578947752E+03  0.39246319037E+03  0.00000000000E+00 0.  1.
<mgrwt>
<rscale>  0 0.15309366E+04</rscale>
<asrwt>0</asrwt>
<pdfrwt beam="1">  1        2 0.15722253E+00 0.15309366E+04</pdfrwt>
<pdfrwt beam="2">  1       -2 0.88209010E-01 0.15309366E+04</pdfrwt>
<totfact> 0.26026413E+01</totfact>
</mgrwt>
</event>
<event>
12    1  0.1541840E-007  0.1093932E+04  0.7818608E-02  0.9211126E-01
         -2   -1    0    0    0  501 -0.00000000000E+00  0.00000000000E+00  0.14580795786E+03  0.14580795786E+03  0.00000000000E+00 0.  1.
          2   -1    0    0  501    0  0.00000000000E+00 -0.00000000000E+00 -0.20518212520E+04  0.20518212520E+04  0.00000000000E+00 0. -1.
         23    2    1    2    0    0 -0.26892292698E+02  0.14302901873E+03 -0.20122310784E+03  0.26649175032E+03  0.96677909865E+02 0.  0.
        254    2    1    2    0    0  0.26892292698E+02 -0.14302901873E+03 -0.17047901863E+04  0.19311374595E+04  0.89543386841E+03 0.  0.
        -24    2    4    4    0    0 -0.19513029237E+03  0.32069272970E+03 -0.81727851316E+03  0.90257407763E+03  0.76000918743E+02 0.  0.
         24    2    4    4    0    0  0.22202258507E+03 -0.46372174842E+03 -0.88751167312E+03  0.10285633819E+04  0.77030983346E+02 0.  0.
         13    1    3    3    0    0 -0.25977389264E+02  0.19580217147E+01 -0.66505935959E+02  0.71426172512E+02  0.00000000000E+00 0. -1.
        -13    1    3    3    0    0 -0.91490343345E+00  0.14107099701E+03 -0.13471717188E+03  0.19506557781E+03  0.00000000000E+00 0.  1.
          2    1    6    6  502    0  0.16034943931E+03 -0.28680358763E+03 -0.50268181454E+03  0.60054745627E+03  0.00000000000E+00 0. -1.
          1    1    5    5  503    0 -0.12180796894E+03  0.22194040756E+03 -0.62491075611E+03  0.67424637849E+03  0.00000000000E+00 0. -1.
         -4    1    5    5    0  503 -0.73322323433E+02  0.98752322135E+02 -0.19236775706E+03  0.22832769914E+03  0.00000000000E+00 0.  1.
         -1    1    6    6    0  502  0.61673145756E+02 -0.17691816079E+03 -0.38482985859E+03  0.42801592562E+03  0.00000000000E+00 0.  1.
<mgrwt>
<rscale>  0 0.10939321E+04</rscale>
<asrwt>0</asrwt>
<pdfrwt beam="1">  1        2 0.31566478E+00 0.10939321E+04</pdfrwt>
<pdfrwt beam="2">  1       -2 0.22431995E-01 0.10939321E+04</pdfrwt>
<totfact> 0.10858396E+02</totfact>
</mgrwt>
</event>
<event>
12    1  0.1541840E-007  0.1781232E+04  0.7818608E-02  0.8716344E-01
         -1   -1    0    0    0  501 -0.00000000000E+00  0.00000000000E+00  0.88195859199E+03  0.88195859199E+03  0.00000000000E+00 0.  1.
          1   -1    0    0  501    0  0.00000000000E+00 -0.00000000000E+00 -0.89935857913E+03  0.89935857913E+03  0.00000000000E+00 0. -1.
         23    2    1    2    0    0 -0.47559592082E+03 -0.42237162081E+02 -0.46408954301E+03  0.67206959476E+03  0.91230359542E+02 0.  0.
        254    2    1    2    0    0  0.47559592082E+03  0.42237162081E+02  0.44668955587E+03  0.11092475764E+04  0.89605980190E+03 0.  0.
        -24    2    4    4    0    0 -0.13119941462E+03  0.20903583216E+03  0.39512082310E+03  0.47269960550E+03  0.80094860469E+02 0.  0.
         24    2    4    4    0    0  0.60679533544E+03 -0.16679867008E+03  0.51568732776E+02  0.63654797086E+03  0.80694544719E+02 0.  0.
         13    1    3    3    0    0 -0.88156751751E+02  0.85737482006E+01 -0.46011145466E+02  0.99810558282E+02  0.00000000000E+00 0.  1.
        -13    1    3    3    0    0 -0.38743916907E+03 -0.50810910281E+02 -0.41807839754E+03  0.57225903647E+03  0.00000000000E+00 0. -1.
          4    1    6    6  502    0  0.42941258029E+03 -0.11127542000E+03 -0.22875128377E+00  0.44359602741E+03  0.00000000000E+00 0. -1.
          1    1    5    5  503    0 -0.58956916357E+02  0.32383871938E+02  0.12513083349E+03  0.14206462838E+03  0.00000000000E+00 0. -1.
         -2    1    5    5    0  503 -0.72242498264E+02  0.17665196023E+03  0.26998998961E+03  0.33063497712E+03  0.00000000000E+00 0.  1.
         -3    1    6    6    0  502  0.17738275515E+03 -0.55523250083E+02  0.51797484059E+02  0.19295194345E+03  0.00000000000E+00 0.  1.
<mgrwt>
<rscale>  0 0.17812322E+04</rscale>
<asrwt>0</asrwt>
<pdfrwt beam="1">  1        1 0.13836286E+00 0.17812322E+04</pdfrwt>
<pdfrwt beam="2">  1       -1 0.13568594E+00 0.17812322E+04</pdfrwt>
<totfact> 0.78301905E+00</totfact>
</mgrwt>
</event>
<event>
12    1  0.1541840E-007  0.1743905E+04  0.7818608E-02  0.8736712E-01
         -2   -1    0    0    0  501 -0.00000000000E+00  0.00000000000E+00  0.23612201744E+03  0.23612201744E+03  0.00000000000E+00 0. -1.
          2   -1    0    0  501    0  0.00000000000E+00 -0.00000000000E+00 -0.32199499510E+04  0.32199499510E+04  0.00000000000E+00 0.  1.
         23    2    1    2    0    0 -0.10935121144E+03 -0.19120481207E+03  0.84893941855E+02  0.25423355923E+03  0.94396788469E+02 0.  0.
        254    2    1    2    0    0  0.10935121144E+03  0.19120481207E+03 -0.30687218754E+04  0.32018384092E+04  0.88667822939E+03 0.  0.
        -24    2    4    4    0    0 -0.44252161247E+02 -0.22215360632E+03 -0.22944905068E+04  0.23067693698E+04  0.72026115106E+02 0.  0.
         24    2    4    4    0    0  0.15360337269E+03  0.41335841839E+03 -0.77423136863E+03  0.89506903939E+03  0.85177432171E+02 0.  0.
         13    1    3    3    0    0 -0.10713118961E+03 -0.96308130906E+02  0.60363360690E+02  0.15619245558E+03  0.00000000000E+00 0.  1.
        -13    1    3    3    0    0 -0.22200218284E+01 -0.94896681160E+02  0.24530581165E+02  0.98041103647E+02  0.00000000000E+00 0. -1.
          4    1    6    6  502    0  0.11497299496E+03  0.38174418499E+03 -0.67372396532E+03  0.78284825719E+03  0.00000000000E+00 0. -1.
          1    1    5    5  503    0 -0.10871478592E+02 -0.18196962267E+03 -0.19235019483E+04  0.19321208238E+04  0.00000000000E+00 0. -1.
         -2    1    5    5    0  503 -0.33380682655E+02 -0.40183983649E+02 -0.37098855849E+03  0.37464854604E+03  0.00000000000E+00 0.  1.
         -3    1    6    6    0  502  0.38630377732E+02  0.31614233400E+02 -0.10050740331E+03  0.11222078220E+03  0.00000000000E+00 0.  1.
<mgrwt>
<rscale>  0 0.17439049E+04</rscale>
<asrwt>0</asrwt>
<pdfrwt beam="1">  1        2 0.49537690E+00 0.17439049E+04</pdfrwt>
<pdfrwt beam="2">  1       -2 0.36326466E-01 0.17439049E+04</pdfrwt>
<totfact> 0.85642200E+00</totfact>
</mgrwt>
</event>
<event>
12    1  0.1541840E-007  0.2079524E+04  0.7818608E-02  0.8570317E-01
          2   -1    0    0  501    0  0.00000000000E+00  0.00000000000E+00  0.26159577613E+04  0.26159577613E+04  0.00000000000E+00 0. -1.
         -2   -1    0    0    0  501 -0.00000000000E+00 -0.00000000000E+00 -0.41327313993E+03  0.41327313993E+03  0.00000000000E+00 0.  1.
         23    2    1    2    0    0  0.30750322999E+03  0.70524568120E+03  0.41114368167E+03  0.87763973576E+03  0.96346621632E+02 0.  0.
        254    2    1    2    0    0 -0.30750322999E+03 -0.70524568120E+03  0.17915409397E+04  0.21515911654E+04  0.90983289532E+03 0.  0.
        -24    2    4    4    0    0  0.19662411995E+03 -0.53584099751E+03  0.13049903261E+04  0.14265677747E+04  0.79430759123E+02 0.  0.
         24    2    4    4    0    0 -0.50412734994E+03 -0.16940468369E+03  0.48655061358E+03  0.72502339074E+03  0.78006959456E+02 0.  0.
         13    1    3    3    0    0  0.18938643988E+03  0.37713653481E+03  0.17717470519E+03  0.45770084734E+03  0.00000000000E+00 0.  1.
        -13    1    3    3    0    0  0.11811679012E+03  0.32810914639E+03  0.23396897647E+03  0.41993888841E+03  0.00000000000E+00 0. -1.
          4    1    6    6  502    0 -0.31725524230E+03 -0.77068496294E+02  0.26171219469E+03  0.41843005955E+03  0.00000000000E+00 0. -1.
          3    1    5    5  503    0  0.10876929011E+03 -0.37456728753E+03  0.82210789922E+03  0.90994110212E+03  0.00000000000E+00 0. -1.
         -4    1    5    5    0  503  0.87854829841E+02 -0.16127370998E+03  0.48288242686E+03  0.51662667258E+03  0.00000000000E+00 0.  1.
         -3    1    6    6    0  502 -0.18687210764E+03 -0.92336187394E+02  0.22483841889E+03  0.30659333119E+03  0.00000000000E+00 0.  1.
<mgrwt>
<rscale>  0 0.20795241E+04</rscale>
<asrwt>0</asrwt>
<pdfrwt beam="1">  1        2 0.40245503E+00 0.20795241E+04</pdfrwt>
<pdfrwt beam="2">  1       -2 0.63580485E-01 0.20795241E+04</pdfrwt>
<totfact> 0.62969730E+00</totfact>
</mgrwt>
</event>
<event>
12    1  0.1541840E-007  0.1347065E+04  0.7818608E-02  0.8993053E-01
         -2   -1    0    0    0  501 -0.00000000000E+00  0.00000000000E+00  0.39237237169E+03  0.39237237169E+03  0.00000000000E+00 0.  1.
          2   -1    0    0  501    0  0.00000000000E+00 -0.00000000000E+00 -0.11561614285E+04  0.11561614285E+04  0.00000000000E+00 0. -1.
         23    2    1    2    0    0 -0.15200205388E+03  0.45591964164E+02 -0.57775947479E+03  0.60757624561E+03  0.10079499961E+03 0.  0.
        254    2    1    2    0    0  0.15200205388E+03 -0.45591964164E+02 -0.18602958207E+03  0.94095755463E+03  0.90863131281E+03 0.  0.
        -24    2    4    4    0    0  0.14808959810E+03 -0.24051214469E+03  0.29479027051E+03  0.41538511232E+03  0.76595477293E+02 0.  0.
         24    2    4    4    0    0  0.39124557779E+01  0.19492018052E+03 -0.48081985258E+03  0.52557244231E+03  0.83841978748E+02 0.  0.
         13    1    3    3    0    0 -0.15052918584E+03  0.53516914782E+02 -0.57783682874E+03  0.59951521800E+03  0.00000000000E+00 0. -1.
        -13    1    3    3    0    0 -0.14728680378E+01 -0.79249506184E+01  0.77353957163E-01  0.80610276141E+01  0.00000000000E+00 0.  1.
          2    1    6    6  502    0 -0.37564243304E+02  0.12883369914E+03 -0.30333495404E+03  0.33169457149E+03  0.00000000000E+00 0. -1.
          3    1    5    5  503    0  0.15561367650E+03 -0.23789004139E+03  0.29000174238E+03  0.40608902803E+03  0.00000000000E+00 0. -1.
         -4    1    5    5    0  503 -0.75240783947E+01 -0.26221032948E+01  0.47885281258E+01  0.92960842827E+01  0.00000000000E+00 0.  1.
         -3    1    6    6    0  502  0.41476699082E+02  0.66086481378E+02 -0.17748489853E+03  0.19387787082E+03  0.00000000000E+00 0.  1.
<mgrwt>
<rscale>  0 0.13470647E+04</rscale>
<asrwt>0</asrwt>
<pdfrwt beam="1">  1        2 0.17787099E+00 0.13470647E+04</pdfrwt>
<pdfrwt beam="2">  1       -2 0.60364980E-01 0.13470647E+04</pdfrwt>
<totfact> 0.50281703E+01</totfact>
</mgrwt>
</event>
<event>
12    1  0.1541840E-007  0.1447975E+04  0.7818608E-02  0.8919806E-01
         -2   -1    0    0    0  501 -0.00000000000E+00  0.00000000000E+00  0.64240318895E+03  0.64240318895E+03  0.00000000000E+00 0.  1.
          2   -1    0    0  501    0  0.00000000000E+00 -0.00000000000E+00 -0.81593284520E+03  0.81593284520E+03  0.00000000000E+00 0. -1.
         23    2    1    2    0    0  0.80283801764E+02  0.28581452634E+03  0.29310178664E+03  0.42759561595E+03  0.93775909239E+02 0.  0.
        254    2    1    2    0    0 -0.80283801764E+02 -0.28581452634E+03 -0.46663144289E+03  0.10307404182E+04  0.86979622552E+03 0.  0.
        -24    2    4    4    0    0 -0.84092332031E+01 -0.41245492181E+03  0.10810171391E+03  0.43356239291E+03  0.78106275457E+02 0.  0.
         24    2    4    4    0    0 -0.71874568561E+02  0.12664039547E+03 -0.57473315680E+03  0.59717802529E+03  0.71411826677E+02 0.  0.
         11    1    3    3    0    0  0.37038620723E+02  0.62847406840E+02  0.27096399287E+02  0.77819475878E+02  0.00000000000E+00 0. -1.
        -11    1    3    3    0    0  0.43245181041E+02  0.22296711950E+03  0.26600538735E+03  0.34977614007E+03  0.00000000000E+00 0.  1.
          2    1    6    6  502    0 -0.59058243312E+01  0.80799827546E+02 -0.31884564975E+03  0.32897726253E+03  0.00000000000E+00 0. -1.
          3    1    5    5  503    0 -0.12533833039E+02 -0.27604999887E+03  0.10909925703E+03  0.29709147872E+03  0.00000000000E+00 0. -1.
         -4    1    5    5    0  503  0.41245998354E+01 -0.13640492295E+03 -0.99754311368E+00  0.13647091419E+03  0.00000000000E+00 0.  1.
         -1    1    6    6    0  502 -0.65968744230E+02  0.45840567926E+02 -0.25588750705E+03  0.26820076276E+03  0.00000000000E+00 0.  1.
<mgrwt>
<rscale>  0 0.14479749E+04</rscale>
<asrwt>0</asrwt>
<pdfrwt beam="1">  1        2 0.12552813E+00 0.14479749E+04</pdfrwt>
<pdfrwt beam="2">  1       -2 0.98831260E-01 0.14479749E+04</pdfrwt>
<totfact> 0.27642521E+01</totfact>
</mgrwt>
</event>
<event>
12    1  0.1541840E-007  0.3513536E+04  0.7818608E-02  0.8110590E-01
          2   -1    0    0  501    0  0.00000000000E+00  0.00000000000E+00  0.25755974971E+04  0.25755974971E+04  0.00000000000E+00 0. -1.
         -2   -1    0    0    0  501 -0.00000000000E+00 -0.00000000000E+00 -0.11982591918E+04  0.11982591918E+04  0.00000000000E+00 0.  1.
         23    2    1    2    0    0 -0.92201120859E+03  0.11222112056E+04  0.14538542324E+04  0.20570705565E+04  0.91566841260E+02 0.  0.
        254    2    1    2    0    0  0.92201120859E+03 -0.11222112056E+04 -0.76515927170E+02  0.17167861325E+04  0.91216077467E+03 0.  0.
        -24    2    4    4    0    0  0.10524204361E+03  0.14872350999E+03 -0.41648616897E+02  0.20331794990E+03  0.80056300773E+02 0.  0.
         24    2    4    4    0    0  0.81676916497E+03 -0.12709347156E+04 -0.34867310273E+02  0.15134681826E+04  0.83566083149E+02 0.  0.
         11    1    3    3    0    0 -0.59440287859E+03  0.77358046909E+03  0.10159857592E+04  0.14085341981E+04  0.00000000000E+00 0. -1.
        -11    1    3    3    0    0 -0.32760832999E+03  0.34863073651E+03  0.43786847323E+03  0.64853635841E+03  0.00000000000E+00 0.  1.
          4    1    6    6  502    0  0.27973911994E+03 -0.49384982072E+03 -0.38294944373E+02  0.56886564619E+03  0.00000000000E+00 0. -1.
          1    1    5    5  503    0  0.17223702066E+02 -0.60193791394E+01 -0.14351408926E+02  0.23213181088E+02  0.00000000000E+00 0. -1.
         -2    1    5    5    0  503  0.88018341549E+02  0.15474288913E+03 -0.27297207971E+02  0.18010476881E+03  0.00000000000E+00 0.  1.
         -3    1    6    6    0  502  0.53703004504E+03 -0.77708489486E+03  0.34276341002E+01  0.94460253640E+03  0.00000000000E+00 0.  1.
<mgrwt>
<rscale>  0 0.35135358E+04</rscale>
<asrwt>0</asrwt>
<pdfrwt beam="1">  1        2 0.39624577E+00 0.35135358E+04</pdfrwt>
<pdfrwt beam="2">  1       -2 0.18434757E+00 0.35135358E+04</pdfrwt>
<totfact> 0.43693256E-01</totfact>
</mgrwt>
</event>
<event>
12    1  0.1541840E-007  0.1531411E+04  0.7818608E-02  0.8863830E-01
          2   -1    0    0  501    0  0.00000000000E+00  0.00000000000E+00  0.19878921125E+04  0.19878921125E+04  0.00000000000E+00 0. -1.
         -2   -1    0    0    0  501 -0.00000000000E+00 -0.00000000000E+00 -0.29493798641E+03  0.29493798641E+03  0.00000000000E+00 0.  1.
         23    2    1    2    0    0 -0.15286788606E+03  0.23542977632E+03 -0.60397468076E+02  0.30133229408E+03  0.91419511795E+02 0.  0.
        254    2    1    2    0    0  0.15286788606E+03 -0.23542977632E+03  0.17533515941E+04  0.19814978048E+04  0.87937248513E+03 0.  0.
        -24    2    4    4    0    0 -0.78904402225E+02  0.18743432244E+03  0.71524420338E+02  0.23013349005E+03  0.80549057242E+02 0.  0.
         24    2    4    4    0    0  0.23177228829E+03 -0.42286409876E+03  0.16818271738E+04  0.17513643147E+04  0.78752020990E+02 0.  0.
         13    1    3    3    0    0 -0.18838845930E+02 -0.53838984550E+01 -0.30380363470E+01  0.19827207151E+02  0.00000000000E+00 0. -1.
        -13    1    3    3    0    0 -0.13402904013E+03  0.24081367478E+03 -0.57359431729E+02  0.28150508693E+03  0.00000000000E+00 0.  1.
          4    1    6    6  502    0  0.34918026184E+02 -0.13504179126E+03  0.51391124614E+03  0.53250382426E+03  0.00000000000E+00 0. -1.
          3    1    5    5  503    0 -0.16713752959E+02 -0.41441733012E+01  0.75052564066E+01  0.18784370739E+02  0.00000000000E+00 0. -1.
         -4    1    5    5    0  503 -0.62190649266E+02  0.19157849574E+03  0.64019163931E+02  0.21134911932E+03  0.00000000000E+00 0.  1.
         -1    1    6    6    0  502  0.19685426210E+03 -0.28782230750E+03  0.11679159277E+04  0.12188604905E+04  0.00000000000E+00 0.  1.
<mgrwt>
<rscale>  0 0.15314110E+04</rscale>
<asrwt>0</asrwt>
<pdfrwt beam="1">  1        2 0.30582955E+00 0.15314110E+04</pdfrwt>
<pdfrwt beam="2">  1       -2 0.45375076E-01 0.15314110E+04</pdfrwt>
<totfact> 0.30135178E+01</totfact>
</mgrwt>
</event>
<event>
12    1  0.1541840E-007  0.3514049E+04  0.7818608E-02  0.8110469E-01
         -1   -1    0    0    0  501 -0.00000000000E+00  0.00000000000E+00  0.27172669194E+04  0.27172669194E+04  0.00000000000E+00 0.  1.
          1   -1    0    0  501    0  0.00000000000E+00 -0.00000000000E+00 -0.11361174569E+04  0.11361174569E+04  0.00000000000E+00 0. -1.
         23    2    1    2    0    0  0.80043298132E+02  0.10044111402E+03  0.25463703138E+04  0.25512021248E+04  0.90195121059E+02 0.  0.
        254    2    1    2    0    0 -0.80043298132E+02 -0.10044111402E+03 -0.96522085137E+03  0.13021822514E+04  0.86459931591E+03 0.  0.
        -24    2    4    4    0    0 -0.32644981898E+02 -0.42950821355E+03 -0.23771083903E+03  0.49851351495E+03  0.80413190752E+02 0.  0.
         24    2    4    4    0    0 -0.47398316234E+02  0.32906709953E+03 -0.72751001233E+03  0.80366873648E+03  0.77979892154E+02 0.  0.
         13    1    3    3    0    0  0.50409237766E+02  0.20701133754E+01  0.59774858298E+03  0.59987394099E+03  0.00000000000E+00 0. -1.
        -13    1    3    3    0    0  0.29634060366E+02  0.98371000641E+02  0.19486217308E+04  0.19513281839E+04  0.00000000000E+00 0.  1.
          4    1    6    6  502    0  0.12647900294E+02  0.95372117788E+01 -0.44225807798E+02  0.46977120662E+02  0.00000000000E+00 0. -1.
          1    1    5    5  503    0  0.89521231651E+01 -0.13001122433E+03 -0.36573952696E+02  0.13535402830E+03  0.00000000000E+00 0. -1.
         -2    1    5    5    0  503 -0.41597105063E+02 -0.29949698922E+03 -0.20113688634E+03  0.36315948665E+03  0.00000000000E+00 0.  1.
         -3    1    6    6    0  502 -0.60046216528E+02  0.31952988775E+03 -0.68328420454E+03  0.75669161582E+03  0.00000000000E+00 0.  1.
<mgrwt>
<rscale>  0 0.35140486E+04</rscale>
<asrwt>0</asrwt>
<pdfrwt beam="1">  1        1 0.17478730E+00 0.35140486E+04</pdfrwt>
<pdfrwt beam="2">  1       -1 0.41804106E+00 0.35140486E+04</pdfrwt>
<totfact> 0.52161565E-02</totfact>
</mgrwt>
</event>
<event>
12    1  0.1541840E-007  0.2054541E+04  0.7818608E-02  0.8581537E-01
         -1   -1    0    0    0  501 -0.00000000000E+00  0.00000000000E+00  0.48724657660E+03  0.48724657660E+03  0.00000000000E+00 0.  1.
          1   -1    0    0  501    0  0.00000000000E+00 -0.00000000000E+00 -0.21658134543E+04  0.21658134543E+04  0.00000000000E+00 0. -1.
         23    2    1    2    0    0 -0.31117268444E+03  0.66474653374E+03 -0.19315984623E+03  0.76430701316E+03  0.90211365730E+02 0.  0.
        254    2    1    2    0    0  0.31117268444E+03 -0.66474653374E+03 -0.14854070314E+04  0.18887530177E+04  0.90677313547E+03 0.  0.
        -24    2    4    4    0    0 -0.21189202884E+03 -0.21722366576E+01 -0.68917628812E+03  0.72536154404E+03  0.79261989350E+02 0.  0.
         24    2    4    4    0    0  0.52306471328E+03 -0.66257429708E+03 -0.79623074331E+03  0.11633914737E+04  0.83035721205E+02 0.  0.
         11    1    3    3    0    0 -0.28217286251E+03  0.64130560292E+03 -0.17203603729E+03  0.72145048257E+03  0.00000000000E+00 0.  1.
        -11    1    3    3    0    0 -0.28999821926E+02  0.23440930813E+02 -0.21123808948E+02  0.42856530583E+02  0.00000000000E+00 0. -1.
          2    1    6    6  502    0  0.43972096765E+03 -0.50338484659E+03 -0.61850879707E+03  0.91066127909E+03  0.00000000000E+00 0. -1.
          1    1    5    5  503    0 -0.74088633582E+02 -0.31623877312E+02 -0.32599603725E+03  0.33580144661E+03  0.00000000000E+00 0. -1.
         -2    1    5    5    0  503 -0.13780339526E+03  0.29451640655E+02 -0.36318025087E+03  0.38956009742E+03  0.00000000000E+00 0.  1.
         -1    1    6    6    0  502  0.83343745627E+02 -0.15918945049E+03 -0.17772194624E+03  0.25273019459E+03  0.00000000000E+00 0.  1.
<mgrwt>
<rscale>  0 0.20545415E+04</rscale>
<asrwt>0</asrwt>
<pdfrwt beam="1">  1        1 0.33320207E+00 0.20545415E+04</pdfrwt>
<pdfrwt beam="2">  1       -1 0.74961012E-01 0.20545415E+04</pdfrwt>
<totfact> 0.37986105E+00</totfact>
</mgrwt>
</event>
<event>
12    1  0.1541840E-007  0.1644459E+04  0.7818608E-02  0.8793691E-01
          2   -1    0    0  501    0  0.00000000000E+00  0.00000000000E+00  0.72397199873E+03  0.72397199873E+03  0.00000000000E+00 0. -1.
         -2   -1    0    0    0  501 -0.00000000000E+00 -0.00000000000E+00 -0.93382234783E+03  0.93382234783E+03  0.00000000000E+00 0.  1.
         23    2    1    2    0    0  0.47204493375E+01 -0.80739707931E+02 -0.65133440848E+03  0.66264609540E+03  0.91225835163E+02 0.  0.
        254    2    1    2    0    0 -0.47204493375E+01  0.80739707931E+02  0.44148405938E+03  0.99514825115E+03  0.88818392465E+03 0.  0.
        -24    2    4    4    0    0  0.42981888750E+03 -0.32784115265E+01  0.26970083610E+03  0.51373990785E+03  0.80219248847E+02 0.  0.
         24    2    4    4    0    0 -0.43453933684E+03  0.84018119457E+02  0.17178322327E+03  0.48140834331E+03  0.79756112956E+02 0.  0.
         13    1    3    3    0    0  0.21078245028E+02 -0.31681293250E+02 -0.52157731167E+03  0.52296356355E+03  0.00000000000E+00 0.  1.
        -13    1    3    3    0    0 -0.16357795690E+02 -0.49058414681E+02 -0.12975709681E+03  0.13968253185E+03  0.00000000000E+00 0. -1.
          2    1    6    6  502    0 -0.36998179557E+03  0.87094230211E+02  0.17095971659E+03  0.41677231036E+03  0.00000000000E+00 0. -1.
          3    1    5    5  503    0  0.22534496244E+03 -0.21559105097E+02  0.10037639748E+03  0.24762990183E+03  0.00000000000E+00 0. -1.
         -4    1    5    5    0  503  0.20447392506E+03  0.18280693570E+02  0.16932443862E+03  0.26611000602E+03  0.00000000000E+00 0.  1.
         -1    1    6    6    0  502 -0.64557541271E+02 -0.30761107537E+01  0.82350668612E+00  0.64636032951E+02  0.00000000000E+00 0.  1.
<mgrwt>
<rscale>  0 0.16444589E+04</rscale>
<asrwt>0</asrwt>
<pdfrwt beam="1">  1        2 0.11138031E+00 0.16444589E+04</pdfrwt>
<pdfrwt beam="2">  1       -2 0.14366498E+00 0.16444589E+04</pdfrwt>
<totfact> 0.12587420E+01</totfact>
</mgrwt>
</event>
<event>
12    1  0.1541840E-007  0.1575678E+04  0.7818608E-02  0.8835631E-01
         -2   -1    0    0    0  501 -0.00000000000E+00  0.00000000000E+00  0.33485713027E+03  0.33485713027E+03  0.00000000000E+00 0. -1.
          2   -1    0    0  501    0  0.00000000000E+00 -0.00000000000E+00 -0.18535969141E+04  0.18535969141E+04  0.00000000000E+00 0.  1.
         23    2    1    2    0    0 -0.76499872896E+02  0.69712621011E+02  0.20415518601E+03  0.24644512292E+03  0.91344285825E+02 0.  0.
        254    2    1    2    0    0  0.76499872896E+02 -0.69712621011E+02 -0.17228949698E+04  0.19420089214E+04  0.89012330257E+03 0.  0.
        -24    2    4    4    0    0  0.79823112927E+01  0.36485001900E+03 -0.40994857595E+03  0.55505713616E+03  0.82772796377E+02 0.  0.
         24    2    4    4    0    0  0.68517561604E+02 -0.43456264001E+03 -0.13129463939E+04  0.13869517853E+04  0.79168662609E+02 0.  0.
         13    1    3    3    0    0  0.16837810263E+02  0.93076500901E+01  0.67973254209E+02  0.70643524065E+02  0.00000000000E+00 0.  1.
        -13    1    3    3    0    0 -0.93337683159E+02  0.60404970921E+02  0.13618193181E+03  0.17580159885E+03  0.00000000000E+00 0. -1.
          2    1    6    6  502    0  0.46275004744E+02 -0.37909102924E+03 -0.11979467318E+04  0.12573494967E+04  0.00000000000E+00 0. -1.
          1    1    5    5  503    0 -0.80867912107E+01  0.28716189329E+03 -0.36282459701E+03  0.46278400723E+03  0.00000000000E+00 0. -1.
         -2    1    5    5    0  503  0.16069102503E+02  0.77688125710E+02 -0.47123978937E+02  0.92273128930E+02  0.00000000000E+00 0.  1.
         -1    1    6    6    0  502  0.22242556859E+02 -0.55471610770E+02 -0.11499966209E+03  0.12960228863E+03  0.00000000000E+00 0.  1.
<mgrwt>
<rscale>  0 0.15756778E+04</rscale>
<asrwt>0</asrwt>
<pdfrwt beam="1">  1        2 0.28516875E+00 0.15756778E+04</pdfrwt>
<pdfrwt beam="2">  1       -2 0.51516482E-01 0.15756778E+04</pdfrwt>
<totfact> 0.27553862E+01</totfact>
</mgrwt>
</event>
<event>
12    1  0.1541840E-007  0.3011707E+04  0.7818608E-02  0.8240396E-01
         -2   -1    0    0    0  501 -0.00000000000E+00  0.00000000000E+00  0.94454728674E+03  0.94454728674E+03  0.00000000000E+00 0.  1.
          2   -1    0    0  501    0  0.00000000000E+00 -0.00000000000E+00 -0.24007214358E+04  0.24007214358E+04  0.00000000000E+00 0. -1.
         23    2    1    2    0    0  0.13216139813E+04  0.32826329058E+03 -0.80043922684E+03  0.15822243266E+04  0.91162273658E+02 0.  0.
        254    2    1    2    0    0 -0.13216139813E+04 -0.32826329058E+03 -0.65573492221E+03  0.17630443960E+04  0.90769871123E+03 0.  0.
        -24    2    4    4    0    0 -0.12718502935E+04 -0.48271516653E+03 -0.75388703093E+03  0.15574491917E+04  0.81763244802E+02 0.  0.
         24    2    4    4    0    0 -0.49763687815E+02  0.15445187595E+03  0.98152108713E+02  0.20559520427E+03  0.79396126894E+02 0.  0.
         13    1    3    3    0    0  0.99886620026E+01 -0.25759891432E+01 -0.14421356375E+02  0.17730894178E+02  0.00000000000E+00 0. -1.
        -13    1    3    3    0    0  0.13116253193E+04  0.33083927973E+03 -0.78601787046E+03  0.15644934324E+04  0.00000000000E+00 0.  1.
          4    1    6    6  502    0 -0.70614617507E+01  0.13193797074E+03  0.67010648387E+02  0.14814830192E+03  0.00000000000E+00 0. -1.
          3    1    5    5  503    0 -0.10328640203E+04 -0.42226666454E+03 -0.60159432893E+03  0.12676880361E+04  0.00000000000E+00 0. -1.
         -4    1    5    5    0  503 -0.23898627326E+03 -0.60448501992E+02 -0.15229270199E+03  0.28976115557E+03  0.00000000000E+00 0.  1.
         -3    1    6    6    0  502 -0.42702226064E+02  0.22513905213E+02  0.31141460326E+02  0.57446902354E+02  0.00000000000E+00 0.  1.
<mgrwt>
<rscale>  0 0.30117071E+04</rscale>
<asrwt>0</asrwt>
<pdfrwt beam="1">  1        2 0.36934176E+00 0.30117071E+04</pdfrwt>
<pdfrwt beam="2">  1       -2 0.14531497E+00 0.30117071E+04</pdfrwt>
<totfact> 0.11064959E+00</totfact>
</mgrwt>
</event>
<event>
12    1  0.1541840E-007  0.2014255E+04  0.7818608E-02  0.8599985E-01
         -2   -1    0    0    0  501 -0.00000000000E+00  0.00000000000E+00  0.45716523439E+03  0.45716523439E+03  0.00000000000E+00 0.  1.
          2   -1    0    0  501    0  0.00000000000E+00 -0.00000000000E+00 -0.22186861600E+04  0.22186861600E+04  0.00000000000E+00 0. -1.
         23    2    1    2    0    0 -0.55323825766E+03  0.56159200705E+03 -0.47112840444E+03  0.92278833115E+03  0.90100935118E+02 0.  0.
        254    2    1    2    0    0  0.55323825766E+03 -0.56159200705E+03 -0.12903925211E+04  0.17530630632E+04  0.88693804341E+03 0.  0.
        -24    2    4    4    0    0  0.10193249916E+02  0.12069858653E+03 -0.65766471722E+03  0.67329928481E+03  0.78338978250E+02 0.  0.
         24    2    4    4    0    0  0.54304500775E+03 -0.68229059359E+03 -0.63272780392E+03  0.10797637784E+04  0.71603133709E+02 0.  0.
         11    1    3    3    0    0 -0.29133634800E+03  0.28580110630E+03 -0.29549033199E+03  0.50385878610E+03  0.00000000000E+00 0.  1.
        -11    1    3    3    0    0 -0.26190190966E+03  0.27579090075E+03 -0.17563807245E+03  0.41892954505E+03  0.00000000000E+00 0. -1.
          2    1    6    6  502    0  0.32874710515E+03 -0.45630160159E+03 -0.43317025443E+03  0.70987483410E+03  0.00000000000E+00 0. -1.
          3    1    5    5  503    0  0.21285562662E+01  0.59517300055E+02 -0.14239773626E+03  0.15435010544E+03  0.00000000000E+00 0. -1.
         -4    1    5    5    0  503  0.80646936497E+01  0.61181286478E+02 -0.51526698096E+03  0.51894917937E+03  0.00000000000E+00 0.  1.
         -1    1    6    6    0  502  0.21429790260E+03 -0.22598899199E+03 -0.19955754950E+03  0.36988894431E+03  0.00000000000E+00 0.  1.
<mgrwt>
<rscale>  0 0.20142554E+04</rscale>
<asrwt>0</asrwt>
<pdfrwt beam="1">  1        2 0.34133633E+00 0.20142554E+04</pdfrwt>
<pdfrwt beam="2">  1       -2 0.70333113E-01 0.20142554E+04</pdfrwt>
<totfact> 0.86050018E+00</totfact>
</mgrwt>
</event>
<event>
12    1  0.1541840E-007  0.1918706E+04  0.7818608E-02  0.8645601E-01
          1   -1    0    0  501    0  0.00000000000E+00  0.00000000000E+00  0.12826630494E+04  0.12826630494E+04  0.00000000000E+00 0. -1.
         -1   -1    0    0    0  501 -0.00000000000E+00 -0.00000000000E+00 -0.71753665831E+03  0.71753665831E+03  0.00000000000E+00 0.  1.
         23    2    1    2    0    0  0.58420700229E+03  0.19369108606E+03 -0.21429476057E+03  0.65842090623E+03  0.93711189358E+02 0.  0.
        254    2    1    2    0    0 -0.58420700229E+03 -0.19369108606E+03  0.77942115166E+03  0.13417788015E+04  0.90225216106E+03 0.  0.
        -24    2    4    4    0    0  0.13060563957E+03 -0.30221387744E+03  0.39098206836E+03  0.51699399043E+03  0.77619247346E+02 0.  0.
         24    2    4    4    0    0 -0.71481264185E+03  0.10852279138E+03  0.38843908330E+03  0.82478481106E+03  0.81552154598E+02 0.  0.
         13    1    3    3    0    0  0.52060287662E+03  0.20003146421E+03 -0.20303365170E+03  0.59351714849E+03  0.00000000000E+00 0.  1.
        -13    1    3    3    0    0  0.63604125662E+02 -0.63403781441E+01 -0.11261108863E+02  0.64903757742E+02  0.00000000000E+00 0. -1.
          4    1    6    6  502    0 -0.42048035468E+03  0.23205957427E+02  0.22179667428E+03  0.47595799169E+03  0.00000000000E+00 0. -1.
          3    1    5    5  503    0  0.55452141351E+02 -0.95554024395E+02  0.18619498632E+03  0.21650423665E+03  0.00000000000E+00 0. -1.
         -4    1    5    5    0  503  0.75153498216E+02 -0.20665985305E+03  0.20478708204E+03  0.30048975378E+03  0.00000000000E+00 0.  1.
         -3    1    6    6    0  502 -0.29433228717E+03  0.85316833951E+02  0.16664240903E+03  0.34882681937E+03  0.00000000000E+00 0.  1.
<mgrwt>
<rscale>  0 0.19187056E+04</rscale>
<asrwt>0</asrwt>
<pdfrwt beam="1">  1        1 0.19733278E+00 0.19187056E+04</pdfrwt>
<pdfrwt beam="2">  1       -1 0.11039026E+00 0.19187056E+04</pdfrwt>
<totfact> 0.65809135E+00</totfact>
</mgrwt>
</event>
<event>
12    1  0.1541840E-007  0.1227203E+04  0.7818608E-02  0.9089374E-01
          2   -1    0    0  501    0  0.00000000000E+00  0.00000000000E+00  0.19305463807E+04  0.19305463807E+04  0.00000000000E+00 0. -1.
         -2   -1    0    0    0  501 -0.00000000000E+00 -0.00000000000E+00 -0.19502592167E+03  0.19502592167E+03  0.00000000000E+00 0.  1.
         23    2    1    2    0    0 -0.26406444739E+03 -0.11231303178E+02  0.31229559719E+03  0.41934361352E+03  0.92001911005E+02 0.  0.
        254    2    1    2    0    0  0.26406444739E+03  0.11231303178E+02  0.14232248618E+04  0.17062286888E+04  0.90321157917E+03 0.  0.
        -24    2    4    4    0    0  0.42080272382E+03  0.32937583989E+03  0.10732400608E+04  0.12015350427E+04  0.79239223506E+02 0.  0.
         24    2    4    4    0    0 -0.15673827643E+03 -0.31814453671E+03  0.34998480097E+03  0.50469364605E+03  0.80271301966E+02 0.  0.
         11    1    3    3    0    0 -0.12154094446E+03  0.30816618938E+01  0.21231339542E+03  0.24466032718E+03  0.00000000000E+00 0.  1.
        -11    1    3    3    0    0 -0.14252350293E+03 -0.14312965072E+02  0.99982201775E+02  0.17468328634E+03  0.00000000000E+00 0. -1.
          2    1    6    6  502    0 -0.57556163336E+02 -0.15482774121E+03  0.21322078684E+03  0.26971734339E+03  0.00000000000E+00 0. -1.
          1    1    5    5  503    0  0.16280384793E+02  0.38517230679E+02  0.75243806735E+02  0.86082857993E+02  0.00000000000E+00 0. -1.
         -2    1    5    5    0  503  0.40452233902E+03  0.29085860921E+03  0.99799625408E+03  0.11154521848E+04  0.00000000000E+00 0.  1.
         -1    1    6    6    0  502 -0.99182113092E+02 -0.16331679551E+03  0.13676401413E+03  0.23497630266E+03  0.00000000000E+00 0.  1.
<mgrwt>
<rscale>  0 0.12272027E+04</rscale>
<asrwt>0</asrwt>
<pdfrwt beam="1">  1        2 0.29700712E+00 0.12272027E+04</pdfrwt>
<pdfrwt beam="2">  1       -2 0.30003989E-01 0.12272027E+04</pdfrwt>
<totfact> 0.73800176E+01</totfact>
</mgrwt>
</event>
<event>
12    1  0.1541840E-007  0.1675304E+04  0.7818608E-02  0.8775576E-01
         -1   -1    0    0    0  501 -0.00000000000E+00  0.00000000000E+00  0.92351245379E+03  0.92351245379E+03  0.00000000000E+00 0.  1.
          1   -1    0    0  501    0  0.00000000000E+00 -0.00000000000E+00 -0.75977426151E+03  0.75977426151E+03  0.00000000000E+00 0. -1.
         23    2    1    2    0    0 -0.16891660819E+03 -0.53278272024E+03 -0.11336503035E+03  0.57792028160E+03  0.93541297121E+02 0.  0.
        254    2    1    2    0    0  0.16891660819E+03  0.53278272024E+03  0.27710322264E+03  0.11053664337E+04  0.91250123795E+03 0.  0.
        -24    2    4    4    0    0  0.36161104028E+03 -0.88850680457E+02  0.23903059711E+03  0.44851518946E+03  0.73302530344E+02 0.  0.
         24    2    4    4    0    0 -0.19269443209E+03  0.62163340070E+03  0.38072625527E+02  0.65685124424E+03  0.80279531825E+02 0.  0.
         11    1    3    3    0    0 -0.68329815960E+02 -0.35249023362E+03 -0.53913196256E+02  0.36307707347E+03  0.00000000000E+00 0. -1.
        -11    1    3    3    0    0 -0.10058679223E+03 -0.18029248662E+03 -0.59451834099E+02  0.21484320813E+03  0.00000000000E+00 0.  1.
          4    1    6    6  502    0 -0.18320138086E+03  0.49333821523E+03  0.17309654731E+02  0.52654056321E+03  0.00000000000E+00 0. -1.
          3    1    5    5  503    0  0.27669583269E+03 -0.83383272388E+02  0.15090928344E+03  0.32601681823E+03  0.00000000000E+00 0. -1.
         -4    1    5    5    0  503  0.84915207587E+02 -0.54674080692E+01  0.88121313674E+02  0.12249837123E+03  0.00000000000E+00 0.  1.
         -3    1    6    6    0  502 -0.94930512233E+01  0.12829518547E+03  0.20762970797E+02  0.13031068104E+03  0.00000000000E+00 0.  1.
<mgrwt>
<rscale>  0 0.16753041E+04</rscale>
<asrwt>0</asrwt>
<pdfrwt beam="1">  1        1 0.11688835E+00 0.16753041E+04</pdfrwt>
<pdfrwt beam="2">  1       -1 0.14207884E+00 0.16753041E+04</pdfrwt>
<totfact> 0.92297261E+00</totfact>
</mgrwt>
</event>
<event>
12    1  0.1541840E-007  0.2036273E+04  0.7818608E-02  0.8589847E-01
         -2   -1    0    0    0  501 -0.00000000000E+00  0.00000000000E+00  0.96695124149E+03  0.96695124149E+03  0.00000000000E+00 0.  1.
          2   -1    0    0  501    0  0.00000000000E+00 -0.00000000000E+00 -0.10720309280E+04  0.10720309280E+04  0.00000000000E+00 0. -1.
         23    2    1    2    0    0 -0.10922377722E+02 -0.27830993439E+03 -0.80748538196E+03  0.85976513654E+03  0.97916954680E+02 0.  0.
        254    2    1    2    0    0  0.10922377722E+02  0.27830993439E+03  0.70240569550E+03  0.11792170329E+04  0.90531946389E+03 0.  0.
        -24    2    4    4    0    0 -0.34124693062E+03 -0.15048396444E+03  0.34595296438E+03  0.51483010990E+03  0.79194048287E+02 0.  0.
         24    2    4    4    0    0  0.35216930834E+03  0.42879389883E+03  0.35645273112E+03  0.66438692301E+03  0.80399033147E+02 0.  0.
         11    1    3    3    0    0  0.16688100056E+02 -0.26320060170E+03 -0.72518089053E+03  0.77164782991E+03  0.00000000000E+00 0. -1.
        -11    1    3    3    0    0 -0.27610477778E+02 -0.15109332685E+02 -0.82304491431E+02  0.88117306626E+02  0.00000000000E+00 0.  1.
          4    1    6    6  502    0  0.20963668296E+03  0.22596885654E+03  0.23917795272E+03  0.39014812063E+03  0.00000000000E+00 0. -1.
          1    1    5    5  503    0 -0.27101199574E+03 -0.14559091921E+03  0.25355786547E+03  0.39866754161E+03  0.00000000000E+00 0. -1.
         -2    1    5    5    0  503 -0.70234934878E+02 -0.48930452321E+01  0.92395098907E+02  0.11616256829E+03  0.00000000000E+00 0.  1.
         -3    1    6    6    0  502  0.14253262538E+03  0.20282504229E+03  0.11727477840E+03  0.27423880237E+03  0.00000000000E+00 0.  1.
<mgrwt>
<rscale>  0 0.20362727E+04</rscale>
<asrwt>0</asrwt>
<pdfrwt beam="1">  1        2 0.16492783E+00 0.20362727E+04</pdfrwt>
<pdfrwt beam="2">  1       -2 0.14876173E+00 0.20362727E+04</pdfrwt>
<totfact> 0.64331518E+00</totfact>
</mgrwt>
</event>
<event>
12    1  0.1541840E-007  0.2133564E+04  0.7818608E-02  0.8546600E-01
         -2   -1    0    0    0  501 -0.00000000000E+00  0.00000000000E+00  0.82501334143E+03  0.82501334143E+03  0.00000000000E+00 0.  1.
          2   -1    0    0  501    0  0.00000000000E+00 -0.00000000000E+00 -0.13794011163E+04  0.13794011163E+04  0.00000000000E+00 0. -1.
         23    2    1    2    0    0  0.56904670600E+02 -0.34823083439E+03  0.59905269072E+03  0.70114592731E+03  0.90766896864E+02 0.  0.
        254    2    1    2    0    0 -0.56904670600E+02  0.34823083439E+03 -0.11534404655E+04  0.15032685304E+04  0.89715578989E+03 0.  0.
        -24    2    4    4    0    0 -0.22080890409E+03  0.59697364923E+03 -0.65003841532E+03  0.91298066005E+03  0.76482901618E+02 0.  0.
         24    2    4    4    0    0  0.16390423349E+03 -0.24874281483E+03 -0.50340205022E+03  0.59028787033E+03  0.79300441392E+02 0.  0.
         11    1    3    3    0    0 -0.18459708132E+02 -0.14465451064E+03  0.27162022296E+03  0.30829082665E+03  0.00000000000E+00 0.  1.
        -11    1    3    3    0    0  0.75364378732E+02 -0.20357632376E+03  0.32743246775E+03  0.39285510066E+03  0.00000000000E+00 0. -1.
          4    1    6    6  502    0  0.15746613854E+02 -0.54639365212E+02 -0.51915807929E+02  0.76997838876E+02  0.00000000000E+00 0. -1.
          3    1    5    5  503    0 -0.54951237451E+02  0.19489809206E+03 -0.25312974087E+03  0.32415979162E+03  0.00000000000E+00 0. -1.
         -4    1    5    5    0  503 -0.16585766664E+03  0.40207555716E+03 -0.39690867444E+03  0.58882086843E+03  0.00000000000E+00 0.  1.
         -3    1    6    6    0  502  0.14815761964E+03 -0.19410344962E+03 -0.45148624229E+03  0.51329003145E+03  0.00000000000E+00 0.  1.
<mgrwt>
<rscale>  0 0.21335645E+04</rscale>
<asrwt>0</asrwt>
<pdfrwt beam="1">  1        2 0.21221556E+00 0.21335645E+04</pdfrwt>
<pdfrwt beam="2">  1       -2 0.12692513E+00 0.21335645E+04</pdfrwt>
<totfact> 0.63064952E+00</totfact>
</mgrwt>
</event>
<event>
12    1  0.1541840E-007  0.1580799E+04  0.7818608E-02  0.8832431E-01
         -2   -1    0    0    0  501 -0.00000000000E+00  0.00000000000E+00  0.20374493043E+03  0.20374493043E+03  0.00000000000E+00 0.  1.
          2   -1    0    0  501    0  0.00000000000E+00 -0.00000000000E+00 -0.30662427154E+04  0.30662427154E+04  0.00000000000E+00 0. -1.
         23    2    1    2    0    0  0.49379335040E+03  0.74796806302E+02 -0.60519059524E+03  0.79005016840E+03  0.92180132834E+02 0.  0.
        254    2    1    2    0    0 -0.49379335040E+03 -0.74796806302E+02 -0.22573071897E+04  0.24799374774E+04  0.89734481002E+03 0.  0.
        -24    2    4    4    0    0 -0.42916109416E+03  0.36775905161E+03 -0.13341816175E+04  0.14510237792E+04  0.77481962479E+02 0.  0.
         24    2    4    4    0    0 -0.64632256235E+02 -0.44255585791E+03 -0.92312557223E+03  0.10289136983E+04  0.80433577740E+02 0.  0.
         13    1    3    3    0    0  0.98433380255E+02  0.20992275450E+02 -0.70452250281E+02  0.12285489631E+03  0.00000000000E+00 0.  1.
        -13    1    3    3    0    0  0.39535997014E+03  0.53804530852E+02 -0.53473834495E+03  0.66719527209E+03  0.00000000000E+00 0. -1.
          2    1    6    6  502    0 -0.17546586338E+02 -0.10665475532E+03 -0.15225135166E+03  0.18671795202E+03  0.00000000000E+00 0. -1.
          1    1    5    5  503    0 -0.14372279757E+03  0.15527345585E+03 -0.57165797295E+03  0.60955633592E+03  0.00000000000E+00 0. -1.
         -2    1    5    5    0  503 -0.28543829660E+03  0.21248559575E+03 -0.76252364454E+03  0.84146744325E+03  0.00000000000E+00 0.  1.
         -1    1    6    6    0  502 -0.47085669897E+02 -0.33590110259E+03 -0.77087422057E+03  0.84219574623E+03  0.00000000000E+00 0.  1.
<mgrwt>
<rscale>  0 0.15807990E+04</rscale>
<asrwt>0</asrwt>
<pdfrwt beam="1">  1        2 0.47172967E+00 0.15807990E+04</pdfrwt>
<pdfrwt beam="2">  1       -2 0.31345373E-01 0.15807990E+04</pdfrwt>
<totfact> 0.14441902E+01</totfact>
</mgrwt>
</event>
<event>
12    1  0.1541840E-007  0.1896562E+04  0.7818608E-02  0.8656569E-01
          1   -1    0    0  501    0  0.00000000000E+00  0.00000000000E+00  0.15902483197E+04  0.15902483197E+04  0.00000000000E+00 0. -1.
         -1   -1    0    0    0  501 -0.00000000000E+00 -0.00000000000E+00 -0.56546971427E+03  0.56546971427E+03  0.00000000000E+00 0.  1.
         23    2    1    2    0    0 -0.70019891704E+03 -0.19414242454E+03  0.35535966005E+03  0.81413310841E+03  0.92533376633E+02 0.  0.
        254    2    1    2    0    0  0.70019891704E+03  0.19414242454E+03  0.66941894539E+03  0.13415849256E+04  0.90761147174E+03 0.  0.
        -24    2    4    4    0    0  0.63917115178E+03  0.43580960840E+03  0.19855465250E+03  0.80273543295E+03  0.80563324468E+02 0.  0.
         24    2    4    4    0    0  0.61027765266E+02 -0.24166718386E+03  0.47086429289E+03  0.53884949262E+03  0.80735230787E+02 0.  0.
         13    1    3    3    0    0 -0.11620585286E+03 -0.62520740620E+02  0.87259184664E+02  0.15819863639E+03  0.00000000000E+00 0. -1.
        -13    1    3    3    0    0 -0.58399306418E+03 -0.13162168391E+03  0.26810047539E+03  0.65593447202E+03  0.00000000000E+00 0.  1.
          4    1    6    6  502    0  0.51342629389E+02 -0.10813400627E+03  0.15546337878E+03  0.19620879452E+03  0.00000000000E+00 0. -1.
          3    1    5    5  503    0  0.39927037426E+02  0.15059032028E+02  0.27655360809E+02  0.50850385886E+02  0.00000000000E+00 0. -1.
         -4    1    5    5    0  503  0.59924411435E+03  0.42075057637E+03  0.17089929170E+03  0.75188504706E+03  0.00000000000E+00 0.  1.
         -3    1    6    6    0  502  0.96851358769E+01 -0.13353317759E+03  0.31540091411E+03  0.34264069810E+03  0.00000000000E+00 0.  1.
<mgrwt>
<rscale>  0 0.18965624E+04</rscale>
<asrwt>0</asrwt>
<pdfrwt beam="1">  1        1 0.24465359E+00 0.18965624E+04</pdfrwt>
<pdfrwt beam="2">  1       -1 0.86995341E-01 0.18965624E+04</pdfrwt>
<totfact> 0.69025789E+00</totfact>
</mgrwt>
</event>
<event>
12    1  0.1541840E-007  0.1371879E+04  0.7818608E-02  0.8974429E-01
         -2   -1    0    0    0  501 -0.00000000000E+00  0.00000000000E+00  0.83622106920E+03  0.83622106920E+03  0.00000000000E+00 0.  1.
          2   -1    0    0  501    0  0.00000000000E+00 -0.00000000000E+00 -0.56266576224E+03  0.56266576224E+03  0.00000000000E+00 0. -1.
         23    2    1    2    0    0  0.20858113344E+02 -0.18158905369E+03  0.39701608991E+03  0.44844140688E+03  0.10034079152E+03 0.  0.
        254    2    1    2    0    0 -0.20858113344E+02  0.18158905369E+03 -0.12346078295E+03  0.95044542457E+03  0.92449677925E+03 0.  0.
        -24    2    4    4    0    0  0.37370601455E+03  0.23008903799E+03 -0.26840877946E+03  0.52020345645E+03  0.77273620988E+02 0.  0.
         24    2    4    4    0    0 -0.39456412789E+03 -0.48499984301E+02  0.14494799651E+03  0.43024196812E+03  0.77878944132E+02 0.  0.
         11    1    3    3    0    0  0.50810617809E+02 -0.71181313111E+02  0.22942006638E+03  0.24552406211E+03  0.00000000000E+00 0. -1.
        -11    1    3    3    0    0 -0.29952504465E+02 -0.11040774058E+03  0.16759602353E+03  0.20291734476E+03  0.00000000000E+00 0.  1.
          2    1    6    6  502    0 -0.14611052644E+03 -0.44329879505E+02  0.26512652798E+02  0.15497207785E+03  0.00000000000E+00 0. -1.
          1    1    5    5  503    0  0.13749795571E+03  0.10722295021E+03 -0.68840427233E+02  0.18746053797E+03  0.00000000000E+00 0. -1.
         -4    1    5    5    0  503  0.23620805884E+03  0.12286608778E+03 -0.19956835223E+03  0.33274291848E+03  0.00000000000E+00 0.  1.
         -3    1    6    6    0  502 -0.24845360145E+03 -0.41701047967E+01  0.11843534372E+03  0.27526989027E+03  0.00000000000E+00 0.  1.
<mgrwt>
<rscale>  0 0.13718790E+04</rscale>
<asrwt>0</asrwt>
<pdfrwt beam="1">  1        2 0.86563963E-01 0.13718790E+04</pdfrwt>
<pdfrwt beam="2">  1       -2 0.12864940E+00 0.13718790E+04</pdfrwt>
<totfact> 0.23292347E+01</totfact>
</mgrwt>
</event>
<event>
12    1  0.1541840E-007  0.2175300E+04  0.7818608E-02  0.8528780E-01
         -1   -1    0    0    0  501 -0.00000000000E+00  0.00000000000E+00  0.92847527473E+03  0.92847527473E+03  0.00000000000E+00 0.  1.
          1   -1    0    0  501    0  0.00000000000E+00 -0.00000000000E+00 -0.12741127438E+04  0.12741127438E+04  0.00000000000E+00 0. -1.
         23    2    1    2    0    0  0.56795621514E+03  0.41278451489E+03  0.43123233955E+03  0.82987126131E+03  0.98790999690E+02 0.  0.
        254    2    1    2    0    0 -0.56795621514E+03 -0.41278451489E+03 -0.77686980867E+03  0.13727167573E+04  0.88761437460E+03 0.  0.
        -24    2    4    4    0    0 -0.48982046599E+03 -0.25517625053E+03 -0.95738922576E+03  0.11083405031E+04  0.82374348984E+02 0.  0.
         24    2    4    4    0    0 -0.78135749151E+02 -0.15760826435E+03  0.18051941708E+03  0.26437625421E+03  0.79762043349E+02 0.  0.
         11    1    3    3    0    0  0.37480101574E+03  0.26923228142E+03  0.22725796014E+03  0.51440062520E+03  0.00000000000E+00 0. -1.
        -11    1    3    3    0    0  0.19315519940E+03  0.14355223347E+03  0.20397437942E+03  0.31547063611E+03  0.00000000000E+00 0.  1.
          4    1    6    6  502    0  0.47981186113E+01 -0.29180268084E+02  0.24345003730E+01  0.29672154956E+02  0.00000000000E+00 0. -1.
          1    1    5    5  503    0 -0.13556091768E+03 -0.53576334765E+02 -0.32189194970E+03  0.35335762809E+03  0.00000000000E+00 0. -1.
         -2    1    5    5    0  503 -0.35425954832E+03 -0.20159991577E+03 -0.63549727606E+03  0.75498287497E+03  0.00000000000E+00 0.  1.
         -3    1    6    6    0  502 -0.82933867762E+02 -0.12842799627E+03  0.17808491671E+03  0.23470409926E+03  0.00000000000E+00 0.  1.
<mgrwt>
<rscale>  0 0.21752997E+04</rscale>
<asrwt>0</asrwt>
<pdfrwt beam="1">  1        1 0.19601734E+00 0.21752997E+04</pdfrwt>
<pdfrwt beam="2">  1       -1 0.14284235E+00 0.21752997E+04</pdfrwt>
<totfact> 0.34297484E+00</totfact>
</mgrwt>
</event>
<event>
12    1  0.1541840E-007  0.2721149E+04  0.7818608E-02  0.8328175E-01
          1   -1    0    0  501    0  0.00000000000E+00  0.00000000000E+00  0.26242678353E+04  0.26242678353E+04  0.00000000000E+00 0. -1.
         -1   -1    0    0    0  501 -0.00000000000E+00 -0.00000000000E+00 -0.70540172162E+03  0.70540172162E+03  0.00000000000E+00 0.  1.
         23    2    1    2    0    0  0.10232252044E+04 -0.32670564708E+03  0.18318061667E+03  0.10934368194E+04  0.91227961247E+02 0.  0.
        254    2    1    2    0    0 -0.10232252044E+04  0.32670564708E+03  0.17356854970E+04  0.22362327375E+04  0.91345843542E+03 0.  0.
        -24    2    4    4    0    0 -0.15236100714E+03  0.46592882590E+03  0.84602120568E+03  0.98100851645E+03  0.79512776315E+02 0.  0.
         24    2    4    4    0    0 -0.87086419725E+03 -0.13922317882E+03  0.88966429132E+03  0.12552242211E+04  0.79358366806E+02 0.  0.
         13    1    3    3    0    0  0.27506093357E+03 -0.47992925246E+02  0.60127469312E+02  0.28561713992E+03  0.00000000000E+00 0. -1.
        -13    1    3    3    0    0  0.74816427081E+03 -0.27871272184E+03  0.12305314736E+03  0.80781967945E+03  0.00000000000E+00 0.  1.
          4    1    6    6  502    0 -0.75650114181E+03 -0.12785970226E+03  0.73451925358E+03  0.10621490549E+04  0.00000000000E+00 0. -1.
          3    1    5    5  503    0 -0.11568625615E+03  0.42903270154E+03  0.76629815185E+03  0.88581331350E+03  0.00000000000E+00 0. -1.
         -4    1    5    5    0  503 -0.36674750991E+02  0.36896124362E+02  0.79723053827E+02  0.95195202950E+02  0.00000000000E+00 0.  1.
         -3    1    6    6    0  502 -0.11436305544E+03 -0.11363476555E+02  0.15514503774E+03  0.19307516615E+03  0.00000000000E+00 0.  1.
<mgrwt>
<rscale>  0 0.27211491E+04</rscale>
<asrwt>0</asrwt>
<pdfrwt beam="1">  1        1 0.40373351E+00 0.27211491E+04</pdfrwt>
<pdfrwt beam="2">  1       -1 0.10852334E+00 0.27211491E+04</pdfrwt>
<totfact> 0.76160967E-01</totfact>
</mgrwt>
</event>
<event>
12    1  0.1541840E-007  0.1669466E+04  0.7818608E-02  0.8778973E-01
         -2   -1    0    0    0  501 -0.00000000000E+00  0.00000000000E+00  0.72172933116E+03  0.72172933116E+03  0.00000000000E+00 0.  1.
          2   -1    0    0  501    0  0.00000000000E+00 -0.00000000000E+00 -0.96542972273E+03  0.96542972273E+03  0.00000000000E+00 0. -1.
         23    2    1    2    0    0 -0.37943738315E+03  0.21488371895E+03 -0.48556498427E+03  0.65863984778E+03  0.88799519886E+02 0.  0.
        254    2    1    2    0    0  0.37943738315E+03 -0.21488371895E+03  0.24186459270E+03  0.10285192061E+04  0.89955852268E+03 0.  0.
        -24    2    4    4    0    0  0.15154033269E+03  0.32356693065E+03  0.24113802369E+03  0.43829255589E+03  0.79327088893E+02 0.  0.
         24    2    4    4    0    0  0.22789705047E+03 -0.53845064960E+03  0.72656900597E+00  0.59022665022E+03  0.80627557703E+02 0.  0.
         13    1    3    3    0    0 -0.86034608679E+02  0.55641170261E+02 -0.17443756251E+03  0.20230263699E+03  0.00000000000E+00 0.  1.
        -13    1    3    3    0    0 -0.29340277447E+03  0.15924254869E+03 -0.31112742176E+03  0.45633721079E+03  0.00000000000E+00 0. -1.
          2    1    6    6  502    0  0.58054339652E+02 -0.13176847230E+03  0.34967089826E+02  0.14817534888E+03  0.00000000000E+00 0. -1.
          1    1    5    5  503    0  0.78720987625E+02  0.82266252934E+02  0.70711495358E+02  0.13403300280E+03  0.00000000000E+00 0. -1.
         -4    1    5    5    0  503  0.72819345062E+02  0.24130067772E+03  0.17042652833E+03  0.30425955308E+03  0.00000000000E+00 0.  1.
         -1    1    6    6    0  502  0.16984271081E+03 -0.40668217731E+03 -0.34240520820E+02  0.44205130135E+03  0.00000000000E+00 0.  1.
<mgrwt>
<rscale>  0 0.16694657E+04</rscale>
<asrwt>0</asrwt>
<pdfrwt beam="1">  1        2 0.14852765E+00 0.16694657E+04</pdfrwt>
<pdfrwt beam="2">  1       -2 0.11103528E+00 0.16694657E+04</pdfrwt>
<totfact> 0.16250150E+01</totfact>
</mgrwt>
</event>
<event>
12    1  0.1541840E-007  0.1778166E+04  0.7818608E-02  0.8717998E-01
          2   -1    0    0  501    0  0.00000000000E+00  0.00000000000E+00  0.33573348376E+04  0.33573348376E+04  0.00000000000E+00 0. -1.
         -2   -1    0    0    0  501 -0.00000000000E+00 -0.00000000000E+00 -0.23544519545E+03  0.23544519545E+03  0.00000000000E+00 0.  1.
         23    2    1    2    0    0  0.61085362894E+03 -0.18566159699E+03  0.85416556422E+03  0.10703601853E+04  0.91976793780E+02 0.  0.
        254    2    1    2    0    0 -0.61085362894E+03  0.18566159699E+03  0.22677240779E+04  0.25224198478E+04  0.90134178319E+03 0.  0.
        -24    2    4    4    0    0 -0.76217058051E+03 -0.98158015242E+02  0.16488827527E+04  0.18208220087E+04  0.77713997568E+02 0.  0.
         24    2    4    4    0    0  0.15131695158E+03  0.28381961223E+03  0.61884132520E+03  0.70159783903E+03  0.76318738464E+02 0.  0.
         11    1    3    3    0    0  0.53545171980E+03 -0.15728805781E+03  0.68956223282E+03  0.88709872635E+03  0.00000000000E+00 0. -1.
        -11    1    3    3    0    0  0.75401909137E+02 -0.28373539177E+02  0.16460333140E+03  0.18326145895E+03  0.00000000000E+00 0.  1.
          2    1    6    6  502    0  0.12244328974E+03  0.16782760343E+03  0.34359306601E+03  0.40151545261E+03  0.00000000000E+00 0. -1.
          3    1    5    5  503    0 -0.67784737054E+03 -0.10310073933E+03  0.15080708691E+04  0.16566184130E+04  0.00000000000E+00 0. -1.
         -4    1    5    5    0  503 -0.84323209973E+02  0.49427240864E+01  0.14081188365E+03  0.16420359569E+03  0.00000000000E+00 0.  1.
         -1    1    6    6    0  502  0.28873661832E+02  0.11599200880E+03  0.27524825919E+03  0.30008238643E+03  0.00000000000E+00 0.  1.
<mgrwt>
<rscale>  0 0.17781657E+04</rscale>
<asrwt>0</asrwt>
<pdfrwt beam="1">  1        2 0.51651302E+00 0.17781657E+04</pdfrwt>
<pdfrwt beam="2">  1       -2 0.36222340E-01 0.17781657E+04</pdfrwt>
<totfact> 0.69626046E+00</totfact>
</mgrwt>
</event>
<event>
12    1  0.1631187E-007  0.1943581E+04  0.7818608E-02  0.8633463E-01
          2   -1    0    0  501    0  0.00000000000E+00  0.00000000000E+00  0.12125213826E+04  0.12125213826E+04  0.00000000000E+00 0. -1.
         -2   -1    0    0    0  501 -0.00000000000E+00 -0.00000000000E+00 -0.77885334168E+03  0.77885334168E+03  0.00000000000E+00 0.  1.
         23    2    1    2    0    0 -0.63749426024E+03  0.24312532427E+02  0.56732302111E+03  0.86028086234E+03  0.10600811645E+03 0.  0.
        254    2    1    2    0    0  0.63749426024E+03 -0.24312532427E+02 -0.13365498016E+03  0.11310938620E+04  0.92440231492E+03 0.  0.
        -24    2    4    4    0    0  0.77018161212E+03  0.14629020452E+03  0.11041123149E+03  0.79530148824E+03  0.75718409679E+02 0.  0.
         24    2    4    4    0    0 -0.13268735188E+03 -0.17060273695E+03 -0.24406621165E+03  0.33579237375E+03  0.80479658273E+02 0.  0.
         13    1    3    3    0    0 -0.60135004893E+03  0.29496381361E+02  0.56156661450E+03  0.82331584485E+03  0.00000000000E+00 0. -1.
        -13    1    3    3    0    0 -0.36144211308E+02 -0.51838489332E+01  0.57564066132E+01  0.36965017488E+02  0.00000000000E+00 0.  1.
          2    1    6    6  502    0 -0.10180755119E+03 -0.16371395145E+03 -0.17735029741E+03  0.26195450630E+03  0.00000000000E+00 0. -1.
          1    1    5    5  503    0  0.58933789747E+03  0.14394878552E+03  0.80346198059E+02  0.61196071916E+03  0.00000000000E+00 0. -1.
         -2    1    5    5    0  503  0.18084371465E+03  0.23414189969E+01  0.30065033433E+02  0.18334076908E+03  0.00000000000E+00 0.  1.
         -1    1    6    6    0  502 -0.30879800689E+02 -0.68887854918E+01 -0.66715914241E+02  0.73837867447E+02  0.00000000000E+00 0.  1.
<mgrwt>
<rscale>  0 0.19435805E+04</rscale>
<asrwt>0</asrwt>
<pdfrwt beam="1">  1        2 0.18654175E+00 0.19435805E+04</pdfrwt>
<pdfrwt beam="2">  1       -2 0.11982359E+00 0.19435805E+04</pdfrwt>
<totfact> 0.92617492E+00</totfact>
</mgrwt>
</event>
<event>
12    1  0.1541840E-007  0.2037740E+04  0.7818608E-02  0.8589177E-01
         -1   -1    0    0    0  501 -0.00000000000E+00  0.00000000000E+00  0.71460724270E+03  0.71460724270E+03  0.00000000000E+00 0.  1.
          1   -1    0    0  501    0  0.00000000000E+00 -0.00000000000E+00 -0.14526803713E+04  0.14526803713E+04  0.00000000000E+00 0. -1.
         23    2    1    2    0    0  0.60604385486E+03  0.39111658579E+03 -0.70567158169E+03  0.10132167875E+04  0.91512510423E+02 0.  0.
        254    2    1    2    0    0 -0.60604385486E+03 -0.39111658579E+03 -0.32401546952E+02  0.11540708265E+04  0.90031565284E+03 0.  0.
        -24    2    4    4    0    0 -0.28401543811E+03  0.20198268530E+03 -0.25473103464E+03  0.43899661140E+03  0.79801945849E+02 0.  0.
         24    2    4    4    0    0 -0.32202841675E+03 -0.59309927110E+03  0.22232948769E+03  0.71507421515E+03  0.80197789909E+02 0.  0.
         13    1    3    3    0    0  0.40443377712E+03  0.26676483976E+03 -0.53162595282E+03  0.71927485256E+03  0.00000000000E+00 0.  1.
        -13    1    3    3    0    0  0.20161007774E+03  0.12435174603E+03 -0.17404562887E+03  0.29394193494E+03  0.00000000000E+00 0. -1.
          2    1    6    6  502    0 -0.29834379744E+03 -0.57080175343E+03  0.22547179391E+03  0.68239372289E+03  0.00000000000E+00 0. -1.
          3    1    5    5  503    0 -0.14815590291E+03  0.62204226112E+02 -0.92599531566E+02  0.18545676197E+03  0.00000000000E+00 0. -1.
         -4    1    5    5    0  503 -0.13585953520E+03  0.13977845919E+03 -0.16213150308E+03  0.25353984943E+03  0.00000000000E+00 0.  1.
         -1    1    6    6    0  502 -0.23684619314E+02 -0.22297517663E+02 -0.31423062192E+01  0.32680492260E+02  0.00000000000E+00 0.  1.
<mgrwt>
<rscale>  0 0.20377398E+04</rscale>
<asrwt>0</asrwt>
<pdfrwt beam="1">  1        1 0.22348929E+00 0.20377398E+04</pdfrwt>
<pdfrwt beam="2">  1       -1 0.10993958E+00 0.20377398E+04</pdfrwt>
<totfact> 0.49863297E+00</totfact>
</mgrwt>
</event>
<event>
12    1  0.1541840E-007  0.1467640E+04  0.7818608E-02  0.8906262E-01
         -1   -1    0    0    0  501 -0.00000000000E+00  0.00000000000E+00  0.40197308817E+03  0.40197308817E+03  0.00000000000E+00 0.  1.
          1   -1    0    0  501    0  0.00000000000E+00 -0.00000000000E+00 -0.13396206866E+04  0.13396206866E+04  0.00000000000E+00 0. -1.
         23    2    1    2    0    0 -0.24749297170E+03  0.38818848385E+03 -0.29697226412E+03  0.56036332985E+03  0.11777718690E+03 0.  0.
        254    2    1    2    0    0  0.24749297170E+03 -0.38818848385E+03 -0.64067533433E+03  0.11812304449E+04  0.87914584113E+03 0.  0.
        -24    2    4    4    0    0 -0.17159151076E+03 -0.51087937858E+03 -0.30325094582E+03  0.62344557155E+03  0.79258176416E+02 0.  0.
         24    2    4    4    0    0  0.41908448246E+03  0.12269089473E+03 -0.33742438851E+03  0.55778487338E+03  0.81141160454E+02 0.  0.
         11    1    3    3    0    0 -0.10696526653E+03  0.73986180865E+02 -0.65954234493E+02  0.14582689824E+03  0.00000000000E+00 0.  1.
        -11    1    3    3    0    0 -0.14052770517E+03  0.31420230298E+03 -0.23101802963E+03  0.41453643161E+03  0.00000000000E+00 0. -1.
          2    1    6    6  502    0 -0.18287841388E+01 -0.13959561524E+01  0.19701066261E+01  0.30289379531E+01  0.00000000000E+00 0. -1.
          1    1    5    5  503    0 -0.80120545931E+02 -0.35409725723E+03 -0.20926393795E+03  0.41904124521E+03  0.00000000000E+00 0. -1.
         -2    1    5    5    0  503 -0.91470964829E+02 -0.15678212134E+03 -0.93987007870E+02  0.20440432634E+03  0.00000000000E+00 0.  1.
         -1    1    6    6    0  502  0.42091326660E+03  0.12408685088E+03 -0.33939449513E+03  0.55475593542E+03  0.00000000000E+00 0.  1.
<mgrwt>
<rscale>  0 0.14676396E+04</rscale>
<asrwt>0</asrwt>
<pdfrwt beam="1">  1        1 0.20609549E+00 0.14676396E+04</pdfrwt>
<pdfrwt beam="2">  1       -1 0.61842013E-01 0.14676396E+04</pdfrwt>
<totfact> 0.21800727E+01</totfact>
</mgrwt>
</event>
<event>
12    1  0.1541840E-007  0.1399474E+04  0.7818608E-02  0.8954199E-01
          1   -1    0    0  501    0  0.00000000000E+00  0.00000000000E+00  0.10446300196E+04  0.10446300196E+04  0.00000000000E+00 0. -1.
         -1   -1    0    0    0  501 -0.00000000000E+00 -0.00000000000E+00 -0.46871314514E+03  0.46871314514E+03  0.00000000000E+00 0.  1.
         23    2    1    2    0    0 -0.55532943691E+02  0.41772682795E+02 -0.25682091435E+03  0.28193012482E+03  0.93267080850E+02 0.  0.
        254    2    1    2    0    0  0.55532943691E+02 -0.41772682795E+02  0.83273778878E+03  0.12314130399E+04  0.90448713927E+03 0.  0.
        -24    2    4    4    0    0  0.17144088811E+03 -0.96008633157E+02  0.99080696026E+03  0.10131849501E+04  0.78966289328E+02 0.  0.
         24    2    4    4    0    0 -0.11590794442E+03  0.54235950363E+02 -0.15806917149E+03  0.21822808979E+03  0.79129301207E+02 0.  0.
         13    1    3    3    0    0 -0.30433722609E+02 -0.14545024263E+02 -0.24826998125E+02  0.41882562464E+02  0.00000000000E+00 0. -1.
        -13    1    3    3    0    0 -0.25099221081E+02  0.56317707058E+02 -0.23199391622E+03  0.24004756235E+03  0.00000000000E+00 0.  1.
          4    1    6    6  502    0 -0.11752003706E+03  0.66419905042E+02 -0.12921917645E+03  0.18686936201E+03  0.00000000000E+00 0. -1.
          3    1    5    5  503    0  0.15749345891E+03 -0.92293300991E+02  0.74810277883E+03  0.77005195324E+03  0.00000000000E+00 0. -1.
         -4    1    5    5    0  503  0.13947429203E+02 -0.37153321668E+01  0.24270418144E+03  0.24313299686E+03  0.00000000000E+00 0.  1.
         -3    1    6    6    0  502  0.16120926434E+01 -0.12183954679E+02 -0.28849995042E+02  0.31358727784E+02  0.00000000000E+00 0.  1.
<mgrwt>
<rscale>  0 0.13994739E+04</rscale>
<asrwt>0</asrwt>
<pdfrwt beam="1">  1        1 0.16071231E+00 0.13994739E+04</pdfrwt>
<pdfrwt beam="2">  1       -1 0.72109715E-01 0.13994739E+04</pdfrwt>
<totfact> 0.26440525E+01</totfact>
</mgrwt>
</event>
<event>
12    1  0.1541840E-007  0.1363243E+04  0.7818608E-02  0.8980863E-01
          2   -1    0    0  501    0  0.00000000000E+00  0.00000000000E+00  0.15680126526E+04  0.15680126526E+04  0.00000000000E+00 0.  1.
         -2   -1    0    0    0  501 -0.00000000000E+00 -0.00000000000E+00 -0.29630366561E+03  0.29630366561E+03  0.00000000000E+00 0. -1.
         23    2    1    2    0    0  0.78573906772E+02  0.29701656806E+03  0.60371370194E+02  0.32611890037E+03  0.91192841352E+02 0.  0.
        254    2    1    2    0    0 -0.78573906772E+02 -0.29701656806E+03  0.12113376168E+04  0.15381974179E+04  0.89683876691E+03 0.  0.
        -24    2    4    4    0    0 -0.38127759373E+03 -0.45293062719E+03  0.80049887184E+03  0.99881269110E+03  0.79432937518E+02 0.  0.
         24    2    4    4    0    0  0.30270368696E+03  0.15591405912E+03  0.41083874498E+03  0.53938472675E+03  0.78795260919E+02 0.  0.
         11    1    3    3    0    0  0.55690252878E+02  0.27176156335E+03  0.77423219689E+02  0.28801060141E+03  0.00000000000E+00 0. -1.
        -11    1    3    3    0    0  0.22883653894E+02  0.25255004714E+02 -0.17051849494E+02  0.38108298962E+02  0.00000000000E+00 0.  1.
          4    1    6    6  502    0  0.22240377183E+03  0.73070620994E+02  0.27233407320E+03  0.35912198596E+03  0.00000000000E+00 0. -1.
          3    1    5    5  503    0 -0.15018928752E+03 -0.12082766956E+03  0.25887737014E+03  0.32275941595E+03  0.00000000000E+00 0. -1.
         -4    1    5    5    0  503 -0.23108830621E+03 -0.33210295763E+03  0.54162150170E+03  0.67605327515E+03  0.00000000000E+00 0.  1.
         -3    1    6    6    0  502  0.80299915130E+02  0.82843438131E+02  0.13850467179E+03  0.18026274079E+03  0.00000000000E+00 0.  1.
<mgrwt>
<rscale>  0 0.13632430E+04</rscale>
<asrwt>0</asrwt>
<pdfrwt beam="1">  1        2 0.24123271E+00 0.13632430E+04</pdfrwt>
<pdfrwt beam="2">  1       -2 0.45585180E-01 0.13632430E+04</pdfrwt>
<totfact> 0.51742734E+01</totfact>
</mgrwt>
</event>
<event>
12    1  0.1541840E-007  0.1453427E+04  0.7818608E-02  0.8916028E-01
          2   -1    0    0  501    0  0.00000000000E+00  0.00000000000E+00  0.22617562496E+04  0.22617562496E+04  0.00000000000E+00 0. -1.
         -2   -1    0    0    0  501 -0.00000000000E+00 -0.00000000000E+00 -0.23349672784E+03  0.23349672784E+03  0.00000000000E+00 0.  1.
         23    2    1    2    0    0  0.27593137484E+03 -0.28785780351E+03  0.30592235601E+03  0.51093823302E+03  0.92027992471E+02 0.  0.
        254    2    1    2    0    0 -0.27593137484E+03  0.28785780351E+03  0.17223371657E+04  0.19843147444E+04  0.90114341463E+03 0.  0.
        -24    2    4    4    0    0 -0.30669544975E+02  0.56204323111E+03  0.12950495172E+04  0.14146305252E+04  0.84811887558E+02 0.  0.
         24    2    4    4    0    0 -0.24526182986E+03 -0.27418542761E+03  0.42728764855E+03  0.56968421919E+03  0.81451587414E+02 0.  0.
         13    1    3    3    0    0  0.11557489526E+03 -0.66528765017E+02  0.12778800378E+03  0.18469815078E+03  0.00000000000E+00 0. -1.
        -13    1    3    3    0    0  0.16035647958E+03 -0.22132903849E+03  0.17813435223E+03  0.32624008225E+03  0.00000000000E+00 0.  1.
          4    1    6    6  502    0 -0.28895166248E+02 -0.57587613242E+02  0.11831433430E+03  0.13472024915E+03  0.00000000000E+00 0. -1.
          1    1    5    5  503    0 -0.58245767866E+02  0.33521955180E+03  0.74555385786E+03  0.81952136785E+03  0.00000000000E+00 0. -1.
         -2    1    5    5    0  503  0.27576222891E+02  0.22682367932E+03  0.54949565931E+03  0.59510915736E+03  0.00000000000E+00 0.  1.
         -3    1    6    6    0  502 -0.21636666361E+03 -0.21659781437E+03  0.30897331425E+03  0.43496397004E+03  0.00000000000E+00 0.  1.
<mgrwt>
<rscale>  0 0.14534272E+04</rscale>
<asrwt>0</asrwt>
<pdfrwt beam="1">  1        2 0.34796249E+00 0.14534272E+04</pdfrwt>
<pdfrwt beam="2">  1       -2 0.35922575E-01 0.14534272E+04</pdfrwt>
<totfact> 0.33725835E+01</totfact>
</mgrwt>
</event>
<event>
12    1  0.1541840E-007  0.2694644E+04  0.7818608E-02  0.8336745E-01
          1   -1    0    0  501    0  0.00000000000E+00  0.00000000000E+00  0.93304587284E+03  0.93304587284E+03  0.00000000000E+00 0. -1.
         -1   -1    0    0    0  501 -0.00000000000E+00 -0.00000000000E+00 -0.19455384728E+04  0.19455384728E+04  0.00000000000E+00 0.  1.
         23    2    1    2    0    0 -0.30050494483E+01 -0.11910091031E+04 -0.47189510568E+03  0.12843562597E+04  0.91511185971E+02 0.  0.
        254    2    1    2    0    0  0.30050494483E+01  0.11910091031E+04 -0.54059749432E+03  0.15942280860E+04  0.91148550470E+03 0.  0.
        -24    2    4    4    0    0  0.34641514825E+03  0.10238537490E+04 -0.52117308209E+03  0.12028318003E+04  0.83084318711E+02 0.  0.
         24    2    4    4    0    0 -0.34341009880E+03  0.16715535408E+03 -0.19424412234E+02  0.39139628568E+03  0.83320683501E+02 0.  0.
         11    1    3    3    0    0 -0.11945104377E+02 -0.10770630578E+04 -0.45299262323E+03  0.11685075236E+04  0.00000000000E+00 0.  1.
        -11    1    3    3    0    0  0.89400549287E+01 -0.11394604531E+03 -0.18902482451E+02  0.11584873615E+03  0.00000000000E+00 0. -1.
          2    1    6    6  502    0 -0.11464114714E+03  0.65337015192E+02  0.31974503176E+02  0.13577145143E+03  0.00000000000E+00 0. -1.
          1    1    5    5  503    0  0.20272997181E+03  0.71788930895E+03 -0.35231408960E+03  0.82497861736E+03  0.00000000000E+00 0. -1.
         -2    1    5    5    0  503  0.14368517644E+03  0.30596444006E+03 -0.16885899249E+03  0.37785318293E+03  0.00000000000E+00 0.  1.
         -1    1    6    6    0  502 -0.22876895166E+03  0.10181833889E+03 -0.51398915410E+02  0.25562483425E+03  0.00000000000E+00 0.  1.
<mgrwt>
<rscale>  0 0.26946441E+04</rscale>
<asrwt>0</asrwt>
<pdfrwt beam="1">  1        1 0.14354552E+00 0.26946441E+04</pdfrwt>
<pdfrwt beam="2">  1       -1 0.29931361E+00 0.26946441E+04</pdfrwt>
<totfact> 0.49848279E-01</totfact>
</mgrwt>
</event>
<event>
12    1  0.1541840E-007  0.2190400E+04  0.7818608E-02  0.8522435E-01
          2   -1    0    0  501    0  0.00000000000E+00  0.00000000000E+00  0.76161947399E+03  0.76161947399E+03  0.00000000000E+00 0. -1.
         -2   -1    0    0    0  501 -0.00000000000E+00 -0.00000000000E+00 -0.15748843159E+04  0.15748843159E+04  0.00000000000E+00 0.  1.
         23    2    1    2    0    0 -0.85805955907E+03 -0.23361285591E+03 -0.51321366011E+03  0.10304264886E+04  0.86886789712E+02 0.  0.
        254    2    1    2    0    0  0.85805955907E+03  0.23361285591E+03 -0.30005118177E+03  0.13060773012E+04  0.90827640712E+03 0.  0.
        -24    2    4    4    0    0  0.35928183618E+03 -0.30931062915E+03  0.54550290313E+02  0.48399898818E+03  0.80763749717E+02 0.  0.
         24    2    4    4    0    0  0.49877772288E+03  0.54292348507E+03 -0.35460147208E+03  0.82207831304E+03  0.80780079792E+02 0.  0.
         11    1    3    3    0    0 -0.81467206282E+03 -0.24040722318E+03 -0.48307302397E+03  0.97716208961E+03  0.00000000000E+00 0. -1.
        -11    1    3    3    0    0 -0.43387496247E+02  0.67943672646E+01 -0.30140636143E+02  0.53264399032E+02  0.00000000000E+00 0.  1.
          4    1    6    6  502    0  0.47685766249E+03  0.49480500005E+03 -0.34261426841E+03  0.76786050509E+03  0.00000000000E+00 0. -1.
          3    1    5    5  503    0  0.34865673334E+03 -0.29339516079E+03  0.35598175092E+02  0.45706615292E+03  0.00000000000E+00 0. -1.
         -4    1    5    5    0  503  0.10625102843E+02 -0.15915468362E+02  0.18952115221E+02  0.26932835257E+02  0.00000000000E+00 0.  1.
         -3    1    6    6    0  502  0.21920060391E+02  0.48118485015E+02 -0.11987203671E+02  0.54217807956E+02  0.00000000000E+00 0.  1.
<mgrwt>
<rscale>  0 0.21903996E+04</rscale>
<asrwt>0</asrwt>
<pdfrwt beam="1">  1        2 0.11717223E+00 0.21903996E+04</pdfrwt>
<pdfrwt beam="2">  1       -2 0.24228989E+00 0.21903996E+04</pdfrwt>
<totfact> 0.24100210E+00</totfact>
</mgrwt>
</event>
<event>
12    1  0.1541840E-007  0.2668743E+04  0.7818608E-02  0.8345219E-01
         -1   -1    0    0    0  501 -0.00000000000E+00  0.00000000000E+00  0.15204412704E+04  0.15204412704E+04  0.00000000000E+00 0.  1.
          1   -1    0    0  501    0  0.00000000000E+00 -0.00000000000E+00 -0.11710726467E+04  0.11710726467E+04  0.00000000000E+00 0. -1.
         23    2    1    2    0    0 -0.59515427637E+03  0.99317888219E+03 -0.69574108886E+02  0.11635601926E+04  0.91754348489E+02 0.  0.
        254    2    1    2    0    0  0.59515427637E+03 -0.99317888219E+03  0.41894273258E+03  0.15279537245E+04  0.90471910909E+03 0.  0.
        -24    2    4    4    0    0  0.31615172056E+03 -0.11054060125E+04  0.27454295418E+03  0.11849640655E+04  0.83015901437E+02 0.  0.
         24    2    4    4    0    0  0.27900255581E+03  0.11222713031E+03  0.14439977839E+03  0.34298965904E+03  0.79707310096E+02 0.  0.
         11    1    3    3    0    0 -0.34513923367E+03  0.50331860562E+03 -0.99955201660E+01  0.61036924874E+03  0.00000000000E+00 0. -1.
        -11    1    3    3    0    0 -0.25001504270E+03  0.48986027656E+03 -0.59578588720E+02  0.55319094386E+03  0.00000000000E+00 0.  1.
          4    1    6    6  502    0  0.12866953934E+03  0.44684170028E+02  0.22629063301E+02  0.13807461718E+03  0.00000000000E+00 0. -1.
          3    1    5    5  503    0  0.24961907713E+03 -0.90015741127E+03  0.25506478003E+03  0.96832385633E+03  0.00000000000E+00 0. -1.
         -4    1    5    5    0  503  0.66532643435E+02 -0.20524860122E+03  0.19478174151E+02  0.21664020914E+03  0.00000000000E+00 0.  1.
         -3    1    6    6    0  502  0.15033301647E+03  0.67542960277E+02  0.12177071509E+03  0.20491504186E+03  0.00000000000E+00 0.  1.
<mgrwt>
<rscale>  0 0.26687429E+04</rscale>
<asrwt>0</asrwt>
<pdfrwt beam="1">  1        1 0.18016502E+00 0.26687429E+04</pdfrwt>
<pdfrwt beam="2">  1       -1 0.23391404E+00 0.26687429E+04</pdfrwt>
<totfact> 0.87362469E-01</totfact>
</mgrwt>
</event>
<event>
12    1  0.1541840E-007  0.1541945E+04  0.7818608E-02  0.8857029E-01
          2   -1    0    0  501    0  0.00000000000E+00  0.00000000000E+00  0.73622996101E+03  0.73622996101E+03  0.00000000000E+00 0. -1.
         -2   -1    0    0    0  501 -0.00000000000E+00 -0.00000000000E+00 -0.80735473072E+03  0.80735473072E+03  0.00000000000E+00 0.  1.
         23    2    1    2    0    0  0.37293156240E+02  0.13959985567E+03  0.46307418106E+03  0.49372016526E+03  0.91885827029E+02 0.  0.
        254    2    1    2    0    0 -0.37293156240E+02 -0.13959985567E+03 -0.53419895078E+03  0.10498645265E+04  0.89217044657E+03 0.  0.
        -24    2    4    4    0    0  0.49888403363E+02 -0.76272813531E+02 -0.77012812548E+03  0.77960286809E+03  0.79855540910E+02 0.  0.
         24    2    4    4    0    0 -0.87181559604E+02 -0.63327042138E+02  0.23592917470E+03  0.27026165838E+03  0.75946362087E+02 0.  0.
         11    1    3    3    0    0 -0.18459402355E+02  0.10065718169E+03  0.30239569220E+03  0.31924249784E+03  0.00000000000E+00 0. -1.
        -11    1    3    3    0    0  0.55752558595E+02  0.38942673978E+02  0.16067848886E+03  0.17447766742E+03  0.00000000000E+00 0.  1.
          2    1    6    6  502    0 -0.88836232716E+02 -0.68638628438E+02  0.23889418837E+03  0.26395751703E+03  0.00000000000E+00 0. -1.
          1    1    5    5  503    0  0.63530784517E+02 -0.83751966289E+02 -0.69222160852E+03  0.70015805911E+03  0.00000000000E+00 0. -1.
         -2    1    5    5    0  503 -0.13642381153E+02  0.74791527584E+01 -0.77906516959E+02  0.79444808982E+02  0.00000000000E+00 0.  1.
         -1    1    6    6    0  502  0.16546731117E+01  0.53115862991E+01 -0.29650136721E+01  0.63041413527E+01  0.00000000000E+00 0.  1.
<mgrwt>
<rscale>  0 0.15419452E+04</rscale>
<asrwt>0</asrwt>
<pdfrwt beam="1">  1        2 0.11326615E+00 0.15419452E+04</pdfrwt>
<pdfrwt beam="2">  1       -2 0.12420842E+00 0.15419452E+04</pdfrwt>
<totfact> 0.18020960E+01</totfact>
</mgrwt>
</event>
<event>
12    1  0.1541840E-007  0.2490991E+04  0.7818608E-02  0.8406202E-01
         -2   -1    0    0    0  501 -0.00000000000E+00  0.00000000000E+00  0.84134281463E+03  0.84134281463E+03  0.00000000000E+00 0.  1.
          2   -1    0    0  501    0  0.00000000000E+00 -0.00000000000E+00 -0.18437899061E+04  0.18437899061E+04  0.00000000000E+00 0. -1.
         23    2    1    2    0    0  0.79446346257E+03 -0.42433571461E+03  0.16895717554E+03  0.92091650122E+03  0.91146492020E+02 0.  0.
        254    2    1    2    0    0 -0.79446346257E+03  0.42433571461E+03 -0.11714042670E+04  0.17642162196E+04  0.96386613202E+03 0.  0.
        -24    2    4    4    0    0 -0.51882499577E+03  0.38428615432E+03 -0.12949172779E+04  0.14493301463E+04  0.83017417692E+02 0.  0.
         24    2    4    4    0    0 -0.27563846679E+03  0.40049560284E+02  0.12351301087E+03  0.31488607328E+03  0.79481089807E+02 0.  0.
         13    1    3    3    0    0  0.64414482444E+03 -0.38143560373E+03  0.12997415896E+03  0.75980849999E+03  0.00000000000E+00 0.  1.
        -13    1    3    3    0    0  0.15031863812E+03 -0.42900110875E+02  0.38983016577E+02  0.16110800123E+03  0.00000000000E+00 0. -1.
          4    1    6    6  502    0 -0.23296675350E+03  0.11998453827E+02  0.12321971558E+03  0.26381919839E+03  0.00000000000E+00 0. -1.
          1    1    5    5  503    0 -0.25500373023E+03  0.23971314267E+03 -0.71114056165E+03  0.79259711810E+03  0.00000000000E+00 0. -1.
         -2    1    5    5    0  503 -0.26382126555E+03  0.14457301165E+03 -0.58377671627E+03  0.65673302818E+03  0.00000000000E+00 0.  1.
         -3    1    6    6    0  502 -0.42671713293E+02  0.28051106456E+02  0.29329528190E+00  0.51066874889E+02  0.00000000000E+00 0.  1.
<mgrwt>
<rscale>  0 0.24909913E+04</rscale>
<asrwt>0</asrwt>
<pdfrwt beam="1">  1        2 0.28365999E+00 0.24909913E+04</pdfrwt>
<pdfrwt beam="2">  1       -2 0.12943736E+00 0.24909913E+04</pdfrwt>
<totfact> 0.31979476E+00</totfact>
</mgrwt>
</event>
<event>
12    1  0.1541840E-007  0.1463531E+04  0.7818608E-02  0.8909073E-01
          2   -1    0    0  501    0  0.00000000000E+00  0.00000000000E+00  0.13201426444E+04  0.13201426444E+04  0.00000000000E+00 0. -1.
         -2   -1    0    0    0  501 -0.00000000000E+00 -0.00000000000E+00 -0.40562324097E+03  0.40562324097E+03  0.00000000000E+00 0.  1.
         23    2    1    2    0    0 -0.14675888460E+02 -0.13890627129E+03  0.78635481334E+03  0.80319776933E+03  0.85219893750E+02 0.  0.
        254    2    1    2    0    0  0.14675888460E+02  0.13890627129E+03  0.12816459007E+03  0.92256811602E+03  0.90288173791E+03 0.  0.
        -24    2    4    4    0    0 -0.62900294844E+02  0.34877435080E+03  0.41412765117E+03  0.55078980874E+03  0.79168851706E+02 0.  0.
         24    2    4    4    0    0  0.77576183304E+02 -0.20986807951E+03 -0.28596306110E+03  0.37177830729E+03  0.79884682140E+02 0.  0.
         13    1    3    3    0    0 -0.32178231221E+02 -0.13600174843E+03  0.74792341625E+03  0.76086881308E+03  0.00000000000E+00 0. -1.
        -13    1    3    3    0    0  0.17502342761E+02 -0.29045228545E+01  0.38431397093E+02  0.42328956255E+02  0.00000000000E+00 0.  1.
          2    1    6    6  502    0 -0.85515819125E+01 -0.10254789860E+01 -0.18667444019E+01  0.88128255979E+01  0.00000000000E+00 0. -1.
          1    1    5    5  503    0 -0.40725201722E+02  0.61048795306E+02  0.10255607303E+03  0.12610807103E+03  0.00000000000E+00 0. -1.
         -2    1    5    5    0  503 -0.22175093122E+02  0.28772555549E+03  0.31157157814E+03  0.42468173771E+03  0.00000000000E+00 0.  1.
         -1    1    6    6    0  502  0.86127765216E+02 -0.20884260052E+03 -0.28409631670E+03  0.36296548169E+03  0.00000000000E+00 0.  1.
<mgrwt>
<rscale>  0 0.14635307E+04</rscale>
<asrwt>0</asrwt>
<pdfrwt beam="1">  1        2 0.20309887E+00 0.14635307E+04</pdfrwt>
<pdfrwt beam="2">  1       -2 0.62403576E-01 0.14635307E+04</pdfrwt>
<totfact> 0.37138254E+01</totfact>
</mgrwt>
</event>
<event>
12    1  0.1541840E-007  0.2022463E+04  0.7818608E-02  0.8596190E-01
         -2   -1    0    0    0  501 -0.00000000000E+00  0.00000000000E+00  0.14864377226E+04  0.14864377226E+04  0.00000000000E+00 0.  1.
          2   -1    0    0  501    0  0.00000000000E+00 -0.00000000000E+00 -0.68794606425E+03  0.68794606425E+03  0.00000000000E+00 0. -1.
         23    2    1    2    0    0  0.13569704831E+03  0.52379040245E+03 -0.32517778240E+03  0.63752327401E+03  0.89023930013E+02 0.  0.
        254    2    1    2    0    0 -0.13569704831E+03 -0.52379040245E+03  0.11236694408E+04  0.15368605129E+04  0.89807413350E+03 0.  0.
        -24    2    4    4    0    0 -0.52987908719E+02 -0.76258283280E+01  0.98585552774E+03  0.99050057468E+03  0.79463168451E+02 0.  0.
         24    2    4    4    0    0 -0.82709139594E+02 -0.51616457413E+03  0.13781391304E+03  0.54635993819E+03  0.79055917430E+02 0.  0.
         11    1    3    3    0    0  0.19016906089E+01  0.11779673888E+03 -0.99101308048E+02  0.15395050301E+03  0.00000000000E+00 0. -1.
        -11    1    3    3    0    0  0.13379535770E+03  0.40599366357E+03 -0.22607647435E+03  0.48357277100E+03  0.00000000000E+00 0.  1.
          4    1    6    6  502    0 -0.65304626456E+01 -0.58963041830E+02 -0.93454667656E+01  0.60055182901E+02  0.00000000000E+00 0. -1.
          3    1    5    5  503    0 -0.47290339977E+02 -0.37696524496E+02  0.78506132705E+03  0.78738725634E+03  0.00000000000E+00 0. -1.
         -2    1    5    5    0  503 -0.56975687423E+01  0.30070696168E+02  0.20079420069E+03  0.20311331835E+03  0.00000000000E+00 0.  1.
         -3    1    6    6    0  502 -0.76178676948E+02 -0.45720153230E+03  0.14715937981E+03  0.48630475529E+03  0.00000000000E+00 0.  1.
<mgrwt>
<rscale>  0 0.20224628E+04</rscale>
<asrwt>0</asrwt>
<pdfrwt beam="1">  1        2 0.10583786E+00 0.20224628E+04</pdfrwt>
<pdfrwt beam="2">  1       -2 0.22868273E+00 0.20224628E+04</pdfrwt>
<totfact> 0.33830865E+00</totfact>
</mgrwt>
</event>
<event>
12    1  0.1541840E-007  0.2281849E+04  0.7818608E-02  0.8485112E-01
          2   -1    0    0  501    0  0.00000000000E+00  0.00000000000E+00  0.14596461492E+04  0.14596461492E+04  0.00000000000E+00 0. -1.
         -2   -1    0    0    0  501 -0.00000000000E+00 -0.00000000000E+00 -0.89179719018E+03  0.89179719018E+03  0.00000000000E+00 0.  1.
         23    2    1    2    0    0  0.84628797208E+02 -0.93206255321E+03  0.46548026759E+03  0.10492107797E+04  0.90932635919E+02 0.  0.
        254    2    1    2    0    0 -0.84628797208E+02  0.93206255321E+03  0.10236869143E+03  0.13022325597E+04  0.89968197388E+03 0.  0.
        -24    2    4    4    0    0  0.21188942971E+03  0.29268555224E+03  0.38920335978E+03  0.53706630799E+03  0.79993756020E+02 0.  0.
         24    2    4    4    0    0 -0.29651822691E+03  0.63937700097E+03 -0.28683466836E+03  0.76516625171E+03  0.80493835231E+02 0.  0.
         11    1    3    3    0    0  0.17023929445E+02 -0.20987197429E+03  0.63523999100E+02  0.21993489543E+03  0.00000000000E+00 0. -1.
        -11    1    3    3    0    0  0.67604867764E+02 -0.72219057892E+03  0.40195626849E+03  0.82927588425E+03  0.00000000000E+00 0.  1.
          4    1    6    6  502    0 -0.22948671444E+02  0.12014919864E+03 -0.55658581504E+02  0.13438879846E+03  0.00000000000E+00 0. -1.
          3    1    5    5  503    0  0.61029786645E+01  0.27310043627E+02  0.62831163541E+02  0.68781101644E+02  0.00000000000E+00 0. -1.
         -4    1    5    5    0  503  0.20578645104E+03  0.26537550861E+03  0.32637219624E+03  0.46828520635E+03  0.00000000000E+00 0.  1.
         -3    1    6    6    0  502 -0.27356955547E+03  0.51922780233E+03 -0.23117608685E+03  0.63077745325E+03  0.00000000000E+00 0.  1.
<mgrwt>
<rscale>  0 0.22818487E+04</rscale>
<asrwt>0</asrwt>
<pdfrwt beam="1">  1        2 0.22456095E+00 0.22818487E+04</pdfrwt>
<pdfrwt beam="2">  1       -2 0.13719957E+00 0.22818487E+04</pdfrwt>
<totfact> 0.45988412E+00</totfact>
</mgrwt>
</event>
<event>
12    1  0.1541840E-007  0.1605204E+04  0.7818608E-02  0.8817358E-01
         -1   -1    0    0    0  501 -0.00000000000E+00  0.00000000000E+00  0.50376865649E+03  0.50376865649E+03  0.00000000000E+00 0.  1.
          1   -1    0    0  501    0  0.00000000000E+00 -0.00000000000E+00 -0.12787015952E+04  0.12787015952E+04  0.00000000000E+00 0. -1.
         23    2    1    2    0    0 -0.43284102500E+03 -0.17450074204E+03  0.26794776755E+02  0.47591574066E+03  0.89308287721E+02 0.  0.
        254    2    1    2    0    0  0.43284102500E+03  0.17450074204E+03 -0.80172771548E+03  0.13065545110E+04  0.92006276888E+03 0.  0.
        -24    2    4    4    0    0 -0.27472755601E+02  0.17022907229E+03  0.15267710546E+03  0.24365414035E+03  0.79525795962E+02 0.  0.
         24    2    4    4    0    0  0.46031378060E+03  0.42716697533E+01 -0.95440482094E+03  0.10629003707E+04  0.83436275214E+02 0.  0.
         13    1    3    3    0    0 -0.43652448132E+03 -0.16866002694E+03  0.28369379563E+02  0.46883328506E+03  0.00000000000E+00 0.  1.
        -13    1    3    3    0    0  0.36834563244E+01 -0.58407151041E+01 -0.15746028080E+01  0.70824556069E+01  0.00000000000E+00 0. -1.
          2    1    6    6  502    0  0.19396081689E+03 -0.71947719048E+01 -0.31299584734E+03  0.36829195441E+03  0.00000000000E+00 0. -1.
          3    1    5    5  503    0  0.21353463099E+01 -0.69833389278E+01 -0.81487858615E+00  0.73478400605E+01  0.00000000000E+00 0. -1.
         -4    1    5    5    0  503 -0.29608101911E+02  0.17721241122E+03  0.15349198405E+03  0.23630630029E+03  0.00000000000E+00 0.  1.
         -1    1    6    6    0  502  0.26635296371E+03  0.11466441658E+02 -0.64140897360E+03  0.69460841629E+03  0.00000000000E+00 0.  1.
<mgrwt>
<rscale>  0 0.16052038E+04</rscale>
<asrwt>0</asrwt>
<pdfrwt beam="1">  1        1 0.19672332E+00 0.16052038E+04</pdfrwt>
<pdfrwt beam="2">  1       -1 0.77502871E-01 0.16052038E+04</pdfrwt>
<totfact> 0.14995089E+01</totfact>
</mgrwt>
</event>
<event>
12    1  0.1541840E-007  0.2354124E+04  0.7818608E-02  0.8456881E-01
          2   -1    0    0  501    0  0.00000000000E+00  0.00000000000E+00  0.79644816869E+03  0.79644816869E+03  0.00000000000E+00 0. -1.
         -2   -1    0    0    0  501 -0.00000000000E+00 -0.00000000000E+00 -0.17395672586E+04  0.17395672586E+04  0.00000000000E+00 0.  1.
         23    2    1    2    0    0 -0.36165992284E+03 -0.54599979811E+03 -0.12035943493E+04  0.13731620000E+04  0.89559149277E+02 0.  0.
        254    2    1    2    0    0  0.36165992284E+03  0.54599979811E+03  0.26047525944E+03  0.11628534272E+04  0.92491461939E+03 0.  0.
        -24    2    4    4    0    0 -0.21003724102E+03 -0.33299505305E+02  0.25967428113E+03  0.34508735535E+03  0.80187597995E+02 0.  0.
         24    2    4    4    0    0  0.57169716387E+03  0.57929930341E+03  0.80097830858E+00  0.81776607190E+03  0.79469344234E+02 0.  0.
         13    1    3    3    0    0 -0.44224730416E+02 -0.95242750563E+02 -0.25855646715E+03  0.27906711562E+03  0.00000000000E+00 0. -1.
        -13    1    3    3    0    0 -0.31743519243E+03 -0.45075704754E+03 -0.94503788216E+03  0.10940948844E+04  0.00000000000E+00 0.  1.
          4    1    6    6  502    0  0.41226269775E+03  0.45006439083E+03  0.26567625642E+02  0.61092088406E+03  0.00000000000E+00 0. -1.
          1    1    5    5  503    0 -0.21183545350E+03 -0.22250661245E+02  0.25658544693E+03  0.33347480094E+03  0.00000000000E+00 0. -1.
         -2    1    5    5    0  503  0.17982124808E+01 -0.11048844059E+02  0.30888342003E+01  0.11612554408E+02  0.00000000000E+00 0.  1.
         -3    1    6    6    0  502  0.15943446612E+03  0.12923491258E+03 -0.25766647334E+02  0.20684518783E+03  0.00000000000E+00 0.  1.
<mgrwt>
<rscale>  0 0.23541242E+04</rscale>
<asrwt>0</asrwt>
<pdfrwt beam="1">  1        2 0.12253049E+00 0.23541242E+04</pdfrwt>
<pdfrwt beam="2">  1       -2 0.26762573E+00 0.23541242E+04</pdfrwt>
<totfact> 0.15673118E+00</totfact>
</mgrwt>
</event>
<event>
12    1  0.1541840E-007  0.2151121E+04  0.7818608E-02  0.8539053E-01
         -2   -1    0    0    0  501 -0.00000000000E+00  0.00000000000E+00  0.90376827774E+03  0.90376827774E+03  0.00000000000E+00 0.  1.
          2   -1    0    0  501    0  0.00000000000E+00 -0.00000000000E+00 -0.12800077395E+04  0.12800077395E+04  0.00000000000E+00 0. -1.
         23    2    1    2    0    0 -0.67047031193E+03  0.40884427460E+03  0.25740049132E+03  0.83120286088E+03  0.89213804737E+02 0.  0.
        254    2    1    2    0    0  0.67047031193E+03 -0.40884427460E+03 -0.63363995306E+03  0.13525731563E+04  0.90070554183E+03 0.  0.
        -24    2    4    4    0    0  0.47659172394E+03 -0.35925850675E+03  0.79905683185E+02  0.60733448474E+03  0.79144880784E+02 0.  0.
         24    2    4    4    0    0  0.19387858799E+03 -0.49585767851E+02 -0.71354563625E+03  0.74523867160E+03  0.78648886762E+02 0.  0.
         13    1    3    3    0    0 -0.29477625097E+03  0.15850767757E+03  0.67491954522E+02  0.34142771696E+03  0.00000000000E+00 0.  1.
        -13    1    3    3    0    0 -0.37569406095E+03  0.25033659703E+03  0.18990853680E+03  0.48977514391E+03  0.00000000000E+00 0. -1.
          2    1    6    6  502    0  0.46273294996E+02 -0.14499189308E+02 -0.78080266009E+02  0.91912851444E+02  0.00000000000E+00 0. -1.
          3    1    5    5  503    0  0.48307534006E+02 -0.18062953543E+02  0.24078061884E+02  0.56917846029E+02  0.00000000000E+00 0. -1.
         -4    1    5    5    0  503  0.42828418993E+03 -0.34119555320E+03  0.55827621301E+02  0.55041663871E+03  0.00000000000E+00 0.  1.
         -1    1    6    6    0  502  0.14760529299E+03 -0.35086578544E+02 -0.63546537024E+03  0.65332582016E+03  0.00000000000E+00 0.  1.
<mgrwt>
<rscale>  0 0.21511210E+04</rscale>
<asrwt>0</asrwt>
<pdfrwt beam="1">  1        2 0.19692427E+00 0.21511210E+04</pdfrwt>
<pdfrwt beam="2">  1       -2 0.13904127E+00 0.21511210E+04</pdfrwt>
<totfact> 0.56993263E+00</totfact>
</mgrwt>
</event>
<event>
12    1  0.1541840E-007  0.1577741E+04  0.7818608E-02  0.8834340E-01
         -2   -1    0    0    0  501 -0.00000000000E+00  0.00000000000E+00  0.46817139069E+03  0.46817139069E+03  0.00000000000E+00 0. -1.
          2   -1    0    0  501    0  0.00000000000E+00 -0.00000000000E+00 -0.13292500968E+04  0.13292500968E+04  0.00000000000E+00 0.  1.
         23    2    1    2    0    0 -0.19893287291E+01 -0.20518450714E+03  0.26187990586E+03  0.34495795972E+03  0.91160679447E+02 0.  0.
        254    2    1    2    0    0  0.19893287291E+01  0.20518450714E+03 -0.11229586120E+04  0.14524635278E+04  0.89805880425E+03 0.  0.
        -24    2    4    4    0    0  0.32663177685E+03  0.30256323038E+03 -0.97146473368E+03  0.10715804417E+04  0.79423473484E+02 0.  0.
         24    2    4    4    0    0 -0.32464244812E+03 -0.97378723232E+02 -0.15149387829E+03  0.38088308610E+03  0.85124586680E+02 0.  0.
         13    1    3    3    0    0  0.39905027075E+02 -0.83009537858E+02  0.13857764465E+03  0.16639338375E+03  0.00000000000E+00 0. -1.
        -13    1    3    3    0    0 -0.41894355804E+02 -0.12217496929E+03  0.12330226122E+03  0.17856457597E+03  0.00000000000E+00 0.  1.
          2    1    6    6  502    0 -0.18619855728E+03 -0.75220498728E+02 -0.12952616758E+03  0.23896663836E+03  0.00000000000E+00 0. -1.
          3    1    5    5  503    0  0.27923071817E+03  0.24798555428E+03 -0.73688477051E+03  0.82611487949E+03  0.00000000000E+00 0. -1.
         -4    1    5    5    0  503  0.47401058685E+02  0.54577676092E+02 -0.23457996316E+03  0.24546556217E+03  0.00000000000E+00 0.  1.
         -3    1    6    6    0  502 -0.13844389085E+03 -0.22158224505E+02 -0.21967710708E+02  0.14191644774E+03  0.00000000000E+00 0.  1.
<mgrwt>
<rscale>  0 0.15777413E+04</rscale>
<asrwt>0</asrwt>
<pdfrwt beam="1">  1        2 0.20450001E+00 0.15777413E+04</pdfrwt>
<pdfrwt beam="2">  1       -2 0.72026369E-01 0.15777413E+04</pdfrwt>
<totfact> 0.26661968E+01</totfact>
</mgrwt>
</event>
<event>
12    1  0.1541840E-007  0.1848498E+04  0.7818608E-02  0.8680925E-01
          2   -1    0    0  501    0  0.00000000000E+00  0.00000000000E+00  0.39790326480E+04  0.39790326480E+04  0.00000000000E+00 0. -1.
         -2   -1    0    0    0  501 -0.00000000000E+00 -0.00000000000E+00 -0.21468446522E+03  0.21468446522E+03  0.00000000000E+00 0.  1.
         23    2    1    2    0    0  0.20291492174E+03 -0.35069070640E+02 -0.80078029716E+02  0.24067333722E+03  0.95429865480E+02 0.  0.
        254    2    1    2    0    0 -0.20291492174E+03  0.35069070640E+02  0.38444262125E+04  0.39530437760E+04  0.89696035950E+03 0.  0.
        -24    2    4    4    0    0 -0.23798902068E+03 -0.39944905650E+03  0.17828697159E+04  0.18443003439E+04  0.81369602311E+02 0.  0.
         24    2    4    4    0    0  0.35074098946E+02  0.43451812714E+03  0.20615564966E+04  0.21087434321E+04  0.82143035489E+02 0.  0.
         11    1    3    3    0    0  0.13664132747E+03 -0.40327553456E+02 -0.81116597812E+01  0.14269885411E+03  0.00000000000E+00 0.  1.
        -11    1    3    3    0    0  0.66273594272E+02  0.52584828167E+01 -0.71966369935E+02  0.97974483111E+02  0.00000000000E+00 0. -1.
          4    1    6    6  502    0 -0.24671682533E+02  0.20319035836E+03  0.94827444066E+03  0.97011310086E+03  0.00000000000E+00 0. -1.
          3    1    5    5  503    0 -0.15604362705E+03 -0.18254302145E+03  0.91540481048E+03  0.94638128430E+03  0.00000000000E+00 0. -1.
         -4    1    5    5    0  503 -0.81945393634E+02 -0.21690603505E+03  0.86746490540E+03  0.89791905965E+03  0.00000000000E+00 0.  1.
         -3    1    6    6    0  502  0.59745781479E+02  0.23132776878E+03  0.11132820560E+04  0.11386303312E+04  0.00000000000E+00 0.  1.
<mgrwt>
<rscale>  0 0.18484983E+04</rscale>
<asrwt>0</asrwt>
<pdfrwt beam="1">  1        2 0.61215882E+00 0.18484983E+04</pdfrwt>
<pdfrwt beam="2">  1       -2 0.33028382E-01 0.18484983E+04</pdfrwt>
<totfact> 0.29003674E+00</totfact>
</mgrwt>
</event>
<event>
12    1  0.1541840E-007  0.2107228E+04  0.7818608E-02  0.8558066E-01
         -1   -1    0    0    0  501 -0.00000000000E+00  0.00000000000E+00  0.95178172792E+03  0.95178172792E+03  0.00000000000E+00 0.  1.
          1   -1    0    0  501    0  0.00000000000E+00 -0.00000000000E+00 -0.11663410127E+04  0.11663410127E+04  0.00000000000E+00 0. -1.
         23    2    1    2    0    0 -0.57131835714E+02  0.26606406049E+03  0.73970657177E+03  0.79354534594E+03  0.92164379251E+02 0.  0.
        254    2    1    2    0    0  0.57131835714E+02 -0.26606406049E+03 -0.95426585651E+03  0.13245773946E+04  0.87739832377E+03 0.  0.
        -24    2    4    4    0    0  0.11299663592E+03 -0.37567158422E+03 -0.10677781483E+04  0.11405949638E+04  0.83122310589E+02 0.  0.
         24    2    4    4    0    0 -0.55864800209E+02  0.10960752373E+03  0.11351229176E+03  0.18398243088E+03  0.76353188099E+02 0.  0.
         13    1    3    3    0    0  0.82142679250E+01  0.58737433386E+02  0.26315201440E+03  0.26975274412E+03  0.00000000000E+00 0. -1.
        -13    1    3    3    0    0 -0.65346103639E+02  0.20732662711E+03  0.47655455738E+03  0.52379260182E+03  0.00000000000E+00 0.  1.
          2    1    6    6  502    0 -0.30297684493E+01  0.55816001368E+02  0.11398969167E+02  0.57048593354E+02  0.00000000000E+00 0. -1.
          1    1    5    5  503    0  0.24514079193E+02 -0.14782180863E+02 -0.59513640581E+02  0.66040338922E+02  0.00000000000E+00 0. -1.
         -2    1    5    5    0  503  0.88482556730E+02 -0.36088940336E+03 -0.10082645077E+04  0.10745546248E+04  0.00000000000E+00 0.  1.
         -1    1    6    6    0  502 -0.52835031760E+02  0.53791522357E+02  0.10211332259E+03  0.12693383753E+03  0.00000000000E+00 0.  1.
<mgrwt>
<rscale>  0 0.21072276E+04</rscale>
<asrwt>0</asrwt>
<pdfrwt beam="1">  1        1 0.17943708E+00 0.21072276E+04</pdfrwt>
<pdfrwt beam="2">  1       -1 0.14642796E+00 0.21072276E+04</pdfrwt>
<totfact> 0.38705649E+00</totfact>
</mgrwt>
</event>
<event>
12    1  0.1541840E-007  0.1226443E+04  0.7818608E-02  0.9090020E-01
          2   -1    0    0  501    0  0.00000000000E+00  0.00000000000E+00  0.26400757735E+03  0.26400757735E+03  0.00000000000E+00 0. -1.
         -2   -1    0    0    0  501 -0.00000000000E+00 -0.00000000000E+00 -0.14243563384E+04  0.14243563384E+04  0.00000000000E+00 0.  1.
         23    2    1    2    0    0  0.20267314440E+03  0.22516492415E+01 -0.51388318970E+03  0.56044093473E+03  0.94533778507E+02 0.  0.
        254    2    1    2    0    0 -0.20267314440E+03 -0.22516492415E+01 -0.64646557137E+03  0.11279229810E+04  0.90178214820E+03 0.  0.
        -24    2    4    4    0    0  0.25072472800E+03  0.14876502736E+03  0.21241598313E+02  0.30304068328E+03  0.79928265528E+02 0.  0.
         24    2    4    4    0    0 -0.45339787240E+03 -0.15101667660E+03 -0.66770716968E+03  0.82488229776E+03  0.78881388257E+02 0.  0.
         11    1    3    3    0    0  0.20677519866E+03 -0.91475981557E+01 -0.44864008457E+03  0.49408257084E+03  0.00000000000E+00 0.  1.
        -11    1    3    3    0    0 -0.41020542533E+01  0.11399247397E+02 -0.65243105133E+02  0.66358363886E+02  0.00000000000E+00 0. -1.
          4    1    6    6  502    0 -0.20543760856E+03 -0.31029168217E+02 -0.25954436110E+03  0.33246157022E+03  0.00000000000E+00 0. -1.
          3    1    5    5  503    0  0.37393844713E+02  0.94750501901E+01 -0.22317197072E+02  0.44566057528E+02  0.00000000000E+00 0. -1.
         -4    1    5    5    0  503  0.21333088328E+03  0.13928997717E+03  0.43558795384E+02  0.25847462575E+03  0.00000000000E+00 0.  1.
         -3    1    6    6    0  502 -0.24796026384E+03 -0.11998750838E+03 -0.40816280858E+03  0.49242072755E+03  0.00000000000E+00 0.  1.
<mgrwt>
<rscale>  0 0.12264434E+04</rscale>
<asrwt>0</asrwt>
<pdfrwt beam="1">  1        2 0.40616550E-01 0.12264434E+04</pdfrwt>
<pdfrwt beam="2">  1       -2 0.21913175E+00 0.12264434E+04</pdfrwt>
<totfact> 0.12488490E+01</totfact>
</mgrwt>
</event>
<event>
12    1  0.1541840E-007  0.1164155E+04  0.7818608E-02  0.9144824E-01
          2   -1    0    0  501    0  0.00000000000E+00  0.00000000000E+00  0.28888640799E+03  0.28888640799E+03  0.00000000000E+00 0.  1.
         -2   -1    0    0    0  501 -0.00000000000E+00 -0.00000000000E+00 -0.11728277647E+04  0.11728277647E+04  0.00000000000E+00 0. -1.
         23    2    1    2    0    0 -0.10826935692E+03  0.83843625829E+02 -0.38643457857E+03  0.42007945350E+03  0.91559032879E+02 0.  0.
        254    2    1    2    0    0  0.10826935692E+03 -0.83843625829E+02 -0.49750677810E+03  0.10416347191E+04  0.90484135992E+03 0.  0.
        -24    2    4    4    0    0  0.58485037243E+02 -0.45085663102E+03 -0.47458041251E+03  0.66204410774E+03  0.79897630343E+02 0.  0.
         24    2    4    4    0    0  0.49784319672E+02  0.36701300520E+03 -0.22926365593E+02  0.37959061140E+03  0.79914889464E+02 0.  0.
         13    1    3    3    0    0 -0.10323489359E+03  0.29398552511E+02 -0.28992619749E+03  0.30915840298E+03  0.00000000000E+00 0. -1.
        -13    1    3    3    0    0 -0.50344633247E+01  0.54445073318E+02 -0.96508381076E+02  0.11092105052E+03  0.00000000000E+00 0.  1.
          4    1    6    6  502    0 -0.20075269399E+01  0.17282109273E+02 -0.19358012616E+02  0.26027564576E+02  0.00000000000E+00 0. -1.
          3    1    5    5  503    0  0.36974450163E+02 -0.69274604198E+02 -0.96956680803E+02  0.12476649672E+03  0.00000000000E+00 0. -1.
         -4    1    5    5    0  503  0.21510587080E+02 -0.38158202683E+03 -0.37762373171E+03  0.53727761102E+03  0.00000000000E+00 0.  1.
         -3    1    6    6    0  502  0.51791846612E+02  0.34973089592E+03 -0.35683529768E+01  0.35356304683E+03  0.00000000000E+00 0.  1.
<mgrwt>
<rscale>  0 0.11641546E+04</rscale>
<asrwt>0</asrwt>
<pdfrwt beam="1">  1        2 0.44444063E-01 0.11641546E+04</pdfrwt>
<pdfrwt beam="2">  1       -2 0.18043504E+00 0.11641546E+04</pdfrwt>
<totfact> 0.20373811E+01</totfact>
</mgrwt>
</event>
<event>
12    1  0.1541840E-007  0.2569701E+04  0.7818608E-02  0.8378567E-01
          1   -1    0    0  501    0  0.00000000000E+00  0.00000000000E+00  0.19041553617E+04  0.19041553617E+04  0.00000000000E+00 0. -1.
         -1   -1    0    0    0  501 -0.00000000000E+00 -0.00000000000E+00 -0.86696729771E+03  0.86696729771E+03  0.00000000000E+00 0.  1.
         23    2    1    2    0    0  0.98137802464E+03  0.47045672394E+02 -0.13398470097E+03  0.99585448872E+03  0.91968147060E+02 0.  0.
        254    2    1    2    0    0 -0.98137802464E+03 -0.47045672394E+02  0.11711727650E+04  0.17752681707E+04  0.90256041904E+03 0.  0.
        -24    2    4    4    0    0 -0.75255096469E+03 -0.50759690316E+02  0.12962180336E+04  0.15017750933E+04  0.78979361160E+02 0.  0.
         24    2    4    4    0    0 -0.22882705995E+03  0.37140179224E+01 -0.12504526864E+03  0.27349307744E+03  0.82380379373E+02 0.  0.
         13    1    3    3    0    0  0.77696406320E+03  0.18177486584E+02 -0.13820255032E+03  0.78936906542E+03  0.00000000000E+00 0. -1.
        -13    1    3    3    0    0  0.20441396144E+03  0.28868185810E+02  0.42178493516E+01  0.20648542330E+03  0.00000000000E+00 0.  1.
          4    1    6    6  502    0 -0.20421594420E+03 -0.12708034131E+02 -0.80200685886E+02  0.21976759546E+03  0.00000000000E+00 0. -1.
          1    1    5    5  503    0 -0.70239322434E+03 -0.59469648959E+02  0.12363876373E+04  0.14232172253E+04  0.00000000000E+00 0. -1.
         -2    1    5    5    0  503 -0.50157740349E+02  0.87099586427E+01  0.59830396353E+02  0.78557867997E+02  0.00000000000E+00 0.  1.
         -3    1    6    6    0  502 -0.24611115750E+02  0.16422052054E+02 -0.44844582754E+02  0.53725481984E+02  0.00000000000E+00 0.  1.
<mgrwt>
<rscale>  0 0.25697007E+04</rscale>
<asrwt>0</asrwt>
<pdfrwt beam="1">  1        1 0.29294698E+00 0.25697007E+04</pdfrwt>
<pdfrwt beam="2">  1       -1 0.13337958E+00 0.25697007E+04</pdfrwt>
<totfact> 0.14521343E+00</totfact>
</mgrwt>
</event>
<event>
12    1  0.1541840E-007  0.2009931E+04  0.7818608E-02  0.8601992E-01
         -1   -1    0    0    0  501 -0.00000000000E+00  0.00000000000E+00  0.89896504722E+03  0.89896504722E+03  0.00000000000E+00 0.  1.
          1   -1    0    0  501    0  0.00000000000E+00 -0.00000000000E+00 -0.11234651025E+04  0.11234651025E+04  0.00000000000E+00 0. -1.
         23    2    1    2    0    0 -0.10456421380E+03 -0.21324233666E+03 -0.86005905022E+03  0.89654173072E+03  0.87632962416E+02 0.  0.
        254    2    1    2    0    0  0.10456421380E+03  0.21324233666E+03  0.63555899498E+03  0.11258884190E+04  0.89848958085E+03 0.  0.
        -24    2    4    4    0    0 -0.35430101490E+03  0.27763367066E+03  0.27770960995E+03  0.53489673813E+03  0.79888852514E+02 0.  0.
         24    2    4    4    0    0  0.45886522870E+03 -0.64391333999E+02  0.35784938503E+03  0.59099168083E+03  0.80693509293E+02 0.  0.
         11    1    3    3    0    0 -0.11975973939E+03 -0.19807699794E+03 -0.79678866583E+03  0.82972831113E+03  0.00000000000E+00 0. -1.
        -11    1    3    3    0    0  0.15195525591E+02 -0.15165338717E+02 -0.63270384388E+02  0.66813419588E+02  0.00000000000E+00 0.  1.
          4    1    6    6  502    0  0.24836945461E+03 -0.44945791970E+02  0.24322647629E+03  0.35052336436E+03  0.00000000000E+00 0. -1.
          3    1    5    5  503    0 -0.75565737932E+02  0.70243840309E+02  0.10389240202E+03  0.14641724300E+03  0.00000000000E+00 0. -1.
         -4    1    5    5    0  503 -0.27873527697E+03  0.20738983035E+03  0.17381720793E+03  0.38847949513E+03  0.00000000000E+00 0.  1.
         -3    1    6    6    0  502  0.21049577410E+03 -0.19445542029E+02  0.11462290874E+03  0.24046831647E+03  0.00000000000E+00 0.  1.
<mgrwt>
<rscale>  0 0.20099312E+04</rscale>
<asrwt>0</asrwt>
<pdfrwt beam="1">  1        1 0.17284079E+00 0.20099312E+04</pdfrwt>
<pdfrwt beam="2">  1       -1 0.13830231E+00 0.20099312E+04</pdfrwt>
<totfact> 0.48834340E+00</totfact>
</mgrwt>
</event>
<event>
12    1  0.1541840E-007  0.1213514E+04  0.7818608E-02  0.9101109E-01
          2   -1    0    0  501    0  0.00000000000E+00  0.00000000000E+00  0.15103101916E+04  0.15103101916E+04  0.00000000000E+00 0.  1.
         -2   -1    0    0    0  501 -0.00000000000E+00 -0.00000000000E+00 -0.24376049463E+03  0.24376049463E+03  0.00000000000E+00 0. -1.
         23    2    1    2    0    0 -0.21971181174E+02 -0.19439294768E+03  0.42146811480E+02  0.22221228662E+03  0.96595008654E+02 0.  0.
        254    2    1    2    0    0  0.21971181174E+02  0.19439294768E+03  0.12244028855E+04  0.15318583996E+04  0.89953119989E+03 0.  0.
        -24    2    4    4    0    0 -0.35347958545E+03  0.34612669174E+03  0.57190455679E+03  0.76009957541E+03  0.76974270962E+02 0.  0.
         24    2    4    4    0    0  0.37545076662E+03 -0.15173374406E+03  0.65249832874E+03  0.77175882424E+03  0.76623798807E+02 0.  0.
         11    1    3    3    0    0 -0.50786045973E+02 -0.82519116666E+02 -0.59444025950E+01  0.97077098242E+02  0.00000000000E+00 0. -1.
        -11    1    3    3    0    0  0.28814864799E+02 -0.11187383101E+03  0.48091214075E+02  0.12513518838E+03  0.00000000000E+00 0.  1.
          2    1    6    6  502    0  0.36547989762E+03 -0.15952730213E+03  0.63926469480E+03  0.75344798474E+03  0.00000000000E+00 0. -1.
          1    1    5    5  503    0 -0.35548405112E+03  0.34603144695E+03  0.56045759397E+03  0.74847804745E+03  0.00000000000E+00 0. -1.
         -2    1    5    5    0  503  0.20044656706E+01  0.95244794356E-01  0.11446962824E+02  0.11621527959E+02  0.00000000000E+00 0.  1.
         -1    1    6    6    0  502  0.99708689982E+01  0.77935580699E+01  0.13233633934E+02  0.18310839497E+02  0.00000000000E+00 0.  1.
<mgrwt>
<rscale>  0 0.12135138E+04</rscale>
<asrwt>0</asrwt>
<pdfrwt beam="1">  1        2 0.23235541E+00 0.12135138E+04</pdfrwt>
<pdfrwt beam="2">  1       -2 0.37501615E-01 0.12135138E+04</pdfrwt>
<totfact> 0.82767669E+01</totfact>
</mgrwt>
</event>
<event>
12    1  0.1541840E-007  0.2053342E+04  0.7818608E-02  0.8582080E-01
         -3   -1    0    0    0  501 -0.00000000000E+00  0.00000000000E+00  0.27239613948E+04  0.27239613948E+04  0.00000000000E+00 0.  1.
          3   -1    0    0  501    0  0.00000000000E+00 -0.00000000000E+00 -0.38695588110E+03  0.38695588110E+03  0.00000000000E+00 0. -1.
         23    2    1    2    0    0  0.96950065322E+02 -0.28489661153E+03  0.21082193151E+04  0.21313879074E+04  0.87523350343E+02 0.  0.
        254    2    1    2    0    0 -0.96950065322E+02  0.28489661153E+03  0.22878619858E+03  0.97952936846E+03  0.90364222157E+03 0.  0.
        -24    2    4    4    0    0  0.14566449218E+03  0.13322036014E+03  0.52144744015E+03  0.56307132715E+03  0.78588026960E+02 0.  0.
         24    2    4    4    0    0 -0.24261455750E+03  0.15167625139E+03 -0.29266124157E+03  0.41645804131E+03  0.76936266556E+02 0.  0.
         13    1    3    3    0    0  0.40603600971E+02 -0.19648815249E+03  0.11413264834E+04  0.11588280236E+04  0.00000000000E+00 0. -1.
        -13    1    3    3    0    0  0.56346464351E+02 -0.88408459044E+02  0.96689283171E+03  0.97255988386E+03  0.00000000000E+00 0.  1.
          4    1    6    6  502    0 -0.23723351584E+03  0.15994733047E+03 -0.28603290792E+03  0.40457102464E+03  0.00000000000E+00 0. -1.
          3    1    5    5  503    0  0.13637775880E+03  0.10390508749E+03  0.48981720917E+03  0.51895670214E+03  0.00000000000E+00 0. -1.
         -4    1    5    5    0  503  0.92867333773E+01  0.29315272654E+02  0.31630230983E+02  0.44114625008E+02  0.00000000000E+00 0.  1.
         -3    1    6    6    0  502 -0.53810416554E+01 -0.82710790804E+01 -0.66283336471E+01  0.11887016673E+02  0.00000000000E+00 0.  1.
<mgrwt>
<rscale>  0 0.20533416E+04</rscale>
<asrwt>0</asrwt>
<pdfrwt beam="1">  1        3 0.59531676E-01 0.20533416E+04</pdfrwt>
<pdfrwt beam="2">  1       -3 0.41907097E+00 0.20533416E+04</pdfrwt>
<totfact> 0.55603215E-02</totfact>
</mgrwt>
</event>
<event>
12    1  0.1541840E-007  0.1709212E+04  0.7818608E-02  0.8756128E-01
          2   -1    0    0  501    0  0.00000000000E+00  0.00000000000E+00  0.20140932830E+04  0.20140932830E+04  0.00000000000E+00 0. -1.
         -2   -1    0    0    0  501 -0.00000000000E+00 -0.00000000000E+00 -0.36262058102E+03  0.36262058102E+03  0.00000000000E+00 0.  1.
         23    2    1    2    0    0 -0.41398726252E+03  0.14459674590E+03  0.11942875253E+04  0.12755143852E+04  0.91217221585E+02 0.  0.
        254    2    1    2    0    0  0.41398726252E+03 -0.14459674590E+03  0.45718517668E+03  0.11011994787E+04  0.90073766088E+03 0.  0.
        -24    2    4    4    0    0  0.22227203112E+03 -0.51769999640E+03  0.31595199202E+03  0.65076328644E+03  0.79050943241E+02 0.  0.
         24    2    4    4    0    0  0.19171523140E+03  0.37310325050E+03  0.14123318466E+03  0.45043619229E+03  0.83577421556E+02 0.  0.
         13    1    3    3    0    0 -0.22939819709E+03  0.87708136883E+02  0.53825860056E+03  0.59164057601E+03  0.00000000000E+00 0.  1.
        -13    1    3    3    0    0 -0.18458906543E+03  0.56888609021E+02  0.65602892470E+03  0.68387380923E+03  0.00000000000E+00 0. -1.
          2    1    6    6  502    0  0.10342454634E+03  0.28158233038E+03  0.10983272080E+03  0.31945026550E+03  0.00000000000E+00 0. -1.
          3    1    5    5  503    0  0.16090155128E+03 -0.27694131588E+03  0.17002667354E+03  0.36262221575E+03  0.00000000000E+00 0. -1.
         -4    1    5    5    0  503  0.61370479843E+02 -0.24075868052E+03  0.14592531848E+03  0.28814107069E+03  0.00000000000E+00 0.  1.
         -1    1    6    6    0  502  0.88290685059E+02  0.91520920114E+02  0.31400463866E+02  0.13098592679E+03  0.00000000000E+00 0.  1.
<mgrwt>
<rscale>  0 0.17092123E+04</rscale>
<asrwt>0</asrwt>
<pdfrwt beam="1">  1        2 0.30986050E+00 0.17092123E+04</pdfrwt>
<pdfrwt beam="2">  1       -2 0.55787783E-01 0.17092123E+04</pdfrwt>
<totfact> 0.18832987E+01</totfact>
</mgrwt>
</event>
<event>
12    1  0.1541840E-007  0.2066933E+04  0.7818608E-02  0.8575951E-01
          2   -1    0    0  501    0  0.00000000000E+00  0.00000000000E+00  0.36294045021E+04  0.36294045021E+04  0.00000000000E+00 0. -1.
         -2   -1    0    0    0  501 -0.00000000000E+00 -0.00000000000E+00 -0.29427770999E+03  0.29427770999E+03  0.00000000000E+00 0.  1.
         23    2    1    2    0    0  0.20285217332E+03 -0.45612029280E+03  0.84697589156E+02  0.51512031593E+03  0.94765671792E+02 0.  0.
        254    2    1    2    0    0 -0.20285217332E+03  0.45612029280E+03  0.32504292029E+04  0.34085618961E+04  0.89655422080E+03 0.  0.
        -24    2    4    4    0    0  0.33178878487E+03  0.11700598969E+03  0.15724037340E+04  0.16133004672E+04  0.80688880417E+02 0.  0.
         24    2    4    4    0    0 -0.53464095819E+03  0.33911430311E+03  0.16780254689E+04  0.17952614289E+04  0.79716115425E+02 0.  0.
         11    1    3    3    0    0  0.11687662365E+03 -0.24733353084E+03  0.93658350245E+02  0.28914686096E+03  0.00000000000E+00 0. -1.
        -11    1    3    3    0    0  0.85975549665E+02 -0.20878676196E+03 -0.89607610888E+01  0.22597345496E+03  0.00000000000E+00 0.  1.
          2    1    6    6  502    0 -0.39100831723E+02  0.39490387444E+02  0.20783481702E+03  0.21513641465E+03  0.00000000000E+00 0. -1.
          3    1    5    5  503    0  0.11009492190E+03 -0.28716240041E+00  0.46810348882E+03  0.48087612806E+03  0.00000000000E+00 0. -1.
         -4    1    5    5    0  503  0.22169386297E+03  0.11729315209E+03  0.11043002452E+04  0.11324243392E+04  0.00000000000E+00 0.  1.
         -1    1    6    6    0  502 -0.49554012647E+03  0.29962391567E+03  0.14701906519E+04  0.15801250142E+04  0.00000000000E+00 0.  1.
<mgrwt>
<rscale>  0 0.20669328E+04</rscale>
<asrwt>0</asrwt>
<pdfrwt beam="1">  1        2 0.55836989E+00 0.20669328E+04</pdfrwt>
<pdfrwt beam="2">  1       -2 0.45273496E-01 0.20669328E+04</pdfrwt>
<totfact> 0.28273614E+00</totfact>
</mgrwt>
</event>
<event>
12    1  0.1541840E-007  0.1540830E+04  0.7818608E-02  0.8857747E-01
         -2   -1    0    0    0  501 -0.00000000000E+00  0.00000000000E+00  0.37064869391E+03  0.37064869391E+03  0.00000000000E+00 0.  1.
          2   -1    0    0  501    0  0.00000000000E+00 -0.00000000000E+00 -0.16013518725E+04  0.16013518725E+04  0.00000000000E+00 0. -1.
         23    2    1    2    0    0  0.20257980206E+03  0.14083429793E+03 -0.96074613365E+03  0.99618956673E+03  0.92128409717E+02 0.  0.
        254    2    1    2    0    0 -0.20257980206E+03 -0.14083429793E+03 -0.26995704498E+03  0.97581099972E+03  0.90468636851E+03 0.  0.
        -24    2    4    4    0    0  0.49137316362E+01  0.20284212064E+03 -0.47145060341E+03  0.51947884090E+03  0.80146890267E+02 0.  0.
         24    2    4    4    0    0 -0.20749353370E+03 -0.34367641857E+03  0.20149355843E+03  0.45633215882E+03  0.80450841378E+02 0.  0.
         11    1    3    3    0    0 -0.52960715117E+01  0.77696082683E+01 -0.10895459059E+03  0.10935958119E+03  0.00000000000E+00 0.  1.
        -11    1    3    3    0    0  0.20787587357E+03  0.13306468966E+03 -0.85179154305E+03  0.88682998555E+03  0.00000000000E+00 0. -1.
          4    1    6    6  502    0 -0.18017023489E+02 -0.82031628641E+01  0.26735842211E+02  0.33267255298E+02  0.00000000000E+00 0. -1.
          1    1    5    5  503    0 -0.36831949214E+02  0.11730554250E+03 -0.26179565857E+03  0.28923027095E+03  0.00000000000E+00 0. -1.
         -2    1    5    5    0  503  0.41745680850E+02  0.85536578141E+02 -0.20965494484E+03  0.23024856995E+03  0.00000000000E+00 0.  1.
         -3    1    6    6    0  502 -0.18947651021E+03 -0.33547325571E+03  0.17475771622E+03  0.42306490352E+03  0.00000000000E+00 0.  1.
<mgrwt>
<rscale>  0 0.15408296E+04</rscale>
<asrwt>0</asrwt>
<pdfrwt beam="1">  1        2 0.24636183E+00 0.15408296E+04</pdfrwt>
<pdfrwt beam="2">  1       -2 0.57022876E-01 0.15408296E+04</pdfrwt>
<totfact> 0.30910535E+01</totfact>
</mgrwt>
</event>
<event>
12    1  0.1541840E-007  0.1706981E+04  0.7818608E-02  0.8757393E-01
         -3   -1    0    0    0  501 -0.00000000000E+00  0.00000000000E+00  0.18242339417E+04  0.18242339417E+04  0.00000000000E+00 0.  1.
          3   -1    0    0  501    0  0.00000000000E+00 -0.00000000000E+00 -0.39931633204E+03  0.39931633204E+03  0.00000000000E+00 0. -1.
         23    2    1    2    0    0  0.15286814756E+03 -0.43430280457E+03  0.76648107788E+01  0.46905389636E+03  0.89248035115E+02 0.  0.
        254    2    1    2    0    0 -0.15286814756E+03  0.43430280457E+03  0.14172527989E+04  0.17544963773E+04  0.92610174692E+03 0.  0.
        -24    2    4    4    0    0  0.35262324233E+03  0.10566857583E+03  0.82059857271E+03  0.90258749583E+03  0.75981386860E+02 0.  0.
         24    2    4    4    0    0 -0.50549138989E+03  0.32863422874E+03  0.59665422614E+03  0.85190888151E+03  0.78933359672E+02 0.  0.
         13    1    3    3    0    0  0.13875868208E+03 -0.41517622904E+03 -0.12434747416E+02  0.43792681575E+03  0.00000000000E+00 0. -1.
        -13    1    3    3    0    0  0.14109465480E+02 -0.19126575534E+02  0.20099558195E+02  0.31127080612E+02  0.00000000000E+00 0.  1.
          4    1    6    6  502    0 -0.47416577051E+03  0.28958208484E+03  0.56641738140E+03  0.79342271945E+03  0.00000000000E+00 0. -1.
          1    1    5    5  503    0  0.19208419408E+03  0.80415911110E+02  0.53324425324E+03  0.57246178037E+03  0.00000000000E+00 0. -1.
         -2    1    5    5    0  503  0.16053904825E+03  0.25252664719E+02  0.28735431948E+03  0.33012571547E+03  0.00000000000E+00 0.  1.
         -3    1    6    6    0  502 -0.31325619377E+02  0.39052143898E+02  0.30236844737E+02  0.58486162056E+02  0.00000000000E+00 0.  1.
<mgrwt>
<rscale>  0 0.17069814E+04</rscale>
<asrwt>0</asrwt>
<pdfrwt beam="1">  1        3 0.61433283E-01 0.17069814E+04</pdfrwt>
<pdfrwt beam="2">  1       -3 0.28065137E+00 0.17069814E+04</pdfrwt>
<totfact> 0.31454853E-01</totfact>
</mgrwt>
</event>
<event>
12    1  0.1541840E-007  0.1696368E+04  0.7818608E-02  0.8763439E-01
          2   -1    0    0  501    0  0.00000000000E+00  0.00000000000E+00  0.19947357185E+04  0.19947357185E+04  0.00000000000E+00 0. -1.
         -2   -1    0    0    0  501 -0.00000000000E+00 -0.00000000000E+00 -0.36065719511E+03  0.36065719511E+03  0.00000000000E+00 0.  1.
         23    2    1    2    0    0  0.37598786299E+03 -0.34261201806E+03  0.68802385147E+02  0.52288224457E+03  0.99610267796E+02 0.  0.
        254    2    1    2    0    0 -0.37598786299E+03  0.34261201806E+03  0.15652761383E+04  0.18325106691E+04  0.80576429254E+03 0.  0.
        -24    2    4    4    0    0  0.44315098415E+02  0.22925495776E+03  0.46607698637E+02  0.25065993798E+03  0.78335581535E+02 0.  0.
         24    2    4    4    0    0 -0.42030296141E+03  0.11335706030E+03  0.15186684397E+04  0.15818507311E+04  0.79959385720E+02 0.  0.
         11    1    3    3    0    0  0.20190114354E+03 -0.20757621971E+03  0.85499225593E+02  0.30193058197E+03  0.00000000000E+00 0. -1.
        -11    1    3    3    0    0  0.17408671945E+03 -0.13503579835E+03 -0.16696840446E+02  0.22095166260E+03  0.00000000000E+00 0.  1.
          4    1    6    6  502    0 -0.28232843440E+03  0.38329090868E+02  0.10187895936E+04  0.10578802863E+04  0.00000000000E+00 0. -1.
          3    1    5    5  503    0  0.11077617882E+01  0.18383815926E+01  0.17178446460E+02  0.17312013339E+02  0.00000000000E+00 0. -1.
         -4    1    5    5    0  503  0.43207336627E+02  0.22741657616E+03  0.29429252177E+02  0.23334792464E+03  0.00000000000E+00 0.  1.
         -3    1    6    6    0  502 -0.13797452701E+03  0.75027969435E+02  0.49987884601E+03  0.52397044477E+03  0.00000000000E+00 0.  1.
<mgrwt>
<rscale>  0 0.16963676E+04</rscale>
<asrwt>0</asrwt>
<pdfrwt beam="1">  1        2 0.30688241E+00 0.16963676E+04</pdfrwt>
<pdfrwt beam="2">  1       -2 0.55485724E-01 0.16963676E+04</pdfrwt>
<totfact> 0.19545449E+01</totfact>
</mgrwt>
</event>
<event>
12    1  0.1541840E-007  0.1422178E+04  0.7818608E-02  0.8937920E-01
          1   -1    0    0  501    0  0.00000000000E+00  0.00000000000E+00  0.13982267731E+04  0.13982267731E+04  0.00000000000E+00 0. -1.
         -1   -1    0    0    0  501 -0.00000000000E+00 -0.00000000000E+00 -0.36163495730E+03  0.36163495730E+03  0.00000000000E+00 0.  1.
         23    2    1    2    0    0 -0.28741331159E+03  0.20963455037E+03  0.54946355827E+01  0.36682965301E+03  0.89335026259E+02 0.  0.
        254    2    1    2    0    0  0.28741331159E+03 -0.20963455037E+03  0.10310971802E+04  0.13930320774E+04  0.86650096202E+03 0.  0.
        -24    2    4    4    0    0  0.29349339976E+03  0.17960651301E+03  0.91117319637E+03  0.97702574447E+03  0.77109249454E+02 0.  0.
         24    2    4    4    0    0 -0.60800881699E+01 -0.38924106338E+03  0.11992398381E+03  0.41600633289E+03  0.84462620254E+02 0.  0.
         11    1    3    3    0    0 -0.14841467604E+03  0.98634023288E+02 -0.41241799103E+02  0.18291110575E+03  0.00000000000E+00 0.  1.
        -11    1    3    3    0    0 -0.13899863555E+03  0.11100052708E+03  0.46736434685E+02  0.18391854726E+03  0.00000000000E+00 0. -1.
          4    1    6    6  502    0 -0.33542266473E+02 -0.14529389043E+03  0.17991085814E+02  0.15019679559E+03  0.00000000000E+00 0. -1.
          3    1    5    5  503    0  0.14584009132E+03  0.76813071262E+02  0.53914050035E+03  0.56377483029E+03  0.00000000000E+00 0. -1.
         -4    1    5    5    0  503  0.14765330844E+03  0.10279344175E+03  0.37203269602E+03  0.41325091417E+03  0.00000000000E+00 0.  1.
         -3    1    6    6    0  502  0.27462178303E+02 -0.24394717295E+03  0.10193289800E+03  0.26580953730E+03  0.00000000000E+00 0.  1.
<mgrwt>
<rscale>  0 0.14221782E+04</rscale>
<asrwt>0</asrwt>
<pdfrwt beam="1">  1        1 0.21511181E+00 0.14221782E+04</pdfrwt>
<pdfrwt beam="2">  1       -1 0.55636148E-01 0.14221782E+04</pdfrwt>
<totfact> 0.24500660E+01</totfact>
</mgrwt>
</event>
<event>
12    1  0.1541840E-007  0.1453710E+04  0.7818608E-02  0.8915833E-01
         -2   -1    0    0    0  501 -0.00000000000E+00  0.00000000000E+00  0.29807585203E+03  0.29807585203E+03  0.00000000000E+00 0.  1.
          2   -1    0    0  501    0  0.00000000000E+00 -0.00000000000E+00 -0.17724278837E+04  0.17724278837E+04  0.00000000000E+00 0. -1.
         23    2    1    2    0    0 -0.74801219224E+02  0.97244155774E+02  0.14590583717E+03  0.21117438969E+03  0.90854066009E+02 0.  0.
        254    2    1    2    0    0  0.74801219224E+02 -0.97244155774E+02 -0.16202578688E+04  0.18593293460E+04  0.90378006575E+03 0.  0.
        -24    2    4    4    0    0  0.38920364730E+03  0.12389870576E+03 -0.39968750398E+03  0.57711529928E+03  0.80508381305E+02 0.  0.
         24    2    4    4    0    0 -0.31440242807E+03 -0.22114286153E+03 -0.12205703648E+04  0.12822140467E+04  0.80794765628E+02 0.  0.
         13    1    3    3    0    0  0.10466274673E+02  0.53659133537E+02  0.36279072564E+02  0.65612625489E+02  0.00000000000E+00 0.  1.
        -13    1    3    3    0    0 -0.85267493897E+02  0.43585022237E+02  0.10962676460E+03  0.14556176420E+03  0.00000000000E+00 0. -1.
          2    1    6    6  502    0 -0.24676539939E+03 -0.13049785473E+03 -0.89840222149E+03  0.94077064368E+03  0.00000000000E+00 0. -1.
          1    1    5    5  503    0  0.18351704034E+03  0.16558516046E+02 -0.18061155117E+03  0.25801786947E+03  0.00000000000E+00 0. -1.
         -2    1    5    5    0  503  0.20568660696E+03  0.10734018971E+03 -0.21907595281E+03  0.31909742980E+03  0.00000000000E+00 0.  1.
         -1    1    6    6    0  502 -0.67637028686E+02 -0.90645006806E+02 -0.32216814332E+03  0.34144340304E+03  0.00000000000E+00 0.  1.
<mgrwt>
<rscale>  0 0.14537097E+04</rscale>
<asrwt>0</asrwt>
<pdfrwt beam="1">  1        2 0.27268121E+00 0.14537097E+04</pdfrwt>
<pdfrwt beam="2">  1       -2 0.45857824E-01 0.14537097E+04</pdfrwt>
<totfact> 0.39073766E+01</totfact>
</mgrwt>
</event>
<event>
12    1  0.1541840E-007  0.3277987E+04  0.7818608E-02  0.8168519E-01
          2   -1    0    0  501    0  0.00000000000E+00  0.00000000000E+00  0.30585221733E+04  0.30585221733E+04  0.00000000000E+00 0. -1.
         -2   -1    0    0    0  501 -0.00000000000E+00 -0.00000000000E+00 -0.87830009427E+03  0.87830009427E+03  0.00000000000E+00 0.  1.
         23    2    1    2    0    0 -0.15564893625E+03  0.96137244564E+03  0.24206216628E+04  0.26107748647E+04  0.90953774397E+02 0.  0.
        254    2    1    2    0    0  0.15564893625E+03 -0.96137244564E+03 -0.24039958378E+03  0.13260474029E+04  0.86726361863E+03 0.  0.
        -24    2    4    4    0    0  0.13925231895E+03 -0.74422663647E+03 -0.54990214135E+03  0.93895352419E+03  0.77310159395E+02 0.  0.
         24    2    4    4    0    0  0.16396617307E+02 -0.21714580917E+03  0.30950255758E+03  0.38709387869E+03  0.81416744444E+02 0.  0.
         13    1    3    3    0    0 -0.15943456045E+03  0.84654268682E+03  0.20810350866E+04  0.22522790527E+04  0.00000000000E+00 0. -1.
        -13    1    3    3    0    0  0.37856241977E+01  0.11482975882E+03  0.33958657620E+03  0.35849581196E+03  0.00000000000E+00 0.  1.
          2    1    6    6  502    0 -0.11372680157E+02 -0.11956946383E+03  0.10813892164E+03  0.16161751424E+03  0.00000000000E+00 0. -1.
          3    1    5    5  503    0  0.14467921360E+01 -0.17532900488E+03 -0.11418037058E+03  0.20923553758E+03  0.00000000000E+00 0. -1.
         -4    1    5    5    0  503  0.13780552681E+03 -0.56889763159E+03 -0.43572177077E+03  0.72971798661E+03  0.00000000000E+00 0.  1.
         -1    1    6    6    0  502  0.27769297463E+02 -0.97576345345E+02  0.20136363594E+03  0.22547636446E+03  0.00000000000E+00 0.  1.
<mgrwt>
<rscale>  0 0.32779874E+04</rscale>
<asrwt>0</asrwt>
<pdfrwt beam="1">  1        2 0.47054187E+00 0.32779874E+04</pdfrwt>
<pdfrwt beam="2">  1       -2 0.13512309E+00 0.32779874E+04</pdfrwt>
<totfact> 0.52624887E-01</totfact>
</mgrwt>
</event>
<event>
12    1  0.1541840E-007  0.2743168E+04  0.7818608E-02  0.8321133E-01
         -1   -1    0    0    0  501 -0.00000000000E+00  0.00000000000E+00  0.14692652929E+04  0.14692652929E+04  0.00000000000E+00 0.  1.
          1   -1    0    0  501    0  0.00000000000E+00 -0.00000000000E+00 -0.12803966619E+04  0.12803966619E+04  0.00000000000E+00 0. -1.
         23    2    1    2    0    0 -0.61962655424E+03 -0.91731871919E+03 -0.43587686351E+03  0.11933173777E+04  0.92774050902E+02 0.  0.
        254    2    1    2    0    0  0.61962655424E+03  0.91731871919E+03  0.62474549457E+03  0.15563445771E+04  0.89804833403E+03 0.  0.
        -24    2    4    4    0    0 -0.92224126331E+02  0.50469727397E+03  0.49914010450E+03  0.72031502880E+03  0.80549791807E+02 0.  0.
         24    2    4    4    0    0  0.71185068057E+03  0.41262144522E+03  0.12560539007E+03  0.83602954826E+03  0.78618337974E+02 0.  0.
         13    1    3    3    0    0 -0.56153828024E+03 -0.79096342672E+03 -0.35835434314E+03  0.10341016477E+04  0.00000000000E+00 0. -1.
        -13    1    3    3    0    0 -0.58088274001E+02 -0.12635529248E+03 -0.77522520373E+02  0.15921573000E+03  0.00000000000E+00 0.  1.
          4    1    6    6  502    0  0.68682721321E+03  0.38287131755E+03  0.10938372321E+03  0.79390608104E+03  0.00000000000E+00 0. -1.
          1    1    5    5  503    0 -0.75087218447E+02  0.49276517411E+03  0.47961612148E+03  0.69172771462E+03  0.00000000000E+00 0. -1.
         -2    1    5    5    0  503 -0.17136907884E+02  0.11932099860E+02  0.19523983015E+02  0.28587314173E+02  0.00000000000E+00 0.  1.
         -3    1    6    6    0  502  0.25023467363E+02  0.29750127670E+02  0.16221666856E+02  0.42123467222E+02  0.00000000000E+00 0.  1.
<mgrwt>
<rscale>  0 0.27431678E+04</rscale>
<asrwt>0</asrwt>
<pdfrwt beam="1">  1        1 0.19698410E+00 0.27431678E+04</pdfrwt>
<pdfrwt beam="2">  1       -1 0.22604082E+00 0.27431678E+04</pdfrwt>
<totfact> 0.81513884E-01</totfact>
</mgrwt>
</event>
<event>
12    1  0.1541840E-007  0.3659335E+04  0.7818608E-02  0.8077034E-01
         -1   -1    0    0    0  501 -0.00000000000E+00  0.00000000000E+00  0.99564436789E+03  0.99564436789E+03  0.00000000000E+00 0.  1.
          1   -1    0    0  501    0  0.00000000000E+00 -0.00000000000E+00 -0.33623276025E+04  0.33623276025E+04  0.00000000000E+00 0. -1.
         23    2    1    2    0    0  0.13352579443E+04  0.25447317540E+03  0.13214453480E+03  0.13677109722E+04  0.74167044550E+02 0.  0.
        254    2    1    2    0    0 -0.13352579443E+04 -0.25447317540E+03 -0.24988277694E+04  0.29902609982E+04  0.92187322419E+03 0.  0.
        -24    2    4    4    0    0 -0.59790154088E+02  0.18239281648E+03 -0.76350229712E+03  0.79132994364E+03  0.80158093639E+02 0.  0.
         24    2    4    4    0    0 -0.12754677902E+04 -0.43686599188E+03 -0.17353254723E+04  0.21989310546E+04  0.79204224968E+02 0.  0.
         11    1    3    3    0    0  0.77564126379E+03  0.11550984348E+03  0.94551541168E+02  0.78987460268E+03  0.00000000000E+00 0. -1.
        -11    1    3    3    0    0  0.55961668051E+03  0.13896333192E+03  0.37592993637E+02  0.57783636948E+03  0.00000000000E+00 0.  1.
          2    1    6    6  502    0 -0.44269384515E+03 -0.11485290141E+03 -0.56523548285E+03  0.72709021488E+03  0.00000000000E+00 0. -1.
          1    1    5    5  503    0  0.54150255763E+01 -0.62686477878E+01 -0.35908941752E+02  0.36852008695E+02  0.00000000000E+00 0. -1.
         -2    1    5    5    0  503 -0.65205179665E+02  0.18866146427E+03 -0.72759335536E+03  0.75447793495E+03  0.00000000000E+00 0.  1.
         -1    1    6    6    0  502 -0.83277394506E+03 -0.32201309048E+03 -0.11700899894E+04  0.14718408397E+04  0.00000000000E+00 0.  1.
<mgrwt>
<rscale>  0 0.36593347E+04</rscale>
<asrwt>0</asrwt>
<pdfrwt beam="1">  1        1 0.51728116E+00 0.36593347E+04</pdfrwt>
<pdfrwt beam="2">  1       -1 0.15317606E+00 0.36593347E+04</pdfrwt>
<totfact> 0.84788176E-02</totfact>
</mgrwt>
</event>
<event>
12    1  0.1541840E-007  0.1819717E+04  0.7818608E-02  0.8695884E-01
         -1   -1    0    0    0  501 -0.00000000000E+00  0.00000000000E+00  0.38219209406E+03  0.38219209406E+03  0.00000000000E+00 0.  1.
          1   -1    0    0  501    0  0.00000000000E+00 -0.00000000000E+00 -0.21660370392E+04  0.21660370392E+04  0.00000000000E+00 0. -1.
         23    2    1    2    0    0  0.18940679809E+03 -0.61354612862E+03 -0.97214867325E+03  0.11685183829E+04  0.89712770768E+02 0.  0.
        254    2    1    2    0    0 -0.18940679809E+03  0.61354612862E+03 -0.81169627190E+03  0.13797107503E+04  0.91237992616E+03 0.  0.
        -24    2    4    4    0    0 -0.12204732686E+02  0.57570545460E+03 -0.39108720901E+02  0.58207785020E+03  0.75494408358E+02 0.  0.
         24    2    4    4    0    0 -0.17720206540E+03  0.37840674022E+02 -0.77258755100E+03  0.79763290013E+03  0.80586790602E+02 0.  0.
         11    1    3    3    0    0  0.19292440260E+03 -0.60102515113E+03 -0.92680779314E+03  0.11213490727E+04  0.00000000000E+00 0. -1.
        -11    1    3    3    0    0 -0.35176045166E+01 -0.12520977489E+02 -0.45340880112E+02  0.47169310236E+02  0.00000000000E+00 0.  1.
          2    1    6    6  502    0 -0.11080379316E+03  0.44567131919E+02 -0.61511306098E+03  0.62660018163E+03  0.00000000000E+00 0. -1.
          3    1    5    5  503    0 -0.14231181641E+02  0.56785659497E+03 -0.47983775023E+02  0.57005796341E+03  0.00000000000E+00 0. -1.
         -4    1    5    5    0  503  0.20264489549E+01  0.78488596242E+01  0.88750541221E+01  0.12019886790E+02  0.00000000000E+00 0.  1.
         -1    1    6    6    0  502 -0.66398272238E+02 -0.67264578966E+01 -0.15747449002E+03  0.17103271850E+03  0.00000000000E+00 0.  1.
<mgrwt>
<rscale>  0 0.18197167E+04</rscale>
<asrwt>0</asrwt>
<pdfrwt beam="1">  1        1 0.33323646E+00 0.18197167E+04</pdfrwt>
<pdfrwt beam="2">  1       -1 0.58798786E-01 0.18197167E+04</pdfrwt>
<totfact> 0.63474793E+00</totfact>
</mgrwt>
</event>
<event>
12    1  0.1541840E-007  0.1231712E+04  0.7818608E-02  0.9085544E-01
          4   -1    0    0  501    0  0.00000000000E+00  0.00000000000E+00  0.26950080232E+03  0.26950080232E+03  0.00000000000E+00 0. -1.
         -4   -1    0    0    0  501 -0.00000000000E+00 -0.00000000000E+00 -0.14073365261E+04  0.14073365261E+04  0.00000000000E+00 0.  1.
         23    2    1    2    0    0 -0.76713304246E+02 -0.74183891272E+02 -0.56775410389E+03  0.58930206591E+03  0.11637878512E+03 0.  0.
        254    2    1    2    0    0  0.76713304246E+02  0.74183891272E+02 -0.57008161990E+03  0.10875352625E+04  0.91997375674E+03 0.  0.
        -24    2    4    4    0    0  0.35087059516E+03  0.28964510252E+03 -0.56469165848E+03  0.72952005231E+03  0.79488223046E+02 0.  0.
         24    2    4    4    0    0 -0.27415729091E+03 -0.21546121124E+03 -0.53899614235E+01  0.35801521021E+03  0.80994353775E+02 0.  0.
         13    1    3    3    0    0 -0.96500144439E+02 -0.88243286197E+02 -0.43062202867E+03  0.45003831727E+03  0.00000000000E+00 0.  1.
        -13    1    3    3    0    0  0.19786840193E+02  0.14059394924E+02 -0.13713207523E+03  0.13926374864E+03  0.00000000000E+00 0. -1.
          2    1    6    6  502    0 -0.26269779580E+03 -0.21737696678E+03  0.69794739218E+01  0.34104485139E+03  0.00000000000E+00 0. -1.
          1    1    5    5  503    0  0.32999432487E+03  0.26893202878E+03 -0.48912100451E+03  0.64842890713E+03  0.00000000000E+00 0. -1.
         -2    1    5    5    0  503  0.20876270294E+02  0.20713073736E+02 -0.75570653969E+02  0.81091145178E+02  0.00000000000E+00 0.  1.
         -1    1    6    6    0  502 -0.11459495116E+02  0.19157555368E+01 -0.12369435345E+02  0.16970358816E+02  0.00000000000E+00 0.  1.
<mgrwt>
<rscale>  0 0.12317115E+04</rscale>
<asrwt>0</asrwt>
<pdfrwt beam="1">  1        4 0.41461661E-01 0.12317115E+04</pdfrwt>
<pdfrwt beam="2">  1       -4 0.21651331E+00 0.12317115E+04</pdfrwt>
<totfact> 0.11477249E+00</totfact>
</mgrwt>
</event>
<event>
12    1  0.1541840E-007  0.2470447E+04  0.7818608E-02  0.8413590E-01
         -2   -1    0    0    0  501 -0.00000000000E+00  0.00000000000E+00  0.11949839264E+04  0.11949839264E+04  0.00000000000E+00 0.  1.
          2   -1    0    0  501    0  0.00000000000E+00 -0.00000000000E+00 -0.12768181500E+04  0.12768181500E+04  0.00000000000E+00 0. -1.
         23    2    1    2    0    0  0.32440030020E+03 -0.27521955033E+03  0.94881121576E+03  0.10438180432E+04  0.91279946284E+02 0.  0.
        254    2    1    2    0    0 -0.32440030020E+03  0.27521955033E+03 -0.10306454393E+04  0.14279840331E+04  0.89214742146E+03 0.  0.
        -24    2    4    4    0    0  0.25280821565E+03  0.26297346795E+03 -0.58639801808E+03  0.69514312416E+03  0.79336553471E+02 0.  0.
         24    2    4    4    0    0 -0.57720851585E+03  0.12246082381E+02 -0.44424742127E+03  0.73284090899E+03  0.79877338936E+02 0.  0.
         11    1    3    3    0    0  0.27378924928E+02 -0.56706259624E+01  0.28623110296E+02  0.40013047522E+02  0.00000000000E+00 0. -1.
        -11    1    3    3    0    0  0.29702137527E+03 -0.26954892436E+03  0.92018810547E+03  0.10038049957E+04  0.00000000000E+00 0.  1.
          4    1    6    6  502    0 -0.22773473240E+03 -0.34186972051E+02 -0.17384221871E+03  0.28853591528E+03  0.00000000000E+00 0. -1.
          1    1    5    5  503    0  0.82711318158E+02  0.82737907726E+02 -0.12372955456E+03  0.17028131488E+03  0.00000000000E+00 0. -1.
         -2    1    5    5    0  503  0.17009689749E+03  0.18023556022E+03 -0.46266846351E+03  0.52486180927E+03  0.00000000000E+00 0.  1.
         -3    1    6    6    0  502 -0.34947378345E+03  0.46433054432E+02 -0.27040520256E+03  0.44430499371E+03  0.00000000000E+00 0.  1.
<mgrwt>
<rscale>  0 0.24704471E+04</rscale>
<asrwt>0</asrwt>
<pdfrwt beam="1">  1        2 0.19643356E+00 0.24704471E+04</pdfrwt>
<pdfrwt beam="2">  1       -2 0.18384368E+00 0.24704471E+04</pdfrwt>
<totfact> 0.26019655E+00</totfact>
</mgrwt>
</event>
<event>
12    1  0.1541840E-007  0.1364541E+04  0.7818608E-02  0.8979893E-01
          2   -1    0    0  501    0  0.00000000000E+00  0.00000000000E+00  0.12790811937E+04  0.12790811937E+04  0.00000000000E+00 0. -1.
         -2   -1    0    0    0  501 -0.00000000000E+00 -0.00000000000E+00 -0.36392771984E+03  0.36392771984E+03  0.00000000000E+00 0.  1.
         23    2    1    2    0    0  0.15854593219E+03 -0.21816598653E+03  0.57796412456E+03  0.64442723627E+03  0.92253581416E+02 0.  0.
        254    2    1    2    0    0 -0.15854593219E+03  0.21816598653E+03  0.33718934935E+03  0.99858167730E+03  0.90040851764E+03 0.  0.
        -24    2    4    4    0    0 -0.39727409805E+02  0.14651369468E+03  0.63645922080E+03  0.65917501242E+03  0.79917629059E+02 0.  0.
         24    2    4    4    0    0 -0.11881852239E+03  0.71652291843E+02 -0.29926987145E+03  0.33940666489E+03  0.79890775560E+02 0.  0.
         13    1    3    3    0    0  0.60848285414E+01 -0.49857642562E+02  0.56140443492E+02  0.75329669159E+02  0.00000000000E+00 0.  1.
        -13    1    3    3    0    0  0.15246110365E+03 -0.16830834396E+03  0.52182368106E+03  0.56909756711E+03  0.00000000000E+00 0. -1.
          4    1    6    6  502    0 -0.12031164632E+03  0.74221984191E+02 -0.22930116643E+03  0.26937486910E+03  0.00000000000E+00 0. -1.
          1    1    5    5  503    0  0.22821378913E+02  0.33786869940E+02  0.19809479589E+03  0.20224716580E+03  0.00000000000E+00 0. -1.
         -2    1    5    5    0  503 -0.62548788718E+02  0.11272682474E+03  0.43836442491E+03  0.45692784662E+03  0.00000000000E+00 0.  1.
         -3    1    6    6    0  502  0.14931239339E+01 -0.25696923477E+01 -0.69968705021E+02  0.70031795780E+02  0.00000000000E+00 0.  1.
<mgrwt>
<rscale>  0 0.13645411E+04</rscale>
<asrwt>0</asrwt>
<pdfrwt beam="1">  1        2 0.19678172E+00 0.13645411E+04</pdfrwt>
<pdfrwt beam="2">  1       -2 0.55988881E-01 0.13645411E+04</pdfrwt>
<totfact> 0.49696896E+01</totfact>
</mgrwt>
</event>
<event>
12    1  0.1541840E-007  0.1787678E+04  0.7818608E-02  0.8712880E-01
          1   -1    0    0  501    0  0.00000000000E+00  0.00000000000E+00  0.37347629960E+04  0.37347629960E+04  0.00000000000E+00 0. -1.
         -1   -1    0    0    0  501 -0.00000000000E+00 -0.00000000000E+00 -0.21392204591E+03  0.21392204591E+03  0.00000000000E+00 0.  1.
         23    2    1    2    0    0  0.53499908843E+03  0.11861196830E+03  0.21305764937E+04  0.22018028302E+04  0.91031225260E+02 0.  0.
        254    2    1    2    0    0 -0.53499908843E+03 -0.11861196830E+03  0.13902644564E+04  0.17468822117E+04  0.90469297511E+03 0.  0.
        -24    2    4    4    0    0 -0.54736772529E+03  0.64718724508E+02  0.28896858187E+03  0.62758310546E+03  0.80980077597E+02 0.  0.
         24    2    4    4    0    0  0.12368636862E+02 -0.18333069280E+03  0.11012958745E+04  0.11192991062E+04  0.78833748417E+02 0.  0.
         11    1    3    3    0    0  0.31905070057E+03  0.85054270266E+02  0.14446028247E+04  0.14818585964E+04  0.00000000000E+00 0.  1.
        -11    1    3    3    0    0  0.21594838786E+03  0.33557698030E+02  0.68597366894E+03  0.71994423381E+03  0.00000000000E+00 0. -1.
          2    1    6    6  502    0 -0.13941934919E+02 -0.10007397863E+03  0.39893428352E+03  0.41153097249E+03  0.00000000000E+00 0. -1.
          3    1    5    5  503    0 -0.57372035063E+02  0.32746961199E+02  0.34296969683E+02  0.74432492934E+02  0.00000000000E+00 0. -1.
         -4    1    5    5    0  503 -0.48999569022E+03  0.31971763309E+02  0.25467161219E+03  0.55315061253E+03  0.00000000000E+00 0.  1.
         -1    1    6    6    0  502  0.26310571781E+02 -0.83256714174E+02  0.70236159100E+03  0.70776813375E+03  0.00000000000E+00 0.  1.
<mgrwt>
<rscale>  0 0.17876780E+04</rscale>
<asrwt>0</asrwt>
<pdfrwt beam="1">  1        1 0.57457887E+00 0.17876780E+04</pdfrwt>
<pdfrwt beam="2">  1       -1 0.32911087E-01 0.17876780E+04</pdfrwt>
<totfact> 0.13334500E+00</totfact>
</mgrwt>
</event>
<event>
12    1  0.1541840E-007  0.1248756E+04  0.7818608E-02  0.9071220E-01
          2   -1    0    0  501    0  0.00000000000E+00  0.00000000000E+00  0.23623066438E+04  0.23623066438E+04  0.00000000000E+00 0. -1.
         -2   -1    0    0    0  501 -0.00000000000E+00 -0.00000000000E+00 -0.16502836045E+03  0.16502836045E+03  0.00000000000E+00 0.  1.
         23    2    1    2    0    0  0.84966881776E+01 -0.11361434370E+03 -0.30942981132E+01  0.14659592265E+03  0.92197489398E+02 0.  0.
        254    2    1    2    0    0 -0.84966881776E+01  0.11361434370E+03  0.22003725815E+04  0.23807390816E+04  0.90183072946E+03 0.  0.
        -24    2    4    4    0    0  0.37493039155E+03 -0.11113704947E+03  0.14600539496E+04  0.15135112953E+04  0.77683091700E+02 0.  0.
         24    2    4    4    0    0 -0.38342707973E+03  0.22475139318E+03  0.74031863185E+03  0.86722778637E+03  0.80516101367E+02 0.  0.
         11    1    3    3    0    0  0.29973942884E+02 -0.36501689347E+02 -0.36666285213E+02  0.59793202360E+02  0.00000000000E+00 0. -1.
        -11    1    3    3    0    0 -0.21477254707E+02 -0.77112654357E+02  0.33571987100E+02  0.86802720289E+02  0.00000000000E+00 0.  1.
          4    1    6    6  502    0 -0.63178652925E+02  0.70116152853E+01  0.86824857523E+02  0.10760697384E+03  0.00000000000E+00 0. -1.
          3    1    5    5  503    0  0.94417384114E+02 -0.54102308919E+02  0.49926428720E+03  0.51098584200E+03  0.00000000000E+00 0. -1.
         -4    1    5    5    0  503  0.28051300744E+03 -0.57034740554E+02  0.96078966243E+03  0.10025254532E+04  0.00000000000E+00 0.  1.
         -3    1    6    6    0  502 -0.32024842681E+03  0.21773977789E+03  0.65349377433E+03  0.75962081253E+03  0.00000000000E+00 0.  1.
<mgrwt>
<rscale>  0 0.12487555E+04</rscale>
<asrwt>0</asrwt>
<pdfrwt beam="1">  1        2 0.36343177E+00 0.12487555E+04</pdfrwt>
<pdfrwt beam="2">  1       -2 0.25388980E-01 0.12487555E+04</pdfrwt>
<totfact> 0.57551524E+01</totfact>
</mgrwt>
</event>
<event>
12    1  0.1541840E-007  0.1763035E+04  0.7818608E-02  0.8726208E-01
          4   -1    0    0  501    0  0.00000000000E+00  0.00000000000E+00  0.50020295569E+03  0.50020295569E+03  0.00000000000E+00 0. -1.
         -4   -1    0    0    0  501 -0.00000000000E+00 -0.00000000000E+00 -0.15535164757E+04  0.15535164757E+04  0.00000000000E+00 0.  1.
         23    2    1    2    0    0  0.33281449873E+03  0.48184442417E+03 -0.70656779919E+02  0.59644211584E+03  0.88381430936E+02 0.  0.
        254    2    1    2    0    0 -0.33281449873E+03 -0.48184442417E+03 -0.98265674014E+03  0.14572773156E+04  0.90283075154E+03 0.  0.
        -24    2    4    4    0    0  0.24869318496E+02 -0.12732171606E+02  0.15343872119E+03  0.17479590542E+03  0.78927664338E+02 0.  0.
         24    2    4    4    0    0 -0.35768381722E+03 -0.46911225256E+03 -0.11360954613E+04  0.12824814102E+04  0.77728061728E+02 0.  0.
         13    1    3    3    0    0  0.27316591578E+03  0.41995787254E+03 -0.31449802533E+02  0.50196944363E+03  0.00000000000E+00 0. -1.
        -13    1    3    3    0    0  0.59648582942E+02  0.61886551626E+02 -0.39206977386E+02  0.94472672212E+02  0.00000000000E+00 0.  1.
          2    1    6    6  502    0 -0.27875273978E+03 -0.33417092514E+03 -0.89416886126E+03  0.99444016894E+03  0.00000000000E+00 0. -1.
          1    1    5    5  503    0  0.62714655253E+01 -0.37261041536E+02  0.31994514996E+02  0.49511266253E+02  0.00000000000E+00 0. -1.
         -2    1    5    5    0  503  0.18597852971E+02  0.24528869930E+02  0.12144420619E+03  0.12528463917E+03  0.00000000000E+00 0.  1.
         -1    1    6    6    0  502 -0.78931077441E+02 -0.13494132742E+03 -0.24192660006E+03  0.28804124123E+03  0.00000000000E+00 0.  1.
<mgrwt>
<rscale>  0 0.17630355E+04</rscale>
<asrwt>0</asrwt>
<pdfrwt beam="1">  1        4 0.76954302E-01 0.17630355E+04</pdfrwt>
<pdfrwt beam="2">  1       -4 0.23900253E+00 0.17630355E+04</pdfrwt>
<totfact> 0.21245684E-01</totfact>
</mgrwt>
</event>
<event>
12    1  0.1541840E-007  0.3024635E+04  0.7818608E-02  0.8236731E-01
         -1   -1    0    0    0  501 -0.00000000000E+00  0.00000000000E+00  0.10428796211E+04  0.10428796211E+04  0.00000000000E+00 0.  1.
          1   -1    0    0  501    0  0.00000000000E+00 -0.00000000000E+00 -0.21930668961E+04  0.21930668961E+04  0.00000000000E+00 0. -1.
         23    2    1    2    0    0  0.21761268029E+03 -0.84771131864E+02 -0.19753625743E+04  0.19911867716E+04  0.90697497005E+02 0.  0.
        254    2    1    2    0    0 -0.21761268029E+03  0.84771131864E+02  0.82517529933E+03  0.12447597456E+04  0.90220348382E+03 0.  0.
        -24    2    4    4    0    0  0.32236040308E+03 -0.80035144974E+02  0.44002304216E+03  0.55666175559E+03  0.77007652889E+02 0.  0.
         24    2    4    4    0    0 -0.53997308337E+03  0.16480627684E+03  0.38515225717E+03  0.68809799001E+03  0.80028388721E+02 0.  0.
         11    1    3    3    0    0  0.11843526071E+02 -0.34004254252E+02 -0.19966284848E+03  0.20288373883E+03  0.00000000000E+00 0.  1.
        -11    1    3    3    0    0  0.20576915422E+03 -0.50766877612E+02 -0.17756997258E+04  0.17883030328E+04  0.00000000000E+00 0. -1.
          4    1    6    6  502    0 -0.61449856580E+02  0.12257461927E+02  0.15694418313E+02  0.64596013908E+02  0.00000000000E+00 0. -1.
          1    1    5    5  503    0  0.18344093281E+03 -0.75149369326E+01  0.25449668680E+03  0.31380824351E+03  0.00000000000E+00 0. -1.
         -2    1    5    5    0  503  0.13891947028E+03 -0.72520208041E+02  0.18552635536E+03  0.24285351208E+03  0.00000000000E+00 0.  1.
         -3    1    6    6    0  502 -0.47852322679E+03  0.15254881491E+03  0.36945783886E+03  0.62350197610E+03  0.00000000000E+00 0.  1.
<mgrwt>
<rscale>  0 0.30246354E+04</rscale>
<asrwt>0</asrwt>
<pdfrwt beam="1">  1        1 0.33739491E+00 0.30246354E+04</pdfrwt>
<pdfrwt beam="2">  1       -1 0.16044302E+00 0.30246354E+04</pdfrwt>
<totfact> 0.54233084E-01</totfact>
</mgrwt>
</event>
<event>
12    1  0.1541840E-007  0.2193996E+04  0.7818608E-02  0.8520931E-01
          1   -1    0    0  501    0  0.00000000000E+00  0.00000000000E+00  0.77917382945E+03  0.77917382945E+03  0.00000000000E+00 0. -1.
         -1   -1    0    0    0  501 -0.00000000000E+00 -0.00000000000E+00 -0.15444620693E+04  0.15444620693E+04  0.00000000000E+00 0.  1.
         23    2    1    2    0    0 -0.64944883077E+03  0.34621029420E+03 -0.87894815011E+03  0.11518281553E+04  0.11186106182E+03 0.  0.
        254    2    1    2    0    0  0.64944883077E+03 -0.34621029420E+03  0.11365991022E+03  0.11718077435E+04  0.90474828595E+03 0.  0.
        -24    2    4    4    0    0  0.43435006547E+03 -0.59149252804E+03  0.28868923521E+03  0.79261114782E+03  0.79797036423E+02 0.  0.
         24    2    4    4    0    0  0.21509876531E+03  0.24528223384E+03 -0.17502932500E+03  0.37919659568E+03  0.81999637140E+02 0.  0.
         11    1    3    3    0    0 -0.70776624618E+02  0.49356880350E+01 -0.62856843081E+02  0.94787522021E+02  0.00000000000E+00 0. -1.
        -11    1    3    3    0    0 -0.57867220616E+03  0.34127460617E+03 -0.81609130703E+03  0.10570406333E+04  0.00000000000E+00 0.  1.
          2    1    6    6  502    0  0.26498041949E+02  0.70697264776E+01 -0.35489645785E+02  0.44851334624E+02  0.00000000000E+00 0. -1.
          1    1    5    5  503    0  0.20658583883E+03 -0.30406806477E+03  0.18484515885E+03  0.41146425065E+03  0.00000000000E+00 0. -1.
         -2    1    5    5    0  503  0.22776422664E+03 -0.28742446327E+03  0.10384407636E+03  0.38114689717E+03  0.00000000000E+00 0.  1.
         -1    1    6    6    0  502  0.18860072336E+03  0.23821250736E+03 -0.13953967921E+03  0.33434526105E+03  0.00000000000E+00 0.  1.
<mgrwt>
<rscale>  0 0.21939958E+04</rscale>
<asrwt>0</asrwt>
<pdfrwt beam="1">  1        1 0.11987290E+00 0.21939958E+04</pdfrwt>
<pdfrwt beam="2">  1       -1 0.23760955E+00 0.21939958E+04</pdfrwt>
<totfact> 0.17683728E+00</totfact>
</mgrwt>
</event>
<event>
12    1  0.1541840E-007  0.1997775E+04  0.7818608E-02  0.8607662E-01
         -1   -1    0    0    0  501 -0.00000000000E+00  0.00000000000E+00  0.15095517388E+04  0.15095517388E+04  0.00000000000E+00 0.  1.
          1   -1    0    0  501    0  0.00000000000E+00 -0.00000000000E+00 -0.66097498053E+03  0.66097498053E+03  0.00000000000E+00 0. -1.
         23    2    1    2    0    0 -0.99471362318E+01  0.64264065338E+03 -0.16655947455E+03  0.67017286254E+03  0.91124377762E+02 0.  0.
        254    2    1    2    0    0  0.99471362318E+01 -0.64264065338E+03  0.10151362328E+04  0.15003538568E+04  0.89859566520E+03 0.  0.
        -24    2    4    4    0    0 -0.37834970211E+03 -0.58554912058E+03  0.69096720037E+03  0.98485913398E+03  0.80595112174E+02 0.  0.
         24    2    4    4    0    0  0.38829683834E+03 -0.57091532804E+02  0.32416903244E+03  0.51549472281E+03  0.81334924016E+02 0.  0.
         11    1    3    3    0    0 -0.29246864845E+02  0.57253680391E+03 -0.16817909260E+03  0.59744286599E+03  0.00000000000E+00 0. -1.
        -11    1    3    3    0    0  0.19299728613E+02  0.70103849466E+02  0.16196180505E+01  0.72729996543E+02  0.00000000000E+00 0.  1.
          4    1    6    6  502    0  0.35683566477E+03 -0.51627796297E+02  0.32213871118E+03  0.48349815950E+03  0.00000000000E+00 0. -1.
          3    1    5    5  503    0 -0.17141140802E+03 -0.30836002838E+03  0.30279926625E+03  0.46492491172E+03  0.00000000000E+00 0. -1.
         -4    1    5    5    0  503 -0.20693829409E+03 -0.27718909220E+03  0.38816793413E+03  0.51993422226E+03  0.00000000000E+00 0.  1.
         -3    1    6    6    0  502  0.31461173568E+02 -0.54637365072E+01  0.20303212663E+01  0.31996563305E+02  0.00000000000E+00 0.  1.
<mgrwt>
<rscale>  0 0.19977747E+04</rscale>
<asrwt>0</asrwt>
<pdfrwt beam="1">  1        1 0.10168846E+00 0.19977747E+04</pdfrwt>
<pdfrwt beam="2">  1       -1 0.23223873E+00 0.19977747E+04</pdfrwt>
<totfact> 0.25139819E+00</totfact>
</mgrwt>
</event>
<event>
12    1  0.1541840E-007  0.3104652E+04  0.7818608E-02  0.8214462E-01
         -2   -1    0    0    0  501 -0.00000000000E+00  0.00000000000E+00  0.87581332100E+03  0.87581332100E+03  0.00000000000E+00 0.  1.
          2   -1    0    0  501    0  0.00000000000E+00 -0.00000000000E+00 -0.27514035576E+04  0.27514035576E+04  0.00000000000E+00 0. -1.
         23    2    1    2    0    0 -0.86199045778E+03 -0.34745071495E+03  0.39449930292E+03  0.10136949212E+04  0.90543606695E+02 0.  0.
        254    2    1    2    0    0  0.86199045778E+03  0.34745071495E+03 -0.22700895395E+04  0.26135219574E+04  0.90190961608E+03 0.  0.
        -24    2    4    4    0    0  0.32974577987E+02  0.14221999200E+03 -0.13322600564E+04  0.13426162560E+04  0.79923113295E+02 0.  0.
         24    2    4    4    0    0  0.82901587979E+03  0.20523072294E+03 -0.93782948310E+03  0.12709057014E+04  0.79310678926E+02 0.  0.
         11    1    3    3    0    0 -0.25178335275E+03 -0.11700587093E+03  0.76227651840E+02  0.28791645569E+03  0.00000000000E+00 0. -1.
        -11    1    3    3    0    0 -0.61020710502E+03 -0.23044484402E+03  0.31827165108E+03  0.72577846554E+03  0.00000000000E+00 0.  1.
          4    1    6    6  502    0  0.38768192712E+03  0.94872302014E+02 -0.49715148059E+03  0.63754029282E+03  0.00000000000E+00 0. -1.
          1    1    5    5  503    0 -0.19046414629E+02  0.37719131738E+02 -0.20379111600E+03  0.20812572587E+03  0.00000000000E+00 0. -1.
         -2    1    5    5    0  503  0.52020992616E+02  0.10450086026E+03 -0.11284689404E+04  0.11344905301E+04  0.00000000000E+00 0.  1.
         -3    1    6    6    0  502  0.44133395266E+03  0.11035842093E+03 -0.44067800251E+03  0.63336540855E+03  0.00000000000E+00 0.  1.
<mgrwt>
<rscale>  0 0.31046519E+04</rscale>
<asrwt>0</asrwt>
<pdfrwt beam="1">  1        2 0.42329285E+00 0.31046519E+04</pdfrwt>
<pdfrwt beam="2">  1       -2 0.13474051E+00 0.31046519E+04</pdfrwt>
<totfact> 0.83204495E-01</totfact>
</mgrwt>
</event>
<event>
12    1  0.1541840E-007  0.1749304E+04  0.7818608E-02  0.8733733E-01
          1   -1    0    0  501    0  0.00000000000E+00  0.00000000000E+00  0.21233547881E+04  0.21233547881E+04  0.00000000000E+00 0. -1.
         -1   -1    0    0    0  501 -0.00000000000E+00 -0.00000000000E+00 -0.36028673190E+03  0.36028673190E+03  0.00000000000E+00 0.  1.
         23    2    1    2    0    0 -0.23638801582E+02 -0.41215660307E+03 -0.47279039616E+02  0.42524372581E+03  0.90360723544E+02 0.  0.
        254    2    1    2    0    0  0.23638801582E+02  0.41215660307E+03  0.18103470958E+04  0.20583977942E+04  0.88837661686E+03 0.  0.
        -24    2    4    4    0    0 -0.11019646707E+03  0.50741861978E+03  0.17999082590E+04  0.18752484995E+04  0.85265918758E+02 0.  0.
         24    2    4    4    0    0  0.13383526865E+03 -0.95262016711E+02  0.10438836821E+02  0.18314929472E+03  0.80299214695E+02 0.  0.
         11    1    3    3    0    0 -0.29614001730E+02 -0.27863195519E+03  0.86997707194E+01  0.28033630083E+03  0.00000000000E+00 0.  1.
        -11    1    3    3    0    0  0.59752001484E+01 -0.13352464788E+03 -0.55978810335E+02  0.14490742498E+03  0.00000000000E+00 0. -1.
          2    1    6    6  502    0  0.79954860776E+02 -0.36935792512E+02  0.42158159769E+02  0.97643960208E+02  0.00000000000E+00 0. -1.
          1    1    5    5  503    0  0.10735805153E+02  0.49009800134E+02  0.12998264261E+03  0.13932948504E+03  0.00000000000E+00 0. -1.
         -2    1    5    5    0  503 -0.12093227222E+03  0.45840881964E+03  0.16699256164E+04  0.17359190144E+04  0.00000000000E+00 0.  1.
         -3    1    6    6    0  502  0.53880407872E+02 -0.58326224199E+02 -0.31719322947E+02  0.85505334512E+02  0.00000000000E+00 0.  1.
<mgrwt>
<rscale>  0 0.17493045E+04</rscale>
<asrwt>0</asrwt>
<pdfrwt beam="1">  1        1 0.32666996E+00 0.17493045E+04</pdfrwt>
<pdfrwt beam="2">  1       -1 0.55428730E-01 0.17493045E+04</pdfrwt>
<totfact> 0.76654744E+00</totfact>
</mgrwt>
</event>
<event>
12    1  0.1541840E-007  0.1373953E+04  0.7818608E-02  0.8972891E-01
          2   -1    0    0  501    0  0.00000000000E+00  0.00000000000E+00  0.88615634964E+03  0.88615634964E+03  0.00000000000E+00 0.  1.
         -2   -1    0    0    0  501 -0.00000000000E+00 -0.00000000000E+00 -0.53256603648E+03  0.53256603648E+03  0.00000000000E+00 0. -1.
         23    2    1    2    0    0 -0.37397849162E+03 -0.60262043019E+02  0.57927001298E+02  0.39377344435E+03  0.90612151350E+02 0.  0.
        254    2    1    2    0    0  0.37397849162E+03  0.60262043019E+02  0.29566331186E+03  0.10249489418E+04  0.90532431385E+03 0.  0.
        -24    2    4    4    0    0 -0.10437986199E+03 -0.10105750916E+03 -0.23560796387E+03  0.28807582460E+03  0.79804713720E+02 0.  0.
         24    2    4    4    0    0  0.47835835361E+03  0.16131955218E+03  0.53127127573E+03  0.73687311717E+03  0.76694915090E+02 0.  0.
         13    1    3    3    0    0 -0.31524476244E+03 -0.48317430821E+02  0.13580336034E+02  0.31921506840E+03  0.00000000000E+00 0. -1.
        -13    1    3    3    0    0 -0.58733729174E+02 -0.11944612197E+02  0.44346665264E+02  0.74558375943E+02  0.00000000000E+00 0.  1.
          4    1    6    6  502    0  0.20279808879E+03  0.99060213586E+02  0.27179232089E+03  0.35328608298E+03  0.00000000000E+00 0. -1.
          3    1    5    5  503    0 -0.89306143809E+02 -0.10472435000E+03 -0.16072016455E+03  0.21159808150E+03  0.00000000000E+00 0. -1.
         -4    1    5    5    0  503 -0.15073718186E+02  0.36668408328E+01 -0.74887799326E+02  0.76477743099E+02  0.00000000000E+00 0.  1.
         -3    1    6    6    0  502  0.27556026482E+03  0.62259338596E+02  0.25947895485E+03  0.38358703419E+03  0.00000000000E+00 0.  1.
<mgrwt>
<rscale>  0 0.13739531E+04</rscale>
<asrwt>0</asrwt>
<pdfrwt beam="1">  1        2 0.13633175E+00 0.13739531E+04</pdfrwt>
<pdfrwt beam="2">  1       -2 0.81933236E-01 0.13739531E+04</pdfrwt>
<totfact> 0.38283210E+01</totfact>
</mgrwt>
</event>
<event>
12    1  0.1541840E-007  0.1303698E+04  0.7818608E-02  0.9026638E-01
          1   -1    0    0  501    0  0.00000000000E+00  0.00000000000E+00  0.38515023205E+03  0.38515023205E+03  0.00000000000E+00 0. -1.
         -1   -1    0    0    0  501 -0.00000000000E+00 -0.00000000000E+00 -0.11032238803E+04  0.11032238803E+04  0.00000000000E+00 0.  1.
         23    2    1    2    0    0 -0.16591117626E+02 -0.16848350664E+03 -0.53859066076E+03  0.57203879594E+03  0.92122348066E+02 0.  0.
        254    2    1    2    0    0  0.16591117626E+02  0.16848350664E+03 -0.17948298748E+03  0.91633531640E+03  0.88249323629E+03 0.  0.
        -24    2    4    4    0    0  0.24228114231E+03  0.43913502671E+03 -0.22052046560E+03  0.55360962721E+03  0.79464583210E+02 0.  0.
         24    2    4    4    0    0 -0.22569002469E+03 -0.27065152006E+03  0.41037478123E+02  0.36272568920E+03  0.75482570410E+02 0.  0.
         13    1    3    3    0    0 -0.11269111918E+02  0.56410300157E+01 -0.12079943641E+02  0.17456779239E+02  0.00000000000E+00 0. -1.
        -13    1    3    3    0    0 -0.53220057082E+01 -0.17412453666E+03 -0.52651071712E+03  0.55458201670E+03  0.00000000000E+00 0.  1.
          2    1    6    6  502    0 -0.81302641608E+02 -0.12079564008E+03 -0.17232192396E+02  0.14662419531E+03  0.00000000000E+00 0. -1.
          1    1    5    5  503    0  0.24397945108E+03  0.42561952720E+03 -0.20183470783E+03  0.53048581863E+03  0.00000000000E+00 0. -1.
         -2    1    5    5    0  503 -0.16983087628E+01  0.13515499504E+02 -0.18685757773E+02  0.23123808575E+02  0.00000000000E+00 0.  1.
         -1    1    6    6    0  502 -0.14438738308E+03 -0.14985587998E+03  0.58269670519E+02  0.21610149389E+03  0.00000000000E+00 0.  1.
<mgrwt>
<rscale>  0 0.13036977E+04</rscale>
<asrwt>0</asrwt>
<pdfrwt beam="1">  1        1 0.59253882E-01 0.13036977E+04</pdfrwt>
<pdfrwt beam="2">  1       -1 0.16972675E+00 0.13036977E+04</pdfrwt>
<totfact> 0.15320339E+01</totfact>
</mgrwt>
</event>
<event>
12    1  0.1541840E-007  0.1392565E+04  0.7818608E-02  0.8959218E-01
         -1   -1    0    0    0  501 -0.00000000000E+00  0.00000000000E+00  0.12244148607E+04  0.12244148607E+04  0.00000000000E+00 0.  1.
          1   -1    0    0  501    0  0.00000000000E+00 -0.00000000000E+00 -0.39595167672E+03  0.39595167672E+03  0.00000000000E+00 0. -1.
         23    2    1    2    0    0 -0.37231523249E+03 -0.10103441708E+03  0.13161998899E+03  0.41755655683E+03  0.90570805810E+02 0.  0.
        254    2    1    2    0    0  0.37231523249E+03  0.10103441708E+03  0.69684319501E+03  0.12028099806E+04  0.90129619174E+03 0.  0.
        -24    2    4    4    0    0  0.36712016878E+03 -0.14595804210E+03  0.82134727631E+03  0.91494248818E+03  0.80171316550E+02 0.  0.
         24    2    4    4    0    0  0.51950637120E+01  0.24699245919E+03 -0.12450408130E+03  0.28786749243E+03  0.79587457292E+02 0.  0.
         11    1    3    3    0    0 -0.47454099350E+02 -0.46954473413E+02  0.26936436330E+02  0.71987399736E+02  0.00000000000E+00 0.  1.
        -11    1    3    3    0    0 -0.32486113314E+03 -0.54079943671E+02  0.10468355266E+03  0.34556915709E+03  0.00000000000E+00 0. -1.
          2    1    6    6  502    0 -0.21750911957E+01  0.12618227431E+03 -0.10723272241E+03  0.16560662465E+03  0.00000000000E+00 0. -1.
          3    1    5    5  503    0  0.19375971242E+03 -0.35224248174E+02  0.42405434977E+03  0.46755284768E+03  0.00000000000E+00 0. -1.
         -4    1    5    5    0  503  0.17336045636E+03 -0.11073379393E+03  0.39729292654E+03  0.44738964050E+03  0.00000000000E+00 0.  1.
         -1    1    6    6    0  502  0.73701549078E+01  0.12081018488E+03 -0.17271358884E+02  0.12226086779E+03  0.00000000000E+00 0.  1.
<mgrwt>
<rscale>  0 0.13925647E+04</rscale>
<asrwt>0</asrwt>
<pdfrwt beam="1">  1        1 0.60915643E-01 0.13925647E+04</pdfrwt>
<pdfrwt beam="2">  1       -1 0.18837152E+00 0.13925647E+04</pdfrwt>
<totfact> 0.10763338E+01</totfact>
</mgrwt>
</event>
<event>
12    1  0.1541840E-007  0.2074773E+04  0.7818608E-02  0.8572438E-01
         -2   -1    0    0    0  501 -0.00000000000E+00  0.00000000000E+00  0.44088335000E+03  0.44088335000E+03  0.00000000000E+00 0.  1.
          2   -1    0    0  501    0  0.00000000000E+00 -0.00000000000E+00 -0.24409433193E+04  0.24409433193E+04  0.00000000000E+00 0. -1.
         23    2    1    2    0    0  0.51936315419E+00 -0.29232214572E+03 -0.19077531569E+04  0.19321852974E+04  0.91462610824E+02 0.  0.
        254    2    1    2    0    0 -0.51936315419E+00  0.29232214572E+03 -0.92306812444E+02  0.94964137194E+03  0.89880235929E+03 0.  0.
        -24    2    4    4    0    0 -0.24791757354E+03  0.43382155803E+03  0.18987302136E+03  0.54076158485E+03  0.81896641777E+02 0.  0.
         24    2    4    4    0    0  0.24739821038E+03 -0.14149941230E+03 -0.28217983381E+03  0.40887978709E+03  0.79556668459E+02 0.  0.
         13    1    3    3    0    0  0.84293346157E+01 -0.23322925759E+03 -0.12396610003E+04  0.12614382014E+04  0.00000000000E+00 0.  1.
        -13    1    3    3    0    0 -0.79099714616E+01 -0.59092888129E+02 -0.66809215654E+03  0.67074709594E+03  0.00000000000E+00 0. -1.
          2    1    6    6  502    0  0.80542163744E+02 -0.14063508809E+02 -0.11171167668E+03  0.13843525970E+03  0.00000000000E+00 0. -1.
          1    1    5    5  503    0 -0.33681433437E+02  0.13001788853E+03  0.42539619292E+02  0.14088544817E+03  0.00000000000E+00 0. -1.
         -2    1    5    5    0  503 -0.21423614010E+03  0.30380366950E+03  0.14733340207E+03  0.39987613669E+03  0.00000000000E+00 0.  1.
         -1    1    6    6    0  502  0.16685604664E+03 -0.12743590350E+03 -0.17046815712E+03  0.27044452739E+03  0.00000000000E+00 0.  1.
<mgrwt>
<rscale>  0 0.20747735E+04</rscale>
<asrwt>0</asrwt>
<pdfrwt beam="1">  1        2 0.37552975E+00 0.20747735E+04</pdfrwt>
<pdfrwt beam="2">  1       -2 0.67828206E-01 0.20747735E+04</pdfrwt>
<totfact> 0.69257698E+00</totfact>
</mgrwt>
</event>
<event>
12    1  0.1541840E-007  0.1182297E+04  0.7818608E-02  0.9128495E-01
         -2   -1    0    0    0  501 -0.00000000000E+00  0.00000000000E+00  0.28488618660E+03  0.28488618660E+03  0.00000000000E+00 0.  1.
          2   -1    0    0  501    0  0.00000000000E+00 -0.00000000000E+00 -0.12266523676E+04  0.12266523676E+04  0.00000000000E+00 0. -1.
         23    2    1    2    0    0 -0.14872564103E+03  0.70627297675E+02  0.16608286079E+02  0.18900636958E+03  0.91323825474E+02 0.  0.
        254    2    1    2    0    0  0.14872564103E+03 -0.70627297675E+02 -0.95837446705E+03  0.13225321846E+04  0.89638285832E+03 0.  0.
        -24    2    4    4    0    0 -0.31934515599E+03 -0.11080432384E+03 -0.14148331004E+03  0.37701949625E+03  0.88697501080E+02 0.  0.
         24    2    4    4    0    0  0.46807079702E+03  0.40177026164E+02 -0.81689115701E+03  0.94551268834E+03  0.77321516741E+02 0.  0.
         11    1    3    3    0    0  0.10837213648E+02  0.67264621042E+01  0.11302034034E+02  0.17041903221E+02  0.00000000000E+00 0. -1.
        -11    1    3    3    0    0 -0.15956285468E+03  0.63900835571E+02  0.53062520444E+01  0.17196446636E+03  0.00000000000E+00 0.  1.
          2    1    6    6  502    0  0.43574716172E+03  0.28685391007E+02 -0.71298417844E+03  0.83608903791E+03  0.00000000000E+00 0. -1.
          3    1    5    5  503    0 -0.20562864095E+03 -0.11422560092E+03 -0.10448759832E+03  0.25738742022E+03  0.00000000000E+00 0. -1.
         -4    1    5    5    0  503 -0.11371651504E+03  0.34212770852E+01 -0.36995711725E+02  0.11963207603E+03  0.00000000000E+00 0.  1.
         -1    1    6    6    0  502  0.32323635299E+02  0.11491635157E+02 -0.10390697857E+03  0.10942365043E+03  0.00000000000E+00 0.  1.
<mgrwt>
<rscale>  0 0.11822966E+04</rscale>
<asrwt>0</asrwt>
<pdfrwt beam="1">  1        2 0.18871574E+00 0.11822966E+04</pdfrwt>
<pdfrwt beam="2">  1       -2 0.43828645E-01 0.11822966E+04</pdfrwt>
<totfact> 0.89001921E+01</totfact>
</mgrwt>
</event>
<event>
12    1  0.1541840E-007  0.2233243E+04  0.7818608E-02  0.8504718E-01
          2   -1    0    0  501    0  0.00000000000E+00  0.00000000000E+00  0.14198542263E+04  0.14198542263E+04  0.00000000000E+00 0. -1.
         -2   -1    0    0    0  501 -0.00000000000E+00 -0.00000000000E+00 -0.87814895344E+03  0.87814895344E+03  0.00000000000E+00 0.  1.
         23    2    1    2    0    0  0.35083117368E+03  0.60630934288E+03  0.86599986720E+03  0.11174975036E+04  0.90284931319E+02 0.  0.
        254    2    1    2    0    0 -0.35083117368E+03 -0.60630934288E+03 -0.32429459435E+03  0.11805056761E+04  0.89315907642E+03 0.  0.
        -24    2    4    4    0    0 -0.98274715972E+01 -0.25555847968E+03  0.28741333927E+03  0.39300985485E+03  0.80272054208E+02 0.  0.
         24    2    4    4    0    0 -0.34100370208E+03 -0.35075086320E+03 -0.61170793362E+03  0.78749582129E+03  0.81568251371E+02 0.  0.
         11    1    3    3    0    0  0.11645505731E+02  0.50106863331E+02  0.38102509198E+02  0.64016535081E+02  0.00000000000E+00 0.  1.
        -11    1    3    3    0    0  0.33918566795E+03  0.55620247955E+03  0.82789735800E+03  0.10534809685E+04  0.00000000000E+00 0. -1.
          2    1    6    6  502    0 -0.31535828737E+03 -0.32211567733E+03 -0.52081705876E+03  0.68881040040E+03  0.00000000000E+00 0. -1.
          1    1    5    5  503    0  0.13042997404E+02 -0.13556200672E+03  0.20328159839E+03  0.24468466583E+03  0.00000000000E+00 0. -1.
         -2    1    5    5    0  503 -0.22870469002E+02 -0.11999647296E+03  0.84131740872E+02  0.14832518902E+03  0.00000000000E+00 0.  1.
         -1    1    6    6    0  502 -0.25645414710E+02 -0.28635185873E+02 -0.90890874856E+02  0.98685420897E+02  0.00000000000E+00 0.  1.
<mgrwt>
<rscale>  0 0.22332429E+04</rscale>
<asrwt>0</asrwt>
<pdfrwt beam="1">  1        2 0.21843911E+00 0.22332429E+04</pdfrwt>
<pdfrwt beam="2">  1       -2 0.13509984E+00 0.22332429E+04</pdfrwt>
<totfact> 0.50609359E+00</totfact>
</mgrwt>
</event>
<event>
12    1  0.1579271E-007  0.2285820E+04  0.7818608E-02  0.8483533E-01
          1   -1    0    0  501    0  0.00000000000E+00  0.00000000000E+00  0.32168682261E+04  0.32168682261E+04  0.00000000000E+00 0. -1.
         -1   -1    0    0    0  501 -0.00000000000E+00 -0.00000000000E+00 -0.40606056281E+03  0.40606056281E+03  0.00000000000E+00 0.  1.
         23    2    1    2    0    0 -0.71655022629E+03 -0.47490408705E+03  0.18554111943E+04  0.20467214353E+04  0.86832110396E+02 0.  0.
        254    2    1    2    0    0  0.71655022629E+03  0.47490408705E+03  0.95539646899E+03  0.15762073535E+04  0.91250703541E+03 0.  0.
        -24    2    4    4    0    0 -0.10709236072E+03  0.15967595928E+03 -0.71830593416E+02  0.22014278787E+03  0.79611727802E+02 0.  0.
         24    2    4    4    0    0  0.82364258702E+03  0.31522812777E+03  0.10272270624E+04  0.13560645657E+04  0.77199642641E+02 0.  0.
         13    1    3    3    0    0 -0.57720233326E+03 -0.34721510978E+03  0.13985815772E+04  0.15523373648E+04  0.00000000000E+00 0.  1.
        -13    1    3    3    0    0 -0.13934789304E+03 -0.12768897727E+03  0.45682961706E+03  0.49438407057E+03  0.00000000000E+00 0. -1.
          2    1    6    6  502    0  0.79886102756E+03  0.30844400315E+03  0.97370626779E+03  0.12966960092E+04  0.00000000000E+00 0. -1.
          3    1    5    5  503    0 -0.10541626005E+03  0.10036244422E+03 -0.68082375011E+02  0.16068732956E+03  0.00000000000E+00 0. -1.
         -4    1    5    5    0  503 -0.16761006703E+01  0.59313515052E+02 -0.37482184042E+01  0.59455458307E+02  0.00000000000E+00 0.  1.
         -1    1    6    6    0  502  0.24781559454E+02  0.67841246219E+01  0.53520794617E+02  0.59368556427E+02  0.00000000000E+00 0.  1.
<mgrwt>
<rscale>  0 0.22858200E+04</rscale>
<asrwt>0</asrwt>
<pdfrwt beam="1">  1        1 0.49490279E+00 0.22858200E+04</pdfrwt>
<pdfrwt beam="2">  1       -1 0.62470858E-01 0.22858200E+04</pdfrwt>
<totfact> 0.97216572E-01</totfact>
</mgrwt>
</event>
<event>
12    1  0.1541840E-007  0.2684624E+04  0.7818608E-02  0.8340011E-01
          1   -1    0    0  501    0  0.00000000000E+00  0.00000000000E+00  0.12410003536E+04  0.12410003536E+04  0.00000000000E+00 0. -1.
         -1   -1    0    0    0  501 -0.00000000000E+00 -0.00000000000E+00 -0.14518942251E+04  0.14518942251E+04  0.00000000000E+00 0.  1.
         23    2    1    2    0    0  0.60314548831E+02 -0.10073618214E+04 -0.73252350529E+03  0.12502380873E+04  0.89938339868E+02 0.  0.
        254    2    1    2    0    0 -0.60314548831E+02  0.10073618214E+04  0.52162963382E+03  0.14426564914E+04  0.88923820953E+03 0.  0.
        -24    2    4    4    0    0 -0.14832239478E+03  0.92912630366E+03  0.44982732777E+02  0.94525403181E+03  0.78781453728E+02 0.  0.
         24    2    4    4    0    0  0.88007845950E+02  0.78235517782E+02  0.47664690104E+03  0.49740245962E+03  0.79691664416E+02 0.  0.
         11    1    3    3    0    0  0.29400146609E+02 -0.18878638690E+03 -0.10249344681E+03  0.21681691617E+03  0.00000000000E+00 0.  1.
        -11    1    3    3    0    0  0.30914402222E+02 -0.81857543454E+03 -0.63003005848E+03  0.10334211711E+04  0.00000000000E+00 0. -1.
          2    1    6    6  502    0  0.10000225328E+03  0.60627368774E+02  0.35118936074E+03  0.37014874794E+03  0.00000000000E+00 0. -1.
          3    1    5    5  503    0 -0.15237515510E+03  0.76638445688E+03  0.38421934119E+02  0.78232957802E+03  0.00000000000E+00 0. -1.
         -4    1    5    5    0  503  0.40527603148E+01  0.16274184679E+03  0.65607986581E+01  0.16292445378E+03  0.00000000000E+00 0.  1.
         -1    1    6    6    0  502 -0.11994407332E+02  0.17608149008E+02  0.12545754030E+03  0.12725371168E+03  0.00000000000E+00 0.  1.
<mgrwt>
<rscale>  0 0.26846238E+04</rscale>
<asrwt>0</asrwt>
<pdfrwt beam="1">  1        1 0.19092313E+00 0.26846238E+04</pdfrwt>
<pdfrwt beam="2">  1       -1 0.22336834E+00 0.26846238E+04</pdfrwt>
<totfact> 0.91127573E-01</totfact>
</mgrwt>
</event>
<event>
12    1  0.1541840E-007  0.1176190E+04  0.7818608E-02  0.9133956E-01
          2   -1    0    0  501    0  0.00000000000E+00  0.00000000000E+00  0.21514951672E+04  0.21514951672E+04  0.00000000000E+00 0. -1.
         -2   -1    0    0    0  501 -0.00000000000E+00 -0.00000000000E+00 -0.16075145710E+03  0.16075145710E+03  0.00000000000E+00 0.  1.
         23    2    1    2    0    0 -0.15328484750E+03 -0.35666759996E+02  0.76338260562E+02  0.19280197840E+03  0.81096921068E+02 0.  0.
        254    2    1    2    0    0  0.15328484750E+03  0.35666759996E+02  0.19144054495E+04  0.21194446459E+04  0.89572820632E+03 0.  0.
        -24    2    4    4    0    0 -0.18989744538E+03 -0.30474428837E+03  0.11857294081E+04  0.12414752138E+04  0.79852089957E+02 0.  0.
         24    2    4    4    0    0  0.34318229287E+03  0.34041104836E+03  0.72867604139E+03  0.87796943203E+03  0.78789480856E+02 0.  0.
         11    1    3    3    0    0 -0.26706742434E+02  0.40306709143E+01 -0.15795348396E+02  0.31288806791E+02  0.00000000000E+00 0. -1.
        -11    1    3    3    0    0 -0.12657810506E+03 -0.39697430910E+02  0.92133608957E+02  0.16151317161E+03  0.00000000000E+00 0.  1.
          2    1    6    6  502    0  0.79883098180E+01 -0.41440515686E+01  0.11676294683E+02  0.14741849093E+02  0.00000000000E+00 0. -1.
          1    1    5    5  503    0  0.23657410604E+01 -0.16398862159E+02  0.24073813704E+02  0.29224440408E+02  0.00000000000E+00 0. -1.
         -2    1    5    5    0  503 -0.19226318644E+03 -0.28834542621E+03  0.11616555944E+04  0.12122507734E+04  0.00000000000E+00 0.  1.
         -1    1    6    6    0  502  0.33519398306E+03  0.34455509993E+03  0.71699974671E+03  0.86322758294E+03  0.00000000000E+00 0.  1.
<mgrwt>
<rscale>  0 0.11761904E+04</rscale>
<asrwt>0</asrwt>
<pdfrwt beam="1">  1        2 0.33099924E+00 0.11761904E+04</pdfrwt>
<pdfrwt beam="2">  1       -2 0.24730995E-01 0.11761904E+04</pdfrwt>
<totfact> 0.79720298E+01</totfact>
</mgrwt>
</event>
<event>
12    1  0.1541840E-007  0.1157110E+04  0.7818608E-02  0.9151249E-01
          2   -1    0    0  501    0  0.00000000000E+00  0.00000000000E+00  0.10263719031E+04  0.10263719031E+04  0.00000000000E+00 0. -1.
         -2   -1    0    0    0  501 -0.00000000000E+00 -0.00000000000E+00 -0.32612541843E+03  0.32612541843E+03  0.00000000000E+00 0.  1.
         23    2    1    2    0    0  0.20947485855E+02  0.62000700542E+02 -0.95131283305E+02  0.14747011265E+03  0.91731069056E+02 0.  0.
        254    2    1    2    0    0 -0.20947485855E+02 -0.62000700542E+02  0.79537776798E+03  0.12050272089E+04  0.90287424169E+03 0.  0.
        -24    2    4    4    0    0  0.16659158540E+03  0.34742828112E+03  0.16608454328E+03  0.42709952977E+03  0.79817078140E+02 0.  0.
         24    2    4    4    0    0 -0.18753907126E+03 -0.40942898166E+03  0.62929322470E+03  0.77792767911E+03  0.79740309781E+02 0.  0.
         11    1    3    3    0    0  0.47599640260E+02  0.10035879602E+02 -0.66594696691E+02  0.82469983992E+02  0.00000000000E+00 0.  1.
        -11    1    3    3    0    0 -0.26652154405E+02  0.51964820941E+02 -0.28536586614E+02  0.65000128657E+02  0.00000000000E+00 0. -1.
          2    1    6    6  502    0 -0.89492557686E+02 -0.19831287519E+03  0.37209650274E+03  0.43103679855E+03  0.00000000000E+00 0. -1.
          3    1    5    5  503    0  0.21930012980E+02  0.59508996894E+02  0.61475362465E+02  0.88325909963E+02  0.00000000000E+00 0. -1.
         -4    1    5    5    0  503  0.14466157242E+03  0.28791928423E+03  0.10460918081E+03  0.33877361980E+03  0.00000000000E+00 0.  1.
         -1    1    6    6    0  502 -0.98046513571E+02 -0.21111610647E+03  0.25719672196E+03  0.34689088057E+03  0.00000000000E+00 0.  1.
<mgrwt>
<rscale>  0 0.11571101E+04</rscale>
<asrwt>0</asrwt>
<pdfrwt beam="1">  1        2 0.15790337E+00 0.11571101E+04</pdfrwt>
<pdfrwt beam="2">  1       -2 0.50173142E-01 0.11571101E+04</pdfrwt>
<totfact> 0.90061371E+01</totfact>
</mgrwt>
</event>
<event>
12    1  0.1541840E-007  0.2333848E+04  0.7818608E-02  0.8464694E-01
         -2   -1    0    0    0  501 -0.00000000000E+00  0.00000000000E+00  0.39427872576E+04  0.39427872576E+04  0.00000000000E+00 0. -1.
          2   -1    0    0  501    0  0.00000000000E+00 -0.00000000000E+00 -0.34536765208E+03  0.34536765208E+03  0.00000000000E+00 0.  1.
         23    2    1    2    0    0 -0.61333347090E+03 -0.16189702187E+02  0.10331460751E+03  0.62875543456E+03  0.90661101764E+02 0.  0.
        254    2    1    2    0    0  0.61333347090E+03  0.16189702187E+02  0.34941049980E+04  0.36593994751E+04  0.89777209156E+03 0.  0.
        -24    2    4    4    0    0  0.56484904733E+03  0.24073457757E+03  0.32703623796E+04  0.33284884205E+04  0.80978320120E+02 0.  0.
         24    2    4    4    0    0  0.48484423571E+02 -0.22454487538E+03  0.22374261839E+03  0.33091105461E+03  0.81671453946E+02 0.  0.
         11    1    3    3    0    0 -0.23441633371E+02  0.10956929880E+02  0.19325908200E+02  0.32296365357E+02  0.00000000000E+00 0. -1.
        -11    1    3    3    0    0 -0.58989183753E+03 -0.27146632067E+02  0.83988699312E+02  0.59645906920E+03  0.00000000000E+00 0.  1.
          4    1    6    6  502    0  0.17472820449E+02 -0.11656260649E+03  0.16872415683E+03  0.20581540706E+03  0.00000000000E+00 0. -1.
          1    1    5    5  503    0  0.71953508782E+02  0.54586828006E+02  0.58446915338E+03  0.59140613834E+03  0.00000000000E+00 0. -1.
         -2    1    5    5    0  503  0.49289553855E+03  0.18614774956E+03  0.26858932262E+04  0.27370822822E+04  0.00000000000E+00 0.  1.
         -3    1    6    6    0  502  0.31011603123E+02 -0.10798226889E+03  0.55018461566E+02  0.12509564755E+03  0.00000000000E+00 0.  1.
<mgrwt>
<rscale>  0 0.23338476E+04</rscale>
<asrwt>0</asrwt>
<pdfrwt beam="1">  1        2 0.53133488E-01 0.23338476E+04</pdfrwt>
<pdfrwt beam="2">  1       -2 0.60658262E+00 0.23338476E+04</pdfrwt>
<totfact> 0.39814982E-02</totfact>
</mgrwt>
</event>
<event>
12    1  0.1541840E-007  0.1220400E+04  0.7818608E-02  0.9095185E-01
          2   -1    0    0  501    0  0.00000000000E+00  0.00000000000E+00  0.16369562873E+04  0.16369562873E+04  0.00000000000E+00 0. -1.
         -2   -1    0    0    0  501 -0.00000000000E+00 -0.00000000000E+00 -0.22746125209E+03  0.22746125209E+03  0.00000000000E+00 0.  1.
         23    2    1    2    0    0  0.64849274200E+01  0.11662306545E+03  0.67505310538E+03  0.69103393495E+03  0.90488731285E+02 0.  0.
        254    2    1    2    0    0 -0.64849274200E+01 -0.11662306545E+03  0.73444192986E+03  0.11733836045E+04  0.90762389855E+03 0.  0.
        -24    2    4    4    0    0  0.20260834159E+03  0.32914449558E+03  0.45243943186E+03  0.60019204440E+03  0.78376090756E+02 0.  0.
         24    2    4    4    0    0 -0.20909326901E+03 -0.44576756103E+03  0.28200249801E+03  0.57319156007E+03  0.81206169965E+02 0.  0.
         13    1    3    3    0    0  0.25078569785E+02  0.44349280674E+02  0.11184070272E+03  0.12289888585E+03  0.00000000000E+00 0.  1.
        -13    1    3    3    0    0 -0.18593642365E+02  0.72273784775E+02  0.56321240266E+03  0.56813504910E+03  0.00000000000E+00 0. -1.
          2    1    6    6  502    0 -0.55656642932E+02 -0.68745065423E+02  0.25452142635E+02  0.92039977658E+02  0.00000000000E+00 0. -1.
          3    1    5    5  503    0  0.56634823322E+02  0.63391048756E+02  0.58996459662E+02  0.10347226937E+03  0.00000000000E+00 0. -1.
         -2    1    5    5    0  503  0.14597351827E+03  0.26575344683E+03  0.39344297219E+03  0.49671977503E+03  0.00000000000E+00 0.  1.
         -1    1    6    6    0  502 -0.15343662608E+03 -0.37702249561E+03  0.25655035537E+03  0.48115158241E+03  0.00000000000E+00 0.  1.
<mgrwt>
<rscale>  0 0.12204001E+04</rscale>
<asrwt>0</asrwt>
<pdfrwt beam="1">  1        2 0.25183942E+00 0.12204001E+04</pdfrwt>
<pdfrwt beam="2">  1       -2 0.34994040E-01 0.12204001E+04</pdfrwt>
<totfact> 0.80276004E+01</totfact>
</mgrwt>
</event>
<event>
12    1  0.1541840E-007  0.1929127E+04  0.7818608E-02  0.8640492E-01
          2   -1    0    0  501    0  0.00000000000E+00  0.00000000000E+00  0.17445546510E+04  0.17445546510E+04  0.00000000000E+00 0. -1.
         -2   -1    0    0    0  501 -0.00000000000E+00 -0.00000000000E+00 -0.53330693892E+03  0.53330693892E+03  0.00000000000E+00 0.  1.
         23    2    1    2    0    0  0.56329987246E+03  0.41454584390E+03  0.16079685347E+03  0.72339161177E+03  0.91020837696E+02 0.  0.
        254    2    1    2    0    0 -0.56329987246E+03 -0.41454584390E+03  0.10504508586E+04  0.15544699781E+04  0.90762046229E+03 0.  0.
        -24    2    4    4    0    0 -0.14905109129E+03  0.21096125301E+03  0.64277865470E+03  0.69704253377E+03  0.77349963459E+02 0.  0.
         24    2    4    4    0    0 -0.41424878117E+03 -0.62550709691E+03  0.40767220387E+03  0.85742744435E+03  0.78256089349E+02 0.  0.
         13    1    3    3    0    0  0.15453929242E+03  0.13231972147E+03  0.86774983037E+02  0.22118046766E+03  0.00000000000E+00 0. -1.
        -13    1    3    3    0    0  0.40876058004E+03  0.28222612243E+03  0.74021870428E+02  0.50221114412E+03  0.00000000000E+00 0.  1.
          2    1    6    6  502    0 -0.20949939550E+03 -0.25358094067E+03  0.19788573226E+03  0.38386462877E+03  0.00000000000E+00 0. -1.
          1    1    5    5  503    0 -0.54405448821E+02  0.32453981561E+02  0.21147011130E+03  0.22075511717E+03  0.00000000000E+00 0. -1.
         -4    1    5    5    0  503 -0.94645642466E+02  0.17850727145E+03  0.43130854340E+03  0.47628741660E+03  0.00000000000E+00 0.  1.
         -1    1    6    6    0  502 -0.20474938567E+03 -0.37192615624E+03  0.20978647162E+03  0.47356281558E+03  0.00000000000E+00 0.  1.
<mgrwt>
<rscale>  0 0.19291274E+04</rscale>
<asrwt>0</asrwt>
<pdfrwt beam="1">  1        2 0.26839302E+00 0.19291274E+04</pdfrwt>
<pdfrwt beam="2">  1       -2 0.82047222E-01 0.19291274E+04</pdfrwt>
<totfact> 0.11299902E+01</totfact>
</mgrwt>
</event>
<event>
12    1  0.1541840E-007  0.2836215E+04  0.7818608E-02  0.8292112E-01
          2   -1    0    0  501    0  0.00000000000E+00  0.00000000000E+00  0.18730323753E+04  0.18730323753E+04  0.00000000000E+00 0. -1.
         -2   -1    0    0    0  501 -0.00000000000E+00 -0.00000000000E+00 -0.10736755364E+04  0.10736755364E+04  0.00000000000E+00 0.  1.
         23    2    1    2    0    0  0.10432757777E+04  0.64837658615E+03  0.10167355499E+02  0.12316969078E+04  0.90318058398E+02 0.  0.
        254    2    1    2    0    0 -0.10432757777E+04 -0.64837658615E+03  0.78918948339E+03  0.17150110039E+04  0.89979228538E+03 0.  0.
        -24    2    4    4    0    0 -0.88945380672E+03 -0.77788474890E+03  0.36583205011E+03  0.12395465203E+04  0.80060791353E+02 0.  0.
         24    2    4    4    0    0 -0.15382197098E+03  0.12950816275E+03  0.42335743328E+03  0.47546448352E+03  0.80008723285E+02 0.  0.
         13    1    3    3    0    0  0.13257151210E+03  0.78301042408E+02 -0.28509577565E+02  0.15658561580E+03  0.00000000000E+00 0.  1.
        -13    1    3    3    0    0  0.91070426560E+03  0.57007554375E+03  0.38676933065E+02  0.10751112920E+04  0.00000000000E+00 0. -1.
          4    1    6    6  502    0 -0.10858835071E+01  0.44923618872E+01 -0.30870717950E+01  0.55579196274E+01  0.00000000000E+00 0. -1.
          1    1    5    5  503    0 -0.12829550174E+03 -0.14370911381E+03  0.41322327260E+02  0.19702685068E+03  0.00000000000E+00 0. -1.
         -2    1    5    5    0  503 -0.76115830498E+03 -0.63417563509E+03  0.32450972285E+03  0.10425196697E+04  0.00000000000E+00 0.  1.
         -3    1    6    6    0  502 -0.15273608748E+03  0.12501580086E+03  0.42644450508E+03  0.46990656389E+03  0.00000000000E+00 0.  1.
<mgrwt>
<rscale>  0 0.28362151E+04</rscale>
<asrwt>0</asrwt>
<pdfrwt beam="1">  1        2 0.28815883E+00 0.28362151E+04</pdfrwt>
<pdfrwt beam="2">  1       -2 0.16518085E+00 0.28362151E+04</pdfrwt>
<totfact> 0.15741576E+00</totfact>
</mgrwt>
</event>
<event>
12    1  0.1541840E-007  0.2244044E+04  0.7818608E-02  0.8500316E-01
         -1   -1    0    0    0  501 -0.00000000000E+00  0.00000000000E+00  0.11200465048E+04  0.11200465048E+04  0.00000000000E+00 0.  1.
          1   -1    0    0  501    0  0.00000000000E+00 -0.00000000000E+00 -0.11240013138E+04  0.11240013138E+04  0.00000000000E+00 0. -1.
         23    2    1    2    0    0 -0.28931135303E+03  0.67432540345E+03  0.57004589458E+03  0.93347213330E+03  0.89454418551E+02 0.  0.
        254    2    1    2    0    0  0.28931135303E+03 -0.67432540345E+03 -0.57400070357E+03  0.13105756853E+04  0.92180041785E+03 0.  0.
        -24    2    4    4    0    0  0.25344356815E+03 -0.27286879514E+03 -0.76754187034E+03  0.85684795843E+03  0.79855366308E+02 0.  0.
         24    2    4    4    0    0  0.35867784880E+02 -0.40145660831E+03  0.19354116677E+03  0.45372772683E+03  0.77180052534E+02 0.  0.
         11    1    3    3    0    0 -0.19223204810E+02  0.11574771978E+03  0.11258010375E+03  0.16260795183E+03  0.00000000000E+00 0. -1.
        -11    1    3    3    0    0 -0.27008814822E+03  0.55857768367E+03  0.45746579083E+03  0.77086418147E+03  0.00000000000E+00 0.  1.
          2    1    6    6  502    0 -0.10293047215E+02 -0.35509666696E+02 -0.45755178642E+00  0.36974215387E+02  0.00000000000E+00 0. -1.
          1    1    5    5  503    0  0.11874285304E+03 -0.83143319922E+02 -0.24186894984E+03  0.28198096690E+03  0.00000000000E+00 0. -1.
         -2    1    5    5    0  503  0.13470071512E+03 -0.18972547522E+03 -0.52567292050E+03  0.57486699153E+03  0.00000000000E+00 0.  1.
         -1    1    6    6    0  502  0.46160832095E+02 -0.36594694161E+03  0.19399871856E+03  0.41675351144E+03  0.00000000000E+00 0.  1.
<mgrwt>
<rscale>  0 0.22440443E+04</rscale>
<asrwt>0</asrwt>
<pdfrwt beam="1">  1        1 0.17292328E+00 0.22440443E+04</pdfrwt>
<pdfrwt beam="2">  1       -1 0.17231485E+00 0.22440443E+04</pdfrwt>
<totfact> 0.26142113E+00</totfact>
</mgrwt>
</event>
<event>
12    1  0.1541840E-007  0.1833063E+04  0.7818608E-02  0.8688912E-01
         -2   -1    0    0    0  501 -0.00000000000E+00  0.00000000000E+00  0.43643554210E+03  0.43643554210E+03  0.00000000000E+00 0.  1.
          2   -1    0    0  501    0  0.00000000000E+00 -0.00000000000E+00 -0.19247507886E+04  0.19247507886E+04  0.00000000000E+00 0. -1.
         23    2    1    2    0    0 -0.37851762260E+03 -0.59640432447E+03 -0.65126765638E+03  0.96505015725E+03  0.90545772418E+02 0.  0.
        254    2    1    2    0    0  0.37851762260E+03  0.59640432447E+03 -0.83704759012E+03  0.13961361734E+04  0.86577932396E+03 0.  0.
        -24    2    4    4    0    0  0.76674399294E+02 -0.37187778691E+01  0.15829401008E+03  0.19230378360E+03  0.77659247642E+02 0.  0.
         24    2    4    4    0    0  0.30184322330E+03  0.60012310234E+03 -0.99534160019E+03  0.12038323898E+04  0.85149588018E+02 0.  0.
         13    1    3    3    0    0 -0.37318284475E+03 -0.59782501145E+03 -0.65117988846E+03  0.95952875259E+03  0.00000000000E+00 0.  1.
        -13    1    3    3    0    0 -0.53347778510E+01  0.14206869743E+01 -0.87767921973E-01  0.55214046589E+01  0.00000000000E+00 0. -1.
          2    1    6    6  502    0  0.23082906650E+03  0.52149865050E+03 -0.81613377966E+03  0.99564915845E+03  0.00000000000E+00 0. -1.
          3    1    5    5  503    0  0.71515267197E+02 -0.18400194963E+02  0.16041776768E+03  0.17659802038E+03  0.00000000000E+00 0. -1.
         -4    1    5    5    0  503  0.51591320970E+01  0.14681417094E+02 -0.21237575986E+01  0.15705763217E+02  0.00000000000E+00 0.  1.
         -1    1    6    6    0  502  0.71014156805E+02  0.78624451844E+02 -0.17920782053E+03  0.20818323139E+03  0.00000000000E+00 0.  1.
<mgrwt>
<rscale>  0 0.18330626E+04</rscale>
<asrwt>0</asrwt>
<pdfrwt beam="1">  1        2 0.29611551E+00 0.18330626E+04</pdfrwt>
<pdfrwt beam="2">  1       -2 0.67143929E-01 0.18330626E+04</pdfrwt>
<totfact> 0.14098040E+01</totfact>
</mgrwt>
</event>
<event>
12    1  0.1541840E-007  0.1073099E+04  0.7818608E-02  0.9231816E-01
         -2   -1    0    0    0  501 -0.00000000000E+00  0.00000000000E+00  0.90872511202E+02  0.90872511202E+02  0.00000000000E+00 0.  1.
          2   -1    0    0  501    0  0.00000000000E+00 -0.00000000000E+00 -0.31680127745E+04  0.31680127745E+04  0.00000000000E+00 0. -1.
         23    2    1    2    0    0  0.56750084784E+02  0.75536453940E+02 -0.20061493898E+03  0.23969372521E+03  0.90996704167E+02 0.  0.
        254    2    1    2    0    0 -0.56750084784E+02 -0.75536453940E+02 -0.28765253243E+04  0.30191915605E+04  0.91224635349E+03 0.  0.
        -24    2    4    4    0    0 -0.12325798811E+03 -0.41353121619E+03 -0.23107686038E+04  0.23520265060E+04  0.78591007490E+02 0.  0.
         24    2    4    4    0    0  0.66507903326E+02  0.33799476225E+03 -0.56575672052E+03  0.66716505444E+03  0.79779587229E+02 0.  0.
         13    1    3    3    0    0  0.62376346713E+02  0.28358552855E+02 -0.59340692379E+02  0.90643995506E+02  0.00000000000E+00 0.  1.
        -13    1    3    3    0    0 -0.56262619289E+01  0.47177901085E+02 -0.14127424660E+03  0.14904972971E+03  0.00000000000E+00 0. -1.
          2    1    6    6  502    0 -0.12461459427E+02  0.23505162067E+02 -0.68960891610E+02  0.73914715629E+02  0.00000000000E+00 0. -1.
          1    1    5    5  503    0  0.94354311545E+01 -0.33749899482E+02 -0.23964240086E+03  0.24219117111E+03  0.00000000000E+00 0. -1.
         -2    1    5    5    0  503 -0.13269341926E+03 -0.37978131670E+03 -0.20711262029E+04  0.21098353349E+04  0.00000000000E+00 0.  1.
         -1    1    6    6    0  502  0.78969362753E+02  0.31448960018E+03 -0.49679582891E+03  0.59325033881E+03  0.00000000000E+00 0.  1.
<mgrwt>
<rscale>  0 0.10730988E+04</rscale>
<asrwt>0</asrwt>
<pdfrwt beam="1">  1        2 0.48738654E+00 0.10730988E+04</pdfrwt>
<pdfrwt beam="2">  1       -2 0.13980387E-01 0.10730988E+04</pdfrwt>
<totfact> 0.54815882E+01</totfact>
</mgrwt>
</event>
<event>
12    1  0.1541840E-007  0.1310718E+04  0.7818608E-02  0.9021109E-01
         -2   -1    0    0    0  501 -0.00000000000E+00  0.00000000000E+00  0.10343470590E+03  0.10343470590E+03  0.00000000000E+00 0.  1.
          2   -1    0    0  501    0  0.00000000000E+00 -0.00000000000E+00 -0.41523334011E+04  0.41523334011E+04  0.00000000000E+00 0. -1.
         23    2    1    2    0    0 -0.68724820654E+02  0.30843895953E+03 -0.14834033712E+04  0.15194318081E+04  0.91267546276E+02 0.  0.
        254    2    1    2    0    0  0.68724820654E+02 -0.30843895953E+03 -0.25654953240E+04  0.27363362989E+04  0.89772623365E+03 0.  0.
        -24    2    4    4    0    0  0.25375806177E+03 -0.32592976461E+03 -0.46900538605E+03  0.63006424675E+03  0.79947092015E+02 0.  0.
         24    2    4    4    0    0 -0.18503324111E+03  0.17490805079E+02 -0.20964899379E+04  0.21062720521E+04  0.81047327172E+02 0.  0.
         11    1    3    3    0    0 -0.39469417466E+02  0.17219246204E+03 -0.61313947677E+03  0.63808157540E+03  0.00000000000E+00 0. -1.
        -11    1    3    3    0    0 -0.29255403188E+02  0.13624649749E+03 -0.87026389445E+03  0.88135023270E+03  0.00000000000E+00 0.  1.
          4    1    6    6  502    0  0.58121630693E+01  0.94289099277E+01 -0.81661288147E+02  0.82409050254E+02  0.00000000000E+00 0. -1.
          1    1    5    5  503    0  0.13473234641E+02 -0.20888379473E+02 -0.65514666617E+02  0.70071563353E+02  0.00000000000E+00 0. -1.
         -2    1    5    5    0  503  0.24028482713E+03 -0.30504138514E+03 -0.40349071943E+03  0.55999268340E+03  0.00000000000E+00 0.  1.
         -3    1    6    6    0  502 -0.19084540418E+03  0.80618951515E+01 -0.20148286498E+04  0.20238630019E+04  0.00000000000E+00 0.  1.
<mgrwt>
<rscale>  0 0.13107179E+04</rscale>
<asrwt>0</asrwt>
<pdfrwt beam="1">  1        2 0.63882048E+00 0.13107179E+04</pdfrwt>
<pdfrwt beam="2">  1       -2 0.15913033E-01 0.13107179E+04</pdfrwt>
<totfact> 0.82516809E+00</totfact>
</mgrwt>
</event>
<event>
12    1  0.1541840E-007  0.1987471E+04  0.7818608E-02  0.8612501E-01
          1   -1    0    0  501    0  0.00000000000E+00  0.00000000000E+00  0.25954811332E+04  0.25954811332E+04  0.00000000000E+00 0. -1.
         -1   -1    0    0    0  501 -0.00000000000E+00 -0.00000000000E+00 -0.38047276638E+03  0.38047276638E+03  0.00000000000E+00 0.  1.
         23    2    1    2    0    0  0.66430348784E+03 -0.39756238606E+03  0.10989834957E+04  0.13476583261E+04  0.95201184028E+02 0.  0.
        254    2    1    2    0    0 -0.66430348784E+03  0.39756238606E+03  0.11160248712E+04  0.16282955735E+04  0.89804230790E+03 0.  0.
        -24    2    4    4    0    0  0.75457728540E+02  0.13688946009E+03  0.72947827642E+03  0.75031546030E+03  0.80013380842E+02 0.  0.
         24    2    4    4    0    0 -0.73976121638E+03  0.26067292597E+03  0.38654659474E+03  0.87798011318E+03  0.78954275591E+02 0.  0.
         13    1    3    3    0    0  0.45809491260E+03 -0.28659707160E+03  0.83702624679E+03  0.99629401695E+03  0.00000000000E+00 0. -1.
        -13    1    3    3    0    0  0.20620857524E+03 -0.11096531446E+03  0.26195724887E+03  0.35136430916E+03  0.00000000000E+00 0.  1.
          2    1    6    6  502    0 -0.41391219823E+03  0.18438643867E+03  0.20646693991E+03  0.49794604515E+03  0.00000000000E+00 0. -1.
          1    1    5    5  503    0  0.69814927575E+02  0.14211494990E+03  0.72336363741E+03  0.74049019915E+03  0.00000000000E+00 0. -1.
         -2    1    5    5    0  503  0.56428009647E+01 -0.52254898142E+01  0.61146390046E+01  0.98252611509E+01  0.00000000000E+00 0.  1.
         -1    1    6    6    0  502 -0.32584901815E+03  0.76286487305E+02  0.18007965484E+03  0.38003406803E+03  0.00000000000E+00 0.  1.
<mgrwt>
<rscale>  0 0.19874706E+04</rscale>
<asrwt>0</asrwt>
<pdfrwt beam="1">  1        1 0.39930478E+00 0.19874706E+04</pdfrwt>
<pdfrwt beam="2">  1       -1 0.58534273E-01 0.19874706E+04</pdfrwt>
<totfact> 0.31946504E+00</totfact>
</mgrwt>
</event>
<event>
12    1  0.1541840E-007  0.3156370E+04  0.7818608E-02  0.8200436E-01
         -2   -1    0    0    0  501 -0.00000000000E+00  0.00000000000E+00  0.12109486181E+04  0.12109486181E+04  0.00000000000E+00 0.  1.
          2   -1    0    0  501    0  0.00000000000E+00 -0.00000000000E+00 -0.20567901055E+04  0.20567901055E+04  0.00000000000E+00 0. -1.
         23    2    1    2    0    0  0.88325632653E+03  0.88243349095E+03 -0.10128454372E+04  0.16102684181E+04  0.90982934214E+02 0.  0.
        254    2    1    2    0    0 -0.88325632653E+03 -0.88243349095E+03  0.16700394981E+03  0.16574703055E+04  0.10772589707E+04 0.  0.
        -24    2    4    4    0    0 -0.88459407131E+03 -0.22304297472E+03 -0.13859438495E+03  0.92615134569E+03  0.79328885031E+02 0.  0.
         24    2    4    4    0    0  0.13377447840E+01 -0.65939051624E+03  0.30559833476E+03  0.73131895979E+03  0.81482736091E+02 0.  0.
         11    1    3    3    0    0  0.24208819427E+03  0.28926479248E+03 -0.27385733127E+03  0.46613158213E+03  0.00000000000E+00 0.  1.
        -11    1    3    3    0    0  0.64116813226E+03  0.59316869847E+03 -0.73898810592E+03  0.11441368359E+04  0.00000000000E+00 0. -1.
          2    1    6    6  502    0 -0.17133369601E+02 -0.20566372453E+03  0.13300641813E+03  0.24552357770E+03  0.00000000000E+00 0. -1.
          1    1    5    5  503    0 -0.49332793102E+03 -0.13277323543E+03 -0.38570571211E+02  0.51233667499E+03  0.00000000000E+00 0. -1.
         -2    1    5    5    0  503 -0.39126614029E+03 -0.90269739287E+02 -0.10002381374E+03  0.41381467070E+03  0.00000000000E+00 0.  1.
         -3    1    6    6    0  502  0.18471114385E+02 -0.45372679171E+03  0.17259191663E+03  0.48579538209E+03  0.00000000000E+00 0.  1.
<mgrwt>
<rscale>  0 0.31563695E+04</rscale>
<asrwt>0</asrwt>
<pdfrwt beam="1">  1        2 0.31642924E+00 0.31563695E+04</pdfrwt>
<pdfrwt beam="2">  1       -2 0.18629979E+00 0.31563695E+04</pdfrwt>
<totfact> 0.86188907E-01</totfact>
</mgrwt>
</event>
<event>
12    1  0.1541840E-007  0.2882549E+04  0.7818608E-02  0.8278089E-01
          2   -1    0    0  501    0  0.00000000000E+00  0.00000000000E+00  0.29512323102E+04  0.29512323102E+04  0.00000000000E+00 0. -1.
         -2   -1    0    0    0  501 -0.00000000000E+00 -0.00000000000E+00 -0.70386592818E+03  0.70386592818E+03  0.00000000000E+00 0.  1.
         23    2    1    2    0    0 -0.10824621659E+04  0.71104422245E+03  0.11410458974E+04  0.17285067880E+04  0.91878992700E+02 0.  0.
        254    2    1    2    0    0  0.10824621659E+04 -0.71104422245E+03  0.11063204846E+04  0.19265914503E+04  0.90027849856E+03 0.  0.
        -24    2    4    4    0    0  0.10796662755E+04 -0.25307703059E+03  0.75095627032E+03  0.13415066371E+04  0.77314213510E+02 0.  0.
         24    2    4    4    0    0  0.27958904255E+01 -0.45796719186E+03  0.35536421427E+03  0.58508481323E+03  0.79364652510E+02 0.  0.
         13    1    3    3    0    0 -0.96010470432E+03  0.66174478279E+03  0.10375141457E+04  0.15608147883E+04  0.00000000000E+00 0. -1.
        -13    1    3    3    0    0 -0.12235746160E+03  0.49299439654E+02  0.10353175163E+03  0.16769199968E+03  0.00000000000E+00 0.  1.
          4    1    6    6  502    0 -0.28473097672E+02 -0.37593616271E+03  0.28809965708E+03  0.47448933406E+03  0.00000000000E+00 0. -1.
          1    1    5    5  503    0  0.89523116644E+03 -0.22578603923E+03  0.65339146667E+03  0.11310785055E+04  0.00000000000E+00 0. -1.
         -2    1    5    5    0  503  0.18443510906E+03 -0.27290991359E+02  0.97564803657E+02  0.21042813162E+03  0.00000000000E+00 0.  1.
         -3    1    6    6    0  502  0.31268988098E+02 -0.82031029150E+02  0.67264557188E+02  0.11059547917E+03  0.00000000000E+00 0.  1.
<mgrwt>
<rscale>  0 0.28825488E+04</rscale>
<asrwt>0</asrwt>
<pdfrwt beam="1">  1        2 0.45403573E+00 0.28825488E+04</pdfrwt>
<pdfrwt beam="2">  1       -2 0.10828707E+00 0.28825488E+04</pdfrwt>
<totfact> 0.11010754E+00</totfact>
</mgrwt>
</event>
<event>
12    1  0.1541840E-007  0.1591013E+04  0.7818608E-02  0.8826088E-01
         -1   -1    0    0    0  501 -0.00000000000E+00  0.00000000000E+00  0.11323363110E+04  0.11323363110E+04  0.00000000000E+00 0.  1.
          1   -1    0    0  501    0  0.00000000000E+00 -0.00000000000E+00 -0.55887153318E+03  0.55887153318E+03  0.00000000000E+00 0. -1.
         23    2    1    2    0    0 -0.30330146748E+03  0.13039987326E+03 -0.23889485756E+03  0.41792585072E+03  0.92711146122E+02 0.  0.
        254    2    1    2    0    0  0.30330146748E+03 -0.13039987326E+03  0.81235963536E+03  0.12732819934E+04  0.92321338299E+03 0.  0.
        -24    2    4    4    0    0  0.61803066954E+03 -0.17490327496E+03  0.47644652522E+03  0.80394771426E+03  0.82326009200E+02 0.  0.
         24    2    4    4    0    0 -0.31472920206E+03  0.44503401694E+02  0.33591311014E+03  0.46933427918E+03  0.80012653063E+02 0.  0.
         11    1    3    3    0    0 -0.53115557924E+02  0.24079398658E+02 -0.36546660691E+01  0.58433179936E+02  0.00000000000E+00 0.  1.
        -11    1    3    3    0    0 -0.25018590955E+03  0.10632047461E+03 -0.23524019149E+03  0.35949267079E+03  0.00000000000E+00 0. -1.
          2    1    6    6  502    0 -0.33451655523E+02  0.30055328481E+02  0.60737429292E+02  0.75573615398E+02  0.00000000000E+00 0. -1.
          3    1    5    5  503    0  0.33464458546E+03 -0.12573620236E+03  0.29856745337E+03  0.46576723304E+03  0.00000000000E+00 0. -1.
         -4    1    5    5    0  503  0.28338608408E+03 -0.49167072602E+02  0.17787907185E+03  0.33818048122E+03  0.00000000000E+00 0.  1.
         -1    1    6    6    0  502 -0.28127754654E+03  0.14448073213E+02  0.27517568085E+03  0.39376066378E+03  0.00000000000E+00 0.  1.
<mgrwt>
<rscale>  0 0.15910129E+04</rscale>
<asrwt>0</asrwt>
<pdfrwt beam="1">  1        1 0.85980236E-01 0.15910129E+04</pdfrwt>
<pdfrwt beam="2">  1       -1 0.17420559E+00 0.15910129E+04</pdfrwt>
<totfact> 0.83457397E+00</totfact>
</mgrwt>
</event>
<event>
12    1  0.1541840E-007  0.1187335E+04  0.7818608E-02  0.9124015E-01
          2   -1    0    0  501    0  0.00000000000E+00  0.00000000000E+00  0.25710789339E+04  0.25710789339E+04  0.00000000000E+00 0. -1.
         -2   -1    0    0    0  501 -0.00000000000E+00 -0.00000000000E+00 -0.13707903472E+03  0.13707903472E+03  0.00000000000E+00 0.  1.
         23    2    1    2    0    0 -0.57039627963E+02 -0.67403023745E+02  0.10444857695E+04  0.10520860867E+04  0.90210445077E+02 0.  0.
        254    2    1    2    0    0  0.57039627963E+02  0.67403023745E+02  0.13895141297E+04  0.16560718819E+04  0.89667601434E+03 0.  0.
        -24    2    4    4    0    0 -0.20174087739E+03  0.40549869076E+03  0.82262453625E+03  0.94233321240E+03  0.78435870140E+02 0.  0.
         24    2    4    4    0    0  0.25878050536E+03 -0.33809566701E+03  0.56688959348E+03  0.71373866955E+03  0.82359257005E+02 0.  0.
         13    1    3    3    0    0 -0.21096193827E+02  0.67563233203E+01  0.56777149527E+02  0.60945401855E+02  0.00000000000E+00 0.  1.
        -13    1    3    3    0    0 -0.35943434136E+02 -0.74159347065E+02  0.98770861997E+03  0.99114068486E+03  0.00000000000E+00 0. -1.
          4    1    6    6  502    0  0.13580786820E+03 -0.16976182680E+03  0.35650421024E+03  0.41756209936E+03  0.00000000000E+00 0. -1.
          1    1    5    5  503    0 -0.14287896708E+03  0.23658725861E+03  0.43420871209E+03  0.51470878739E+03  0.00000000000E+00 0. -1.
         -2    1    5    5    0  503 -0.58861910317E+02  0.16891143215E+03  0.38841582417E+03  0.42762442500E+03  0.00000000000E+00 0.  1.
         -3    1    6    6    0  502  0.12297263715E+03 -0.16833384022E+03  0.21038538324E+03  0.29617657019E+03  0.00000000000E+00 0.  1.
<mgrwt>
<rscale>  0 0.11873349E+04</rscale>
<asrwt>0</asrwt>
<pdfrwt beam="1">  1        2 0.39555057E+00 0.11873349E+04</pdfrwt>
<pdfrwt beam="2">  1       -2 0.21089084E-01 0.11873349E+04</pdfrwt>
<totfact> 0.61296487E+01</totfact>
</mgrwt>
</event>
<event>
12    1  0.1541840E-007  0.1395474E+04  0.7818608E-02  0.8957101E-01
         -2   -1    0    0    0  501 -0.00000000000E+00  0.00000000000E+00  0.36200047387E+03  0.36200047387E+03  0.00000000000E+00 0.  1.
          2   -1    0    0  501    0  0.00000000000E+00 -0.00000000000E+00 -0.13448511204E+04  0.13448511204E+04  0.00000000000E+00 0. -1.
         23    2    1    2    0    0  0.14194141511E+03 -0.28200448066E+03 -0.58401068640E+03  0.67025859834E+03  0.92218297447E+02 0.  0.
        254    2    1    2    0    0 -0.14194141511E+03  0.28200448066E+03 -0.39883996014E+03  0.10365929959E+04  0.90320420337E+03 0.  0.
        -24    2    4    4    0    0 -0.14436258585E+03  0.30635565105E+03  0.22016590705E+03  0.41181651628E+03  0.80159062656E+02 0.  0.
         24    2    4    4    0    0  0.24211707316E+01 -0.24351170387E+02 -0.61900586719E+03  0.62477647966E+03  0.81108226165E+02 0.  0.
         13    1    3    3    0    0  0.51020323136E+02 -0.72688183087E+02 -0.25358204339E+03  0.26868289499E+03  0.00000000000E+00 0. -1.
        -13    1    3    3    0    0  0.90921091978E+02 -0.20931629758E+03 -0.33042864301E+03  0.40157570335E+03  0.00000000000E+00 0.  1.
          2    1    6    6  502    0  0.28809636343E+01 -0.50360417145E+02 -0.26119376856E+03  0.26602002989E+03  0.00000000000E+00 0. -1.
          3    1    5    5  503    0 -0.14723560181E+03  0.25878486655E+03  0.20615090317E+03  0.36214102843E+03  0.00000000000E+00 0. -1.
         -4    1    5    5    0  503  0.28730159618E+01  0.47570784505E+02  0.14015003885E+02  0.49675487849E+02  0.00000000000E+00 0.  1.
         -1    1    6    6    0  502 -0.45979290272E+00  0.26009246758E+02 -0.35781209864E+03  0.35875644978E+03  0.00000000000E+00 0.  1.
<mgrwt>
<rscale>  0 0.13954737E+04</rscale>
<asrwt>0</asrwt>
<pdfrwt beam="1">  1        2 0.20690017E+00 0.13954737E+04</pdfrwt>
<pdfrwt beam="2">  1       -2 0.55692381E-01 0.13954737E+04</pdfrwt>
<totfact> 0.45905374E+01</totfact>
</mgrwt>
</event>
<event>
12    1  0.1541840E-007  0.1337706E+04  0.7818608E-02  0.9000187E-01
         -2   -1    0    0    0  501 -0.00000000000E+00  0.00000000000E+00  0.42665386256E+03  0.42665386256E+03  0.00000000000E+00 0.  1.
          2   -1    0    0  501    0  0.00000000000E+00 -0.00000000000E+00 -0.10485422310E+04  0.10485422310E+04  0.00000000000E+00 0. -1.
         23    2    1    2    0    0 -0.24181309695E+03  0.21305934377E+03  0.27631857943E+02  0.33620150160E+03  0.91651908214E+02 0.  0.
        254    2    1    2    0    0  0.24181309695E+03 -0.21305934377E+03 -0.64952022635E+03  0.11389945919E+04  0.87838732812E+03 0.  0.
        -24    2    4    4    0    0  0.24817290696E+03  0.22781945784E+03  0.51212264272E+01  0.34579358256E+03  0.77816949719E+02 0.  0.
         24    2    4    4    0    0 -0.63598100155E+01 -0.44087880161E+03 -0.65464145278E+03  0.79320100938E+03  0.78726391275E+02 0.  0.
         13    1    3    3    0    0 -0.15530643379E+03  0.11214714701E+03 -0.25110403622E+02  0.19320352825E+03  0.00000000000E+00 0. -1.
        -13    1    3    3    0    0 -0.86506663159E+02  0.10091219677E+03  0.52742261565E+02  0.14299797335E+03  0.00000000000E+00 0.  1.
          4    1    6    6  502    0 -0.18402742914E+02 -0.41623554595E+03 -0.63492615783E+03  0.75942209380E+03  0.00000000000E+00 0. -1.
          3    1    5    5  503    0  0.78917038180E+02  0.93029001360E+02  0.36087747293E+02  0.12721878601E+03  0.00000000000E+00 0. -1.
         -4    1    5    5    0  503  0.16925586878E+03  0.13479045648E+03 -0.30966520866E+02  0.21857479655E+03  0.00000000000E+00 0.  1.
         -3    1    6    6    0  502  0.12042932899E+02 -0.24643255663E+02 -0.19715294956E+02  0.33778915579E+02  0.00000000000E+00 0.  1.
<mgrwt>
<rscale>  0 0.13377064E+04</rscale>
<asrwt>0</asrwt>
<pdfrwt beam="1">  1        2 0.16131419E+00 0.13377064E+04</pdfrwt>
<pdfrwt beam="2">  1       -2 0.65639056E-01 0.13377064E+04</pdfrwt>
<totfact> 0.49029568E+01</totfact>
</mgrwt>
</event>
<event>
12    1  0.1541840E-007  0.1681641E+04  0.7818608E-02  0.8771905E-01
          2   -1    0    0  501    0  0.00000000000E+00  0.00000000000E+00  0.18889446489E+04  0.18889446489E+04  0.00000000000E+00 0.  1.
         -2   -1    0    0    0  501 -0.00000000000E+00 -0.00000000000E+00 -0.37427197461E+03  0.37427197461E+03  0.00000000000E+00 0. -1.
         23    2    1    2    0    0  0.50316263906E+03  0.24005473777E+03  0.81794596479E+03  0.99402435993E+03  0.90829006094E+02 0.  0.
        254    2    1    2    0    0 -0.50316263906E+03 -0.24005473777E+03  0.69672670950E+03  0.12691922636E+04  0.90256411170E+03 0.  0.
        -24    2    4    4    0    0  0.23436626595E+02  0.11264423872E+03 -0.15205378794E+03  0.20689707098E+03  0.80299710899E+02 0.  0.
         24    2    4    4    0    0 -0.52659926566E+03 -0.35269897649E+03  0.84878049744E+03  0.10622951926E+04  0.79620278753E+02 0.  0.
         13    1    3    3    0    0  0.39910751715E+03  0.21751840873E+03  0.61369384367E+03  0.76368920521E+03  0.00000000000E+00 0. -1.
        -13    1    3    3    0    0  0.10405512191E+03  0.22536329038E+02  0.20425212112E+03  0.23033515473E+03  0.00000000000E+00 0.  1.
          4    1    6    6  502    0 -0.11104104732E+03 -0.86928453326E+02  0.13959064072E+03  0.19842433612E+03  0.00000000000E+00 0. -1.
          3    1    5    5  503    0 -0.93680251036E+01  0.94738363800E+02 -0.74774792856E+02  0.12105530602E+03  0.00000000000E+00 0. -1.
         -4    1    5    5    0  503  0.32804651699E+02  0.17905874919E+02 -0.77278995082E+02  0.85841764955E+02  0.00000000000E+00 0.  1.
         -3    1    6    6    0  502 -0.41555821834E+03 -0.26577052316E+03  0.70918985672E+03  0.86387085649E+03  0.00000000000E+00 0.  1.
<mgrwt>
<rscale>  0 0.16816409E+04</rscale>
<asrwt>0</asrwt>
<pdfrwt beam="1">  1        2 0.29060686E+00 0.16816409E+04</pdfrwt>
<pdfrwt beam="2">  1       -2 0.57580305E-01 0.16816409E+04</pdfrwt>
<totfact> 0.20730323E+01</totfact>
</mgrwt>
</event>
<event>
12    1  0.1541840E-007  0.2082036E+04  0.7818608E-02  0.8569198E-01
         -1   -1    0    0    0  501 -0.00000000000E+00  0.00000000000E+00  0.77760110045E+03  0.77760110045E+03  0.00000000000E+00 0.  1.
          1   -1    0    0  501    0  0.00000000000E+00 -0.00000000000E+00 -0.13936684101E+04  0.13936684101E+04  0.00000000000E+00 0. -1.
         23    2    1    2    0    0  0.68933647880E+03 -0.30900565799E+03  0.13367405591E+03  0.77290722235E+03  0.94061381376E+02 0.  0.
        254    2    1    2    0    0 -0.68933647880E+03  0.30900565799E+03 -0.74974136560E+03  0.13983622882E+04  0.90699266601E+03 0.  0.
        -24    2    4    4    0    0  0.98773037047E+02  0.26839389950E+03 -0.47327719746E+03  0.55869333520E+03  0.79721634605E+02 0.  0.
         24    2    4    4    0    0 -0.78810951584E+03  0.40611758491E+02 -0.27646416814E+03  0.83966895304E+03  0.76456461716E+02 0.  0.
         13    1    3    3    0    0  0.20563898005E+03 -0.12622592548E+03  0.74077539317E+02  0.25240415252E+03  0.00000000000E+00 0. -1.
        -13    1    3    3    0    0  0.48369749874E+03 -0.18277973251E+03  0.59596516597E+02  0.52050306983E+03  0.00000000000E+00 0.  1.
          4    1    6    6  502    0 -0.24917578562E+03 -0.64445412436E+01 -0.55905999172E+02  0.25545172733E+03  0.00000000000E+00 0. -1.
          3    1    5    5  503    0  0.50971244125E+02  0.22895260809E+03 -0.38529328187E+03  0.45107458090E+03  0.00000000000E+00 0. -1.
         -4    1    5    5    0  503  0.47801792922E+02  0.39441291408E+02 -0.87983915598E+02  0.10761875431E+03  0.00000000000E+00 0.  1.
         -1    1    6    6    0  502 -0.53893373022E+03  0.47056299735E+02 -0.22055816896E+03  0.58421722571E+03  0.00000000000E+00 0.  1.
<mgrwt>
<rscale>  0 0.20820356E+04</rscale>
<asrwt>0</asrwt>
<pdfrwt beam="1">  1        1 0.21441052E+00 0.20820356E+04</pdfrwt>
<pdfrwt beam="2">  1       -1 0.11963094E+00 0.20820356E+04</pdfrwt>
<totfact> 0.44599695E+00</totfact>
</mgrwt>
</event>
<event>
12    1  0.1541840E-007  0.1549207E+04  0.7818608E-02  0.8852374E-01
         -2   -1    0    0    0  501 -0.00000000000E+00  0.00000000000E+00  0.24569361495E+03  0.24569361495E+03  0.00000000000E+00 0.  1.
          2   -1    0    0  501    0  0.00000000000E+00 -0.00000000000E+00 -0.24421099158E+04  0.24421099158E+04  0.00000000000E+00 0. -1.
         23    2    1    2    0    0  0.32742362610E+03 -0.10681055126E+03 -0.83316125955E+02  0.36572470634E+03  0.90544238887E+02 0.  0.
        254    2    1    2    0    0 -0.32742362610E+03  0.10681055126E+03 -0.21131001749E+04  0.23220788244E+04  0.89902335499E+03 0.  0.
        -24    2    4    4    0    0 -0.46936605537E+03  0.40245158847E+03 -0.13237725718E+04  0.14632240287E+04  0.79868400188E+02 0.  0.
         24    2    4    4    0    0  0.14194242927E+03 -0.29564103721E+03 -0.78932760313E+03  0.85885479573E+03  0.83917929942E+02 0.  0.
         11    1    3    3    0    0  0.25114400054E+03 -0.10607750125E+03 -0.94679190332E+02  0.28859988628E+03  0.00000000000E+00 0. -1.
        -11    1    3    3    0    0  0.76279625559E+02 -0.73305001560E+00  0.11363064377E+02  0.77124820063E+02  0.00000000000E+00 0.  1.
          2    1    6    6  502    0  0.95696299631E+02 -0.23657465703E+03 -0.51955231056E+03  0.57884363477E+03  0.00000000000E+00 0. -1.
          3    1    5    5  503    0 -0.12933285873E+03  0.15164597321E+03 -0.37677961268E+03  0.42624683703E+03  0.00000000000E+00 0. -1.
         -4    1    5    5    0  503 -0.34003319664E+03  0.25080561526E+03 -0.94699295908E+03  0.10369771917E+04  0.00000000000E+00 0.  1.
         -1    1    6    6    0  502  0.46246129639E+02 -0.59066380179E+02 -0.26977529258E+03  0.28001116095E+03  0.00000000000E+00 0.  1.
<mgrwt>
<rscale>  0 0.15492073E+04</rscale>
<asrwt>0</asrwt>
<pdfrwt beam="1">  1        2 0.37570921E+00 0.15492073E+04</pdfrwt>
<pdfrwt beam="2">  1       -2 0.37799019E-01 0.15492073E+04</pdfrwt>
<totfact> 0.23955376E+01</totfact>
</mgrwt>
</event>
<event>
12    1  0.1541840E-007  0.1330360E+04  0.7818608E-02  0.9005830E-01
         -2   -1    0    0    0  501 -0.00000000000E+00  0.00000000000E+00  0.23130017749E+03  0.23130017749E+03  0.00000000000E+00 0.  1.
          2   -1    0    0  501    0  0.00000000000E+00 -0.00000000000E+00 -0.19129445152E+04  0.19129445152E+04  0.00000000000E+00 0. -1.
         23    2    1    2    0    0 -0.26184644896E+03  0.15943880680E+03 -0.77120352728E+03  0.83472654159E+03  0.89605930612E+02 0.  0.
        254    2    1    2    0    0  0.26184644896E+03 -0.15943880680E+03 -0.91044081039E+03  0.13095181510E+04  0.88991630099E+03 0.  0.
        -24    2    4    4    0    0  0.55813357999E+03 -0.11432738519E+03 -0.78840713806E+03  0.97593918258E+03  0.79294568763E+02 0.  0.
         24    2    4    4    0    0 -0.29628713104E+03 -0.45111421614E+02 -0.12203367233E+03  0.33357896847E+03  0.81003744623E+02 0.  0.
         13    1    3    3    0    0 -0.56332032003E+02  0.15365469749E+02 -0.24312604210E+03  0.25003933258E+03  0.00000000000E+00 0. -1.
        -13    1    3    3    0    0 -0.20551441695E+03  0.14407333705E+03 -0.52807748518E+03  0.58468720901E+03  0.00000000000E+00 0.  1.
          4    1    6    6  502    0  0.31093183035E+01  0.49159445839E+01  0.12531628169E+01  0.59501923086E+01  0.00000000000E+00 0. -1.
          1    1    5    5  503    0  0.12668602959E+03 -0.60593540676E+02 -0.19129663763E+03  0.23730851404E+03  0.00000000000E+00 0. -1.
         -2    1    5    5    0  503  0.43144755040E+03 -0.53733844513E+02 -0.59711050043E+03  0.73863066854E+03  0.00000000000E+00 0.  1.
         -3    1    6    6    0  502 -0.29939644934E+03 -0.50027366198E+02 -0.12328683514E+03  0.32762877616E+03  0.00000000000E+00 0.  1.
<mgrwt>
<rscale>  0 0.13303600E+04</rscale>
<asrwt>0</asrwt>
<pdfrwt beam="1">  1        2 0.29429915E+00 0.13303600E+04</pdfrwt>
<pdfrwt beam="2">  1       -2 0.35584644E-01 0.13303600E+04</pdfrwt>
<totfact> 0.54238165E+01</totfact>
</mgrwt>
</event>
<event>
12    1  0.1541840E-007  0.1802362E+04  0.7818608E-02  0.8705044E-01
         -2   -1    0    0    0  501 -0.00000000000E+00  0.00000000000E+00  0.23713121193E+03  0.23713121193E+03  0.00000000000E+00 0.  1.
          2   -1    0    0  501    0  0.00000000000E+00 -0.00000000000E+00 -0.34248019170E+04  0.34248019170E+04  0.00000000000E+00 0. -1.
         23    2    1    2    0    0 -0.10644620241E+03 -0.37071536677E+03 -0.67195858557E+02  0.40286018701E+03  0.94975626887E+02 0.  0.
        254    2    1    2    0    0  0.10644620241E+03  0.37071536677E+03 -0.31204748465E+04  0.32590729419E+04  0.85757360957E+03 0.  0.
        -24    2    4    4    0    0 -0.26161064110E+03  0.46111286454E+03 -0.14999495018E+04  0.15929951016E+04  0.81973681167E+02 0.  0.
         24    2    4    4    0    0  0.36805684351E+03 -0.90397497771E+02 -0.16205253448E+04  0.16660778404E+04  0.77945041230E+02 0.  0.
         13    1    3    3    0    0 -0.11338509660E+03 -0.29105310958E+03 -0.27448804338E+02  0.31356264061E+03  0.00000000000E+00 0.  1.
        -13    1    3    3    0    0  0.69388941966E+01 -0.79662257197E+02 -0.39747054219E+02  0.89297546403E+02  0.00000000000E+00 0. -1.
          2    1    6    6  502    0  0.21132451289E+03 -0.81895148769E+02 -0.84769505891E+03  0.87746896129E+03  0.00000000000E+00 0. -1.
          3    1    5    5  503    0 -0.74211906957E+02  0.20038401566E+03 -0.66205293437E+03  0.69568329632E+03  0.00000000000E+00 0. -1.
         -4    1    5    5    0  503 -0.18739873414E+03  0.26072884888E+03 -0.83789656739E+03  0.89731180525E+03  0.00000000000E+00 0.  1.
         -1    1    6    6    0  502  0.15673233062E+03 -0.85023490018E+01 -0.77283028587E+03  0.78860887908E+03  0.00000000000E+00 0.  1.
<mgrwt>
<rscale>  0 0.18023623E+04</rscale>
<asrwt>0</asrwt>
<pdfrwt beam="1">  1        2 0.52689253E+00 0.18023623E+04</pdfrwt>
<pdfrwt beam="2">  1       -2 0.36481730E-01 0.18023623E+04</pdfrwt>
<totfact> 0.61671036E+00</totfact>
</mgrwt>
</event>
<event>
12    1  0.1541840E-007  0.1283377E+04  0.7818608E-02  0.9042853E-01
         -1   -1    0    0    0  501 -0.00000000000E+00  0.00000000000E+00  0.42517630104E+03  0.42517630104E+03  0.00000000000E+00 0.  1.
          1   -1    0    0  501    0  0.00000000000E+00 -0.00000000000E+00 -0.96845438182E+03  0.96845438182E+03  0.00000000000E+00 0. -1.
         23    2    1    2    0    0  0.24551404104E+03  0.16587586399E+03 -0.21345928046E+02  0.31042575390E+03  0.90091916587E+02 0.  0.
        254    2    1    2    0    0 -0.24551404104E+03 -0.16587586399E+03 -0.52193215274E+03  0.10832049290E+04  0.90173599212E+03 0.  0.
        -24    2    4    4    0    0  0.71220634868E+02 -0.46739533534E+03 -0.14511530321E+03  0.50066335991E+03  0.77939530396E+02 0.  0.
         24    2    4    4    0    0 -0.31673467591E+03  0.30151947135E+03 -0.37681684953E+03  0.58254156907E+03  0.78287259988E+02 0.  0.
         13    1    3    3    0    0  0.91716831266E+02  0.49395342974E+02 -0.49707455848E+02  0.11542403654E+03  0.00000000000E+00 0. -1.
        -13    1    3    3    0    0  0.15379720977E+03  0.11648052102E+03  0.28361527803E+02  0.19500171735E+03  0.00000000000E+00 0.  1.
          2    1    6    6  502    0 -0.15353053577E+03  0.13467696126E+03 -0.22626852077E+03  0.30480641857E+03  0.00000000000E+00 0. -1.
          1    1    5    5  503    0 -0.53996608714E+01 -0.31843127703E+02  0.68983279553E+01  0.33026172167E+02  0.00000000000E+00 0. -1.
         -2    1    5    5    0  503  0.76620295740E+02 -0.43555220764E+03 -0.15201363116E+03  0.46763718774E+03  0.00000000000E+00 0.  1.
         -1    1    6    6    0  502 -0.16320414014E+03  0.16684251008E+03 -0.15054832875E+03  0.27773515049E+03  0.00000000000E+00 0.  1.
<mgrwt>
<rscale>  0 0.12833766E+04</rscale>
<asrwt>0</asrwt>
<pdfrwt beam="1">  1        1 0.14899298E+00 0.12833766E+04</pdfrwt>
<pdfrwt beam="2">  1       -1 0.65411739E-01 0.12833766E+04</pdfrwt>
<totfact> 0.37349083E+01</totfact>
</mgrwt>
</event>
<event>
12    1  0.1541840E-007  0.1329512E+04  0.7818608E-02  0.9006484E-01
          1   -1    0    0  501    0  0.00000000000E+00  0.00000000000E+00  0.89948562175E+03  0.89948562175E+03  0.00000000000E+00 0. -1.
         -1   -1    0    0    0  501 -0.00000000000E+00 -0.00000000000E+00 -0.49128151033E+03  0.49128151033E+03  0.00000000000E+00 0.  1.
         23    2    1    2    0    0 -0.22805490525E+03  0.11300422276E+03 -0.67377532804E+02  0.27865506962E+03  0.91268404889E+02 0.  0.
        254    2    1    2    0    0  0.22805490525E+03 -0.11300422276E+03  0.47558164423E+03  0.11121120625E+04  0.97254117906E+03 0.  0.
        -24    2    4    4    0    0 -0.33412186824E+03 -0.23935651870E+03  0.15328975373E+03  0.44776810291E+03  0.89830726945E+02 0.  0.
         24    2    4    4    0    0  0.56217677348E+03  0.12635229594E+03  0.32229189050E+03  0.66434395955E+03  0.73981123107E+02 0.  0.
         13    1    3    3    0    0 -0.20446968613E+03  0.80743106011E+02 -0.26395415210E+02  0.22141368444E+03  0.00000000000E+00 0.  1.
        -13    1    3    3    0    0 -0.23585219115E+02  0.32261116749E+02 -0.40982117595E+02  0.57241385178E+02  0.00000000000E+00 0. -1.
          4    1    6    6  502    0  0.42977444003E+03  0.10398358720E+03  0.21099073979E+03  0.48993443234E+03  0.00000000000E+00 0. -1.
          3    1    5    5  503    0 -0.31725233554E+03 -0.22532791719E+03  0.11874379585E+03  0.40684370921E+03  0.00000000000E+00 0. -1.
         -4    1    5    5    0  503 -0.16869532699E+02 -0.14028601504E+02  0.34545957875E+02  0.40924393693E+02  0.00000000000E+00 0.  1.
         -3    1    6    6    0  502  0.13240233345E+03  0.22368708741E+02  0.11130115071E+03  0.17440952722E+03  0.00000000000E+00 0.  1.
<mgrwt>
<rscale>  0 0.13295122E+04</rscale>
<asrwt>0</asrwt>
<pdfrwt beam="1">  1        1 0.13838240E+00 0.13295122E+04</pdfrwt>
<pdfrwt beam="2">  1       -1 0.75581771E-01 0.13295122E+04</pdfrwt>
<totfact> 0.31421641E+01</totfact>
</mgrwt>
</event>
<event>
12    1  0.1541840E-007  0.1943679E+04  0.7818608E-02  0.8633415E-01
         -1   -1    0    0    0  501 -0.00000000000E+00  0.00000000000E+00  0.39192323967E+03  0.39192323967E+03  0.00000000000E+00 0.  1.
          1   -1    0    0  501    0  0.00000000000E+00 -0.00000000000E+00 -0.24098402770E+04  0.24098402770E+04  0.00000000000E+00 0. -1.
         23    2    1    2    0    0  0.50518643838E+03 -0.41885655396E+03 -0.13334493550E+04  0.14905712698E+04  0.11428638409E+03 0.  0.
        254    2    1    2    0    0 -0.50518643838E+03  0.41885655396E+03 -0.68446768227E+03  0.13111922468E+04  0.90557989698E+03 0.  0.
        -24    2    4    4    0    0 -0.13167802551E+03 -0.25010131566E+03 -0.21068970888E+02  0.29437516320E+03  0.79517700429E+02 0.  0.
         24    2    4    4    0    0 -0.37350841287E+03  0.66895786961E+03 -0.66339871138E+03  0.10168170836E+04  0.82498275902E+02 0.  0.
         11    1    3    3    0    0  0.24152218053E+02 -0.50824354239E+02 -0.73164509487E+02  0.92301083792E+02  0.00000000000E+00 0.  1.
        -11    1    3    3    0    0  0.48103422032E+03 -0.36803219972E+03 -0.12602848455E+04  0.13982701860E+04  0.00000000000E+00 0. -1.
          2    1    6    6  502    0 -0.30127523292E+03  0.46360207331E+03 -0.47347274834E+03  0.72792176211E+03  0.00000000000E+00 0. -1.
          1    1    5    5  503    0 -0.16364767523E+02 -0.79195295280E+02  0.21886820736E+02  0.83777880926E+02  0.00000000000E+00 0. -1.
         -4    1    5    5    0  503 -0.11531325799E+03 -0.17090602038E+03 -0.42955791624E+02  0.21059728228E+03  0.00000000000E+00 0.  1.
         -1    1    6    6    0  502 -0.72233179949E+02  0.20535579631E+03 -0.18992596305E+03  0.28889532153E+03  0.00000000000E+00 0.  1.
<mgrwt>
<rscale>  0 0.19436794E+04</rscale>
<asrwt>0</asrwt>
<pdfrwt beam="1">  1        1 0.37074465E+00 0.19436794E+04</pdfrwt>
<pdfrwt beam="2">  1       -1 0.60295885E-01 0.19436794E+04</pdfrwt>
<totfact> 0.40682451E+00</totfact>
</mgrwt>
</event>
<event>
12    1  0.1541840E-007  0.1176752E+04  0.7818608E-02  0.9133452E-01
          1   -1    0    0  501    0  0.00000000000E+00  0.00000000000E+00  0.64746237213E+03  0.64746237213E+03  0.00000000000E+00 0. -1.
         -1   -1    0    0    0  501 -0.00000000000E+00 -0.00000000000E+00 -0.53468165570E+03  0.53468165570E+03  0.00000000000E+00 0.  1.
         23    2    1    2    0    0 -0.14423979628E+03 -0.72990968829E+02 -0.14320727200E+03  0.23445106400E+03  0.91247894752E+02 0.  0.
        254    2    1    2    0    0  0.14423979628E+03  0.72990968829E+02  0.25598798843E+03  0.94769296383E+03  0.89803079185E+03 0.  0.
        -24    2    4    4    0    0  0.23174420738E+03 -0.32598134884E+03  0.33046847099E+03  0.52497009149E+03  0.80093502842E+02 0.  0.
         24    2    4    4    0    0 -0.87504411105E+02  0.39897231766E+03 -0.74480482554E+02  0.42272287234E+03  0.79444019878E+02 0.  0.
         13    1    3    3    0    0 -0.37413853487E+02 -0.68672596784E+01  0.69485223312E+01  0.38668302921E+02  0.00000000000E+00 0. -1.
        -13    1    3    3    0    0 -0.10682594279E+03 -0.66123709150E+02 -0.15015579433E+03  0.19578276108E+03  0.00000000000E+00 0.  1.
          2    1    6    6  502    0 -0.73818138454E+02  0.21687456110E+03 -0.10874527221E+02  0.22935114597E+03  0.00000000000E+00 0. -1.
          1    1    5    5  503    0  0.20315086462E+03 -0.25021839833E+03  0.23012464188E+03  0.39602635198E+03  0.00000000000E+00 0. -1.
         -2    1    5    5    0  503  0.28593342758E+02 -0.75762950508E+02  0.10034382911E+03  0.12894373951E+03  0.00000000000E+00 0.  1.
         -1    1    6    6    0  502 -0.13686272651E+02  0.18209775656E+03 -0.63605955333E+02  0.19337172637E+03  0.00000000000E+00 0.  1.
<mgrwt>
<rscale>  0 0.11767519E+04</rscale>
<asrwt>0</asrwt>
<pdfrwt beam="1">  1        1 0.99609596E-01 0.11767519E+04</pdfrwt>
<pdfrwt beam="2">  1       -1 0.82258716E-01 0.11767519E+04</pdfrwt>
<totfact> 0.44653320E+01</totfact>
</mgrwt>
</event>
<event>
12    1  0.1541840E-007  0.2554961E+04  0.7818608E-02  0.8383663E-01
         -2   -1    0    0    0  501 -0.00000000000E+00  0.00000000000E+00  0.12666971883E+04  0.12666971883E+04  0.00000000000E+00 0.  1.
          2   -1    0    0  501    0  0.00000000000E+00 -0.00000000000E+00 -0.12883554496E+04  0.12883554496E+04  0.00000000000E+00 0. -1.
         23    2    1    2    0    0  0.45871122097E+03 -0.51456160759E+03 -0.88191851532E+03  0.11230413211E+04  0.90840018371E+02 0.  0.
        254    2    1    2    0    0 -0.45871122097E+03  0.51456160759E+03  0.86026025401E+03  0.14320113167E+04  0.91401262267E+03 0.  0.
        -24    2    4    4    0    0 -0.64226573254E+03  0.24486224525E+03  0.25049576418E+03  0.73584893473E+03  0.79137453331E+02 0.  0.
         24    2    4    4    0    0  0.18355451157E+03  0.26969936234E+03  0.60976448983E+03  0.69616238202E+03  0.79995776789E+02 0.  0.
         11    1    3    3    0    0  0.44998259559E+03 -0.51563903009E+03 -0.87848615366E+03  0.11136004076E+04  0.00000000000E+00 0. -1.
        -11    1    3    3    0    0  0.87286253814E+01  0.10774224979E+01 -0.34323616523E+01  0.94409134516E+01  0.00000000000E+00 0.  1.
          2    1    6    6  502    0  0.16603417909E+02  0.66071927937E+02  0.84076972026E+02  0.10821326339E+03  0.00000000000E+00 0. -1.
          3    1    5    5  503    0 -0.20893967787E+03  0.87951154453E+02  0.12185561496E+03  0.25737129882E+03  0.00000000000E+00 0. -1.
         -4    1    5    5    0  503 -0.43332605468E+03  0.15691109079E+03  0.12864014922E+03  0.47847763591E+03  0.00000000000E+00 0.  1.
         -1    1    6    6    0  502  0.16695109366E+03  0.20362743441E+03  0.52568751781E+03  0.58794911863E+03  0.00000000000E+00 0.  1.
<mgrwt>
<rscale>  0 0.25549608E+04</rscale>
<asrwt>0</asrwt>
<pdfrwt beam="1">  1        2 0.19820853E+00 0.25549608E+04</pdfrwt>
<pdfrwt beam="2">  1       -2 0.19487649E+00 0.25549608E+04</pdfrwt>
<totfact> 0.21438956E+00</totfact>
</mgrwt>
</event>
<event>
12    1  0.1541840E-007  0.1555035E+04  0.7818608E-02  0.8848658E-01
          1   -1    0    0  501    0  0.00000000000E+00  0.00000000000E+00  0.82420912616E+03  0.82420912616E+03  0.00000000000E+00 0. -1.
         -1   -1    0    0    0  501 -0.00000000000E+00 -0.00000000000E+00 -0.73347123911E+03  0.73347123911E+03  0.00000000000E+00 0.  1.
         23    2    1    2    0    0  0.37604592338E+03  0.26732055981E+03  0.25593590740E+03  0.53570136951E+03  0.92746700268E+02 0.  0.
        254    2    1    2    0    0 -0.37604592338E+03 -0.26732055981E+03 -0.16519802035E+03  0.10219789957E+04  0.89681651614E+03 0.  0.
        -24    2    4    4    0    0 -0.66387849719E+03 -0.13956012300E+03 -0.11981476624E+03  0.69381289047E+03  0.82517039495E+02 0.  0.
         24    2    4    4    0    0  0.28783257381E+03 -0.12776043681E+03 -0.45383254117E+02  0.32816610528E+03  0.80392991858E+02 0.  0.
         13    1    3    3    0    0  0.17763351307E+03  0.13934949950E+03  0.73848901123E+02  0.23754075055E+03  0.00000000000E+00 0. -1.
        -13    1    3    3    0    0  0.19841241031E+03  0.12797106032E+03  0.18208700628E+03  0.29816061896E+03  0.00000000000E+00 0.  1.
          4    1    6    6  502    0 -0.51314699125E+01 -0.26287328813E+01  0.19797580149E+01  0.60960365666E+01  0.00000000000E+00 0. -1.
          3    1    5    5  503    0 -0.55733607534E+02  0.32806037961E+01 -0.27830447107E+02  0.62382138118E+02  0.00000000000E+00 0. -1.
         -4    1    5    5    0  503 -0.60814488966E+03 -0.14284072680E+03 -0.91984319130E+02  0.63143075235E+03  0.00000000000E+00 0.  1.
         -3    1    6    6    0  502  0.29296404372E+03 -0.12513170393E+03 -0.47363012132E+02  0.32207006871E+03  0.00000000000E+00 0.  1.
<mgrwt>
<rscale>  0 0.15550353E+04</rscale>
<asrwt>0</asrwt>
<pdfrwt beam="1">  1        1 0.12680140E+00 0.15550353E+04</pdfrwt>
<pdfrwt beam="2">  1       -1 0.11284173E+00 0.15550353E+04</pdfrwt>
<totfact> 0.14577419E+01</totfact>
</mgrwt>
</event>
<event>
12    1  0.1541840E-007  0.1279241E+04  0.7818608E-02  0.9046191E-01
          2   -1    0    0  501    0  0.00000000000E+00  0.00000000000E+00  0.73966353959E+03  0.73966353959E+03  0.00000000000E+00 0. -1.
         -2   -1    0    0    0  501 -0.00000000000E+00 -0.00000000000E+00 -0.55310839114E+03  0.55310839114E+03  0.00000000000E+00 0.  1.
         23    2    1    2    0    0  0.99287953962E+02 -0.39560081324E+02  0.32541098624E+03  0.35508302029E+03  0.93640501363E+02 0.  0.
        254    2    1    2    0    0 -0.99287953962E+02  0.39560081324E+02 -0.13885583778E+03  0.93768891045E+03  0.92117123883E+03 0.  0.
        -24    2    4    4    0    0 -0.16501251492E+03  0.44102035052E+03  0.52209454639E+02  0.48054568319E+03  0.80437844467E+02 0.  0.
         24    2    4    4    0    0  0.65724560954E+02 -0.40146026920E+03 -0.19106529242E+03  0.45714322726E+03  0.83569842639E+02 0.  0.
         11    1    3    3    0    0  0.69735684486E+02 -0.54731425474E+02  0.13306940244E+03  0.15989390386E+03  0.00000000000E+00 0.  1.
        -11    1    3    3    0    0  0.29552269477E+02  0.15171344149E+02  0.19234158380E+03  0.19518911643E+03  0.00000000000E+00 0. -1.
          2    1    6    6  502    0  0.72567347275E+02 -0.33056610699E+03 -0.18490147898E+03  0.38565337793E+03  0.00000000000E+00 0. -1.
          1    1    5    5  503    0 -0.10006500113E+03  0.32956125825E+03  0.66421142911E+02  0.35076401699E+03  0.00000000000E+00 0. -1.
         -2    1    5    5    0  503 -0.64947513785E+02  0.11145909228E+03 -0.14211688272E+02  0.12978166620E+03  0.00000000000E+00 0.  1.
         -1    1    6    6    0  502 -0.68427863211E+01 -0.70894162211E+02 -0.61638134403E+01  0.71489849324E+02  0.00000000000E+00 0.  1.
<mgrwt>
<rscale>  0 0.12792406E+04</rscale>
<asrwt>0</asrwt>
<pdfrwt beam="1">  1        2 0.11379439E+00 0.12792406E+04</pdfrwt>
<pdfrwt beam="2">  1       -2 0.85093599E-01 0.12792406E+04</pdfrwt>
<totfact> 0.45062339E+01</totfact>
</mgrwt>
</event>
<event>
12    1  0.1541840E-007  0.2006979E+04  0.7818608E-02  0.8603365E-01
          2   -1    0    0  501    0  0.00000000000E+00  0.00000000000E+00  0.22343678451E+04  0.22343678451E+04  0.00000000000E+00 0. -1.
         -2   -1    0    0    0  501 -0.00000000000E+00 -0.00000000000E+00 -0.45068289577E+03  0.45068289577E+03  0.00000000000E+00 0.  1.
         23    2    1    2    0    0 -0.47476965971E+03 -0.29778013650E+03 -0.47258673130E+02  0.56998670882E+03  0.92586319545E+02 0.  0.
        254    2    1    2    0    0  0.47476965971E+03  0.29778013650E+03  0.18309436225E+04  0.21150640320E+04  0.89836633483E+03 0.  0.
        -24    2    4    4    0    0 -0.21541937774E+03 -0.95931946349E+02  0.31474800939E+03  0.40132361017E+03  0.79911726484E+02 0.  0.
         24    2    4    4    0    0  0.69018903746E+03  0.39371208285E+03  0.15161956131E+04  0.17137404219E+04  0.81773986483E+02 0.  0.
         13    1    3    3    0    0 -0.14415743237E+02  0.52706642444E+01  0.55307543112E+01  0.16315109497E+02  0.00000000000E+00 0. -1.
        -13    1    3    3    0    0 -0.46035391648E+03 -0.30305080075E+03 -0.52789427441E+02  0.55367159932E+03  0.00000000000E+00 0.  1.
          2    1    6    6  502    0  0.46392093635E+03  0.23134539947E+03  0.10413480410E+04  0.11632493592E+04  0.00000000000E+00 0. -1.
          3    1    5    5  503    0 -0.15018985788E+03 -0.72197476877E+02  0.15687708261E+03  0.22886652906E+03  0.00000000000E+00 0. -1.
         -4    1    5    5    0  503 -0.65229519864E+02 -0.23734469471E+02  0.15787092678E+03  0.17245708111E+03  0.00000000000E+00 0.  1.
         -1    1    6    6    0  502  0.22626810110E+03  0.16236668338E+03  0.47484757203E+03  0.55049106270E+03  0.00000000000E+00 0.  1.
<mgrwt>
<rscale>  0 0.20069792E+04</rscale>
<asrwt>0</asrwt>
<pdfrwt beam="1">  1        2 0.34374889E+00 0.20069792E+04</pdfrwt>
<pdfrwt beam="2">  1       -2 0.69335831E-01 0.20069792E+04</pdfrwt>
<totfact> 0.87041362E+00</totfact>
</mgrwt>
</event>
<event>
12    1  0.1541840E-007  0.1099911E+04  0.7818608E-02  0.9205279E-01
         -2   -1    0    0    0  501 -0.00000000000E+00  0.00000000000E+00  0.11906773214E+03  0.11906773214E+03  0.00000000000E+00 0.  1.
          2   -1    0    0  501    0  0.00000000000E+00 -0.00000000000E+00 -0.25401575624E+04  0.25401575624E+04  0.00000000000E+00 0. -1.
         23    2    1    2    0    0 -0.77089007021E+02  0.67851566227E+01 -0.75364977787E+03  0.76319826878E+03  0.92167545414E+02 0.  0.
        254    2    1    2    0    0  0.77089007021E+02 -0.67851566227E+01 -0.16674400523E+04  0.18960270257E+04  0.89920709556E+03 0.  0.
        -24    2    4    4    0    0  0.10677962622E+03 -0.42845921385E+03 -0.63569219765E+03  0.77819223827E+03  0.80618875276E+02 0.  0.
         24    2    4    4    0    0 -0.29690619196E+02  0.42167405722E+03 -0.10317478547E+04  0.11178347874E+04  0.79752322452E+02 0.  0.
         11    1    3    3    0    0  0.93414192538E+01 -0.16831438687E+01 -0.35816271885E+03  0.35828847074E+03  0.00000000000E+00 0.  1.
        -11    1    3    3    0    0 -0.86430426275E+02  0.84683004915E+01 -0.39548705902E+03  0.40490979804E+03  0.00000000000E+00 0. -1.
          2    1    6    6  502    0 -0.17887036768E+02  0.31615613422E+02 -0.13611731271E+03  0.14088085717E+03  0.00000000000E+00 0. -1.
          1    1    5    5  503    0 -0.10480667721E+02 -0.88085566981E+02 -0.11776193181E+03  0.14743399909E+03  0.00000000000E+00 0. -1.
         -2    1    5    5    0  503  0.11726029394E+03 -0.34037364686E+03 -0.51793026584E+03  0.63075823918E+03  0.00000000000E+00 0.  1.
         -1    1    6    6    0  502 -0.11803582427E+02  0.39005844380E+03 -0.89563054199E+03  0.97695393028E+03  0.00000000000E+00 0.  1.
<mgrwt>
<rscale>  0 0.10999105E+04</rscale>
<asrwt>0</asrwt>
<pdfrwt beam="1">  1        2 0.39079348E+00 0.10999105E+04</pdfrwt>
<pdfrwt beam="2">  1       -2 0.18318112E-01 0.10999105E+04</pdfrwt>
<totfact> 0.82410282E+01</totfact>
</mgrwt>
</event>
<event>
12    1  0.1541840E-007  0.1383895E+04  0.7818608E-02  0.8965560E-01
         -1   -1    0    0    0  501 -0.00000000000E+00  0.00000000000E+00  0.31440327990E+03  0.31440327990E+03  0.00000000000E+00 0.  1.
          1   -1    0    0  501    0  0.00000000000E+00 -0.00000000000E+00 -0.15228566667E+04  0.15228566667E+04  0.00000000000E+00 0. -1.
         23    2    1    2    0    0 -0.19329931719E+03 -0.74637245526E+02  0.86443940514E+02  0.24299431515E+03  0.92942659189E+02 0.  0.
        254    2    1    2    0    0  0.19329931719E+03  0.74637245526E+02 -0.12948973273E+04  0.15942656314E+04  0.90663579838E+03 0.  0.
        -24    2    4    4    0    0  0.15109900789E+03  0.43572184575E+03 -0.36744260374E+03  0.59492944785E+03  0.79009770435E+02 0.  0.
         24    2    4    4    0    0  0.42200309302E+02 -0.36108460023E+03 -0.92745472357E+03  0.99933618360E+03  0.79608975345E+02 0.  0.
         11    1    3    3    0    0 -0.19750709509E+03 -0.81174577199E+02  0.92917342457E+02  0.23287764411E+03  0.00000000000E+00 0.  1.
        -11    1    3    3    0    0  0.42077779013E+01  0.65373316732E+01 -0.64734019430E+01  0.10116671043E+02  0.00000000000E+00 0. -1.
          2    1    6    6  502    0 -0.14709647807E+02 -0.18071513642E+03 -0.50184901389E+03  0.53359794509E+03  0.00000000000E+00 0. -1.
          3    1    5    5  503    0  0.15328040439E+03  0.36102021894E+03 -0.29420582025E+03  0.49029332601E+03  0.00000000000E+00 0. -1.
         -4    1    5    5    0  503 -0.21813965023E+01  0.74701626810E+02 -0.73236783489E+02  0.10463612184E+03  0.00000000000E+00 0.  1.
         -1    1    6    6    0  502  0.56909957109E+02 -0.18036946381E+03 -0.42560570968E+03  0.46573823850E+03  0.00000000000E+00 0.  1.
<mgrwt>
<rscale>  0 0.13838947E+04</rscale>
<asrwt>0</asrwt>
<pdfrwt beam="1">  1        1 0.23428564E+00 0.13838947E+04</pdfrwt>
<pdfrwt beam="2">  1       -1 0.48369736E-01 0.13838947E+04</pdfrwt>
<totfact> 0.26322088E+01</totfact>
</mgrwt>
</event>
<event>
12    1  0.1541840E-007  0.2339176E+04  0.7818608E-02  0.8462633E-01
         -1   -1    0    0    0  501 -0.00000000000E+00  0.00000000000E+00  0.12637481377E+04  0.12637481377E+04  0.00000000000E+00 0.  1.
          1   -1    0    0  501    0  0.00000000000E+00 -0.00000000000E+00 -0.10824438766E+04  0.10824438766E+04  0.00000000000E+00 0. -1.
         23    2    1    2    0    0  0.32173371932E+03  0.88991825339E+03 -0.22570067572E+03  0.97679296977E+03  0.87844333422E+02 0.  0.
        254    2    1    2    0    0 -0.32173371932E+03 -0.88991825339E+03  0.40700493677E+03  0.13693990445E+04  0.90229354461E+03 0.  0.
        -24    2    4    4    0    0 -0.46890934535E+03 -0.66859556373E+03 -0.63414914191E+02  0.82286477473E+03  0.78670096981E+02 0.  0.
         24    2    4    4    0    0  0.14717562604E+03 -0.22132268966E+03  0.47041985096E+03  0.54653426976E+03  0.82222101561E+02 0.  0.
         11    1    3    3    0    0  0.11536289445E+03  0.26302889469E+03 -0.10533861965E+03  0.30592322835E+03  0.00000000000E+00 0. -1.
        -11    1    3    3    0    0  0.20637082486E+03  0.62688935870E+03 -0.12036205607E+03  0.67086974142E+03  0.00000000000E+00 0.  1.
          4    1    6    6  502    0  0.15706383802E+03 -0.20691864360E+03  0.42815302594E+03  0.50079874990E+03  0.00000000000E+00 0. -1.
          1    1    5    5  503    0 -0.47040960295E+03 -0.65920760065E+03 -0.67220255078E+02  0.81262440156E+03  0.00000000000E+00 0. -1.
         -2    1    5    5    0  503  0.15002576013E+01 -0.93879630725E+01  0.38053408867E+01  0.10240373176E+02  0.00000000000E+00 0.  1.
         -3    1    6    6    0  502 -0.98882119843E+01 -0.14404046062E+02  0.42266825015E+02  0.45735519852E+02  0.00000000000E+00 0.  1.
<mgrwt>
<rscale>  0 0.23391763E+04</rscale>
<asrwt>0</asrwt>
<pdfrwt beam="1">  1        1 0.16652983E+00 0.23391763E+04</pdfrwt>
<pdfrwt beam="2">  1       -1 0.19442279E+00 0.23391763E+04</pdfrwt>
<totfact> 0.19376067E+00</totfact>
</mgrwt>
</event>
<event>
12    1  0.1541840E-007  0.2193194E+04  0.7818608E-02  0.8521266E-01
         -1   -1    0    0    0  501 -0.00000000000E+00  0.00000000000E+00  0.63201618288E+03  0.63201618288E+03  0.00000000000E+00 0.  1.
          1   -1    0    0  501    0  0.00000000000E+00 -0.00000000000E+00 -0.19026809504E+04  0.19026809504E+04  0.00000000000E+00 0. -1.
         23    2    1    2    0    0 -0.80707143162E+03  0.61202507131E+02 -0.94941927610E+03  0.12508728792E+04  0.90420989647E+02 0.  0.
        254    2    1    2    0    0  0.80707143162E+03 -0.61202507131E+02 -0.32124549138E+03  0.12838242541E+04  0.94334299541E+03 0.  0.
        -24    2    4    4    0    0  0.13390768683E+03 -0.19757868476E+03 -0.50854831279E+03  0.56735445063E+03  0.79379348390E+02 0.  0.
         24    2    4    4    0    0  0.67316374479E+03  0.13637617763E+03  0.18730282141E+03  0.71646980344E+03  0.80614782786E+02 0.  0.
         11    1    3    3    0    0 -0.64077259614E+03  0.56441863870E+02 -0.80601900364E+03  0.10312331638E+04  0.00000000000E+00 0. -1.
        -11    1    3    3    0    0 -0.16629883548E+03  0.47606432614E+01 -0.14340027246E+03  0.21963971532E+03  0.00000000000E+00 0.  1.
          4    1    6    6  502    0  0.60594994266E+02 -0.10437497201E+02  0.20939521279E+02  0.64955047759E+02  0.00000000000E+00 0. -1.
          1    1    5    5  503    0 -0.10696520875E+02 -0.18055355479E+02 -0.44895612780E+02  0.49558323894E+02  0.00000000000E+00 0. -1.
         -2    1    5    5    0  503  0.14460420770E+03 -0.17952332928E+03 -0.46365270001E+03  0.51779612674E+03  0.00000000000E+00 0.  1.
         -3    1    6    6    0  502  0.61256875053E+03  0.14681367483E+03  0.16636330013E+03  0.65151475568E+03  0.00000000000E+00 0.  1.
<mgrwt>
<rscale>  0 0.21931942E+04</rscale>
<asrwt>0</asrwt>
<pdfrwt beam="1">  1        1 0.29272015E+00 0.21931942E+04</pdfrwt>
<pdfrwt beam="2">  1       -1 0.97233259E-01 0.21931942E+04</pdfrwt>
<totfact> 0.32153534E+00</totfact>
</mgrwt>
</event>
<event>
12    1  0.1541840E-007  0.1486723E+04  0.7818608E-02  0.8893331E-01
         -1   -1    0    0    0  501 -0.00000000000E+00  0.00000000000E+00  0.47804760505E+03  0.47804760505E+03  0.00000000000E+00 0.  1.
          1   -1    0    0  501    0  0.00000000000E+00 -0.00000000000E+00 -0.11559224341E+04  0.11559224341E+04  0.00000000000E+00 0. -1.
         23    2    1    2    0    0  0.23566417487E+03  0.39523272263E+03 -0.31524564496E+03  0.56514355511E+03  0.90889564095E+02 0.  0.
        254    2    1    2    0    0 -0.23566417487E+03 -0.39523272263E+03 -0.36262918408E+03  0.10688264840E+04  0.89394833155E+03 0.  0.
        -24    2    4    4    0    0 -0.13467417027E+03  0.14349215842E+03  0.19059571493E+03  0.28564113405E+03  0.80851711448E+02 0.  0.
         24    2    4    4    0    0 -0.10099000461E+03 -0.53872488105E+03 -0.55322489902E+03  0.78318534999E+03  0.83054350063E+02 0.  0.
         11    1    3    3    0    0 -0.77892080329E+01  0.12063916434E+02 -0.46611845869E+01  0.15097565475E+02  0.00000000000E+00 0.  1.
        -11    1    3    3    0    0  0.24345338291E+03  0.38316880619E+03 -0.31058446038E+03  0.55004598964E+03  0.00000000000E+00 0. -1.
          2    1    6    6  502    0 -0.58800986793E+02 -0.16694359025E+03 -0.13951818848E+03  0.22537312016E+03  0.00000000000E+00 0. -1.
          3    1    5    5  503    0 -0.68307663434E+02  0.12362700101E+03  0.14662495008E+03  0.20358891976E+03  0.00000000000E+00 0. -1.
         -4    1    5    5    0  503 -0.66366506832E+02  0.19865157412E+02  0.43970764851E+02  0.82052214289E+02  0.00000000000E+00 0.  1.
         -1    1    6    6    0  502 -0.42189017813E+02 -0.37178129080E+03 -0.41370671054E+03  0.55781222983E+03  0.00000000000E+00 0.  1.
<mgrwt>
<rscale>  0 0.14867225E+04</rscale>
<asrwt>0</asrwt>
<pdfrwt beam="1">  1        1 0.17783422E+00 0.14867225E+04</pdfrwt>
<pdfrwt beam="2">  1       -1 0.73545786E-01 0.14867225E+04</pdfrwt>
<totfact> 0.20771855E+01</totfact>
</mgrwt>
</event>
<event>
12    1  0.1541840E-007  0.2750742E+04  0.7818608E-02  0.8318726E-01
         -2   -1    0    0    0  501 -0.00000000000E+00  0.00000000000E+00  0.11470348819E+04  0.11470348819E+04  0.00000000000E+00 0.  1.
          2   -1    0    0  501    0  0.00000000000E+00 -0.00000000000E+00 -0.16491606091E+04  0.16491606091E+04  0.00000000000E+00 0. -1.
         23    2    1    2    0    0 -0.12109955229E+04 -0.14575727304E+03 -0.12940079103E+03  0.12302679211E+04  0.95180112179E+02 0.  0.
        254    2    1    2    0    0  0.12109955229E+04  0.14575727304E+03 -0.37272493624E+03  0.15659275699E+04  0.90854275453E+03 0.  0.
        -24    2    4    4    0    0  0.15209514342E+03 -0.11721683667E+03  0.23525027191E+03  0.31409682621E+03  0.80258372450E+02 0.  0.
         24    2    4    4    0    0  0.10589003795E+04  0.26297410971E+03 -0.60797520814E+03  0.12518307437E+04  0.83791174796E+02 0.  0.
         13    1    3    3    0    0 -0.43510873182E+03 -0.53642348666E+02 -0.70020490192E+00  0.43840346756E+03  0.00000000000E+00 0.  1.
        -13    1    3    3    0    0 -0.77588679112E+03 -0.92114924373E+02 -0.12870058613E+03  0.79186445355E+03  0.00000000000E+00 0. -1.
          2    1    6    6  502    0  0.83978372177E+03  0.22578422704E+03 -0.44986465097E+03  0.97907784202E+03  0.00000000000E+00 0. -1.
          1    1    5    5  503    0 -0.46257337242E+00 -0.56950586888E+01 -0.55726890165E+01  0.79813865004E+01  0.00000000000E+00 0. -1.
         -2    1    5    5    0  503  0.15255771679E+03 -0.11152177798E+03  0.24082296092E+03  0.30611543971E+03  0.00000000000E+00 0.  1.
         -1    1    6    6    0  502  0.21911665774E+03  0.37189882674E+02 -0.15811055717E+03  0.27275290166E+03  0.00000000000E+00 0.  1.
<mgrwt>
<rscale>  0 0.27507415E+04</rscale>
<asrwt>0</asrwt>
<pdfrwt beam="1">  1        2 0.25371702E+00 0.27507415E+04</pdfrwt>
<pdfrwt beam="2">  1       -2 0.17646690E+00 0.27507415E+04</pdfrwt>
<totfact> 0.17551593E+00</totfact>
</mgrwt>
</event>
<event>
12    1  0.1541840E-007  0.2344516E+04  0.7818608E-02  0.8460573E-01
          2   -1    0    0  501    0  0.00000000000E+00  0.00000000000E+00  0.11634103214E+04  0.11634103214E+04  0.00000000000E+00 0. -1.
         -2   -1    0    0    0  501 -0.00000000000E+00 -0.00000000000E+00 -0.11811733331E+04  0.11811733331E+04  0.00000000000E+00 0.  1.
         23    2    1    2    0    0 -0.20065707763E+03 -0.90324860707E+03 -0.36731852412E+03  0.99948512517E+03  0.89029816935E+02 0.  0.
        254    2    1    2    0    0  0.20065707763E+03  0.90324860707E+03  0.34955551240E+03  0.13450985293E+04  0.91158087311E+03 0.  0.
        -24    2    4    4    0    0 -0.13398321519E+03  0.65846307750E+02  0.40397983617E+03  0.43816386662E+03  0.80626470726E+02 0.  0.
         24    2    4    4    0    0  0.33464029282E+03  0.83740229932E+03 -0.54424323766E+02  0.90693466265E+03  0.79635035151E+02 0.  0.
         11    1    3    3    0    0 -0.71391157859E+02 -0.42193544648E+03 -0.12822338005E+03  0.44672973217E+03  0.00000000000E+00 0. -1.
        -11    1    3    3    0    0 -0.12926591977E+03 -0.48131316059E+03 -0.23909514407E+03  0.55275539300E+03  0.00000000000E+00 0.  1.
          2    1    6    6  502    0  0.16272195348E+03  0.33228072323E+03 -0.49934038003E+02  0.37333941839E+03  0.00000000000E+00 0. -1.
          3    1    5    5  503    0 -0.15610667596E+02  0.17642434104E+02  0.13178143891E+02  0.26992812012E+02  0.00000000000E+00 0. -1.
         -4    1    5    5    0  503 -0.11837254759E+03  0.48203873646E+02  0.39080169228E+03  0.41117105460E+03  0.00000000000E+00 0.  1.
         -1    1    6    6    0  502  0.17191833934E+03  0.50512157609E+03 -0.44902857631E+01  0.53359524426E+03  0.00000000000E+00 0.  1.
<mgrwt>
<rscale>  0 0.23445164E+04</rscale>
<asrwt>0</asrwt>
<pdfrwt beam="1">  1        2 0.17898620E+00 0.23445164E+04</pdfrwt>
<pdfrwt beam="2">  1       -2 0.18171897E+00 0.23445164E+04</pdfrwt>
<totfact> 0.31758062E+00</totfact>
</mgrwt>
</event>
<event>
12    1  0.1541840E-007  0.1325599E+04  0.7818608E-02  0.9009508E-01
         -2   -1    0    0    0  501 -0.00000000000E+00  0.00000000000E+00  0.35619637894E+03  0.35619637894E+03  0.00000000000E+00 0.  1.
          2   -1    0    0  501    0  0.00000000000E+00 -0.00000000000E+00 -0.12333174348E+04  0.12333174348E+04  0.00000000000E+00 0. -1.
         23    2    1    2    0    0  0.90975417310E+02 -0.27856136265E+03  0.22911089762E+02  0.30989525269E+03  0.98169192148E+02 0.  0.
        254    2    1    2    0    0 -0.90975417310E+02  0.27856136265E+03 -0.90003214565E+03  0.12796185611E+04  0.86109978479E+03 0.  0.
        -24    2    4    4    0    0  0.13236759737E+03  0.47427382954E+03 -0.82520210919E+03  0.96443650839E+03  0.81990313344E+02 0.  0.
         24    2    4    4    0    0 -0.22334301468E+03 -0.19571246689E+03 -0.74830036461E+02  0.31518205270E+03  0.74529994546E+02 0.  0.
         13    1    3    3    0    0  0.36946388877E+02 -0.22345124766E+03 -0.83222210511E+01  0.22663793834E+03  0.00000000000E+00 0. -1.
        -13    1    3    3    0    0  0.54029028433E+02 -0.55110114988E+02  0.31233310813E+02  0.83257314344E+02  0.00000000000E+00 0.  1.
          2    1    6    6  502    0 -0.92743577823E+02 -0.13026296301E+03 -0.33662331833E+02  0.16341041382E+03  0.00000000000E+00 0. -1.
          1    1    5    5  503    0  0.10203022624E+03  0.44662775625E+03 -0.75710148918E+03  0.88492326483E+03  0.00000000000E+00 0. -1.
         -2    1    5    5    0  503  0.30337371129E+02  0.27646073285E+02 -0.68100620013E+02  0.79513243559E+02  0.00000000000E+00 0.  1.
         -1    1    6    6    0  502 -0.13059943686E+03 -0.65449503876E+02 -0.41167704628E+02  0.15177163888E+03  0.00000000000E+00 0.  1.
<mgrwt>
<rscale>  0 0.13255990E+04</rscale>
<asrwt>0</asrwt>
<pdfrwt beam="1">  1        2 0.18974115E+00 0.13255990E+04</pdfrwt>
<pdfrwt beam="2">  1       -2 0.54799442E-01 0.13255990E+04</pdfrwt>
<totfact> 0.55455615E+01</totfact>
</mgrwt>
</event>
<event>
12    1  0.1541840E-007  0.1784832E+04  0.7818608E-02  0.8714407E-01
          2   -1    0    0  501    0  0.00000000000E+00  0.00000000000E+00  0.33400510744E+03  0.33400510744E+03  0.00000000000E+00 0. -1.
         -2   -1    0    0    0  501 -0.00000000000E+00 -0.00000000000E+00 -0.23844139505E+04  0.23844139505E+04  0.00000000000E+00 0.  1.
         23    2    1    2    0    0 -0.22176756375E+03  0.20644860428E+03 -0.15757528925E+04  0.16071855773E+04  0.90809819151E+02 0.  0.
        254    2    1    2    0    0  0.22176756375E+03 -0.20644860428E+03 -0.47465595065E+03  0.11112334807E+04  0.95798731650E+03 0.  0.
        -24    2    4    4    0    0 -0.43808452194E+02  0.83056667839E+02 -0.65863492171E+03  0.67001195755E+03  0.79362917097E+02 0.  0.
         24    2    4    4    0    0  0.26557601594E+03 -0.28950527212E+03  0.18397897106E+03  0.44122152314E+03  0.80524827625E+02 0.  0.
         11    1    3    3    0    0 -0.18517305009E+03  0.20897172156E+03 -0.14175419343E+04  0.14447779671E+04  0.00000000000E+00 0.  1.
        -11    1    3    3    0    0 -0.36594513658E+02 -0.25231172765E+01 -0.15821095817E+03  0.16240761015E+03  0.00000000000E+00 0. -1.
          4    1    6    6  502    0  0.60777027906E+02 -0.23944658501E+02  0.36935419696E+02  0.75042781265E+02  0.00000000000E+00 0. -1.
          1    1    5    5  503    0 -0.11078288713E+02 -0.15496194727E+02 -0.10939303033E+03  0.11103916253E+03  0.00000000000E+00 0. -1.
         -2    1    5    5    0  503 -0.32730163481E+02  0.98552862566E+02 -0.54924189138E+03  0.55897279502E+03  0.00000000000E+00 0.  1.
         -3    1    6    6    0  502  0.20479898803E+03 -0.26556061362E+03  0.14704355136E+03  0.36617874188E+03  0.00000000000E+00 0.  1.
<mgrwt>
<rscale>  0 0.17848321E+04</rscale>
<asrwt>0</asrwt>
<pdfrwt beam="1">  1        2 0.51385400E-01 0.17848321E+04</pdfrwt>
<pdfrwt beam="2">  1       -2 0.36683292E+00 0.17848321E+04</pdfrwt>
<totfact> 0.11245802E+00</totfact>
</mgrwt>
</event>
<event>
12    1  0.1541840E-007  0.1492287E+04  0.7818608E-02  0.8889599E-01
          2   -1    0    0  501    0  0.00000000000E+00  0.00000000000E+00  0.25956199645E+04  0.25956199645E+04  0.00000000000E+00 0. -1.
         -2   -1    0    0    0  501 -0.00000000000E+00 -0.00000000000E+00 -0.21448817329E+03  0.21448817329E+03  0.00000000000E+00 0.  1.
         23    2    1    2    0    0  0.85854239413E+02  0.25668973490E+03  0.14556611078E+04  0.14848060329E+04  0.11153082180E+03 0.  0.
        254    2    1    2    0    0 -0.85854239413E+02 -0.25668973490E+03  0.92547068340E+03  0.13253021049E+04  0.90921345836E+03 0.  0.
        -24    2    4    4    0    0  0.30879192432E+03 -0.39190515463E+03  0.37348515439E+03  0.62891081314E+03  0.84235073379E+02 0.  0.
         24    2    4    4    0    0 -0.39464616373E+03  0.13521541973E+03  0.55198552901E+03  0.69639129171E+03  0.79019001869E+02 0.  0.
         13    1    3    3    0    0  0.13142302581E+02  0.49195129182E+02  0.10891301147E+03  0.12022863602E+03  0.00000000000E+00 0.  1.
        -13    1    3    3    0    0  0.72711936832E+02  0.20749460572E+03  0.13467480964E+04  0.13645773969E+04  0.00000000000E+00 0. -1.
          4    1    6    6  502    0 -0.36092445407E+03  0.13407072873E+03  0.53348316759E+03  0.65791010932E+03  0.00000000000E+00 0. -1.
          3    1    5    5  503    0  0.25696160165E+03 -0.29956841791E+03  0.25443293848E+03  0.46958132620E+03  0.00000000000E+00 0. -1.
         -4    1    5    5    0  503  0.51830322665E+02 -0.92336736724E+02  0.11905221591E+03  0.15932948694E+03  0.00000000000E+00 0.  1.
         -3    1    6    6    0  502 -0.33721709665E+02  0.11446910019E+01  0.18502361423E+02  0.38481182394E+02  0.00000000000E+00 0.  1.
<mgrwt>
<rscale>  0 0.14922865E+04</rscale>
<asrwt>0</asrwt>
<pdfrwt beam="1">  1        2 0.39932613E+00 0.14922865E+04</pdfrwt>
<pdfrwt beam="2">  1       -2 0.32998182E-01 0.14922865E+04</pdfrwt>
<totfact> 0.25457102E+01</totfact>
</mgrwt>
</event>
<event>
12    1  0.1541840E-007  0.1584558E+04  0.7818608E-02  0.8830091E-01
         -2   -1    0    0    0  501 -0.00000000000E+00  0.00000000000E+00  0.34461120903E+03  0.34461120903E+03  0.00000000000E+00 0.  1.
          2   -1    0    0  501    0  0.00000000000E+00 -0.00000000000E+00 -0.18214905932E+04  0.18214905932E+04  0.00000000000E+00 0. -1.
         23    2    1    2    0    0 -0.28088540314E+02  0.28852060025E+03  0.11058632308E+03  0.32341546719E+03  0.91296915076E+02 0.  0.
        254    2    1    2    0    0  0.28088540314E+02 -0.28852060025E+03 -0.15874657073E+04  0.18426863351E+04  0.88961365477E+03 0.  0.
        -24    2    4    4    0    0  0.18391067618E+03 -0.56494713382E+03 -0.90212556803E+03  0.10831216158E+04  0.79583247149E+02 0.  0.
         24    2    4    4    0    0 -0.15582213586E+03  0.27642653357E+03 -0.68534013925E+03  0.75956471929E+03  0.80964744403E+02 0.  0.
         13    1    3    3    0    0  0.15257891783E+02  0.24202105803E+02  0.34800272762E+02  0.45051128413E+02  0.00000000000E+00 0. -1.
        -13    1    3    3    0    0 -0.43346432097E+02  0.26431849444E+03  0.75786050320E+02  0.27836433878E+03  0.00000000000E+00 0.  1.
          4    1    6    6  502    0 -0.74135742862E+02  0.19323707843E+03 -0.49246515885E+03  0.53418967562E+03  0.00000000000E+00 0. -1.
          1    1    5    5  503    0  0.15879030804E+03 -0.52256455676E+03 -0.85743873609E+03  0.10166067401E+04  0.00000000000E+00 0. -1.
         -2    1    5    5    0  503  0.25120368140E+02 -0.42382577059E+02 -0.44686831940E+02  0.66514875648E+02  0.00000000000E+00 0.  1.
         -3    1    6    6    0  502 -0.81686393003E+02  0.83189455140E+02 -0.19287498039E+03  0.22537504367E+03  0.00000000000E+00 0.  1.
<mgrwt>
<rscale>  0 0.15845581E+04</rscale>
<asrwt>0</asrwt>
<pdfrwt beam="1">  1        2 0.28022932E+00 0.15845581E+04</pdfrwt>
<pdfrwt beam="2">  1       -2 0.53017110E-01 0.15845581E+04</pdfrwt>
<totfact> 0.27039299E+01</totfact>
</mgrwt>
</event>
<event>
12    1  0.1541840E-007  0.1622467E+04  0.7818608E-02  0.8806863E-01
          2   -1    0    0  501    0  0.00000000000E+00  0.00000000000E+00  0.23010278826E+04  0.23010278826E+04  0.00000000000E+00 0.  1.
         -2   -1    0    0    0  501 -0.00000000000E+00 -0.00000000000E+00 -0.28600267680E+03  0.28600267680E+03  0.00000000000E+00 0. -1.
         23    2    1    2    0    0 -0.84515845232E+02 -0.50516566761E+03  0.35487002173E+03  0.62963615020E+03  0.90408348585E+02 0.  0.
        254    2    1    2    0    0  0.84515845232E+02  0.50516566761E+03  0.16601551841E+04  0.19573944092E+04  0.90163316162E+03 0.  0.
        -24    2    4    4    0    0  0.32454138945E+02  0.64882780110E+02  0.14603119013E+04  0.14643693240E+04  0.81262670723E+02 0.  0.
         24    2    4    4    0    0  0.52061706286E+02  0.44028288750E+03  0.19984328275E+03  0.49302508519E+03  0.81098425919E+02 0.  0.
         13    1    3    3    0    0 -0.20770391478E+02 -0.19796322655E+02  0.33161242710E+02  0.43851699749E+02  0.00000000000E+00 0. -1.
        -13    1    3    3    0    0 -0.63745453754E+02 -0.48536934495E+03  0.32170877902E+03  0.58578445045E+03  0.00000000000E+00 0.  1.
          4    1    6    6  502    0  0.70106534063E+02  0.28845883159E+03  0.14699322968E+03  0.33125584253E+03  0.00000000000E+00 0. -1.
          3    1    5    5  503    0 -0.73965234973E+01  0.12398394068E+02  0.91161604819E+03  0.91173035929E+03  0.00000000000E+00 0. -1.
         -4    1    5    5    0  503  0.39850662443E+02  0.52484386042E+02  0.54869585314E+03  0.55263896472E+03  0.00000000000E+00 0.  1.
         -3    1    6    6    0  502 -0.18044827777E+02  0.15182405591E+03  0.52850053067E+02  0.16176924266E+03  0.00000000000E+00 0.  1.
<mgrwt>
<rscale>  0 0.16224674E+04</rscale>
<asrwt>0</asrwt>
<pdfrwt beam="1">  1        2 0.35400428E+00 0.16224674E+04</pdfrwt>
<pdfrwt beam="2">  1       -2 0.44000413E-01 0.16224674E+04</pdfrwt>
<totfact> 0.21252515E+01</totfact>
</mgrwt>
</event>
<event>
12    1  0.1541840E-007  0.1896971E+04  0.7818608E-02  0.8656366E-01
         -2   -1    0    0    0  501 -0.00000000000E+00  0.00000000000E+00  0.46518932249E+03  0.46518932249E+03  0.00000000000E+00 0. -1.
          2   -1    0    0  501    0  0.00000000000E+00 -0.00000000000E+00 -0.19338886698E+04  0.19338886698E+04  0.00000000000E+00 0.  1.
         23    2    1    2    0    0  0.21927373742E+03 -0.58919403920E+03 -0.10422576815E+03  0.64358921380E+03  0.90074844534E+02 0.  0.
        254    2    1    2    0    0 -0.21927373742E+03  0.58919403920E+03 -0.13644735792E+04  0.17554887785E+04  0.90814212292E+03 0.  0.
        -24    2    4    4    0    0 -0.50171186898E+03  0.31764588189E+03 -0.11624016209E+04  0.13075130433E+04  0.76151982390E+02 0.  0.
         24    2    4    4    0    0  0.28243813156E+03  0.27154815731E+03 -0.20207195831E+03  0.44797573521E+03  0.79620871059E+02 0.  0.
         13    1    3    3    0    0  0.43499648835E+02 -0.54427644275E+02  0.61884056760E+01  0.69949154927E+02  0.00000000000E+00 0.  1.
        -13    1    3    3    0    0  0.17577408859E+03 -0.53476639493E+03 -0.11041417382E+03  0.57364005887E+03  0.00000000000E+00 0. -1.
          2    1    6    6  502    0  0.84402052238E+02  0.97474963572E+02 -0.10746433500E+03  0.16785010647E+03  0.00000000000E+00 0. -1.
          3    1    5    5  503    0 -0.60658102071E+02  0.45949621701E+02 -0.20974876071E+03  0.22312623266E+03  0.00000000000E+00 0. -1.
         -4    1    5    5    0  503 -0.44105376691E+03  0.27169626019E+03 -0.95265286018E+03  0.10843868106E+04  0.00000000000E+00 0.  1.
         -1    1    6    6    0  502  0.19803607932E+03  0.17407319374E+03 -0.94607623315E+02  0.28012562874E+03  0.00000000000E+00 0.  1.
<mgrwt>
<rscale>  0 0.18969706E+04</rscale>
<asrwt>0</asrwt>
<pdfrwt beam="1">  1        2 0.29752133E+00 0.18969706E+04</pdfrwt>
<pdfrwt beam="2">  1       -2 0.71567588E-01 0.18969706E+04</pdfrwt>
<totfact> 0.12061492E+01</totfact>
</mgrwt>
</event>
<event>
12    1  0.1541840E-007  0.2076426E+04  0.7818608E-02  0.8571700E-01
         -2   -1    0    0    0  501 -0.00000000000E+00  0.00000000000E+00  0.55840990300E+03  0.55840990300E+03  0.00000000000E+00 0.  1.
          2   -1    0    0  501    0  0.00000000000E+00 -0.00000000000E+00 -0.19302778505E+04  0.19302778505E+04  0.00000000000E+00 0. -1.
         23    2    1    2    0    0  0.65731304999E+03  0.17238482415E+03  0.36314815794E+02  0.68667765389E+03  0.91817543147E+02 0.  0.
        254    2    1    2    0    0 -0.65731304999E+03 -0.17238482415E+03 -0.14081827633E+04  0.18020100996E+04  0.89581512098E+03 0.  0.
        -24    2    4    4    0    0 -0.74710090198E+01 -0.88861739770E+02  0.99755950303E+02  0.15597861746E+03  0.80161429089E+02 0.  0.
         24    2    4    4    0    0 -0.64984204097E+03 -0.83523084385E+02 -0.15079387136E+04  0.16460314822E+04  0.79181389369E+02 0.  0.
         11    1    3    3    0    0 -0.20742767442E+01 -0.22454564577E+01  0.20836574226E+01  0.36995036113E+01  0.00000000000E+00 0. -1.
        -11    1    3    3    0    0  0.65938732673E+03  0.17463028061E+03  0.34231158372E+02  0.68297815028E+03  0.00000000000E+00 0.  1.
          2    1    6    6  502    0 -0.46904764392E+03 -0.86907555499E+02 -0.11498889093E+04  0.12449108880E+04  0.00000000000E+00 0. -1.
          3    1    5    5  503    0 -0.20508511245E+02 -0.83018149271E+02  0.10931465671E+03  0.13878871105E+03  0.00000000000E+00 0. -1.
         -4    1    5    5    0  503  0.13037502225E+02 -0.58435904991E+01 -0.95587064122E+01  0.17189906413E+02  0.00000000000E+00 0.  1.
         -1    1    6    6    0  502 -0.18079439705E+03  0.33844711145E+01 -0.35804980437E+03  0.40112059416E+03  0.00000000000E+00 0.  1.
<mgrwt>
<rscale>  0 0.20764260E+04</rscale>
<asrwt>0</asrwt>
<pdfrwt beam="1">  1        2 0.29696583E+00 0.20764260E+04</pdfrwt>
<pdfrwt beam="2">  1       -2 0.85909215E-01 0.20764260E+04</pdfrwt>
<totfact> 0.79313987E+00</totfact>
</mgrwt>
</event>
<event>
12    1  0.1541840E-007  0.3204358E+04  0.7818608E-02  0.8187667E-01
         -1   -1    0    0    0  501 -0.00000000000E+00  0.00000000000E+00  0.14284257706E+04  0.14284257706E+04  0.00000000000E+00 0.  1.
          1   -1    0    0  501    0  0.00000000000E+00 -0.00000000000E+00 -0.17970677329E+04  0.17970677329E+04  0.00000000000E+00 0. -1.
         23    2    1    2    0    0  0.25237330410E+03 -0.22743982778E+03  0.12689421696E+04  0.13168533700E+04  0.92018522568E+02 0.  0.
        254    2    1    2    0    0 -0.25237330410E+03  0.22743982778E+03 -0.16375841319E+04  0.19086401335E+04  0.91967614425E+03 0.  0.
        -24    2    4    4    0    0  0.24716508212E+03  0.30793373986E+02 -0.10509982233E+03  0.28292745829E+03  0.83445576883E+02 0.  0.
         24    2    4    4    0    0 -0.49953838622E+03  0.19664645380E+03 -0.15324843095E+04  0.16257126752E+04  0.78899405561E+02 0.  0.
         11    1    3    3    0    0  0.15000891636E+03 -0.10099710826E+03  0.80965889589E+03  0.82960871413E+03  0.00000000000E+00 0. -1.
        -11    1    3    3    0    0  0.10236438774E+03 -0.12644271952E+03  0.45928327368E+03  0.48724465587E+03  0.00000000000E+00 0.  1.
          2    1    6    6  502    0 -0.48759115723E+03  0.20224677314E+03 -0.14715021173E+04  0.15633193452E+04  0.00000000000E+00 0. -1.
          3    1    5    5  503    0  0.16134416657E+03 -0.12692016503E+02 -0.39842775389E+02  0.16667475550E+03  0.00000000000E+00 0. -1.
         -4    1    5    5    0  503  0.85820915547E+02  0.43485390489E+02 -0.65257046943E+02  0.11625270279E+03  0.00000000000E+00 0.  1.
         -1    1    6    6    0  502 -0.11947228986E+02 -0.56003193470E+01 -0.60982192216E+02  0.62393329969E+02  0.00000000000E+00 0.  1.
<mgrwt>
<rscale>  0 0.32043582E+04</rscale>
<asrwt>0</asrwt>
<pdfrwt beam="1">  1        1 0.27647196E+00 0.32043582E+04</pdfrwt>
<pdfrwt beam="2">  1       -1 0.21975781E+00 0.32043582E+04</pdfrwt>
<totfact> 0.37813446E-01</totfact>
</mgrwt>
</event>
<event>
12    1  0.1541840E-007  0.3736872E+04  0.7818608E-02  0.8059839E-01
         -2   -1    0    0    0  501 -0.00000000000E+00  0.00000000000E+00  0.89758360239E+03  0.89758360239E+03  0.00000000000E+00 0. -1.
          2   -1    0    0  501    0  0.00000000000E+00 -0.00000000000E+00 -0.38893908911E+04  0.38893908911E+04  0.00000000000E+00 0.  1.
         23    2    1    2    0    0 -0.17217284858E+03  0.27187097056E+03 -0.36330678392E+04  0.36483440663E+04  0.87608147061E+02 0.  0.
        254    2    1    2    0    0  0.17217284858E+03 -0.27187097056E+03  0.64126055057E+03  0.11386304271E+04  0.88414186725E+03 0.  0.
        -24    2    4    4    0    0  0.24982995692E+02 -0.48694304809E+03  0.59976266293E+02  0.49776999744E+03  0.80250455934E+02 0.  0.
         24    2    4    4    0    0  0.14718985289E+03  0.21507207753E+03  0.58128428427E+03  0.64086042968E+03  0.69927246878E+02 0.  0.
         11    1    3    3    0    0 -0.12863174564E+03  0.24827427130E+03 -0.28401907227E+04  0.28539217896E+04  0.00000000000E+00 0.  1.
        -11    1    3    3    0    0 -0.43541102938E+02  0.23596699261E+02 -0.79287711653E+03  0.79442227674E+03  0.00000000000E+00 0. -1.
          4    1    6    6  502    0  0.12694465887E+03  0.12986882471E+03  0.37080083396E+03  0.41288511296E+03  0.00000000000E+00 0. -1.
          1    1    5    5  503    0 -0.24107332544E+02 -0.29595982496E+03  0.37745904802E+02  0.29932947533E+03  0.00000000000E+00 0. -1.
         -2    1    5    5    0  503  0.49090328235E+02 -0.19098322313E+03  0.22230361491E+02  0.19844052211E+03  0.00000000000E+00 0.  1.
         -1    1    6    6    0  502  0.20245194025E+02  0.85203252826E+02  0.21048345032E+03  0.22797531672E+03  0.00000000000E+00 0.  1.
<mgrwt>
<rscale>  0 0.37368722E+04</rscale>
<asrwt>0</asrwt>
<pdfrwt beam="1">  1        2 0.59836783E+00 0.37368722E+04</pdfrwt>
<pdfrwt beam="2">  1       -2 0.13808979E+00 0.37368722E+04</pdfrwt>
<totfact> 0.12533802E-01</totfact>
</mgrwt>
</event>
<event>
12    1  0.1541840E-007  0.1223114E+04  0.7818608E-02  0.9092862E-01
          2   -1    0    0  501    0  0.00000000000E+00  0.00000000000E+00  0.21171372652E+04  0.21171372652E+04  0.00000000000E+00 0. -1.
         -2   -1    0    0    0  501 -0.00000000000E+00 -0.00000000000E+00 -0.17665447726E+03  0.17665447726E+03  0.00000000000E+00 0.  1.
         23    2    1    2    0    0 -0.89973524631E+02 -0.24607709917E+03  0.59338053270E+03  0.65552398468E+03  0.94668178542E+02 0.  0.
        254    2    1    2    0    0  0.89973524631E+02  0.24607709917E+03  0.13471022553E+04  0.16382677578E+04  0.89475560139E+03 0.  0.
        -24    2    4    4    0    0 -0.29189419872E+03  0.26121556042E+03  0.24405031168E+03  0.46818382050E+03  0.78738446131E+02 0.  0.
         24    2    4    4    0    0  0.38186772336E+03 -0.15138461248E+02  0.11030519436E+04  0.11700839373E+04  0.79502823284E+02 0.  0.
         11    1    3    3    0    0 -0.38659707603E+02 -0.30880925848E+02  0.17989369057E+03  0.18657423316E+03  0.00000000000E+00 0. -1.
        -11    1    3    3    0    0 -0.51313817029E+02 -0.21519617332E+03  0.41348684213E+03  0.46894975151E+03  0.00000000000E+00 0.  1.
          2    1    6    6  502    0  0.48242365561E+02 -0.11017516084E+02  0.80688186913E+02  0.94653552510E+02  0.00000000000E+00 0. -1.
          1    1    5    5  503    0 -0.96561675392E+01 -0.52304883150E+01  0.10515488144E+02  0.15204442458E+02  0.00000000000E+00 0. -1.
         -2    1    5    5    0  503 -0.28223803118E+03  0.26644604873E+03  0.23353482353E+03  0.45297937805E+03  0.00000000000E+00 0.  1.
         -3    1    6    6    0  502  0.33362535779E+03 -0.41209451640E+01  0.10223637567E+04  0.10754303848E+04  0.00000000000E+00 0.  1.
<mgrwt>
<rscale>  0 0.12231137E+04</rscale>
<asrwt>0</asrwt>
<pdfrwt beam="1">  1        2 0.32571341E+00 0.12231137E+04</pdfrwt>
<pdfrwt beam="2">  1       -2 0.27177613E-01 0.12231137E+04</pdfrwt>
<totfact> 0.69885544E+01</totfact>
</mgrwt>
</event>
<event>
12    1  0.1541840E-007  0.1127279E+04  0.7818608E-02  0.9179004E-01
          2   -1    0    0  501    0  0.00000000000E+00  0.00000000000E+00  0.16548549867E+04  0.16548549867E+04  0.00000000000E+00 0. -1.
         -2   -1    0    0    0  501 -0.00000000000E+00 -0.00000000000E+00 -0.19197436354E+03  0.19197436354E+03  0.00000000000E+00 0.  1.
         23    2    1    2    0    0 -0.77754307491E+02  0.17280261936E+03  0.22991412322E+03  0.31222193608E+03  0.93357140717E+02 0.  0.
        254    2    1    2    0    0  0.77754307491E+02 -0.17280261936E+03  0.12329664999E+04  0.15346074141E+04  0.89381600345E+03 0.  0.
        -24    2    4    4    0    0 -0.14862004605E+03 -0.57583953554E+02  0.12549711627E+04  0.12674864724E+04  0.78520752960E+02 0.  0.
         24    2    4    4    0    0  0.22637435354E+03 -0.11521866580E+03 -0.22004662771E+02  0.26712094178E+03  0.79678751635E+02 0.  0.
         13    1    3    3    0    0 -0.90043723454E+02  0.12986649133E+03  0.21125216035E+03  0.26381935667E+03  0.00000000000E+00 0. -1.
        -13    1    3    3    0    0  0.12289415964E+02  0.42936128030E+02  0.18661962869E+02  0.48402579405E+02  0.00000000000E+00 0.  1.
          4    1    6    6  502    0  0.20819551703E+03 -0.11982673980E+03 -0.37077356689E+02  0.24306079745E+03  0.00000000000E+00 0. -1.
          3    1    5    5  503    0 -0.42050671858E+02  0.12032856979E+02  0.49498099108E+03  0.49690968010E+03  0.00000000000E+00 0. -1.
         -4    1    5    5    0  503 -0.10656937419E+03 -0.69616810533E+02  0.75999017162E+03  0.77057679227E+03  0.00000000000E+00 0.  1.
         -3    1    6    6    0  502  0.18178836514E+02  0.46080739929E+01  0.15072693917E+02  0.24060144323E+02  0.00000000000E+00 0.  1.
<mgrwt>
<rscale>  0 0.11272794E+04</rscale>
<asrwt>0</asrwt>
<pdfrwt beam="1">  1        2 0.25459307E+00 0.11272794E+04</pdfrwt>
<pdfrwt beam="2">  1       -2 0.29534519E-01 0.11272794E+04</pdfrwt>
<totfact> 0.10872803E+02</totfact>
</mgrwt>
</event>
<event>
12    1  0.1541840E-007  0.1781383E+04  0.7818608E-02  0.8716263E-01
         -2   -1    0    0    0  501 -0.00000000000E+00  0.00000000000E+00  0.50993072363E+03  0.50993072363E+03  0.00000000000E+00 0. -1.
          2   -1    0    0  501    0  0.00000000000E+00 -0.00000000000E+00 -0.15557629567E+04  0.15557629567E+04  0.00000000000E+00 0.  1.
         23    2    1    2    0    0 -0.55993910052E+03 -0.34442199785E+03 -0.32229617655E+03  0.73806213709E+03  0.93287640680E+02 0.  0.
        254    2    1    2    0    0  0.55993910052E+03  0.34442199785E+03 -0.72353605654E+03  0.13276315433E+04  0.89829993913E+03 0.  0.
        -24    2    4    4    0    0 -0.11046349208E+03  0.32021650479E+03 -0.51366309186E+03  0.62024658041E+03  0.78200099432E+02 0.  0.
         24    2    4    4    0    0  0.67040259260E+03  0.24205493062E+02 -0.20987296468E+03  0.70738496284E+03  0.79506492154E+02 0.  0.
         13    1    3    3    0    0 -0.81685866231E+02 -0.29271057237E+02 -0.14931535633E+02  0.88047295757E+02  0.00000000000E+00 0. -1.
        -13    1    3    3    0    0 -0.47825323429E+03 -0.31515094061E+03 -0.30736464091E+03  0.65001484134E+03  0.00000000000E+00 0.  1.
          2    1    6    6  502    0  0.67248540001E+03  0.24918647112E+02 -0.20764842013E+03  0.70425522262E+03  0.00000000000E+00 0. -1.
          1    1    5    5  503    0 -0.69593287507E+02  0.27082057828E+03 -0.37784705804E+03  0.47005894370E+03  0.00000000000E+00 0. -1.
         -2    1    5    5    0  503 -0.40870204573E+02  0.49395926509E+02 -0.13581603382E+03  0.15018763671E+03  0.00000000000E+00 0.  1.
         -1    1    6    6    0  502 -0.20828074146E+01 -0.71315405040E+00 -0.22245445423E+01  0.31297402203E+01  0.00000000000E+00 0.  1.
<mgrwt>
<rscale>  0 0.17813830E+04</rscale>
<asrwt>0</asrwt>
<pdfrwt beam="1">  1        2 0.23934815E+00 0.17813830E+04</pdfrwt>
<pdfrwt beam="2">  1       -2 0.78450881E-01 0.17813830E+04</pdfrwt>
<totfact> 0.16123979E+01</totfact>
</mgrwt>
</event>
<event>
12    1  0.1541840E-007  0.1184740E+04  0.7818608E-02  0.9126319E-01
         -1   -1    0    0    0  501 -0.00000000000E+00  0.00000000000E+00  0.23699464762E+03  0.23699464762E+03  0.00000000000E+00 0.  1.
          1   -1    0    0  501    0  0.00000000000E+00 -0.00000000000E+00 -0.14806341305E+04  0.14806341305E+04  0.00000000000E+00 0. -1.
         23    2    1    2    0    0  0.12305103198E+03 -0.59468149062E+02 -0.55066226018E+03  0.57600094646E+03  0.99348620086E+02 0.  0.
        254    2    1    2    0    0 -0.12305103198E+03  0.59468149062E+02 -0.69297722270E+03  0.11416278317E+04  0.89689389429E+03 0.  0.
        -24    2    4    4    0    0 -0.91101694368E+02 -0.69309010683E+02  0.19475811421E+03  0.23974348068E+03  0.80268024751E+02 0.  0.
         24    2    4    4    0    0 -0.31949337614E+02  0.12877715975E+03 -0.88773533691E+03  0.90188435098E+03  0.87846668106E+02 0.  0.
         11    1    3    3    0    0  0.11428914189E+03 -0.12266623254E+02 -0.45042270798E+03  0.46485814380E+03  0.00000000000E+00 0. -1.
        -11    1    3    3    0    0  0.87618900930E+01 -0.47201525808E+02 -0.10023955220E+03  0.11114280266E+03  0.00000000000E+00 0.  1.
          4    1    6    6  502    0  0.30334388447E+02  0.32858912137E+02 -0.25883256175E+03  0.26266742899E+03  0.00000000000E+00 0. -1.
          3    1    5    5  503    0 -0.30569012354E+02 -0.19728962399E+02  0.79933651608E+01  0.37250373961E+02  0.00000000000E+00 0. -1.
         -4    1    5    5    0  503 -0.60532682014E+02 -0.49580048284E+02  0.18676474905E+03  0.20249310671E+03  0.00000000000E+00 0.  1.
         -3    1    6    6    0  502 -0.62283726060E+02  0.95918247609E+02 -0.62890277516E+03  0.63921692199E+03  0.00000000000E+00 0.  1.
<mgrwt>
<rscale>  0 0.11847402E+04</rscale>
<asrwt>0</asrwt>
<pdfrwt beam="1">  1        1 0.22778986E+00 0.11847402E+04</pdfrwt>
<pdfrwt beam="2">  1       -1 0.36460716E-01 0.11847402E+04</pdfrwt>
<totfact> 0.48181515E+01</totfact>
</mgrwt>
</event>
<event>
12    1  0.1541840E-007  0.1170552E+04  0.7818608E-02  0.9139030E-01
         -1   -1    0    0    0  501 -0.00000000000E+00  0.00000000000E+00  0.31408523635E+03  0.31408523635E+03  0.00000000000E+00 0.  1.
          1   -1    0    0  501    0  0.00000000000E+00 -0.00000000000E+00 -0.10906212636E+04  0.10906212636E+04  0.00000000000E+00 0. -1.
         23    2    1    2    0    0 -0.22396357522E+02  0.16170376234E+03 -0.46166019258E+03  0.49819585801E+03  0.91756612509E+02 0.  0.
        254    2    1    2    0    0  0.22396357522E+02 -0.16170376234E+03 -0.31487583465E+03  0.90651064191E+03  0.83424519721E+03 0.  0.
        -24    2    4    4    0    0  0.29465645793E+03 -0.35582331210E+03 -0.31186122479E+03  0.56304579637E+03  0.79564361685E+02 0.  0.
         24    2    4    4    0    0 -0.27226010041E+03  0.19411954976E+03 -0.30146098538E+01  0.34346484554E+03  0.78428632368E+02 0.  0.
         11    1    3    3    0    0 -0.83901304949E+01  0.17014245140E+03 -0.40906575256E+03  0.44311808581E+03  0.00000000000E+00 0. -1.
        -11    1    3    3    0    0 -0.14006227027E+02 -0.84386890664E+01 -0.52594440020E+02  0.55077772192E+02  0.00000000000E+00 0.  1.
          2    1    6    6  502    0 -0.93239390825E+02  0.55667022340E+02  0.34761396233E+02  0.11402085794E+03  0.00000000000E+00 0. -1.
          3    1    5    5  503    0  0.77394459330E+02 -0.15157061156E+03 -0.12463418378E+03  0.21094367113E+03  0.00000000000E+00 0. -1.
         -4    1    5    5    0  503  0.21726199860E+03 -0.20425270054E+03 -0.18722704101E+03  0.35210212524E+03  0.00000000000E+00 0.  1.
         -1    1    6    6    0  502 -0.17902070958E+03  0.13845252742E+03 -0.37776006086E+02  0.22944398760E+03  0.00000000000E+00 0.  1.
<mgrwt>
<rscale>  0 0.11705521E+04</rscale>
<asrwt>0</asrwt>
<pdfrwt beam="1">  1        1 0.16778789E+00 0.11705521E+04</pdfrwt>
<pdfrwt beam="2">  1       -1 0.48320805E-01 0.11705521E+04</pdfrwt>
<totfact> 0.54723504E+01</totfact>
</mgrwt>
</event>
<event>
12    1  0.1541840E-007  0.1939981E+04  0.7818608E-02  0.8635207E-01
         -1   -1    0    0    0  501 -0.00000000000E+00  0.00000000000E+00  0.21180428190E+04  0.21180428190E+04  0.00000000000E+00 0.  1.
          1   -1    0    0  501    0  0.00000000000E+00 -0.00000000000E+00 -0.44422219158E+03  0.44422219158E+03  0.00000000000E+00 0. -1.
         23    2    1    2    0    0  0.38575747641E+02 -0.36573595157E+03 -0.21328503271E+03  0.43488762727E+03  0.91574388346E+02 0.  0.
        254    2    1    2    0    0 -0.38575747641E+02  0.36573595157E+03  0.18871056602E+04  0.21273773833E+04  0.91066782305E+03 0.  0.
        -24    2    4    4    0    0  0.34363335271E+03  0.30486074678E+03  0.49497124064E+03  0.68018625026E+03  0.81442310637E+02 0.  0.
         24    2    4    4    0    0 -0.38220910035E+03  0.60875204790E+02  0.13921344195E+04  0.14471911331E+04  0.80835305940E+02 0.  0.
         13    1    3    3    0    0 -0.15113277578E+01 -0.30851079559E+03 -0.16409868322E+03  0.34944180194E+03  0.00000000000E+00 0. -1.
        -13    1    3    3    0    0  0.40087075399E+02 -0.57225155976E+02 -0.49186349494E+02  0.85445825334E+02  0.00000000000E+00 0.  1.
          2    1    6    6  502    0 -0.33469430678E+03  0.63632709552E+02  0.12943902288E+04  0.13384750521E+04  0.00000000000E+00 0. -1.
          3    1    5    5  503    0  0.70136303699E+02  0.10241410090E+03  0.10453943610E+03  0.16228445045E+03  0.00000000000E+00 0. -1.
         -4    1    5    5    0  503  0.27349704901E+03  0.20244664588E+03  0.39043180454E+03  0.51790179981E+03  0.00000000000E+00 0.  1.
         -1    1    6    6    0  502 -0.47514793564E+02 -0.27575047622E+01  0.97744190742E+02  0.10871608098E+03  0.00000000000E+00 0.  1.
<mgrwt>
<rscale>  0 0.19399811E+04</rscale>
<asrwt>0</asrwt>
<pdfrwt beam="1">  1        1 0.68341877E-01 0.19399811E+04</pdfrwt>
<pdfrwt beam="2">  1       -1 0.32585274E+00 0.19399811E+04</pdfrwt>
<totfact> 0.10903558E+00</totfact>
</mgrwt>
</event>
<event>
12    1  0.1541840E-007  0.1681341E+04  0.7818608E-02  0.8772078E-01
         -2   -1    0    0    0  501 -0.00000000000E+00  0.00000000000E+00  0.29843099501E+03  0.29843099501E+03  0.00000000000E+00 0.  1.
          2   -1    0    0  501    0  0.00000000000E+00 -0.00000000000E+00 -0.23681419334E+04  0.23681419334E+04  0.00000000000E+00 0. -1.
         23    2    1    2    0    0  0.12954320758E+03  0.39863530110E+03 -0.13901530205E+03  0.44969240460E+03  0.84890863086E+02 0.  0.
        254    2    1    2    0    0 -0.12954320758E+03 -0.39863530110E+03 -0.19306956364E+04  0.22168805238E+04  0.10056252139E+04 0.  0.
        -24    2    4    4    0    0 -0.38893981920E+03  0.10141487835E+03 -0.13215475274E+04  0.13836015690E+04  0.79412053191E+02 0.  0.
         24    2    4    4    0    0  0.25939661162E+03 -0.50005017945E+03 -0.60914810898E+03  0.83327895479E+03  0.77172622980E+02 0.  0.
         11    1    3    3    0    0  0.14373574930E+02  0.18427003210E+01 -0.42882743718E+01  0.15112395503E+02  0.00000000000E+00 0. -1.
        -11    1    3    3    0    0  0.11516963265E+03  0.39679260078E+03 -0.13472702767E+03  0.43458000910E+03  0.00000000000E+00 0.  1.
          4    1    6    6  502    0  0.23314113250E+02 -0.95048541999E+02 -0.80530726214E+02  0.12673977701E+03  0.00000000000E+00 0. -1.
          1    1    5    5  503    0 -0.10546751565E+03  0.63763712124E+02 -0.36708132904E+03  0.38721816844E+03  0.00000000000E+00 0. -1.
         -2    1    5    5    0  503 -0.28347230355E+03  0.37651166226E+02 -0.95446619835E+03  0.99638340060E+03  0.00000000000E+00 0.  1.
         -3    1    6    6    0  502  0.23608249837E+03 -0.40500163746E+03 -0.52861738276E+03  0.70653917778E+03  0.00000000000E+00 0.  1.
<mgrwt>
<rscale>  0 0.16813411E+04</rscale>
<asrwt>0</asrwt>
<pdfrwt beam="1">  1        2 0.36432953E+00 0.16813411E+04</pdfrwt>
<pdfrwt beam="2">  1       -2 0.45912460E-01 0.16813411E+04</pdfrwt>
<totfact> 0.17792404E+01</totfact>
</mgrwt>
</event>
<event>
12    1  0.1541840E-007  0.1040246E+04  0.7818608E-02  0.9265473E-01
          2   -1    0    0  501    0  0.00000000000E+00  0.00000000000E+00  0.64781961668E+03  0.64781961668E+03  0.00000000000E+00 0. -1.
         -2   -1    0    0    0  501 -0.00000000000E+00 -0.00000000000E+00 -0.41759779936E+03  0.41759779936E+03  0.00000000000E+00 0.  1.
         23    2    1    2    0    0  0.53036337603E+02 -0.21024898587E+02 -0.56695603439E+02  0.12165564038E+03  0.91273237701E+02 0.  0.
        254    2    1    2    0    0 -0.53036337603E+02  0.21024898587E+02  0.28691742076E+03  0.94376177565E+03  0.89727910004E+03 0.  0.
        -24    2    4    4    0    0 -0.81227675116E+02 -0.39070551861E+03  0.32649534960E+03  0.52147715232E+03  0.78041460848E+02 0.  0.
         24    2    4    4    0    0  0.28191337513E+02  0.41173041720E+03 -0.39577928838E+02  0.42228462333E+03  0.80257103672E+02 0.  0.
         11    1    3    3    0    0  0.22439518292E+02 -0.10754248480E+02  0.24106983699E+02  0.34645815110E+02  0.00000000000E+00 0. -1.
        -11    1    3    3    0    0  0.30596819311E+02 -0.10270650107E+02 -0.80802587138E+02  0.87009825271E+02  0.00000000000E+00 0.  1.
          4    1    6    6  502    0  0.19428137591E+02  0.33438236752E+03 -0.63367401148E+02  0.34088773485E+03  0.00000000000E+00 0. -1.
          3    1    5    5  503    0 -0.73597654810E+02 -0.27901862811E+03  0.19252729403E+03  0.34689302180E+03  0.00000000000E+00 0. -1.
         -4    1    5    5    0  503 -0.76300203063E+01 -0.11168689050E+03  0.13396805557E+03  0.17458413053E+03  0.00000000000E+00 0.  1.
         -3    1    6    6    0  502  0.87631999220E+01  0.77348049675E+02  0.23789472310E+02  0.81396888480E+02  0.00000000000E+00 0.  1.
<mgrwt>
<rscale>  0 0.10402462E+04</rscale>
<asrwt>0</asrwt>
<pdfrwt beam="1">  1        2 0.99664557E-01 0.10402462E+04</pdfrwt>
<pdfrwt beam="2">  1       -2 0.64245815E-01 0.10402462E+04</pdfrwt>
<totfact> 0.10075773E+02</totfact>
</mgrwt>
</event>
<event>
12    1  0.1541840E-007  0.1599798E+04  0.7818608E-02  0.8820672E-01
          1   -1    0    0  501    0  0.00000000000E+00  0.00000000000E+00  0.27084688139E+04  0.27084688139E+04  0.00000000000E+00 0. -1.
         -1   -1    0    0    0  501 -0.00000000000E+00 -0.00000000000E+00 -0.23623616579E+03  0.23623616579E+03  0.00000000000E+00 0.  1.
         23    2    1    2    0    0 -0.39625346242E+03 -0.37054547343E+03  0.79457343313E+03  0.96641229335E+03  0.91022116678E+02 0.  0.
        254    2    1    2    0    0  0.39625346242E+03  0.37054547343E+03  0.16776592150E+04  0.19782926864E+04  0.89709573450E+03 0.  0.
        -24    2    4    4    0    0 -0.10194658306E+02 -0.15341092202E+03  0.59226102574E+00  0.17315048440E+03  0.79636030931E+02 0.  0.
         24    2    4    4    0    0  0.40644812073E+03  0.52395639546E+03  0.16770669540E+04  0.18051422020E+04  0.79084903644E+02 0.  0.
         13    1    3    3    0    0 -0.80702806323E+02 -0.57631515343E+02  0.93115237652E+02  0.13603228290E+03  0.00000000000E+00 0.  1.
        -13    1    3    3    0    0 -0.31555065610E+03 -0.31291395809E+03  0.70145819548E+03  0.83038001044E+03  0.00000000000E+00 0. -1.
          2    1    6    6  502    0  0.97016788720E+02  0.10400764984E+03  0.44565617180E+03  0.46780259937E+03  0.00000000000E+00 0. -1.
          1    1    5    5  503    0  0.20358040663E+02 -0.45123486463E+01  0.33789039979E+01  0.21124111867E+02  0.00000000000E+00 0. -1.
         -2    1    5    5    0  503 -0.30552698969E+02 -0.14889857338E+03 -0.27866429721E+01  0.15202637254E+03  0.00000000000E+00 0.  1.
         -1    1    6    6    0  502  0.30943133201E+03  0.41994874562E+03  0.12314107822E+04  0.13373396026E+04  0.00000000000E+00 0.  1.
<mgrwt>
<rscale>  0 0.15997978E+04</rscale>
<asrwt>0</asrwt>
<pdfrwt beam="1">  1        1 0.41668749E+00 0.15997978E+04</pdfrwt>
<pdfrwt beam="2">  1       -1 0.36344027E-01 0.15997978E+04</pdfrwt>
<totfact> 0.67553648E+00</totfact>
</mgrwt>
</event>
<event>
12    1  0.1541840E-007  0.2165507E+04  0.7818608E-02  0.8532924E-01
         -2   -1    0    0    0  501 -0.00000000000E+00  0.00000000000E+00  0.42968725720E+03  0.42968725720E+03  0.00000000000E+00 0.  1.
          2   -1    0    0  501    0  0.00000000000E+00 -0.00000000000E+00 -0.27283904397E+04  0.27283904397E+04  0.00000000000E+00 0. -1.
         23    2    1    2    0    0  0.19686549730E+03  0.59781750834E+03 -0.35269214880E+02  0.63693206003E+03  0.91086411036E+02 0.  0.
        254    2    1    2    0    0 -0.19686549730E+03 -0.59781750834E+03 -0.22634339677E+04  0.25211456369E+04  0.91482249606E+03 0.  0.
        -24    2    4    4    0    0 -0.17877413641E+03 -0.92850879679E+02 -0.18520456630E+04  0.18644153730E+04  0.73417079517E+02 0.  0.
         24    2    4    4    0    0 -0.18091360898E+02 -0.50496662866E+03 -0.41138830466E+03  0.65673026391E+03  0.82071364848E+02 0.  0.
         11    1    3    3    0    0  0.76140239610E+02  0.36908670806E+03 -0.90016136284E+01  0.37696599740E+03  0.00000000000E+00 0.  1.
        -11    1    3    3    0    0  0.12072525769E+03  0.22873080028E+03 -0.26267601251E+02  0.25996606263E+03  0.00000000000E+00 0. -1.
          2    1    6    6  502    0 -0.98981586158E+01 -0.33583184938E+03 -0.32149247870E+03  0.46501442823E+03  0.00000000000E+00 0. -1.
          3    1    5    5  503    0 -0.10846591733E+03 -0.19098302781E+02 -0.82280778935E+03  0.83014592609E+03  0.00000000000E+00 0. -1.
         -4    1    5    5    0  503 -0.70308219078E+02 -0.73752576897E+02 -0.10292378736E+04  0.10342694469E+04  0.00000000000E+00 0.  1.
         -1    1    6    6    0  502 -0.81932022824E+01 -0.16913477928E+03 -0.89895825954E+02  0.19171583568E+03  0.00000000000E+00 0.  1.
<mgrwt>
<rscale>  0 0.21655065E+04</rscale>
<asrwt>0</asrwt>
<pdfrwt beam="1">  1        2 0.41975237E+00 0.21655065E+04</pdfrwt>
<pdfrwt beam="2">  1       -2 0.66105733E-01 0.21655065E+04</pdfrwt>
<totfact> 0.49309321E+00</totfact>
</mgrwt>
</event>
<event>
12    1  0.1541840E-007  0.2127406E+04  0.7818608E-02  0.8549266E-01
          1   -1    0    0  501    0  0.00000000000E+00  0.00000000000E+00  0.50097382585E+03  0.50097382585E+03  0.00000000000E+00 0. -1.
         -1   -1    0    0    0  501 -0.00000000000E+00 -0.00000000000E+00 -0.22585297072E+04  0.22585297072E+04  0.00000000000E+00 0.  1.
         23    2    1    2    0    0 -0.55387814469E+03 -0.66342558462E+03 -0.60185135344E+03  0.10564842404E+04  0.83781817975E+02 0.  0.
        254    2    1    2    0    0  0.55387814469E+03  0.66342558462E+03 -0.11557045280E+04  0.17030192927E+04  0.90427166823E+03 0.  0.
        -24    2    4    4    0    0 -0.90956805347E+02  0.56373528657E+03 -0.40128153685E+03  0.70234363450E+03  0.78670803566E+02 0.  0.
         24    2    4    4    0    0  0.64483495003E+03  0.99690298049E+02 -0.75442299110E+03  0.10006756582E+04  0.80296046981E+02 0.  0.
         13    1    3    3    0    0 -0.11602404814E+03 -0.90790637696E+02 -0.95658468361E+02  0.17565609072E+03  0.00000000000E+00 0.  1.
        -13    1    3    3    0    0 -0.43785409655E+03 -0.57263494692E+03 -0.50619288508E+03  0.88082814965E+03  0.00000000000E+00 0. -1.
          2    1    6    6  502    0  0.65147735978E+02  0.21802223543E+02 -0.11611182228E+03  0.13491300800E+03  0.00000000000E+00 0. -1.
          1    1    5    5  503    0 -0.22237346761E+02  0.79497571415E+02 -0.28307335206E+02  0.87267798633E+02  0.00000000000E+00 0. -1.
         -2    1    5    5    0  503 -0.68719458586E+02  0.48423771516E+03 -0.37297420165E+03  0.61507583586E+03  0.00000000000E+00 0.  1.
         -1    1    6    6    0  502  0.57968721406E+03  0.77888074506E+02 -0.63831116882E+03  0.86576265023E+03  0.00000000000E+00 0.  1.
<mgrwt>
<rscale>  0 0.21274062E+04</rscale>
<asrwt>0</asrwt>
<pdfrwt beam="1">  1        1 0.77072895E-01 0.21274062E+04</pdfrwt>
<pdfrwt beam="2">  1       -1 0.34746611E+00 0.21274062E+04</pdfrwt>
<totfact> 0.65571573E-01</totfact>
</mgrwt>
</event>
<event>
12    1  0.1541840E-007  0.2379371E+04  0.7818608E-02  0.8447267E-01
         -2   -1    0    0    0  501 -0.00000000000E+00  0.00000000000E+00  0.11229189120E+04  0.11229189120E+04  0.00000000000E+00 0.  1.
          2   -1    0    0  501    0  0.00000000000E+00 -0.00000000000E+00 -0.12604218436E+04  0.12604218436E+04  0.00000000000E+00 0. -1.
         23    2    1    2    0    0  0.90981767494E+03  0.10820749508E+03  0.36127849826E+03  0.98916658622E+03  0.91931052193E+02 0.  0.
        254    2    1    2    0    0 -0.90981767494E+03 -0.10820749508E+03 -0.49878142994E+03  0.13941741694E+04  0.92491169097E+03 0.  0.
        -24    2    4    4    0    0 -0.16360413968E+03  0.36948474837E+03 -0.17604436583E+03  0.44776863055E+03  0.78865923972E+02 0.  0.
         24    2    4    4    0    0 -0.74621353527E+03 -0.47769224345E+03 -0.32273706412E+03  0.94640553884E+03  0.80620789642E+02 0.  0.
         11    1    3    3    0    0  0.20615158250E+01 -0.50564598978E+01  0.51184138010E+01  0.74843699824E+01  0.00000000000E+00 0.  1.
        -11    1    3    3    0    0  0.90775615912E+03  0.11326395498E+03  0.35616008446E+03  0.98168221624E+03  0.00000000000E+00 0. -1.
          2    1    6    6  502    0 -0.14021526445E+03 -0.12718734364E+03 -0.58575124105E+02  0.19816151476E+03  0.00000000000E+00 0. -1.
          3    1    5    5  503    0  0.26731418952E+00  0.24139748914E+02 -0.30141512170E+02  0.38617479079E+02  0.00000000000E+00 0. -1.
         -4    1    5    5    0  503 -0.16387145387E+03  0.34534499946E+03 -0.14590285366E+03  0.40915115147E+03  0.00000000000E+00 0.  1.
         -1    1    6    6    0  502 -0.60599827081E+03 -0.35050489981E+03 -0.26416194001E+03  0.74824402408E+03  0.00000000000E+00 0.  1.
<mgrwt>
<rscale>  0 0.23793709E+04</rscale>
<asrwt>0</asrwt>
<pdfrwt beam="1">  1        2 0.19391105E+00 0.23793709E+04</pdfrwt>
<pdfrwt beam="2">  1       -2 0.17275676E+00 0.23793709E+04</pdfrwt>
<totfact> 0.32008821E+00</totfact>
</mgrwt>
</event>
<event>
12    1  0.1541840E-007  0.1254842E+04  0.7818608E-02  0.9066163E-01
          1   -1    0    0  501    0  0.00000000000E+00  0.00000000000E+00  0.29474593275E+04  0.29474593275E+04  0.00000000000E+00 0. -1.
         -1   -1    0    0    0  501 -0.00000000000E+00 -0.00000000000E+00 -0.13355811708E+03  0.13355811708E+03  0.00000000000E+00 0.  1.
         23    2    1    2    0    0 -0.20769395355E+03 -0.66579208647E+02  0.11119264389E+04  0.11371704835E+04  0.95951725081E+02 0.  0.
        254    2    1    2    0    0  0.20769395355E+03  0.66579208647E+02  0.17019747715E+04  0.19438469611E+04  0.91337468546E+03 0.  0.
        -24    2    4    4    0    0 -0.13500524557E+02  0.36518228724E+03  0.26671789044E+03  0.45917486461E+03  0.78503223657E+02 0.  0.
         24    2    4    4    0    0  0.22119447811E+03 -0.29860307860E+03  0.14352568811E+04  0.14846720965E+04  0.78728164115E+02 0.  0.
         11    1    3    3    0    0 -0.96052405422E+02 -0.29080100193E+02  0.74698758745E+03  0.75369899337E+03  0.00000000000E+00 0. -1.
        -11    1    3    3    0    0 -0.11164154813E+03 -0.37499108454E+02  0.36493885148E+03  0.38347149011E+03  0.00000000000E+00 0.  1.
          4    1    6    6  502    0  0.95833525056E+00 -0.32858830440E+01  0.60494564725E+00  0.34758298386E+01  0.00000000000E+00 0. -1.
          3    1    5    5  503    0  0.54820394008E+01  0.81510718660E+02  0.10169943756E+03  0.13044855542E+03  0.00000000000E+00 0. -1.
         -4    1    5    5    0  503 -0.18982563957E+02  0.28367156858E+03  0.16501845289E+03  0.32872630919E+03  0.00000000000E+00 0.  1.
         -3    1    6    6    0  502  0.22023614285E+03 -0.29531719555E+03  0.14346519354E+04  0.14811962667E+04  0.00000000000E+00 0.  1.
<mgrwt>
<rscale>  0 0.12548420E+04</rscale>
<asrwt>0</asrwt>
<pdfrwt beam="1">  1        1 0.45345523E+00 0.12548420E+04</pdfrwt>
<pdfrwt beam="2">  1       -1 0.20547405E-01 0.12548420E+04</pdfrwt>
<totfact> 0.12713266E+01</totfact>
</mgrwt>
</event>
<event>
12    1  0.1541840E-007  0.3132195E+04  0.7818608E-02  0.8206957E-01
          1   -1    0    0  501    0  0.00000000000E+00  0.00000000000E+00  0.23459937986E+04  0.23459937986E+04  0.00000000000E+00 0. -1.
         -1   -1    0    0    0  501 -0.00000000000E+00 -0.00000000000E+00 -0.10454681144E+04  0.10454681144E+04  0.00000000000E+00 0.  1.
         23    2    1    2    0    0  0.75410143552E+03  0.12179080085E+04  0.42275938249E+03  0.14961737834E+04  0.88552823487E+02 0.  0.
        254    2    1    2    0    0 -0.75410143552E+03 -0.12179080085E+04  0.87776630172E+03  0.18952881295E+04  0.87731096029E+03 0.  0.
        -24    2    4    4    0    0 -0.29049262099E+03 -0.89561272366E+02  0.54286119014E+03  0.62739313069E+03  0.80725982931E+02 0.  0.
         24    2    4    4    0    0 -0.46360881453E+03 -0.11283467362E+04  0.33490511158E+03  0.12678949988E+04  0.85421333970E+02 0.  0.
         13    1    3    3    0    0  0.68500150499E+03  0.11026233900E+04  0.35550234331E+03  0.13458778986E+04  0.00000000000E+00 0.  1.
        -13    1    3    3    0    0  0.69099930526E+02  0.11528461854E+03  0.67257039176E+02  0.15029588480E+03  0.00000000000E+00 0. -1.
          2    1    6    6  502    0 -0.26462518642E+03 -0.54898487692E+03  0.14340671968E+03  0.62608016389E+03  0.00000000000E+00 0. -1.
          1    1    5    5  503    0 -0.19004680079E+03 -0.93971629460E+02  0.39979248820E+03  0.45252899051E+03  0.00000000000E+00 0. -1.
         -2    1    5    5    0  503 -0.10044582020E+03  0.44103570938E+01  0.14306870195E+03  0.17486414018E+03  0.00000000000E+00 0.  1.
         -1    1    6    6    0  502 -0.19898362811E+03 -0.57936185923E+03  0.19149839190E+03  0.64181483489E+03  0.00000000000E+00 0.  1.
<mgrwt>
<rscale>  0 0.31321952E+04</rscale>
<asrwt>0</asrwt>
<pdfrwt beam="1">  1        1 0.36092212E+00 0.31321952E+04</pdfrwt>
<pdfrwt beam="2">  1       -1 0.16084125E+00 0.31321952E+04</pdfrwt>
<totfact> 0.41932383E-01</totfact>
</mgrwt>
</event>
<event>
12    1  0.1541840E-007  0.1540329E+04  0.7818608E-02  0.8858069E-01
          2   -1    0    0  501    0  0.00000000000E+00  0.00000000000E+00  0.81995451605E+03  0.81995451605E+03  0.00000000000E+00 0. -1.
         -2   -1    0    0    0  501 -0.00000000000E+00 -0.00000000000E+00 -0.72339805719E+03  0.72339805719E+03  0.00000000000E+00 0.  1.
         23    2    1    2    0    0  0.33017410231E+03  0.29199207768E+03  0.31720547019E+03  0.55033253022E+03  0.89287581600E+02 0.  0.
        254    2    1    2    0    0 -0.33017410231E+03 -0.29199207768E+03 -0.22064901133E+03  0.99302004302E+03  0.86204901738E+03 0.  0.
        -24    2    4    4    0    0 -0.17409559758E+03  0.24111958054E+03  0.12635973339E+03  0.33297833502E+03  0.80373255209E+02 0.  0.
         24    2    4    4    0    0 -0.15607850473E+03 -0.53311165823E+03 -0.34700874472E+03  0.66004170800E+03  0.81678930013E+02 0.  0.
         13    1    3    3    0    0  0.26325679832E+03  0.21184066899E+03  0.19711140909E+03  0.39119498782E+03  0.00000000000E+00 0. -1.
        -13    1    3    3    0    0  0.66917303988E+02  0.80151408697E+02  0.12009406110E+03  0.15913754240E+03  0.00000000000E+00 0.  1.
          4    1    6    6  502    0 -0.11803567510E+02 -0.15213788395E+03 -0.73569340422E+02  0.16940397808E+03  0.00000000000E+00 0. -1.
          3    1    5    5  503    0 -0.10623661513E+02  0.12730206840E+02 -0.11426634591E+02  0.20136740754E+02  0.00000000000E+00 0. -1.
         -4    1    5    5    0  503 -0.16347193607E+03  0.22838937370E+03  0.13778636798E+03  0.31284159427E+03  0.00000000000E+00 0.  1.
         -3    1    6    6    0  502 -0.14427493722E+03 -0.38097377427E+03 -0.27343940430E+03  0.49063772992E+03  0.00000000000E+00 0.  1.
<mgrwt>
<rscale>  0 0.15403292E+04</rscale>
<asrwt>0</asrwt>
<pdfrwt beam="1">  1        2 0.12614685E+00 0.15403292E+04</pdfrwt>
<pdfrwt beam="2">  1       -2 0.11129201E+00 0.15403292E+04</pdfrwt>
<totfact> 0.20505029E+01</totfact>
</mgrwt>
</event>
<event>
12    1  0.1541840E-007  0.1818052E+04  0.7818608E-02  0.8696758E-01
          2   -1    0    0  501    0  0.00000000000E+00  0.00000000000E+00  0.20049684316E+04  0.20049684316E+04  0.00000000000E+00 0. -1.
         -2   -1    0    0    0  501 -0.00000000000E+00 -0.00000000000E+00 -0.41214031347E+03  0.41214031347E+03  0.00000000000E+00 0.  1.
         23    2    1    2    0    0 -0.37246011134E+03 -0.57573378376E+03  0.57687066577E+03  0.90054547623E+03  0.89478854679E+02 0.  0.
        254    2    1    2    0    0  0.37246011134E+03  0.57573378376E+03  0.10159574524E+04  0.15165632689E+04  0.89308380298E+03 0.  0.
        -24    2    4    4    0    0 -0.56727009191E+02 -0.20603606925E+03  0.17408364442E+03  0.28761937871E+03  0.82164325327E+02 0.  0.
         24    2    4    4    0    0  0.42918712053E+03  0.78176985300E+03  0.84187380798E+03  0.12289438902E+04  0.78650423555E+02 0.  0.
         13    1    3    3    0    0 -0.25720251690E+03 -0.31659191399E+03  0.33897416372E+03  0.53036502370E+03  0.00000000000E+00 0.  1.
        -13    1    3    3    0    0 -0.11525759444E+03 -0.25914186977E+03  0.23789650205E+03  0.37018045252E+03  0.00000000000E+00 0. -1.
          4    1    6    6  502    0  0.26158585998E+02  0.73458909629E+02  0.10073300316E+03  0.12738767975E+03  0.00000000000E+00 0. -1.
          1    1    5    5  503    0 -0.51921563799E+01 -0.15287622616E+03  0.99209849512E+02  0.18232030400E+03  0.00000000000E+00 0. -1.
         -2    1    5    5    0  503 -0.51534852811E+02 -0.53159843090E+02  0.74873794905E+02  0.10529907471E+03  0.00000000000E+00 0.  1.
         -3    1    6    6    0  502  0.40302853453E+03  0.70831094337E+03  0.74114080481E+03  0.11015562104E+04  0.00000000000E+00 0.  1.
<mgrwt>
<rscale>  0 0.18180521E+04</rscale>
<asrwt>0</asrwt>
<pdfrwt beam="1">  1        2 0.30845668E+00 0.18180521E+04</pdfrwt>
<pdfrwt beam="2">  1       -2 0.63406203E-01 0.18180521E+04</pdfrwt>
<totfact> 0.14410931E+01</totfact>
</mgrwt>
</event>
<event>
12    1  0.1541840E-007  0.1357959E+04  0.7818608E-02  0.8984825E-01
          1   -1    0    0  501    0  0.00000000000E+00  0.00000000000E+00  0.20078544278E+04  0.20078544278E+04  0.00000000000E+00 0. -1.
         -1   -1    0    0    0  501 -0.00000000000E+00 -0.00000000000E+00 -0.22960475737E+03  0.22960475737E+03  0.00000000000E+00 0.  1.
         23    2    1    2    0    0  0.26575128924E+03 -0.25540875360E+03  0.41386005468E+03  0.56171559791E+03  0.91579959181E+02 0.  0.
        254    2    1    2    0    0 -0.26575128924E+03  0.25540875360E+03  0.13643896158E+04  0.16757435873E+04  0.90038889795E+03 0.  0.
        -24    2    4    4    0    0  0.20491775677E+03  0.69555605827E+02  0.10509613528E+04  0.10759270999E+04  0.79183898798E+02 0.  0.
         24    2    4    4    0    0 -0.47066904601E+03  0.18585314777E+03  0.31342826293E+03  0.59981648737E+03  0.73971610087E+02 0.  0.
         13    1    3    3    0    0  0.22248947717E+03 -0.17514200812E+03  0.26908553128E+03  0.39061914137E+03  0.00000000000E+00 0. -1.
        -13    1    3    3    0    0  0.43261812068E+02 -0.80266745479E+02  0.14477452341E+03  0.17109645654E+03  0.00000000000E+00 0.  1.
          2    1    6    6  502    0 -0.47251226179E+03  0.18575497616E+03  0.30742126645E+03  0.59353229380E+03  0.00000000000E+00 0. -1.
          1    1    5    5  503    0  0.11382851313E+03  0.35330246037E+02  0.75579761182E+03  0.76513736461E+03  0.00000000000E+00 0. -1.
         -2    1    5    5    0  503  0.91089243643E+02  0.34225359790E+02  0.29516374101E+03  0.31078973530E+03  0.00000000000E+00 0.  1.
         -1    1    6    6    0  502  0.18432157795E+01  0.98171611032E-01  0.60069964829E+01  0.62841935697E+01  0.00000000000E+00 0.  1.
<mgrwt>
<rscale>  0 0.13579587E+04</rscale>
<asrwt>0</asrwt>
<pdfrwt beam="1">  1        1 0.30890067E+00 0.13579587E+04</pdfrwt>
<pdfrwt beam="2">  1       -1 0.35323810E-01 0.13579587E+04</pdfrwt>
<totfact> 0.22002221E+01</totfact>
</mgrwt>
</event>
<event>
12    1  0.1541840E-007  0.1657276E+04  0.7818608E-02  0.8786114E-01
         -1   -1    0    0    0  501 -0.00000000000E+00  0.00000000000E+00  0.12115766259E+04  0.12115766259E+04  0.00000000000E+00 0.  1.
          1   -1    0    0  501    0  0.00000000000E+00 -0.00000000000E+00 -0.56673343745E+03  0.56673343745E+03  0.00000000000E+00 0. -1.
         23    2    1    2    0    0  0.39147632138E+03  0.33391241649E+03 -0.65827348613E+02  0.52687149460E+03  0.92244890965E+02 0.  0.
        254    2    1    2    0    0 -0.39147632138E+03 -0.33391241649E+03  0.71067053705E+03  0.12514385687E+04  0.89235344288E+03 0.  0.
        -24    2    4    4    0    0 -0.47900181403E+02 -0.17836306917E+02 -0.20228083742E+03  0.22287034000E+03  0.78365107289E+02 0.  0.
         24    2    4    4    0    0 -0.34357613998E+03 -0.31607610957E+03  0.91295137447E+03  0.10285682287E+04  0.80769536578E+02 0.  0.
         13    1    3    3    0    0  0.10664519228E+03  0.96325645765E+02 -0.60492542729E+02  0.15592041173E+03  0.00000000000E+00 0. -1.
        -13    1    3    3    0    0  0.28483112910E+03  0.23758677072E+03 -0.53348058846E+01  0.37095108287E+03  0.00000000000E+00 0.  1.
          2    1    6    6  502    0 -0.10565179864E+03 -0.88668160023E+02  0.35392926694E+03  0.37985559250E+03  0.00000000000E+00 0. -1.
          1    1    5    5  503    0 -0.57984111828E+02 -0.36572468734E+02 -0.12333190964E+03  0.14110443873E+03  0.00000000000E+00 0. -1.
         -2    1    5    5    0  503  0.10083930425E+02  0.18736161817E+02 -0.78948927784E+02  0.81765901271E+02  0.00000000000E+00 0.  1.
         -1    1    6    6    0  502 -0.23792434134E+03 -0.22740794955E+03  0.55902210753E+03  0.64871263624E+03  0.00000000000E+00 0.  1.
<mgrwt>
<rscale>  0 0.16572761E+04</rscale>
<asrwt>0</asrwt>
<pdfrwt beam="1">  1        1 0.87189760E-01 0.16572761E+04</pdfrwt>
<pdfrwt beam="2">  1       -1 0.18639640E+00 0.16572761E+04</pdfrwt>
<totfact> 0.66501308E+00</totfact>
</mgrwt>
</event>
<event>
12    1  0.1541840E-007  0.1607122E+04  0.7818608E-02  0.8816185E-01
         -1   -1    0    0    0  501 -0.00000000000E+00  0.00000000000E+00  0.54783975388E+03  0.54783975388E+03  0.00000000000E+00 0.  1.
          1   -1    0    0  501    0  0.00000000000E+00 -0.00000000000E+00 -0.11786477135E+04  0.11786477135E+04  0.00000000000E+00 0. -1.
         23    2    1    2    0    0  0.43968850818E+03 -0.28618243633E+03 -0.29055341215E+03  0.60653886985E+03  0.90784052754E+02 0.  0.
        254    2    1    2    0    0 -0.43968850818E+03  0.28618243633E+03 -0.34025454750E+03  0.11199485975E+04  0.92913149391E+03 0.  0.
        -24    2    4    4    0    0 -0.35011605021E+03 -0.22677651912E+03 -0.40649427415E+03  0.58872520647E+03  0.85737597213E+02 0.  0.
         24    2    4    4    0    0 -0.89572457966E+02  0.51295895545E+03  0.66239726655E+02  0.53122339107E+03  0.81611731000E+02 0.  0.
         11    1    3    3    0    0  0.44021634143E+03 -0.27062231224E+03 -0.28400399376E+03  0.58964831181E+03  0.00000000000E+00 0. -1.
        -11    1    3    3    0    0 -0.52783325362E+00 -0.15560124088E+02 -0.65494183909E+01  0.16890558038E+02  0.00000000000E+00 0.  1.
          2    1    6    6  502    0 -0.37078855127E+02  0.40399045505E+03  0.60082313584E+02  0.41011341562E+03  0.00000000000E+00 0. -1.
          3    1    5    5  503    0 -0.31009728738E+03 -0.18527299893E+03 -0.38297990689E+03  0.52645989482E+03  0.00000000000E+00 0. -1.
         -4    1    5    5    0  503 -0.40018762837E+02 -0.41503520195E+02 -0.23514367257E+02  0.62265311652E+02  0.00000000000E+00 0.  1.
         -1    1    6    6    0  502 -0.52493602838E+02  0.10896850040E+03  0.61574130719E+01  0.12110997545E+03  0.00000000000E+00 0.  1.
<mgrwt>
<rscale>  0 0.16071217E+04</rscale>
<asrwt>0</asrwt>
<pdfrwt beam="1">  1        1 0.18133041E+00 0.16071217E+04</pdfrwt>
<pdfrwt beam="2">  1       -1 0.84283041E-01 0.16071217E+04</pdfrwt>
<totfact> 0.14816599E+01</totfact>
</mgrwt>
</event>
<event>
12    1  0.1541840E-007  0.1550714E+04  0.7818608E-02  0.8851412E-01
          2   -1    0    0  501    0  0.00000000000E+00  0.00000000000E+00  0.17812184230E+04  0.17812184230E+04  0.00000000000E+00 0. -1.
         -2   -1    0    0    0  501 -0.00000000000E+00 -0.00000000000E+00 -0.33750949574E+03  0.33750949574E+03  0.00000000000E+00 0.  1.
         23    2    1    2    0    0 -0.48283699891E+03  0.15474248325E+03  0.36859552019E+03  0.63491473962E+03  0.10088243376E+03 0.  0.
        254    2    1    2    0    0  0.48283699891E+03 -0.15474248325E+03  0.10751134071E+04  0.14838131791E+04  0.88811931002E+03 0.  0.
        -24    2    4    4    0    0  0.16841616276E+03 -0.37999055080E+03  0.10516268668E+03  0.43623334228E+03  0.80520281130E+02 0.  0.
         24    2    4    4    0    0  0.31442083615E+03  0.22524806754E+03  0.96995072041E+03  0.10475798369E+04  0.83797138499E+02 0.  0.
         11    1    3    3    0    0 -0.18379759672E+03  0.65474643945E+02  0.83536675281E+02  0.21224245964E+03  0.00000000000E+00 0.  1.
        -11    1    3    3    0    0 -0.29903940219E+03  0.89267839307E+02  0.28505884491E+03  0.42267227998E+03  0.00000000000E+00 0. -1.
          2    1    6    6  502    0  0.33561834496E+02  0.18607514714E+02  0.18080277551E+03  0.18483040867E+03  0.00000000000E+00 0. -1.
          1    1    5    5  503    0  0.13671513374E+03 -0.21107077610E+03  0.64537159392E+02  0.25962847544E+03  0.00000000000E+00 0. -1.
         -2    1    5    5    0  503  0.31701029024E+02 -0.16891977469E+03  0.40625527284E+02  0.17660486684E+03  0.00000000000E+00 0.  1.
         -1    1    6    6    0  502  0.28085900165E+03  0.20664055283E+03  0.78914794490E+03  0.86274942818E+03  0.00000000000E+00 0.  1.
<mgrwt>
<rscale>  0 0.15507136E+04</rscale>
<asrwt>0</asrwt>
<pdfrwt beam="1">  1        2 0.27403360E+00 0.15507136E+04</pdfrwt>
<pdfrwt beam="2">  1       -2 0.51924539E-01 0.15507136E+04</pdfrwt>
<totfact> 0.29792359E+01</totfact>
</mgrwt>
</event>
<event>
12    1  0.1541840E-007  0.1806902E+04  0.7818608E-02  0.8702638E-01
         -3   -1    0    0    0  501 -0.00000000000E+00  0.00000000000E+00  0.10274214878E+04  0.10274214878E+04  0.00000000000E+00 0.  1.
          3   -1    0    0  501    0  0.00000000000E+00 -0.00000000000E+00 -0.79443909035E+03  0.79443909035E+03  0.00000000000E+00 0. -1.
         23    2    1    2    0    0 -0.43079113885E+03  0.42668142545E+03  0.39198821473E+03  0.72800654045E+03  0.93277641036E+02 0.  0.
        254    2    1    2    0    0  0.43079113885E+03 -0.42668142545E+03 -0.15900581731E+03  0.10938540377E+04  0.89643502925E+03 0.  0.
        -24    2    4    4    0    0  0.43506933320E+03 -0.53762996543E+03 -0.41142489572E+03  0.80802140321E+03  0.72779384514E+02 0.  0.
         24    2    4    4    0    0 -0.42781943505E+01  0.11094853998E+03  0.25241907841E+03  0.28583263446E+03  0.75213179079E+02 0.  0.
         13    1    3    3    0    0 -0.31801161277E+03  0.27143983846E+03  0.23188481337E+03  0.47810201677E+03  0.00000000000E+00 0.  1.
        -13    1    3    3    0    0 -0.11277952608E+03  0.15524158699E+03  0.16010340136E+03  0.24990452369E+03  0.00000000000E+00 0. -1.
          4    1    6    6  502    0 -0.33302555081E+02  0.94191902528E+02  0.20093091746E+03  0.22439787937E+03  0.00000000000E+00 0. -1.
          1    1    5    5  503    0  0.36929772197E+03 -0.41229340878E+03 -0.31668626033E+03  0.63769651861E+03  0.00000000000E+00 0. -1.
         -2    1    5    5    0  503  0.65771611238E+02 -0.12533655665E+03 -0.94738635388E+02  0.17032488460E+03  0.00000000000E+00 0.  1.
         -3    1    6    6    0  502  0.29024360730E+02  0.16756637452E+02  0.51488160954E+02  0.61434755090E+02  0.00000000000E+00 0.  1.
<mgrwt>
<rscale>  0 0.18069021E+04</rscale>
<asrwt>0</asrwt>
<pdfrwt beam="1">  1        3 0.12222140E+00 0.18069021E+04</pdfrwt>
<pdfrwt beam="2">  1       -3 0.15806485E+00 0.18069021E+04</pdfrwt>
<totfact> 0.37584018E-01</totfact>
</mgrwt>
</event>
<event>
12    1  0.1541840E-007  0.1217493E+04  0.7818608E-02  0.9097681E-01
         -1   -1    0    0    0  501 -0.00000000000E+00  0.00000000000E+00  0.27127485467E+03  0.27127485467E+03  0.00000000000E+00 0.  1.
          1   -1    0    0  501    0  0.00000000000E+00 -0.00000000000E+00 -0.13660397869E+04  0.13660397869E+04  0.00000000000E+00 0. -1.
         23    2    1    2    0    0  0.19265523250E+03  0.65495083978E+02  0.17504853404E+02  0.22412885330E+03  0.92312937101E+02 0.  0.
        254    2    1    2    0    0 -0.19265523250E+03 -0.65495083978E+02 -0.11122697856E+04  0.14131857882E+04  0.84766995433E+03 0.  0.
        -24    2    4    4    0    0  0.25623818497E+03 -0.20652378398E+03 -0.23070944035E+03  0.41068296276E+03  0.84401239618E+02 0.  0.
         24    2    4    4    0    0 -0.44889341747E+03  0.14102870000E+03 -0.88156034524E+03  0.10025028255E+04  0.80429337294E+02 0.  0.
         11    1    3    3    0    0  0.14334527359E+03  0.72690234598E+02  0.45411412587E+02  0.16701477198E+03  0.00000000000E+00 0.  1.
        -11    1    3    3    0    0  0.49309958908E+02 -0.71951506195E+01 -0.27906559183E+02  0.57114081324E+02  0.00000000000E+00 0. -1.
          4    1    6    6  502    0 -0.44359672429E+03  0.13774638999E+03 -0.88136180015E+03  0.99626840988E+03  0.00000000000E+00 0. -1.
          1    1    5    5  503    0  0.25190705888E+03 -0.20881545412E+03 -0.20860668097E+03  0.38804356397E+03  0.00000000000E+00 0. -1.
         -2    1    5    5    0  503  0.43311260889E+01  0.22916701422E+01 -0.22102759384E+02  0.22639398791E+02  0.00000000000E+00 0.  1.
         -3    1    6    6    0  502 -0.52966931779E+01  0.32823100083E+01 -0.19854509360E+00  0.62344155913E+01  0.00000000000E+00 0.  1.
<mgrwt>
<rscale>  0 0.12174929E+04</rscale>
<asrwt>0</asrwt>
<pdfrwt beam="1">  1        1 0.21015997E+00 0.12174929E+04</pdfrwt>
<pdfrwt beam="2">  1       -1 0.41734593E-01 0.12174929E+04</pdfrwt>
<totfact> 0.45190237E+01</totfact>
</mgrwt>
</event>
<event>
12    1  0.1541840E-007  0.2568453E+04  0.7818608E-02  0.8378997E-01
          2   -1    0    0  501    0  0.00000000000E+00  0.00000000000E+00  0.18814837336E+04  0.18814837336E+04  0.00000000000E+00 0.  1.
         -2   -1    0    0    0  501 -0.00000000000E+00 -0.00000000000E+00 -0.87656213774E+03  0.87656213774E+03  0.00000000000E+00 0. -1.
         23    2    1    2    0    0  0.27635950174E+03  0.10469860621E+04  0.86872474530E+03  0.13912815108E+04  0.91799622912E+02 0.  0.
        254    2    1    2    0    0 -0.27635950174E+03 -0.10469860621E+04  0.13619685054E+03  0.13667643606E+04  0.82276415017E+03 0.  0.
        -24    2    4    4    0    0 -0.44225682382E+03 -0.56746832886E+03  0.35766861804E+03  0.80743069043E+03  0.80037972526E+02 0.  0.
         24    2    4    4    0    0  0.16589732208E+03 -0.47951773321E+03 -0.22147176750E+03  0.55933367012E+03  0.79656969523E+02 0.  0.
         13    1    3    3    0    0  0.18021828918E+03  0.77394888353E+03  0.67842866422E+03  0.10448640861E+04  0.00000000000E+00 0.  1.
        -13    1    3    3    0    0  0.96141212559E+02  0.27303717855E+03  0.19029608108E+03  0.34641742464E+03  0.00000000000E+00 0. -1.
          4    1    6    6  502    0 -0.87618557617E+01 -0.15594051062E+02 -0.86103668324E+01  0.19851522911E+02  0.00000000000E+00 0. -1.
          3    1    5    5  503    0 -0.12937452091E+03 -0.22712525719E+03  0.12022011577E+03  0.28770909849E+03  0.00000000000E+00 0. -1.
         -4    1    5    5    0  503 -0.31288230290E+03 -0.34034307167E+03  0.23744850228E+03  0.51972159195E+03  0.00000000000E+00 0.  1.
         -3    1    6    6    0  502  0.17465917784E+03 -0.46392368215E+03 -0.21286140067E+03  0.53948214721E+03  0.00000000000E+00 0.  1.
<mgrwt>
<rscale>  0 0.25684528E+04</rscale>
<asrwt>0</asrwt>
<pdfrwt beam="1">  1        2 0.28945904E+00 0.25684528E+04</pdfrwt>
<pdfrwt beam="2">  1       -2 0.13485571E+00 0.25684528E+04</pdfrwt>
<totfact> 0.27281405E+00</totfact>
</mgrwt>
</event>
<event>
12    1  0.1541840E-007  0.1471723E+04  0.7818608E-02  0.8903477E-01
         -2   -1    0    0    0  501 -0.00000000000E+00  0.00000000000E+00  0.16676403393E+03  0.16676403393E+03  0.00000000000E+00 0.  1.
          2   -1    0    0  501    0  0.00000000000E+00 -0.00000000000E+00 -0.32470566460E+04  0.32470566460E+04  0.00000000000E+00 0. -1.
         23    2    1    2    0    0  0.11680563334E+03 -0.30842747989E+03 -0.24662396386E+03  0.42169565045E+03  0.90734644549E+02 0.  0.
        254    2    1    2    0    0 -0.11680563334E+03  0.30842747989E+03 -0.28336686482E+04  0.29921250294E+04  0.90242069895E+03 0.  0.
        -24    2    4    4    0    0 -0.22093718797E+03  0.54702331393E+03 -0.12389499286E+04  0.13745895903E+04  0.80323527990E+02 0.  0.
         24    2    4    4    0    0  0.10413155463E+03 -0.23859583404E+03 -0.15947187196E+04  0.16175354392E+04  0.74308476565E+02 0.  0.
         13    1    3    3    0    0 -0.72237168926E+01 -0.66305073555E+01 -0.26081060313E+02  0.27863370589E+02  0.00000000000E+00 0. -1.
        -13    1    3    3    0    0  0.12402935023E+03 -0.30179697253E+03 -0.22054290355E+03  0.39383227986E+03  0.00000000000E+00 0.  1.
          2    1    6    6  502    0  0.23014013101E+02 -0.13432147892E+03 -0.70348896685E+03  0.71656725503E+03  0.00000000000E+00 0. -1.
          3    1    5    5  503    0 -0.61771317808E+02  0.23616600353E+03 -0.56658563459E+03  0.61693545712E+03  0.00000000000E+00 0. -1.
         -4    1    5    5    0  503 -0.15916587016E+03  0.31085731040E+03 -0.67236429400E+03  0.75765413316E+03  0.00000000000E+00 0.  1.
         -1    1    6    6    0  502  0.81117541526E+02 -0.10427435512E+03 -0.89122975273E+03  0.90096818414E+03  0.00000000000E+00 0.  1.
<mgrwt>
<rscale>  0 0.14717232E+04</rscale>
<asrwt>0</asrwt>
<pdfrwt beam="1">  1        2 0.49954716E+00 0.14717232E+04</pdfrwt>
<pdfrwt beam="2">  1       -2 0.25656006E-01 0.14717232E+04</pdfrwt>
<totfact> 0.16181440E+01</totfact>
</mgrwt>
</event>
<event>
12    1  0.1541840E-007  0.2065446E+04  0.7818608E-02  0.8576619E-01
         -2   -1    0    0    0  501 -0.00000000000E+00  0.00000000000E+00  0.60246030315E+03  0.60246030315E+03  0.00000000000E+00 0. -1.
          2   -1    0    0  501    0  0.00000000000E+00 -0.00000000000E+00 -0.17702692012E+04  0.17702692012E+04  0.00000000000E+00 0.  1.
         23    2    1    2    0    0 -0.49116960635E+03 -0.35535019179E+03  0.18366140061E+03  0.63940533619E+03  0.87099557194E+02 0.  0.
        254    2    1    2    0    0  0.49116960635E+03  0.35535019179E+03 -0.13514702987E+04  0.17333241682E+04  0.90023294917E+03 0.  0.
        -24    2    4    4    0    0  0.61705081549E+03  0.26576277274E+02 -0.46852086889E+03  0.77946182266E+03  0.81184487354E+02 0.  0.
         24    2    4    4    0    0 -0.12588120914E+03  0.32877391452E+03 -0.88294942976E+03  0.95386234550E+03  0.79468943374E+02 0.  0.
         11    1    3    3    0    0 -0.44075536728E+03 -0.34004573813E+03  0.14879104763E+03  0.57622493322E+03  0.00000000000E+00 0. -1.
        -11    1    3    3    0    0 -0.50414239070E+02 -0.15304453663E+02  0.34870352973E+02  0.63180402969E+02  0.00000000000E+00 0.  1.
          2    1    6    6  502    0 -0.88717227682E+02  0.12474224407E+03 -0.39852048083E+03  0.42690742273E+03  0.00000000000E+00 0. -1.
          3    1    5    5  503    0  0.54379823507E+03  0.46217910835E+02 -0.39384625909E+03  0.67302859639E+03  0.00000000000E+00 0. -1.
         -4    1    5    5    0  503  0.73252580417E+02 -0.19641633561E+02 -0.74674609799E+02  0.10643322628E+03  0.00000000000E+00 0.  1.
         -1    1    6    6    0  502 -0.37163981457E+02  0.20403167045E+03 -0.48442894894E+03  0.52695492277E+03  0.00000000000E+00 0.  1.
<mgrwt>
<rscale>  0 0.20654461E+04</rscale>
<asrwt>0</asrwt>
<pdfrwt beam="1">  1        2 0.27234910E+00 0.20654461E+04</pdfrwt>
<pdfrwt beam="2">  1       -2 0.92686203E-01 0.20654461E+04</pdfrwt>
<totfact> 0.81769299E+00</totfact>
</mgrwt>
</event>
<event>
12    1  0.1912818E-007  0.2134731E+04  0.7818608E-02  0.8546097E-01
         -1   -1    0    0    0  501 -0.00000000000E+00  0.00000000000E+00  0.10194285034E+04  0.10194285034E+04  0.00000000000E+00 0.  1.
          1   -1    0    0  501    0  0.00000000000E+00 -0.00000000000E+00 -0.11175562911E+04  0.11175562911E+04  0.00000000000E+00 0. -1.
         23    2    1    2    0    0  0.34595802182E+03  0.38145400607E+03 -0.75206999339E+03  0.91621858075E+03  0.93022046557E+02 0.  0.
        254    2    1    2    0    0 -0.34595802182E+03 -0.38145400607E+03  0.65394220565E+03  0.12207662137E+04  0.89299251319E+03 0.  0.
        -24    2    4    4    0    0 -0.46467935114E+03 -0.54446512599E+03  0.69394070123E+03  0.10000411546E+04  0.78482107445E+02 0.  0.
         24    2    4    4    0    0  0.11872132931E+03  0.16301111992E+03 -0.39998495582E+02  0.22072505916E+03  0.80326165361E+02 0.  0.
         11    1    3    3    0    0 -0.45284949844E+01  0.17305877214E+02 -0.25867036179E+02  0.31450027244E+02  0.00000000000E+00 0.  1.
        -11    1    3    3    0    0  0.35048651681E+03  0.36414812885E+03 -0.72620295721E+03  0.88476855351E+03  0.00000000000E+00 0. -1.
          4    1    6    6  502    0  0.70974003647E+02  0.32440674624E+02 -0.15248877086E+02  0.79512482141E+02  0.00000000000E+00 0. -1.
          3    1    5    5  503    0 -0.12791525994E+03 -0.10029218121E+03  0.16499313250E+03  0.23161081389E+03  0.00000000000E+00 0. -1.
         -4    1    5    5    0  503 -0.33676409119E+03 -0.44417294477E+03  0.52894756873E+03  0.76843034066E+03  0.00000000000E+00 0.  1.
         -3    1    6    6    0  502  0.47747325666E+02  0.13057044530E+03 -0.24749618496E+02  0.14121257702E+03  0.00000000000E+00 0.  1.
<mgrwt>
<rscale>  0 0.21347307E+04</rscale>
<asrwt>0</asrwt>
<pdfrwt beam="1">  1        1 0.17193174E+00 0.21347307E+04</pdfrwt>
<pdfrwt beam="2">  1       -1 0.15683515E+00 0.21347307E+04</pdfrwt>
<totfact> 0.34841614E+00</totfact>
</mgrwt>
</event>
<event>
12    1  0.1541840E-007  0.1497614E+04  0.7818608E-02  0.8886041E-01
          2   -1    0    0  501    0  0.00000000000E+00  0.00000000000E+00  0.71729654259E+03  0.71729654259E+03  0.00000000000E+00 0. -1.
         -2   -1    0    0    0  501 -0.00000000000E+00 -0.00000000000E+00 -0.78170213618E+03  0.78170213618E+03  0.00000000000E+00 0.  1.
         23    2    1    2    0    0  0.19632242321E+03  0.31565645885E+03  0.27041916319E+03  0.47286294841E+03  0.11086636230E+03 0.  0.
        254    2    1    2    0    0 -0.19632242321E+03 -0.31565645885E+03 -0.33482475677E+03  0.10261357304E+04  0.89591597013E+03 0.  0.
        -24    2    4    4    0    0  0.26155657459E+03 -0.47120837670E+02  0.13876020196E+03  0.31041058577E+03  0.80424642131E+02 0.  0.
         24    2    4    4    0    0 -0.45787899779E+03 -0.26853562118E+03 -0.47358495873E+03  0.71572514460E+03  0.78836622254E+02 0.  0.
         11    1    3    3    0    0  0.16528967240E+03  0.26304460105E+03  0.27027779191E+03  0.41178055168E+03  0.00000000000E+00 0. -1.
        -11    1    3    3    0    0  0.31032750809E+02  0.52611857799E+02  0.14137127700E+00  0.61082396725E+02  0.00000000000E+00 0.  1.
          4    1    6    6  502    0 -0.25390419250E+03 -0.10513383288E+03 -0.22769652846E+03  0.35688397395E+03  0.00000000000E+00 0. -1.
          1    1    5    5  503    0  0.89865830898E+02 -0.43673147473E+02  0.20756590612E+02  0.10204924021E+03  0.00000000000E+00 0. -1.
         -2    1    5    5    0  503  0.17169074369E+03 -0.34476901967E+01  0.11800361135E+03  0.20836134557E+03  0.00000000000E+00 0.  1.
         -3    1    6    6    0  502 -0.20397480529E+03 -0.16340178830E+03 -0.24588843027E+03  0.35884117065E+03  0.00000000000E+00 0.  1.
<mgrwt>
<rscale>  0 0.14976144E+04</rscale>
<asrwt>0</asrwt>
<pdfrwt beam="1">  1        2 0.11035331E+00 0.14976144E+04</pdfrwt>
<pdfrwt beam="2">  1       -2 0.12026187E+00 0.14976144E+04</pdfrwt>
<totfact> 0.20268573E+01</totfact>
</mgrwt>
</event>
<event>
12    1  0.1541840E-007  0.1228321E+04  0.7818608E-02  0.9088422E-01
          2   -1    0    0  501    0  0.00000000000E+00  0.00000000000E+00  0.55549253658E+03  0.55549253658E+03  0.00000000000E+00 0. -1.
         -2   -1    0    0    0  501 -0.00000000000E+00 -0.00000000000E+00 -0.67902476044E+03  0.67902476044E+03  0.00000000000E+00 0.  1.
         23    2    1    2    0    0 -0.92455558821E+02  0.95789168655E+02 -0.33752488513E+03  0.37563986883E+03  0.97255682514E+02 0.  0.
        254    2    1    2    0    0  0.92455558821E+02 -0.95789168655E+02  0.21399266127E+03  0.85887742819E+03  0.82106880490E+03 0.  0.
        -24    2    4    4    0    0  0.40952535889E+03  0.88011868392E+02 -0.44441202406E+01  0.42657720563E+03  0.80568316415E+02 0.  0.
         24    2    4    4    0    0 -0.31706980007E+03 -0.18380103705E+03  0.21843678151E+03  0.43230022255E+03  0.69661865956E+02 0.  0.
         11    1    3    3    0    0 -0.88748669788E+02  0.85735913506E+02 -0.34233420077E+03  0.36389514736E+03  0.00000000000E+00 0.  1.
        -11    1    3    3    0    0 -0.37068890323E+01  0.10053255149E+02  0.48093156415E+01  0.11744721467E+02  0.00000000000E+00 0. -1.
          4    1    6    6  502    0 -0.12078486208E+03 -0.46051930305E+02  0.10731837215E+03  0.16800891701E+03  0.00000000000E+00 0. -1.
          1    1    5    5  503    0  0.16858034940E+03  0.71977507792E+01 -0.29184293275E+02  0.17123920344E+03  0.00000000000E+00 0. -1.
         -2    1    5    5    0  503  0.24094500949E+03  0.80814117612E+02  0.24740173034E+02  0.25533800219E+03  0.00000000000E+00 0.  1.
         -3    1    6    6    0  502 -0.19628493799E+03 -0.13774910674E+03  0.11111840936E+03  0.26429130555E+03  0.00000000000E+00 0.  1.
<mgrwt>
<rscale>  0 0.12283211E+04</rscale>
<asrwt>0</asrwt>
<pdfrwt beam="1">  1        2 0.85460390E-01 0.12283211E+04</pdfrwt>
<pdfrwt beam="2">  1       -2 0.10446535E+00 0.12283211E+04</pdfrwt>
<totfact> 0.39880788E+01</totfact>
</mgrwt>
</event>
<event>
12    1  0.1541840E-007  0.1365154E+04  0.7818608E-02  0.8979436E-01
         -1   -1    0    0    0  501 -0.00000000000E+00  0.00000000000E+00  0.43547275655E+03  0.43547275655E+03  0.00000000000E+00 0.  1.
          1   -1    0    0  501    0  0.00000000000E+00 -0.00000000000E+00 -0.10698970585E+04  0.10698970585E+04  0.00000000000E+00 0. -1.
         23    2    1    2    0    0 -0.25979569367E+03  0.27145071376E+03 -0.22099439874E+03  0.44858960232E+03  0.10590002163E+03 0.  0.
        254    2    1    2    0    0  0.25979569367E+03 -0.27145071376E+03 -0.41342990324E+03  0.10567802128E+04  0.89704004411E+03 0.  0.
        -24    2    4    4    0    0 -0.95818570687E+02  0.60142512062E+02  0.21650919353E+03  0.25683576212E+03  0.79309883204E+02 0.  0.
         24    2    4    4    0    0  0.35561426436E+03 -0.33159322582E+03 -0.62993909677E+03  0.79994445064E+03  0.81684062355E+02 0.  0.
         13    1    3    3    0    0 -0.20277943682E+03  0.18244003043E+03 -0.10667250403E+03  0.29288715884E+03  0.00000000000E+00 0.  1.
        -13    1    3    3    0    0 -0.57016256849E+02  0.89010683329E+02 -0.11432189472E+03  0.15570244347E+03  0.00000000000E+00 0. -1.
          2    1    6    6  502    0  0.26915274099E+03 -0.28968695616E+03 -0.48057567471E+03  0.62234613333E+03  0.00000000000E+00 0. -1.
          3    1    5    5  503    0 -0.67819125863E+02  0.78204260214E+02  0.14743906719E+03  0.18014887921E+03  0.00000000000E+00 0. -1.
         -4    1    5    5    0  503 -0.27999444824E+02 -0.18061748151E+02  0.69070126346E+02  0.76686882908E+02  0.00000000000E+00 0.  1.
         -1    1    6    6    0  502  0.86461523370E+02 -0.41906269660E+02 -0.14936342207E+03  0.17759831731E+03  0.00000000000E+00 0.  1.
<mgrwt>
<rscale>  0 0.13651535E+04</rscale>
<asrwt>0</asrwt>
<pdfrwt beam="1">  1        1 0.16459955E+00 0.13651535E+04</pdfrwt>
<pdfrwt beam="2">  1       -1 0.66995809E-01 0.13651535E+04</pdfrwt>
<totfact> 0.29489280E+01</totfact>
</mgrwt>
</event>
<event>
12    1  0.1541840E-007  0.2242401E+04  0.7818608E-02  0.8500984E-01
          2   -1    0    0  501    0  0.00000000000E+00  0.00000000000E+00  0.64971652869E+03  0.64971652869E+03  0.00000000000E+00 0. -1.
         -2   -1    0    0    0  501 -0.00000000000E+00 -0.00000000000E+00 -0.19348297063E+04  0.19348297063E+04  0.00000000000E+00 0.  1.
         23    2    1    2    0    0  0.37730760040E+02  0.15713216601E+03  0.52876827173E+03  0.56029757673E+03  0.90682751661E+02 0.  0.
        254    2    1    2    0    0 -0.37730760040E+02 -0.15713216601E+03 -0.18138814493E+04  0.20242486582E+04  0.88391322561E+03 0.  0.
        -24    2    4    4    0    0 -0.35793095668E+03 -0.31035838866E+03 -0.67649958542E+03  0.83010268176E+03  0.83557608986E+02 0.  0.
         24    2    4    4    0    0  0.32020019664E+03  0.15322622264E+03 -0.11373818639E+04  0.11941459765E+04  0.79628309238E+02 0.  0.
         11    1    3    3    0    0  0.16536180505E+02  0.45201585055E+02  0.55278229472E+02  0.73296051809E+02  0.00000000000E+00 0.  1.
        -11    1    3    3    0    0  0.21194579535E+02  0.11193058096E+03  0.47349004226E+03  0.48700152492E+03  0.00000000000E+00 0. -1.
          4    1    6    6  502    0  0.15254419416E+02  0.26313126103E+01 -0.12962737645E+03  0.13054837358E+03  0.00000000000E+00 0. -1.
          1    1    5    5  503    0 -0.14634449751E+03 -0.17580190241E+03 -0.35630162220E+03  0.42340744777E+03  0.00000000000E+00 0. -1.
         -2    1    5    5    0  503 -0.21158645918E+03 -0.13455648625E+03 -0.32019796322E+03  0.40669523399E+03  0.00000000000E+00 0.  1.
         -3    1    6    6    0  502  0.30494577722E+03  0.15059491003E+03 -0.10077544874E+04  0.10635976029E+04  0.00000000000E+00 0.  1.
<mgrwt>
<rscale>  0 0.22424012E+04</rscale>
<asrwt>0</asrwt>
<pdfrwt beam="1">  1        2 0.99956389E-01 0.22424012E+04</pdfrwt>
<pdfrwt beam="2">  1       -2 0.29766611E+00 0.22424012E+04</pdfrwt>
<totfact> 0.13465603E+00</totfact>
</mgrwt>
</event>
<event>
12    1  0.1541840E-007  0.1596124E+04  0.7818608E-02  0.8822933E-01
         -1   -1    0    0    0  501 -0.00000000000E+00  0.00000000000E+00  0.50919975316E+03  0.50919975316E+03  0.00000000000E+00 0. -1.
          1   -1    0    0  501    0  0.00000000000E+00 -0.00000000000E+00 -0.12507913244E+04  0.12507913244E+04  0.00000000000E+00 0.  1.
         23    2    1    2    0    0 -0.44427532340E+02 -0.21271168804E+03 -0.91468849321E+03  0.94458944954E+03  0.91510221832E+02 0.  0.
        254    2    1    2    0    0  0.44427532340E+02  0.21271168804E+03  0.17309692198E+03  0.81540162801E+03  0.76661411591E+03 0.  0.
        -24    2    4    4    0    0  0.36528440206E+02  0.49228708528E+03  0.61952253662E+02  0.50389150196E+03  0.79922854920E+02 0.  0.
         24    2    4    4    0    0  0.78990921344E+01 -0.27957539723E+03  0.11114466831E+03  0.31151012606E+03  0.80378000385E+02 0.  0.
         13    1    3    3    0    0  0.56967538687E+01 -0.45455417091E+02 -0.83321741816E+02  0.95085017783E+02  0.00000000000E+00 0. -1.
        -13    1    3    3    0    0 -0.50124286209E+02 -0.16725627095E+03 -0.83136675140E+03  0.84950443175E+03  0.00000000000E+00 0.  1.
          4    1    6    6  502    0 -0.13267088587E+02 -0.34511035906E+01  0.86921046087E+01  0.16232018916E+02  0.00000000000E+00 0. -1.
          1    1    5    5  503    0 -0.82264552537E+01  0.17756571927E+03 -0.97292487246E+01  0.17802223879E+03  0.00000000000E+00 0. -1.
         -2    1    5    5    0  503  0.44754895460E+02  0.31472136601E+03  0.71681502387E+02  0.32586926316E+03  0.00000000000E+00 0.  1.
         -3    1    6    6    0  502  0.21166180722E+02 -0.27612429364E+03  0.10245256371E+03  0.29527810714E+03  0.00000000000E+00 0.  1.
<mgrwt>
<rscale>  0 0.15961236E+04</rscale>
<asrwt>0</asrwt>
<pdfrwt beam="1">  1        1 0.19242943E+00 0.15961236E+04</pdfrwt>
<pdfrwt beam="2">  1       -1 0.78338424E-01 0.15961236E+04</pdfrwt>
<totfact> 0.15365424E+01</totfact>
</mgrwt>
</event>
<event>
12    1  0.1541840E-007  0.2529827E+04  0.7818608E-02  0.8392436E-01
          2   -1    0    0  501    0  0.00000000000E+00  0.00000000000E+00  0.11019024662E+04  0.11019024662E+04  0.00000000000E+00 0. -1.
         -2   -1    0    0    0  501 -0.00000000000E+00 -0.00000000000E+00 -0.14520391790E+04  0.14520391790E+04  0.00000000000E+00 0.  1.
         23    2    1    2    0    0 -0.25528680283E+03 -0.40380347988E+03  0.85021510969E+03  0.97945948932E+03  0.90810552337E+02 0.  0.
        254    2    1    2    0    0  0.25528680283E+03  0.40380347988E+03 -0.12003518226E+04  0.15744821559E+04  0.89995608734E+03 0.  0.
        -24    2    4    4    0    0  0.40419641506E+03  0.18493988416E+03 -0.13195076232E+03  0.47035226038E+03  0.79011027482E+02 0.  0.
         24    2    4    4    0    0 -0.14890961223E+03  0.21886359572E+03 -0.10684010603E+04  0.11041298955E+04  0.86871482224E+02 0.  0.
         11    1    3    3    0    0 -0.24153948523E+03 -0.40485570529E+03  0.81334099485E+03  0.94009203748E+03  0.00000000000E+00 0. -1.
        -11    1    3    3    0    0 -0.13747317606E+02  0.10522254029E+01  0.36874114833E+02  0.39367451840E+02  0.00000000000E+00 0.  1.
          4    1    6    6  502    0 -0.80414540612E+02  0.16462377844E+03 -0.58917815540E+03  0.61700760576E+03  0.00000000000E+00 0. -1.
          3    1    5    5  503    0  0.23026961862E+03  0.63755389178E+02 -0.81495521490E+02  0.25244874119E+03  0.00000000000E+00 0. -1.
         -4    1    5    5    0  503  0.17392679645E+03  0.12118449498E+03 -0.50455240830E+02  0.21790351919E+03  0.00000000000E+00 0.  1.
         -3    1    6    6    0  502 -0.68495071617E+02  0.54239817280E+02 -0.47922290486E+03  0.48712228973E+03  0.00000000000E+00 0.  1.
<mgrwt>
<rscale>  0 0.25298265E+04</rscale>
<asrwt>0</asrwt>
<pdfrwt beam="1">  1        2 0.16952346E+00 0.25298265E+04</pdfrwt>
<pdfrwt beam="2">  1       -2 0.22339064E+00 0.25298265E+04</pdfrwt>
<totfact> 0.18183312E+00</totfact>
</mgrwt>
</event>
<event>
12    1  0.1541840E-007  0.1812427E+04  0.7818608E-02  0.8699719E-01
         -1   -1    0    0    0  501 -0.00000000000E+00  0.00000000000E+00  0.42602359695E+03  0.42602359695E+03  0.00000000000E+00 0.  1.
          1   -1    0    0  501    0  0.00000000000E+00 -0.00000000000E+00 -0.19276459662E+04  0.19276459662E+04  0.00000000000E+00 0. -1.
         23    2    1    2    0    0  0.42212921060E+03  0.52201089858E+03 -0.57436213130E+03  0.88814842074E+03  0.90704524217E+02 0.  0.
        254    2    1    2    0    0 -0.42212921060E+03 -0.52201089858E+03 -0.92726023793E+03  0.14655211424E+04  0.91501487488E+03 0.  0.
        -24    2    4    4    0    0 -0.54940653089E+02 -0.43933010342E+03  0.12813359863E+02  0.44993129677E+03  0.79022620078E+02 0.  0.
         24    2    4    4    0    0 -0.36718855752E+03 -0.82680795161E+02 -0.94007359779E+03  0.10155898456E+04  0.77593908302E+02 0.  0.
         13    1    3    3    0    0  0.35745510267E+03  0.46745438386E+03 -0.53302223360E+03  0.79397761488E+03  0.00000000000E+00 0. -1.
        -13    1    3    3    0    0  0.64674107930E+02  0.54556514727E+02 -0.41339897699E+02  0.94170805866E+02  0.00000000000E+00 0.  1.
          4    1    6    6  502    0 -0.17933046334E+03 -0.25265929355E+01 -0.40895070107E+03  0.44654952095E+03  0.00000000000E+00 0. -1.
          3    1    5    5  503    0 -0.21017305895E+02 -0.32861997005E+03 -0.19032591216E+02  0.32984094863E+03  0.00000000000E+00 0. -1.
         -4    1    5    5    0  503 -0.33923347193E+02 -0.11071013337E+03  0.31845951079E+02  0.12009034814E+03  0.00000000000E+00 0.  1.
         -1    1    6    6    0  502 -0.18785809417E+03 -0.80154202225E+02 -0.53112289672E+03  0.56904032467E+03  0.00000000000E+00 0.  1.
<mgrwt>
<rscale>  0 0.18124267E+04</rscale>
<asrwt>0</asrwt>
<pdfrwt beam="1">  1        1 0.29656092E+00 0.18124267E+04</pdfrwt>
<pdfrwt beam="2">  1       -1 0.65542091E-01 0.18124267E+04</pdfrwt>
<totfact> 0.74221927E+00</totfact>
</mgrwt>
</event>
<event>
12    1  0.1541840E-007  0.1171650E+04  0.7818608E-02  0.9138039E-01
          1   -1    0    0  501    0  0.00000000000E+00  0.00000000000E+00  0.14014241891E+04  0.14014241891E+04  0.00000000000E+00 0. -1.
         -1   -1    0    0    0  501 -0.00000000000E+00 -0.00000000000E+00 -0.24488737165E+03  0.24488737165E+03  0.00000000000E+00 0.  1.
         23    2    1    2    0    0  0.90401023625E+02 -0.15095963698E+03  0.46215200964E+03  0.50310051319E+03  0.92544525951E+02 0.  0.
        254    2    1    2    0    0 -0.90401023625E+02  0.15095963698E+03  0.69438480783E+03  0.11432110476E+04  0.89095458971E+03 0.  0.
        -24    2    4    4    0    0  0.24948834605E+03  0.32056758989E+03  0.62428113143E+03  0.74921637445E+03  0.81180232699E+02 0.  0.
         24    2    4    4    0    0 -0.33988936967E+03 -0.16960795292E+03  0.70103676401E+02  0.39399467314E+03  0.77624968344E+02 0.  0.
         11    1    3    3    0    0  0.77865190876E+02 -0.88262569530E+02  0.38662617806E+03  0.40414486350E+03  0.00000000000E+00 0. -1.
        -11    1    3    3    0    0  0.12535832748E+02 -0.62697067447E+02  0.75525831582E+02  0.98955649688E+02  0.00000000000E+00 0.  1.
          2    1    6    6  502    0 -0.18781155263E+03 -0.13590189921E+03  0.37218620451E+02  0.23479295394E+03  0.00000000000E+00 0. -1.
          3    1    5    5  503    0  0.37863426596E+02  0.96695883086E+02  0.12456769009E+03  0.16217534428E+03  0.00000000000E+00 0. -1.
         -4    1    5    5    0  503  0.21162491945E+03  0.22387170681E+03  0.49971344134E+03  0.58704103017E+03  0.00000000000E+00 0.  1.
         -3    1    6    6    0  502 -0.15207781704E+03 -0.33706053705E+02  0.32885055950E+02  0.15920171920E+03  0.00000000000E+00 0.  1.
<mgrwt>
<rscale>  0 0.11716503E+04</rscale>
<asrwt>0</asrwt>
<pdfrwt beam="1">  1        1 0.21560372E+00 0.11716503E+04</pdfrwt>
<pdfrwt beam="2">  1       -1 0.37674981E-01 0.11716503E+04</pdfrwt>
<totfact> 0.51622060E+01</totfact>
</mgrwt>
</event>
<event>
12    1  0.1541840E-007  0.2145746E+04  0.7818608E-02  0.8541355E-01
          1   -1    0    0  501    0  0.00000000000E+00  0.00000000000E+00  0.80847597791E+03  0.80847597791E+03  0.00000000000E+00 0. -1.
         -1   -1    0    0    0  501 -0.00000000000E+00 -0.00000000000E+00 -0.14237367666E+04  0.14237367666E+04  0.00000000000E+00 0.  1.
         23    2    1    2    0    0  0.85159250099E+03  0.98473605256E+02 -0.42592252892E+03  0.96150674270E+03  0.90434379179E+02 0.  0.
        254    2    1    2    0    0 -0.85159250099E+03 -0.98473605256E+02 -0.18933825978E+03  0.12707060018E+04  0.91866094276E+03 0.  0.
        -24    2    4    4    0    0 -0.64443130589E+03  0.51339834457E+02 -0.52892337121E+03  0.83889089730E+03  0.77785077986E+02 0.  0.
         24    2    4    4    0    0 -0.20716119510E+03 -0.14981343971E+03  0.33958511143E+03  0.43181510451E+03  0.76068450145E+02 0.  0.
         13    1    3    3    0    0  0.41787940902E+02  0.19833264099E+00 -0.44329266369E+02  0.60920892947E+02  0.00000000000E+00 0. -1.
        -13    1    3    3    0    0  0.80980456009E+03  0.98275272615E+02 -0.38159326255E+03  0.90058584975E+03  0.00000000000E+00 0.  1.
          4    1    6    6  502    0 -0.14364523083E+03 -0.13473663621E+03  0.28655574460E+03  0.34770980464E+03  0.00000000000E+00 0. -1.
          1    1    5    5  503    0 -0.57678678887E+03  0.35132044506E+02 -0.44174273679E+03  0.72736091858E+03  0.00000000000E+00 0. -1.
         -2    1    5    5    0  503 -0.67644517025E+02  0.16207789951E+02 -0.87180634411E+02  0.11152997873E+03  0.00000000000E+00 0.  1.
         -3    1    6    6    0  502 -0.63515964265E+02 -0.15076803501E+02  0.53029366825E+02  0.84105299870E+02  0.00000000000E+00 0.  1.
<mgrwt>
<rscale>  0 0.21457465E+04</rscale>
<asrwt>0</asrwt>
<pdfrwt beam="1">  1        1 0.12438092E+00 0.21457465E+04</pdfrwt>
<pdfrwt beam="2">  1       -1 0.21903643E+00 0.21457465E+04</pdfrwt>
<totfact> 0.22239333E+00</totfact>
</mgrwt>
</event>
<event>
12    1  0.1541840E-007  0.1979522E+04  0.7818608E-02  0.8616255E-01
          2   -1    0    0  501    0  0.00000000000E+00  0.00000000000E+00  0.69964040872E+03  0.69964040872E+03  0.00000000000E+00 0. -1.
         -2   -1    0    0    0  501 -0.00000000000E+00 -0.00000000000E+00 -0.14001857030E+04  0.14001857030E+04  0.00000000000E+00 0.  1.
         23    2    1    2    0    0  0.68704922663E+03  0.60266830069E+02 -0.29610770628E+02  0.69603798525E+03  0.89013193150E+02 0.  0.
        254    2    1    2    0    0 -0.68704922663E+03 -0.60266830069E+02 -0.67093452367E+03  0.14037881265E+04  0.10221542146E+04 0.  0.
        -24    2    4    4    0    0 -0.27317687996E+03  0.50926027886E+02 -0.87525164420E+03  0.92216340215E+03  0.84266431787E+02 0.  0.
         24    2    4    4    0    0 -0.41387234667E+03 -0.11119285796E+03  0.20431712052E+03  0.48162472435E+03  0.81010606513E+02 0.  0.
         11    1    3    3    0    0  0.67657282250E+03  0.46971092372E+02 -0.25826660137E+02  0.67869292322E+03  0.00000000000E+00 0. -1.
        -11    1    3    3    0    0  0.10476404132E+02  0.13295737698E+02 -0.37841104911E+01  0.17345062025E+02  0.00000000000E+00 0.  1.
          2    1    6    6  502    0 -0.21172767050E+03 -0.21815568506E+02  0.75732163434E+02  0.22592008778E+03  0.00000000000E+00 0. -1.
          3    1    5    5  503    0 -0.20661390219E+03  0.95417555319E-01 -0.61881816014E+03  0.65239959304E+03  0.00000000000E+00 0. -1.
         -4    1    5    5    0  503 -0.66562977769E+02  0.50830610331E+02 -0.25643348406E+03  0.26976380911E+03  0.00000000000E+00 0.  1.
         -1    1    6    6    0  502 -0.20214467617E+03 -0.89377289449E+02  0.12858495709E+03  0.25570463657E+03  0.00000000000E+00 0.  1.
<mgrwt>
<rscale>  0 0.19795217E+04</rscale>
<asrwt>0</asrwt>
<pdfrwt beam="1">  1        2 0.10763699E+00 0.19795217E+04</pdfrwt>
<pdfrwt beam="2">  1       -2 0.21541318E+00 0.19795217E+04</pdfrwt>
<totfact> 0.40308183E+00</totfact>
</mgrwt>
</event>
<event>
12    1  0.1541840E-007  0.1371961E+04  0.7818608E-02  0.8974368E-01
         -1   -1    0    0    0  501 -0.00000000000E+00  0.00000000000E+00  0.11505111179E+04  0.11505111179E+04  0.00000000000E+00 0.  1.
          1   -1    0    0  501    0  0.00000000000E+00 -0.00000000000E+00 -0.40900890053E+03  0.40900890053E+03  0.00000000000E+00 0. -1.
         23    2    1    2    0    0 -0.14852128087E+03 -0.31328779635E+03  0.48854767991E+02  0.36264457929E+03  0.94427158798E+02 0.  0.
        254    2    1    2    0    0  0.14852128087E+03  0.31328779635E+03  0.69264744942E+03  0.11968754392E+04  0.91243767650E+03 0.  0.
        -24    2    4    4    0    0 -0.91882956029E+02 -0.23958205391E+02 -0.18501163422E+03  0.22377507730E+03  0.82640832584E+02 0.  0.
         24    2    4    4    0    0  0.24040423690E+03  0.33724600174E+03  0.87765908364E+03  0.97310036187E+03  0.71482755728E+02 0.  0.
         13    1    3    3    0    0 -0.10578692103E+03 -0.25466239615E+03  0.74585485308E+02  0.28566904504E+03  0.00000000000E+00 0. -1.
        -13    1    3    3    0    0 -0.42734359841E+02 -0.58625400198E+02 -0.25730717317E+02  0.76975534250E+02  0.00000000000E+00 0.  1.
          2    1    6    6  502    0  0.13781339814E+02  0.63141012521E+02  0.13540704845E+03  0.15003926672E+03  0.00000000000E+00 0. -1.
          3    1    5    5  503    0 -0.70155908393E+02 -0.14173448769E+02 -0.51555501200E+02  0.88208320676E+02  0.00000000000E+00 0. -1.
         -4    1    5    5    0  503 -0.21727047636E+02 -0.97847566226E+01 -0.13345613302E+03  0.13556675663E+03  0.00000000000E+00 0.  1.
         -1    1    6    6    0  502  0.22662289709E+03  0.27410498922E+03  0.74225203519E+03  0.82306109515E+03  0.00000000000E+00 0.  1.
<mgrwt>
<rscale>  0 0.13719611E+04</rscale>
<asrwt>0</asrwt>
<pdfrwt beam="1">  1        1 0.62924447E-01 0.13719611E+04</pdfrwt>
<pdfrwt beam="2">  1       -1 0.17700171E+00 0.13719611E+04</pdfrwt>
<totfact> 0.12446775E+01</totfact>
</mgrwt>
</event>
<event>
12    1  0.1541840E-007  0.2079433E+04  0.7818608E-02  0.8570358E-01
         -1   -1    0    0    0  501 -0.00000000000E+00  0.00000000000E+00  0.78284734908E+03  0.78284734908E+03  0.00000000000E+00 0.  1.
          1   -1    0    0  501    0  0.00000000000E+00 -0.00000000000E+00 -0.13808698434E+04  0.13808698434E+04  0.00000000000E+00 0. -1.
         23    2    1    2    0    0 -0.76760205080E+03  0.32700703288E+03 -0.12498888656E+03  0.84978731638E+03  0.10183198602E+03 0.  0.
        254    2    1    2    0    0  0.76760205080E+03 -0.32700703288E+03 -0.47303360778E+03  0.13139298761E+04  0.89805590992E+03 0.  0.
        -24    2    4    4    0    0  0.75473123622E+03 -0.10471829905E+03 -0.66029925475E+03  0.10114167535E+04  0.79897323591E+02 0.  0.
         24    2    4    4    0    0  0.12870814581E+02 -0.22228873383E+03  0.18726564697E+03  0.30251312265E+03  0.82872358374E+02 0.  0.
         11    1    3    3    0    0 -0.64124836257E+03  0.28128742625E+03 -0.66968513599E+02  0.70342509230E+03  0.00000000000E+00 0. -1.
        -11    1    3    3    0    0 -0.12635368822E+03  0.45719606629E+02 -0.58020372960E+02  0.14636222408E+03  0.00000000000E+00 0.  1.
          4    1    6    6  502    0  0.42805886347E+02 -0.10346215183E+03  0.65282709247E+02  0.12960938582E+03  0.00000000000E+00 0. -1.
          1    1    5    5  503    0  0.42808936816E+03 -0.20670985253E+02 -0.38278991184E+03  0.57464416239E+03  0.00000000000E+00 0. -1.
         -2    1    5    5    0  503  0.32664186805E+03 -0.84047313793E+02 -0.27750934291E+03  0.43677259109E+03  0.00000000000E+00 0.  1.
         -3    1    6    6    0  502 -0.29935071767E+02 -0.11882658201E+03  0.12198293772E+03  0.17290373683E+03  0.00000000000E+00 0.  1.
<mgrwt>
<rscale>  0 0.20794329E+04</rscale>
<asrwt>0</asrwt>
<pdfrwt beam="1">  1        1 0.21244151E+00 0.20794329E+04</pdfrwt>
<pdfrwt beam="2">  1       -1 0.12043805E+00 0.20794329E+04</pdfrwt>
<totfact> 0.44800423E+00</totfact>
</mgrwt>
</event>
<event>
12    1  0.1541840E-007  0.1480149E+04  0.7818608E-02  0.8897762E-01
          2   -1    0    0  501    0  0.00000000000E+00  0.00000000000E+00  0.21828931932E+04  0.21828931932E+04  0.00000000000E+00 0. -1.
         -2   -1    0    0    0  501 -0.00000000000E+00 -0.00000000000E+00 -0.25091010760E+03  0.25091010760E+03  0.00000000000E+00 0.  1.
         23    2    1    2    0    0 -0.25656736997E+03 -0.18920436330E+03  0.11712383329E+04  0.12171601118E+04  0.89746303155E+02 0.  0.
        254    2    1    2    0    0  0.25656736997E+03  0.18920436330E+03  0.76074475273E+03  0.12166431890E+04  0.89435058234E+03 0.  0.
        -24    2    4    4    0    0 -0.13907148615E+03 -0.27488643043E+03  0.15599340171E+03  0.35444015913E+03  0.79940334818E+02 0.  0.
         24    2    4    4    0    0  0.39563885612E+03  0.46409079373E+03  0.60475135102E+03  0.86220302988E+03  0.75891362335E+02 0.  0.
         11    1    3    3    0    0 -0.22829420096E+02 -0.54439687821E+02  0.27126086145E+03  0.27761000880E+03  0.00000000000E+00 0.  1.
        -11    1    3    3    0    0 -0.23373794987E+03 -0.13476467548E+03  0.89997747144E+03  0.93955010301E+03  0.00000000000E+00 0. -1.
          2    1    6    6  502    0  0.35840841538E+02  0.63988933537E+02  0.10325768838E+03  0.12665425278E+03  0.00000000000E+00 0. -1.
          1    1    5    5  503    0 -0.18485779722E+02 -0.28679394647E+02 -0.79151956567E+01  0.35026876131E+02  0.00000000000E+00 0. -1.
         -2    1    5    5    0  503 -0.12058570643E+03 -0.24620703578E+03  0.16390859736E+03  0.31941328299E+03  0.00000000000E+00 0.  1.
         -1    1    6    6    0  502  0.35979801458E+03  0.40010186019E+03  0.50149366264E+03  0.73554877710E+03  0.00000000000E+00 0.  1.
<mgrwt>
<rscale>  0 0.14801486E+04</rscale>
<asrwt>0</asrwt>
<pdfrwt beam="1">  1        2 0.33582971E+00 0.14801486E+04</pdfrwt>
<pdfrwt beam="2">  1       -2 0.38601556E-01 0.14801486E+04</pdfrwt>
<totfact> 0.32425076E+01</totfact>
</mgrwt>
</event>
<event>
12    1  0.1730278E-007  0.2077038E+04  0.7818608E-02  0.8571426E-01
          4   -1    0    0  501    0  0.00000000000E+00  0.00000000000E+00  0.20948038743E+04  0.20948038743E+04  0.00000000000E+00 0. -1.
         -4   -1    0    0    0  501 -0.00000000000E+00 -0.00000000000E+00 -0.51485592930E+03  0.51485592930E+03  0.00000000000E+00 0.  1.
         23    2    1    2    0    0  0.73727350208E+03  0.82533512795E+02  0.11463823656E+04  0.13685871304E+04  0.91946766121E+02 0.  0.
        254    2    1    2    0    0 -0.73727350208E+03 -0.82533512795E+02  0.43356557936E+03  0.12410726731E+04  0.89548772788E+03 0.  0.
        -24    2    4    4    0    0 -0.35811253976E+03 -0.28184839173E+03 -0.17320210168E+03  0.49403188432E+03  0.79908870862E+02 0.  0.
         24    2    4    4    0    0 -0.37916096232E+03  0.19931487894E+03  0.60676768104E+03  0.74704078881E+03  0.80084112526E+02 0.  0.
         13    1    3    3    0    0  0.40167260217E+02 -0.99435705156E+01  0.39443950387E+02  0.57167373651E+02  0.00000000000E+00 0.  1.
        -13    1    3    3    0    0  0.69710624186E+03  0.92477083311E+02  0.11069384152E+04  0.13114197568E+04  0.00000000000E+00 0. -1.
          4    1    6    6  502    0 -0.32431071974E+03  0.16785442368E+03  0.46070785672E+03  0.58788117825E+03  0.00000000000E+00 0. -1.
          3    1    5    5  503    0 -0.31916919563E+03 -0.27809138149E+03 -0.15417164700E+03  0.45052490346E+03  0.00000000000E+00 0. -1.
         -4    1    5    5    0  503 -0.38943344135E+02 -0.37570102388E+01 -0.19030454684E+02  0.43506980864E+02  0.00000000000E+00 0.  1.
         -1    1    6    6    0  502 -0.54850242579E+02  0.31460455252E+02  0.14605982432E+03  0.15915961056E+03  0.00000000000E+00 0.  1.
<mgrwt>
<rscale>  0 0.20770385E+04</rscale>
<asrwt>0</asrwt>
<pdfrwt beam="1">  1        4 0.32227751E+00 0.20770385E+04</pdfrwt>
<pdfrwt beam="2">  1       -4 0.79208606E-01 0.20770385E+04</pdfrwt>
<totfact> 0.58718093E-02</totfact>
</mgrwt>
</event>
<event>
12    1  0.1541840E-007  0.2426337E+04  0.7818608E-02  0.8429709E-01
         -1   -1    0    0    0  501 -0.00000000000E+00  0.00000000000E+00  0.99404267009E+03  0.99404267009E+03  0.00000000000E+00 0.  1.
          1   -1    0    0  501    0  0.00000000000E+00 -0.00000000000E+00 -0.14805985300E+04  0.14805985300E+04  0.00000000000E+00 0. -1.
         23    2    1    2    0    0 -0.18792419970E+03  0.51235380723E+03  0.69981604188E+03  0.89208016771E+03  0.90788790707E+02 0.  0.
        254    2    1    2    0    0  0.18792419970E+03 -0.51235380723E+03 -0.11863719018E+04  0.15825610324E+04  0.89397941991E+03 0.  0.
        -24    2    4    4    0    0 -0.44791968433E+02 -0.26568786930E+03  0.60701818870E+02  0.28721091542E+03  0.78797428862E+02 0.  0.
         24    2    4    4    0    0  0.23271616814E+03 -0.24666593793E+03 -0.12470737207E+04  0.12953501170E+04  0.87966816866E+02 0.  0.
         13    1    3    3    0    0 -0.17027048747E+02  0.58260596292E+02  0.13145186351E+03  0.14478884588E+03  0.00000000000E+00 0. -1.
        -13    1    3    3    0    0 -0.17089715096E+03  0.45409321094E+03  0.56836417837E+03  0.74729132183E+03  0.00000000000E+00 0.  1.
          2    1    6    6  502    0  0.10294942614E+03 -0.60124092886E+02 -0.52489035317E+03  0.53825957839E+03  0.00000000000E+00 0. -1.
          3    1    5    5  503    0  0.66062514500E+01  0.15114142098E+01 -0.35203462934E+01  0.76367381230E+01  0.00000000000E+00 0. -1.
         -4    1    5    5    0  503 -0.51398219883E+02 -0.26719928351E+03  0.64222165163E+02  0.27957417730E+03  0.00000000000E+00 0.  1.
         -1    1    6    6    0  502  0.12976674200E+03 -0.18654184505E+03 -0.72218336753E+03  0.75709053859E+03  0.00000000000E+00 0.  1.
<mgrwt>
<rscale>  0 0.24263373E+04</rscale>
<asrwt>0</asrwt>
<pdfrwt beam="1">  1        1 0.22778439E+00 0.24263373E+04</pdfrwt>
<pdfrwt beam="2">  1       -1 0.15292964E+00 0.24263373E+04</pdfrwt>
<totfact> 0.19974972E+00</totfact>
</mgrwt>
</event>
<event>
12    1  0.1541840E-007  0.1455226E+04  0.7818608E-02  0.8914786E-01
         -2   -1    0    0    0  501 -0.00000000000E+00  0.00000000000E+00  0.64702151280E+03  0.64702151280E+03  0.00000000000E+00 0.  1.
          2   -1    0    0  501    0  0.00000000000E+00 -0.00000000000E+00 -0.81824256326E+03  0.81824256326E+03  0.00000000000E+00 0. -1.
         23    2    1    2    0    0 -0.14321307069E+03  0.15122934914E+03  0.34033803544E+03  0.40943946312E+03  0.91817187575E+02 0.  0.
        254    2    1    2    0    0  0.14321307069E+03 -0.15122934914E+03 -0.51155908590E+03  0.10558246129E+04  0.89982921450E+03 0.  0.
        -24    2    4    4    0    0 -0.23222971130E+03 -0.36969053673E+03 -0.10643417925E+03  0.45658738784E+03  0.80883103682E+02 0.  0.
         24    2    4    4    0    0  0.37544278199E+03  0.21846118759E+03 -0.40512490665E+03  0.59923722510E+03  0.79224295072E+02 0.  0.
         11    1    3    3    0    0  0.93220032417E+01 -0.36797756428E+01  0.18758767171E+02  0.21268094390E+02  0.00000000000E+00 0. -1.
        -11    1    3    3    0    0 -0.15253507393E+03  0.15490912478E+03  0.32157926827E+03  0.38817136873E+03  0.00000000000E+00 0.  1.
          4    1    6    6  502    0  0.33644901251E+03  0.16395611304E+03 -0.33616436712E+03  0.50307656151E+03  0.00000000000E+00 0. -1.
          3    1    5    5  503    0 -0.22080072875E+03 -0.30254907511E+03 -0.10270709877E+03  0.38837823421E+03  0.00000000000E+00 0. -1.
         -4    1    5    5    0  503 -0.11428982551E+02 -0.67141461616E+02 -0.37270804856E+01  0.68209153630E+02  0.00000000000E+00 0.  1.
         -3    1    6    6    0  502  0.38993769481E+02  0.54505074550E+02 -0.68960539533E+02  0.96160663593E+02  0.00000000000E+00 0.  1.
<mgrwt>
<rscale>  0 0.14552258E+04</rscale>
<asrwt>0</asrwt>
<pdfrwt beam="1">  1        2 0.12588347E+00 0.14552258E+04</pdfrwt>
<pdfrwt beam="2">  1       -2 0.99541771E-01 0.14552258E+04</pdfrwt>
<totfact> 0.27060668E+01</totfact>
</mgrwt>
</event>
<event>
12    1  0.1541840E-007  0.1551340E+04  0.7818608E-02  0.8851012E-01
          2   -1    0    0  501    0  0.00000000000E+00  0.00000000000E+00  0.23613489647E+04  0.23613489647E+04  0.00000000000E+00 0.  1.
         -2   -1    0    0    0  501 -0.00000000000E+00 -0.00000000000E+00 -0.25479664867E+03  0.25479664867E+03  0.00000000000E+00 0. -1.
         23    2    1    2    0    0  0.93295895400E+02  0.19482761226E+03  0.15078088091E+04  0.15260089812E+04  0.92488287947E+02 0.  0.
        254    2    1    2    0    0 -0.93295895400E+02 -0.19482761226E+03  0.59874350694E+03  0.10901366321E+04  0.88500969884E+03 0.  0.
        -24    2    4    4    0    0 -0.53140689371E+01  0.34219479151E+03  0.31008469270E+03  0.46876764399E+03  0.80405676038E+02 0.  0.
         24    2    4    4    0    0 -0.87981826462E+02 -0.53702240377E+03  0.28865881424E+03  0.62136898815E+03  0.81496284935E+02 0.  0.
         11    1    3    3    0    0  0.94939044478E+02  0.20149687392E+03  0.14947387698E+04  0.15112439916E+04  0.00000000000E+00 0.  1.
        -11    1    3    3    0    0 -0.16431490784E+01 -0.66692616593E+01  0.13070039297E+02  0.14764989577E+02  0.00000000000E+00 0. -1.
          2    1    6    6  502    0 -0.70950310646E+02 -0.19643449530E+03  0.98455495888E+02  0.23089812081E+03  0.00000000000E+00 0. -1.
          3    1    5    5  503    0  0.24364231556E+02  0.14778533682E+03  0.17413891804E+03  0.22969215123E+03  0.00000000000E+00 0. -1.
         -4    1    5    5    0  503 -0.29678300494E+02  0.19440945469E+03  0.13594577466E+03  0.23907549277E+03  0.00000000000E+00 0.  1.
         -1    1    6    6    0  502 -0.17031515816E+02 -0.34058790848E+03  0.19020331835E+03  0.39047086734E+03  0.00000000000E+00 0.  1.
<mgrwt>
<rscale>  0 0.15513398E+04</rscale>
<asrwt>0</asrwt>
<pdfrwt beam="1">  1        2 0.36328444E+00 0.15513398E+04</pdfrwt>
<pdfrwt beam="2">  1       -2 0.39199486E-01 0.15513398E+04</pdfrwt>
<totfact> 0.24813947E+01</totfact>
</mgrwt>
</event>
<event>
12    1  0.1541840E-007  0.2095157E+04  0.7818608E-02  0.8563380E-01
          2   -1    0    0  501    0  0.00000000000E+00  0.00000000000E+00  0.99099108082E+03  0.99099108082E+03  0.00000000000E+00 0. -1.
         -2   -1    0    0    0  501 -0.00000000000E+00 -0.00000000000E+00 -0.11073967157E+04  0.11073967157E+04  0.00000000000E+00 0.  1.
         23    2    1    2    0    0  0.57975388976E+01  0.83607433360E+03 -0.17589034995E+03  0.85937877914E+03  0.92415193904E+02 0.  0.
        254    2    1    2    0    0 -0.57975388976E+01 -0.83607433360E+03  0.59484715077E+02  0.12390090174E+04  0.91244233301E+03 0.  0.
        -24    2    4    4    0    0  0.24082885030E+03 -0.25014287738E+03  0.38144468198E+03  0.52191182857E+03  0.79510484557E+02 0.  0.
         24    2    4    4    0    0 -0.24662638920E+03 -0.58593145622E+03 -0.32195996690E+03  0.71709718881E+03  0.80186723796E+02 0.  0.
         13    1    3    3    0    0 -0.17385334735E+02  0.53057162926E+03 -0.71225290564E+02  0.53561324261E+03  0.00000000000E+00 0. -1.
        -13    1    3    3    0    0  0.23182873633E+02  0.30550270434E+03 -0.10466505938E+03  0.32376553653E+03  0.00000000000E+00 0.  1.
          4    1    6    6  502    0  0.29847929867E+01 -0.22775024510E+01 -0.81578828670E+01  0.89803707863E+01  0.00000000000E+00 0. -1.
          1    1    5    5  503    0  0.17319811412E+03 -0.13503538708E+03  0.20311780304E+03  0.29914709494E+03  0.00000000000E+00 0. -1.
         -2    1    5    5    0  503  0.67630736179E+02 -0.11510749030E+03  0.17832687894E+03  0.22276473363E+03  0.00000000000E+00 0.  1.
         -3    1    6    6    0  502 -0.24961118218E+03 -0.58365395377E+03 -0.31380208404E+03  0.70811681802E+03  0.00000000000E+00 0.  1.
<mgrwt>
<rscale>  0 0.20951566E+04</rscale>
<asrwt>0</asrwt>
<pdfrwt beam="1">  1        2 0.15246017E+00 0.20951566E+04</pdfrwt>
<pdfrwt beam="2">  1       -2 0.17036872E+00 0.20951566E+04</pdfrwt>
<totfact> 0.49847463E+00</totfact>
</mgrwt>
</event>
<event>
12    1  0.1541840E-007  0.1494666E+04  0.7818608E-02  0.8888007E-01
         -1   -1    0    0    0  501 -0.00000000000E+00  0.00000000000E+00  0.34516625557E+03  0.34516625557E+03  0.00000000000E+00 0.  1.
          1   -1    0    0  501    0  0.00000000000E+00 -0.00000000000E+00 -0.16180807781E+04  0.16180807781E+04  0.00000000000E+00 0. -1.
         23    2    1    2    0    0  0.51458706439E+02  0.29284451467E+02 -0.10025831626E+04  0.10095783064E+04  0.10280944099E+03 0.  0.
        254    2    1    2    0    0 -0.51458706439E+02 -0.29284451467E+02 -0.27033135993E+03  0.95366872732E+03  0.91263323396E+03 0.  0.
        -24    2    4    4    0    0  0.29239929593E+03  0.22359207345E+03  0.92421110388E+02  0.38787549293E+03  0.80093525356E+02 0.  0.
         24    2    4    4    0    0 -0.34385800236E+03 -0.25287652491E+03 -0.36275247032E+03  0.56579323439E+03  0.79672873116E+02 0.  0.
         11    1    3    3    0    0  0.19055160245E+01  0.51848325361E+02 -0.26774035801E+03  0.27272106472E+03  0.00000000000E+00 0. -1.
        -11    1    3    3    0    0  0.49553190415E+02 -0.22563873893E+02 -0.73484280463E+03  0.73685724167E+03  0.00000000000E+00 0.  1.
          4    1    6    6  502    0 -0.61272417616E+02 -0.12874524714E+02 -0.40495569604E+02  0.74565097094E+02  0.00000000000E+00 0. -1.
          3    1    5    5  503    0  0.23135652078E+02  0.29912755123E+01 -0.94714567865E+01  0.25177661129E+02  0.00000000000E+00 0. -1.
         -2    1    5    5    0  503  0.26926364385E+03  0.22060079793E+03  0.10189256717E+03  0.36269783180E+03  0.00000000000E+00 0.  1.
         -3    1    6    6    0  502 -0.28258558475E+03 -0.24000200020E+03 -0.32225690072E+03  0.49122813729E+03  0.00000000000E+00 0.  1.
<mgrwt>
<rscale>  0 0.14946664E+04</rscale>
<asrwt>0</asrwt>
<pdfrwt beam="1">  1        1 0.24893550E+00 0.14946664E+04</pdfrwt>
<pdfrwt beam="2">  1       -1 0.53102501E-01 0.14946664E+04</pdfrwt>
<totfact> 0.18767581E+01</totfact>
</mgrwt>
</event>
<event>
12    1  0.1541840E-007  0.2907652E+04  0.7818608E-02  0.8270604E-01
         -2   -1    0    0    0  501 -0.00000000000E+00  0.00000000000E+00  0.82807963221E+03  0.82807963221E+03  0.00000000000E+00 0.  1.
          2   -1    0    0  501    0  0.00000000000E+00 -0.00000000000E+00 -0.25524232312E+04  0.25524232312E+04  0.00000000000E+00 0. -1.
         23    2    1    2    0    0 -0.48706361328E+02 -0.84497095092E+02  0.74676865871E+03  0.75871480636E+03  0.92047047998E+02 0.  0.
        254    2    1    2    0    0  0.48706361328E+02  0.84497095092E+02 -0.24711122577E+04  0.26217880571E+04  0.87055428161E+03 0.  0.
        -24    2    4    4    0    0  0.86881624212E+02  0.24231921946E+03 -0.24177163722E+04  0.24328170403E+04  0.83542050979E+02 0.  0.
         24    2    4    4    0    0 -0.38175262884E+02 -0.15782212437E+03 -0.53395885539E+02  0.18897101682E+03  0.80583813308E+02 0.  0.
         11    1    3    3    0    0 -0.47028822572E+02 -0.10368932300E+03  0.60226424674E+03  0.61293181411E+03  0.00000000000E+00 0.  1.
        -11    1    3    3    0    0 -0.16775387563E+01  0.19192227906E+02  0.14450441198E+03  0.14578299225E+03  0.00000000000E+00 0. -1.
          2    1    6    6  502    0  0.24204505825E+02 -0.29360208290E+02 -0.61035369765E+01  0.38537424625E+02  0.00000000000E+00 0. -1.
          3    1    5    5  503    0  0.91967486489E+01  0.28215187922E+02 -0.62295809682E+03  0.62366454718E+03  0.00000000000E+00 0. -1.
         -4    1    5    5    0  503  0.77684875563E+02  0.21410403154E+03 -0.17947582754E+04  0.18091524931E+04  0.00000000000E+00 0.  1.
         -1    1    6    6    0  502 -0.62379768710E+02 -0.12846191608E+03 -0.47292348562E+02  0.15043359219E+03  0.00000000000E+00 0.  1.
<mgrwt>
<rscale>  0 0.29076518E+04</rscale>
<asrwt>0</asrwt>
<pdfrwt beam="1">  1        2 0.39268049E+00 0.29076518E+04</pdfrwt>
<pdfrwt beam="2">  1       -2 0.12739687E+00 0.29076518E+04</pdfrwt>
<totfact> 0.12789973E+00</totfact>
</mgrwt>
</event>
<event>
12    1  0.1541840E-007  0.1982244E+04  0.7818608E-02  0.8614968E-01
          1   -1    0    0  501    0  0.00000000000E+00  0.00000000000E+00  0.28307542983E+04  0.28307542983E+04  0.00000000000E+00 0. -1.
         -1   -1    0    0    0  501 -0.00000000000E+00 -0.00000000000E+00 -0.34701794728E+03  0.34701794728E+03  0.00000000000E+00 0.  1.
         23    2    1    2    0    0  0.24208582582E+03  0.63708069211E+03  0.37094449182E+03  0.78160403625E+03  0.93955830839E+02 0.  0.
        254    2    1    2    0    0 -0.24208582582E+03 -0.63708069211E+03  0.21127918592E+04  0.23961682093E+04  0.90180668207E+03 0.  0.
        -24    2    4    4    0    0  0.14707253646E+03 -0.46862507029E+03  0.42568753735E+03  0.65480540675E+03  0.79501281609E+02 0.  0.
         24    2    4    4    0    0 -0.38915836228E+03 -0.16845562182E+03  0.16871043218E+04  0.17413628026E+04  0.78752079019E+02 0.  0.
         11    1    3    3    0    0  0.22779734664E+01 -0.32960749904E+01  0.35383600707E+01  0.53453966594E+01  0.00000000000E+00 0. -1.
        -11    1    3    3    0    0  0.23980785236E+03  0.64037676710E+03  0.36740613175E+03  0.77625863959E+03  0.00000000000E+00 0.  1.
          2    1    6    6  502    0 -0.35129109575E+03 -0.16492926725E+03  0.14412586226E+04  0.14925928830E+04  0.00000000000E+00 0. -1.
          1    1    5    5  503    0  0.10568793814E+03 -0.41634791091E+03  0.35131699704E+03  0.55492265731E+03  0.00000000000E+00 0. -1.
         -2    1    5    5    0  503  0.41384598320E+02 -0.52277159380E+02  0.74370540307E+02  0.99882749445E+02  0.00000000000E+00 0.  1.
         -3    1    6    6    0  502 -0.37867266536E+02 -0.35263545704E+01  0.24584569924E+03  0.24876991957E+03  0.00000000000E+00 0.  1.
<mgrwt>
<rscale>  0 0.19822437E+04</rscale>
<asrwt>0</asrwt>
<pdfrwt beam="1">  1        1 0.43550065E+00 0.19822437E+04</pdfrwt>
<pdfrwt beam="2">  1       -1 0.53387378E-01 0.19822437E+04</pdfrwt>
<totfact> 0.26088302E+00</totfact>
</mgrwt>
</event>
<event>
12    1  0.1541840E-007  0.1965775E+04  0.7818608E-02  0.8622791E-01
          2   -1    0    0  501    0  0.00000000000E+00  0.00000000000E+00  0.22819900646E+04  0.22819900646E+04  0.00000000000E+00 0. -1.
         -2   -1    0    0    0  501 -0.00000000000E+00 -0.00000000000E+00 -0.42334424698E+03  0.42334424698E+03  0.00000000000E+00 0.  1.
         23    2    1    2    0    0 -0.23927078519E+03 -0.21182420819E+03  0.16999288724E+04  0.17308339529E+04  0.62513979403E+02 0.  0.
        254    2    1    2    0    0  0.23927078519E+03  0.21182420819E+03  0.15871694527E+03  0.97450035867E+03  0.90682957413E+03 0.  0.
        -24    2    4    4    0    0  0.36522303408E+02 -0.23543487742E+03 -0.23093822303E+03  0.34261073194E+03  0.85359186000E+02 0.  0.
         24    2    4    4    0    0  0.20274848179E+03  0.44725908560E+03  0.38965516830E+03  0.63188962674E+03  0.79408523949E+02 0.  0.
         13    1    3    3    0    0 -0.22203519015E+03 -0.16774975907E+03  0.14586601763E+04  0.14849677159E+04  0.00000000000E+00 0. -1.
        -13    1    3    3    0    0 -0.17235595042E+02 -0.44074449115E+02  0.24126869610E+03  0.24586623705E+03  0.00000000000E+00 0.  1.
          4    1    6    6  502    0  0.20490589843E+03  0.42901298017E+03  0.38758352424E+03  0.61339999399E+03  0.00000000000E+00 0. -1.
          1    1    5    5  503    0  0.86510358116E+01 -0.18299997886E+03 -0.21219679112E+03  0.28034141835E+03  0.00000000000E+00 0. -1.
         -4    1    5    5    0  503  0.27871267597E+02 -0.52434898560E+02 -0.18741431903E+02  0.62269313584E+02  0.00000000000E+00 0.  1.
         -3    1    6    6    0  502 -0.21574166406E+01  0.18246105434E+02  0.20716440585E+01  0.18489632748E+02  0.00000000000E+00 0.  1.
<mgrwt>
<rscale>  0 0.19657745E+04</rscale>
<asrwt>0</asrwt>
<pdfrwt beam="1">  1        2 0.35107539E+00 0.19657745E+04</pdfrwt>
<pdfrwt beam="2">  1       -2 0.65129885E-01 0.19657745E+04</pdfrwt>
<totfact> 0.94015043E+00</totfact>
</mgrwt>
</event>
<event>
12    1  0.1541840E-007  0.1500132E+04  0.7818608E-02  0.8884365E-01
         -2   -1    0    0    0  501 -0.00000000000E+00  0.00000000000E+00  0.18852253597E+03  0.18852253597E+03  0.00000000000E+00 0.  1.
          2   -1    0    0  501    0  0.00000000000E+00 -0.00000000000E+00 -0.29842545936E+04  0.29842545936E+04  0.00000000000E+00 0. -1.
         23    2    1    2    0    0 -0.40184785159E+03  0.22831246668E+03 -0.87362068589E+03  0.99226055210E+03  0.88088717619E+02 0.  0.
        254    2    1    2    0    0  0.40184785159E+03 -0.22831246668E+03 -0.19221113718E+04  0.21805165775E+04  0.92007181296E+03 0.  0.
        -24    2    4    4    0    0  0.63057767220E+03 -0.37783547001E+03 -0.14843443915E+04  0.16583255074E+04  0.79858455547E+02 0.  0.
         24    2    4    4    0    0 -0.22872982060E+03  0.14952300333E+03 -0.43776698032E+03  0.52219107013E+03  0.79806799864E+02 0.  0.
         13    1    3    3    0    0 -0.50482063445E+02  0.65559788927E+02 -0.17229890045E+03  0.19113721707E+03  0.00000000000E+00 0. -1.
        -13    1    3    3    0    0 -0.35136578815E+03  0.16275267775E+03 -0.70132178543E+03  0.80112333502E+03  0.00000000000E+00 0.  1.
          4    1    6    6  502    0 -0.11742836530E+03  0.11886442345E+03 -0.28976703027E+03  0.33448931817E+03  0.00000000000E+00 0. -1.
          3    1    5    5  503    0  0.58988435122E+03 -0.33091122884E+03 -0.13814343655E+04  0.15381244083E+04  0.00000000000E+00 0. -1.
         -2    1    5    5    0  503  0.40693320977E+02 -0.46924241166E+02 -0.10291002593E+03  0.12020109907E+03  0.00000000000E+00 0.  1.
         -3    1    6    6    0  502 -0.11130145530E+03  0.30658579877E+02 -0.14799995006E+03  0.18770175196E+03  0.00000000000E+00 0.  1.
<mgrwt>
<rscale>  0 0.15001323E+04</rscale>
<asrwt>0</asrwt>
<pdfrwt beam="1">  1        2 0.45911605E+00 0.15001323E+04</pdfrwt>
<pdfrwt beam="2">  1       -2 0.29003469E-01 0.15001323E+04</pdfrwt>
<totfact> 0.18928698E+01</totfact>
</mgrwt>
</event>
<event>
12    1  0.1541840E-007  0.2251599E+04  0.7818608E-02  0.8497253E-01
          2   -1    0    0  501    0  0.00000000000E+00  0.00000000000E+00  0.28193997002E+04  0.28193997002E+04  0.00000000000E+00 0. -1.
         -2   -1    0    0    0  501 -0.00000000000E+00 -0.00000000000E+00 -0.44953692662E+03  0.44953692662E+03  0.00000000000E+00 0.  1.
         23    2    1    2    0    0 -0.71647589026E+03  0.99060139735E+02  0.12395196062E+03  0.73902832346E+03  0.87453769107E+02 0.  0.
        254    2    1    2    0    0  0.71647589026E+03 -0.99060139735E+02  0.22459108129E+04  0.25299083033E+04  0.91278148040E+03 0.  0.
        -24    2    4    4    0    0  0.86412396229E+03  0.13305313074E+03  0.16820169185E+04  0.18974028171E+04  0.80889914851E+02 0.  0.
         24    2    4    4    0    0 -0.14764807203E+03 -0.23211327047E+03  0.56389389443E+03  0.63250548625E+03  0.80064614210E+02 0.  0.
         11    1    3    3    0    0 -0.56094833633E+03  0.88737647209E+02  0.61999523067E+02  0.57129794934E+03  0.00000000000E+00 0.  1.
        -11    1    3    3    0    0 -0.15552755393E+03  0.10322492526E+02  0.61952437555E+02  0.16773037412E+03  0.00000000000E+00 0. -1.
          2    1    6    6  502    0 -0.59652416600E+02 -0.43484816783E+02  0.10230211270E+03  0.12615491413E+03  0.00000000000E+00 0. -1.
          1    1    5    5  503    0  0.36943978908E+03  0.82453762575E+02  0.79477393795E+03  0.88031244064E+03  0.00000000000E+00 0. -1.
         -2    1    5    5    0  503  0.49468417321E+03  0.50599368164E+02  0.88724298054E+03  0.10170903764E+04  0.00000000000E+00 0.  1.
         -1    1    6    6    0  502 -0.87995655428E+02 -0.18862845369E+03  0.46159178173E+03  0.50635057211E+03  0.00000000000E+00 0.  1.
<mgrwt>
<rscale>  0 0.22515988E+04</rscale>
<asrwt>0</asrwt>
<pdfrwt beam="1">  1        2 0.43375379E+00 0.22515988E+04</pdfrwt>
<pdfrwt beam="2">  1       -2 0.69159529E-01 0.22515988E+04</pdfrwt>
<totfact> 0.39118400E+00</totfact>
</mgrwt>
</event>
<event>
12    1  0.2034848E-007  0.2000329E+04  0.7818608E-02  0.8606467E-01
         -1   -1    0    0    0  501 -0.00000000000E+00  0.00000000000E+00  0.70821180844E+03  0.70821180844E+03  0.00000000000E+00 0.  1.
          1   -1    0    0  501    0  0.00000000000E+00 -0.00000000000E+00 -0.14124713507E+04  0.14124713507E+04  0.00000000000E+00 0. -1.
         23    2    1    2    0    0 -0.36131865788E+03 -0.25268855686E+02 -0.10264259626E+04  0.10919129245E+04  0.86797985717E+02 0.  0.
        254    2    1    2    0    0  0.36131865788E+03  0.25268855686E+02  0.32216642031E+03  0.10287702347E+04  0.90740691304E+03 0.  0.
        -24    2    4    4    0    0 -0.21555504036E+03  0.21401213155E+03  0.27110497159E+03  0.41500501756E+03  0.80412008433E+02 0.  0.
         24    2    4    4    0    0  0.57687369825E+03 -0.18874327587E+03  0.51061448719E+02  0.61376521714E+03  0.75453179574E+02 0.  0.
         13    1    3    3    0    0 -0.27308332715E+03  0.54585570670E+01 -0.67224130190E+03  0.72561192617E+03  0.00000000000E+00 0. -1.
        -13    1    3    3    0    0 -0.88235330731E+02 -0.30727412753E+02 -0.35418466072E+03  0.36630099832E+03  0.00000000000E+00 0.  1.
          4    1    6    6  502    0  0.71830783934E+02 -0.50616967016E+02  0.12476384638E+02  0.88754712799E+02  0.00000000000E+00 0. -1.
          1    1    5    5  503    0 -0.20640532598E+02  0.39350759884E+02  0.10491147853E+02  0.45657179859E+02  0.00000000000E+00 0. -1.
         -4    1    5    5    0  503 -0.19491450777E+03  0.17466137167E+03  0.26061382374E+03  0.36934783770E+03  0.00000000000E+00 0.  1.
         -3    1    6    6    0  502  0.50504291432E+03 -0.13812630885E+03  0.38585064081E+02  0.52501050434E+03  0.00000000000E+00 0.  1.
<mgrwt>
<rscale>  0 0.20003289E+04</rscale>
<asrwt>0</asrwt>
<pdfrwt beam="1">  1        1 0.21730328E+00 0.20003289E+04</pdfrwt>
<pdfrwt beam="2">  1       -1 0.10895566E+00 0.20003289E+04</pdfrwt>
<totfact> 0.54520317E+00</totfact>
</mgrwt>
</event>
<event>
12    1  0.1541840E-007  0.1564268E+04  0.7818608E-02  0.8842806E-01
          2   -1    0    0  501    0  0.00000000000E+00  0.00000000000E+00  0.17517385694E+04  0.17517385694E+04  0.00000000000E+00 0. -1.
         -2   -1    0    0    0  501 -0.00000000000E+00 -0.00000000000E+00 -0.34921496209E+03  0.34921496209E+03  0.00000000000E+00 0.  1.
         23    2    1    2    0    0  0.36171283133E+03  0.10619471890E+03  0.94634953005E+03  0.10228591414E+04  0.92465666227E+02 0.  0.
        254    2    1    2    0    0 -0.36171283133E+03 -0.10619471890E+03  0.45617407727E+03  0.10780943901E+04  0.90115438996E+03 0.  0.
        -24    2    4    4    0    0 -0.40398464627E+03 -0.21933014755E+03  0.67098133944E+03  0.81725050985E+03  0.79831885442E+02 0.  0.
         24    2    4    4    0    0  0.42271814943E+02  0.11313542866E+03 -0.21480726217E+03  0.26084388026E+03  0.85503441042E+02 0.  0.
         13    1    3    3    0    0  0.28629472885E+03  0.11619087127E+03  0.70319313266E+03  0.76807914446E+03  0.00000000000E+00 0.  1.
        -13    1    3    3    0    0  0.75418102479E+02 -0.99961523790E+01  0.24315639739E+03  0.25477999693E+03  0.00000000000E+00 0. -1.
          2    1    6    6  502    0  0.11541560142E+02  0.43139621586E+01  0.52817236550E+01  0.13405763119E+02  0.00000000000E+00 0. -1.
          1    1    5    5  503    0 -0.59294085168E+02 -0.55839035046E+02  0.82513416871E+02  0.11594071905E+03  0.00000000000E+00 0. -1.
         -4    1    5    5    0  503 -0.34469056110E+03 -0.16349111251E+03  0.58846792257E+03  0.70130979080E+03  0.00000000000E+00 0.  1.
         -1    1    6    6    0  502  0.30730254800E+02  0.10882146650E+03 -0.22008898583E+03  0.24743811714E+03  0.00000000000E+00 0.  1.
<mgrwt>
<rscale>  0 0.15642676E+04</rscale>
<asrwt>0</asrwt>
<pdfrwt beam="1">  1        2 0.26949823E+00 0.15642676E+04</pdfrwt>
<pdfrwt beam="2">  1       -2 0.53725380E-01 0.15642676E+04</pdfrwt>
<totfact> 0.28803762E+01</totfact>
</mgrwt>
</event>
<event>
12    1  0.1541840E-007  0.1621548E+04  0.7818608E-02  0.8807419E-01
         -3   -1    0    0    0  501 -0.00000000000E+00  0.00000000000E+00  0.15908156413E+04  0.15908156413E+04  0.00000000000E+00 0.  1.
          3   -1    0    0  501    0  0.00000000000E+00 -0.00000000000E+00 -0.41321835554E+03  0.41321835554E+03  0.00000000000E+00 0. -1.
         23    2    1    2    0    0 -0.21924692766E+03  0.17535809297E+03 -0.18657427085E+03  0.34840090931E+03  0.88054295799E+02 0.  0.
        254    2    1    2    0    0  0.21924692766E+03 -0.17535809297E+03  0.13641715566E+04  0.16556330875E+04  0.89517440122E+03 0.  0.
        -24    2    4    4    0    0  0.21170201415E+03  0.27047909561E+03  0.19771054680E+03  0.40422478226E+03  0.79570913781E+02 0.  0.
         24    2    4    4    0    0  0.75449135103E+01 -0.44583718858E+03  0.11664610098E+04  0.12514083052E+04  0.81016878934E+02 0.  0.
         11    1    3    3    0    0 -0.20537828738E+03  0.16516309660E+03 -0.19630734851E+03  0.32862693816E+03  0.00000000000E+00 0. -1.
        -11    1    3    3    0    0 -0.13868640280E+02  0.10194996376E+02  0.97330776652E+01  0.19773971153E+02  0.00000000000E+00 0.  1.
          4    1    6    6  502    0  0.27191402274E+01 -0.24898068533E+02  0.13581323451E+03  0.13810337508E+03  0.00000000000E+00 0. -1.
          3    1    5    5  503    0  0.44906920284E+02  0.59921218774E+02  0.78664944690E+01  0.75293198125E+02  0.00000000000E+00 0. -1.
         -4    1    5    5    0  503  0.16679509387E+03  0.21055787683E+03  0.18984405233E+03  0.32893158413E+03  0.00000000000E+00 0.  1.
         -3    1    6    6    0  502  0.48257732828E+01 -0.42093912004E+03  0.10306477753E+04  0.11133049302E+04  0.00000000000E+00 0.  1.
<mgrwt>
<rscale>  0 0.16215477E+04</rscale>
<asrwt>0</asrwt>
<pdfrwt beam="1">  1        3 0.63572056E-01 0.16215477E+04</pdfrwt>
<pdfrwt beam="2">  1       -3 0.24474086E+00 0.16215477E+04</pdfrwt>
<totfact> 0.47284402E-01</totfact>
</mgrwt>
</event>
<event>
12    1  0.1541840E-007  0.1744109E+04  0.7818608E-02  0.8736599E-01
          2   -1    0    0  501    0  0.00000000000E+00  0.00000000000E+00  0.29731991759E+04  0.29731991759E+04  0.00000000000E+00 0. -1.
         -2   -1    0    0    0  501 -0.00000000000E+00 -0.00000000000E+00 -0.25577814214E+03  0.25577814214E+03  0.00000000000E+00 0.  1.
         23    2    1    2    0    0 -0.62492937610E+03  0.58052130386E+02  0.11134738816E+04  0.12810279642E+04  0.85450483420E+02 0.  0.
        254    2    1    2    0    0  0.62492937610E+03 -0.58052130386E+02  0.16039471521E+04  0.19479493538E+04  0.90991947071E+03 0.  0.
        -24    2    4    4    0    0  0.65144961379E+03  0.73801620491E+02  0.16559288588E+04  0.17827939014E+04  0.80127592948E+02 0.  0.
         24    2    4    4    0    0 -0.26520237698E+02 -0.13185375088E+03 -0.51981706694E+02  0.16515545232E+03  0.80532546049E+02 0.  0.
         13    1    3    3    0    0 -0.55235336263E+03  0.25189339493E+02  0.95060770654E+03  0.10997198515E+04  0.00000000000E+00 0.  1.
        -13    1    3    3    0    0 -0.72576013466E+02  0.32862790894E+02  0.16286617510E+03  0.18130811275E+03  0.00000000000E+00 0. -1.
          4    1    6    6  502    0  0.27738442255E+02 -0.29315148666E+02 -0.18603860616E+02  0.44439877924E+02  0.00000000000E+00 0. -1.
          3    1    5    5  503    0  0.14621296409E+03 -0.22046475695E+01  0.44780621709E+03  0.47107695698E+03  0.00000000000E+00 0. -1.
         -4    1    5    5    0  503  0.50523664971E+03  0.76006268061E+02  0.12081226417E+04  0.13117169445E+04  0.00000000000E+00 0.  1.
         -3    1    6    6    0  502 -0.54258679953E+02 -0.10253860221E+03 -0.33377846078E+02  0.12071557440E+03  0.00000000000E+00 0.  1.
<mgrwt>
<rscale>  0 0.17441094E+04</rscale>
<asrwt>0</asrwt>
<pdfrwt beam="1">  1        2 0.45741523E+00 0.17441094E+04</pdfrwt>
<pdfrwt beam="2">  1       -2 0.39350486E-01 0.17441094E+04</pdfrwt>
<totfact> 0.10523914E+01</totfact>
</mgrwt>
</event>
<event>
12    1  0.1541840E-007  0.1581882E+04  0.7818608E-02  0.8831756E-01
         -2   -1    0    0    0  501 -0.00000000000E+00  0.00000000000E+00  0.12629761663E+04  0.12629761663E+04  0.00000000000E+00 0.  1.
          2   -1    0    0  501    0  0.00000000000E+00 -0.00000000000E+00 -0.49532836836E+03  0.49532836836E+03  0.00000000000E+00 0. -1.
         23    2    1    2    0    0 -0.44279359630E+03  0.28827261907E+03  0.19038567335E+03  0.56889432632E+03  0.90701588015E+02 0.  0.
        254    2    1    2    0    0  0.44279359630E+03 -0.28827261907E+03  0.57726212458E+03  0.11894102083E+04  0.89571078555E+03 0.  0.
        -24    2    4    4    0    0  0.10304068425E+03  0.29970209445E+03  0.60431523429E+02  0.33232013928E+03  0.79661646491E+02 0.  0.
         24    2    4    4    0    0  0.33975291205E+03 -0.58797471352E+03  0.51683060115E+03  0.85709006904E+03  0.79644278937E+02 0.  0.
         11    1    3    3    0    0 -0.13417256827E+03  0.11185008592E+03  0.10314181450E+03  0.20285697842E+03  0.00000000000E+00 0. -1.
        -11    1    3    3    0    0 -0.30862102803E+03  0.17642253315E+03  0.87243858844E+02  0.36603734789E+03  0.00000000000E+00 0.  1.
          2    1    6    6  502    0  0.16905213461E+03 -0.21556689699E+03  0.21491787147E+03  0.34819161789E+03  0.00000000000E+00 0. -1.
          3    1    5    5  503    0  0.47178924535E+02  0.10237559695E+03 -0.15186656439E+02  0.11374202524E+03  0.00000000000E+00 0. -1.
         -4    1    5    5    0  503  0.55861759717E+02  0.19732649750E+03  0.75618179869E+02  0.21857811405E+03  0.00000000000E+00 0.  1.
         -1    1    6    6    0  502  0.17070077744E+03 -0.37240781653E+03  0.30191272968E+03  0.50889845114E+03  0.00000000000E+00 0.  1.
<mgrwt>
<rscale>  0 0.15818823E+04</rscale>
<asrwt>0</asrwt>
<pdfrwt beam="1">  1        2 0.76204365E-01 0.15818823E+04</pdfrwt>
<pdfrwt beam="2">  1       -2 0.19430402E+00 0.15818823E+04</pdfrwt>
<totfact> 0.86628559E+00</totfact>
</mgrwt>
</event>
<event>
12    1  0.1541840E-007  0.1777056E+04  0.7818608E-02  0.8718597E-01
          2   -1    0    0  501    0  0.00000000000E+00  0.00000000000E+00  0.46685334951E+03  0.46685334951E+03  0.00000000000E+00 0.  1.
         -2   -1    0    0    0  501 -0.00000000000E+00 -0.00000000000E+00 -0.16910701159E+04  0.16910701159E+04  0.00000000000E+00 0. -1.
         23    2    1    2    0    0  0.39000448457E+03  0.29639970880E+03 -0.99119185848E+03  0.11092557345E+04  0.89614166314E+02 0.  0.
        254    2    1    2    0    0 -0.39000448457E+03 -0.29639970880E+03 -0.23302490790E+03  0.10486677309E+04  0.89746705612E+03 0.  0.
        -24    2    4    4    0    0  0.87755647618E+02  0.25407483023E+03 -0.42675932155E+01  0.28015727931E+03  0.78834102711E+02 0.  0.
         24    2    4    4    0    0 -0.47776013218E+03 -0.55047453904E+03 -0.22875731469E+03  0.76851045162E+03  0.83674626892E+02 0.  0.
         11    1    3    3    0    0  0.84548890253E+02  0.11237634390E+03 -0.25362430961E+03  0.29000387573E+03  0.00000000000E+00 0.  1.
        -11    1    3    3    0    0  0.30545559431E+03  0.18402336490E+03 -0.73756754888E+03  0.81925185876E+03  0.00000000000E+00 0. -1.
          2    1    6    6  502    0 -0.23045103365E+03 -0.31986377217E+03 -0.14585146641E+03  0.42034885739E+03  0.00000000000E+00 0. -1.
          1    1    5    5  503    0  0.62033063930E+02  0.86630385095E+02 -0.25116904411E+02  0.10947046875E+03  0.00000000000E+00 0. -1.
         -2    1    5    5    0  503  0.25722583687E+02  0.16744444514E+03  0.20849311195E+02  0.17068681055E+03  0.00000000000E+00 0.  1.
         -3    1    6    6    0  502 -0.24730909854E+03 -0.23061076687E+03 -0.82905848282E+02  0.34816159423E+03  0.00000000000E+00 0.  1.
<mgrwt>
<rscale>  0 0.17770557E+04</rscale>
<asrwt>0</asrwt>
<pdfrwt beam="1">  1        2 0.71823593E-01 0.17770557E+04</pdfrwt>
<pdfrwt beam="2">  1       -2 0.26016463E+00 0.17770557E+04</pdfrwt>
<totfact> 0.35109659E+00</totfact>
</mgrwt>
</event>
<event>
12    1  0.1541840E-007  0.2136576E+04  0.7818608E-02  0.8545300E-01
          1   -1    0    0  501    0  0.00000000000E+00  0.00000000000E+00  0.15638510904E+04  0.15638510904E+04  0.00000000000E+00 0. -1.
         -1   -1    0    0    0  501 -0.00000000000E+00 -0.00000000000E+00 -0.72976202025E+03  0.72976202025E+03  0.00000000000E+00 0.  1.
         23    2    1    2    0    0 -0.32782990885E+03  0.47565593666E+03  0.10552253962E+04  0.12065508751E+04  0.92430288275E+02 0.  0.
        254    2    1    2    0    0  0.32782990885E+03 -0.47565593666E+03 -0.22113632601E+03  0.10870622356E+04  0.89391387176E+03 0.  0.
        -24    2    4    4    0    0  0.20279667512E+03 -0.73453503990E+03 -0.15201622946E+03  0.78096308455E+03  0.78269975976E+02 0.  0.
         24    2    4    4    0    0  0.12503323373E+03  0.25887910324E+03 -0.69120096555E+02  0.30609915103E+03  0.79166930481E+02 0.  0.
         11    1    3    3    0    0 -0.22487806860E+03  0.25931824456E+03  0.56924518022E+03  0.66472262855E+03  0.00000000000E+00 0. -1.
        -11    1    3    3    0    0 -0.10295184025E+03  0.21633769211E+03  0.48598021594E+03  0.54182824652E+03  0.00000000000E+00 0.  1.
          4    1    6    6  502    0  0.41690687948E+01  0.51869711564E+02 -0.37874763691E+02  0.64361058389E+02  0.00000000000E+00 0. -1.
          1    1    5    5  503    0  0.16892494329E+03 -0.48671097428E+03 -0.86575060838E+02  0.52241597421E+03  0.00000000000E+00 0. -1.
         -2    1    5    5    0  503  0.33871731827E+02 -0.24782406562E+03 -0.65441168621E+02  0.25854711035E+03  0.00000000000E+00 0.  1.
         -3    1    6    6    0  502  0.12086416494E+03  0.20700939167E+03 -0.31245332865E+02  0.24173809264E+03  0.00000000000E+00 0.  1.
<mgrwt>
<rscale>  0 0.21365759E+04</rscale>
<asrwt>0</asrwt>
<pdfrwt beam="1">  1        1 0.24059248E+00 0.21365759E+04</pdfrwt>
<pdfrwt beam="2">  1       -1 0.11227108E+00 0.21365759E+04</pdfrwt>
<totfact> 0.39382937E+00</totfact>
</mgrwt>
</event>
<event>
12    1  0.1541840E-007  0.1558877E+04  0.7818608E-02  0.8846217E-01
         -1   -1    0    0    0  501 -0.00000000000E+00  0.00000000000E+00  0.52959340561E+03  0.52959340561E+03  0.00000000000E+00 0. -1.
          1   -1    0    0  501    0  0.00000000000E+00 -0.00000000000E+00 -0.11471526222E+04  0.11471526222E+04  0.00000000000E+00 0.  1.
         23    2    1    2    0    0  0.21830109414E+03  0.70616171739E+01 -0.69409070372E+03  0.73296803958E+03  0.88176005314E+02 0.  0.
        254    2    1    2    0    0 -0.21830109414E+03 -0.70616171739E+01  0.76531487169E+02  0.94377798818E+03  0.91496152286E+03 0.  0.
        -24    2    4    4    0    0 -0.47270285523E+03 -0.24620222610E+03 -0.95072826978E+02  0.54701614001E+03  0.78257839999E+02 0.  0.
         24    2    4    4    0    0  0.25440176109E+03  0.23914060893E+03  0.17160431415E+03  0.39676184817E+03  0.77868072063E+02 0.  0.
         11    1    3    3    0    0  0.14109212089E+03  0.11258462797E+02 -0.56528541338E+03  0.58273607932E+03  0.00000000000E+00 0. -1.
        -11    1    3    3    0    0  0.77208973248E+02 -0.41968456232E+01 -0.12880529034E+03  0.15023196026E+03  0.00000000000E+00 0.  1.
          4    1    6    6  502    0  0.47264785240E+02  0.75048685738E+02  0.16087045624E+02  0.90139104675E+02  0.00000000000E+00 0. -1.
          3    1    5    5  503    0 -0.41582647412E+03 -0.18546566726E+03 -0.75408818878E+02  0.46151452878E+03  0.00000000000E+00 0. -1.
         -4    1    5    5    0  503 -0.56876381113E+02 -0.60736558845E+02 -0.19664008100E+02  0.85501611233E+02  0.00000000000E+00 0.  1.
         -3    1    6    6    0  502  0.20713697585E+03  0.16409192319E+03  0.15551726852E+03  0.30662274350E+03  0.00000000000E+00 0.  1.
<mgrwt>
<rscale>  0 0.15588771E+04</rscale>
<asrwt>0</asrwt>
<pdfrwt beam="1">  1        1 0.17648502E+00 0.15588771E+04</pdfrwt>
<pdfrwt beam="2">  1       -1 0.81475909E-01 0.15588771E+04</pdfrwt>
<totfact> 0.16883768E+01</totfact>
</mgrwt>
</event>
<event>
12    1  0.1541840E-007  0.1983939E+04  0.7818608E-02  0.8614166E-01
          1   -1    0    0  501    0  0.00000000000E+00  0.00000000000E+00  0.17526950624E+04  0.17526950624E+04  0.00000000000E+00 0. -1.
         -1   -1    0    0    0  501 -0.00000000000E+00 -0.00000000000E+00 -0.56142334954E+03  0.56142334954E+03  0.00000000000E+00 0.  1.
         23    2    1    2    0    0 -0.34071560371E+03  0.17928426822E+03  0.12737330631E+04  0.13337003938E+04  0.90171242351E+02 0.  0.
        254    2    1    2    0    0  0.34071560371E+03 -0.17928426822E+03 -0.82461350228E+02  0.98041801816E+03  0.89788064051E+03 0.  0.
        -24    2    4    4    0    0  0.31933636556E+03 -0.37246222440E+03  0.27323679795E+03  0.56721219267E+03  0.79796621398E+02 0.  0.
         24    2    4    4    0    0  0.21379238151E+02  0.19317795618E+03 -0.35569814818E+03  0.41320582549E+03  0.80268842161E+02 0.  0.
         13    1    3    3    0    0 -0.53588343801E+00  0.19178688360E+02  0.52086167707E+02  0.55507460081E+02  0.00000000000E+00 0.  1.
        -13    1    3    3    0    0 -0.34017972027E+03  0.16010557986E+03  0.12216468954E+04  0.12781929337E+04  0.00000000000E+00 0. -1.
          4    1    6    6  502    0  0.48040984942E+02  0.80463240977E+02 -0.14197368771E+03  0.17011407168E+03  0.00000000000E+00 0. -1.
          1    1    5    5  503    0  0.24724090746E+02 -0.72044717965E+02  0.46493930902E+02  0.89237927254E+02  0.00000000000E+00 0. -1.
         -2    1    5    5    0  503  0.29461227481E+03 -0.30041750643E+03  0.22674286705E+03  0.47797426541E+03  0.00000000000E+00 0.  1.
         -3    1    6    6    0  502 -0.26661746791E+02  0.11271471521E+03 -0.21372446047E+03  0.24309175381E+03  0.00000000000E+00 0.  1.
<mgrwt>
<rscale>  0 0.19839394E+04</rscale>
<asrwt>0</asrwt>
<pdfrwt beam="1">  1        1 0.26964539E+00 0.19839394E+04</pdfrwt>
<pdfrwt beam="2">  1       -1 0.86372824E-01 0.19839394E+04</pdfrwt>
<totfact> 0.53881375E+00</totfact>
</mgrwt>
</event>
<event>
12    1  0.1541840E-007  0.1736865E+04  0.7818608E-02  0.8740614E-01
         -1   -1    0    0    0  501 -0.00000000000E+00  0.00000000000E+00  0.10883736356E+04  0.10883736356E+04  0.00000000000E+00 0.  1.
          1   -1    0    0  501    0  0.00000000000E+00 -0.00000000000E+00 -0.69293795195E+03  0.69293795195E+03  0.00000000000E+00 0. -1.
         23    2    1    2    0    0 -0.91907403725E+02 -0.61465160007E+03 -0.42679418364E+02  0.62965250370E+03  0.91636140976E+02 0.  0.
        254    2    1    2    0    0  0.91907403725E+02  0.61465160007E+03  0.43811510204E+03  0.11516590839E+04  0.86494522516E+03 0.  0.
        -24    2    4    4    0    0  0.15360924453E+03  0.26303197527E+03 -0.22989893455E+03  0.39000071976E+03  0.80407843447E+02 0.  0.
         24    2    4    4    0    0 -0.61701840807E+02  0.35161962480E+03  0.66801403658E+03  0.76165836412E+03  0.80232367902E+02 0.  0.
         11    1    3    3    0    0 -0.96949747199E+02 -0.50450857003E+03 -0.62832476808E+02  0.51756745537E+03  0.00000000000E+00 0. -1.
        -11    1    3    3    0    0  0.50423434749E+01 -0.11014303004E+03  0.20153058444E+02  0.11208504833E+03  0.00000000000E+00 0.  1.
          2    1    6    6  502    0 -0.11267907309E+02  0.61450604375E+02  0.19189890799E+03  0.20181261953E+03  0.00000000000E+00 0. -1.
          3    1    5    5  503    0  0.88537480596E+02  0.21841959247E+03 -0.16296876923E+03  0.28653939273E+03  0.00000000000E+00 0. -1.
         -4    1    5    5    0  503  0.65071763935E+02  0.44612382805E+02 -0.66930165314E+02  0.10346132703E+03  0.00000000000E+00 0.  1.
         -1    1    6    6    0  502 -0.50433933498E+02  0.29016902043E+03  0.47611512860E+03  0.55984574459E+03  0.00000000000E+00 0.  1.
<mgrwt>
<rscale>  0 0.17368655E+04</rscale>
<asrwt>0</asrwt>
<pdfrwt beam="1">  1        1 0.10660584E+00 0.17368655E+04</pdfrwt>
<pdfrwt beam="2">  1       -1 0.16744210E+00 0.17368655E+04</pdfrwt>
<totfact> 0.67454278E+00</totfact>
</mgrwt>
</event>
<event>
12    1  0.1541840E-007  0.3248804E+04  0.7818608E-02  0.8176046E-01
          2   -1    0    0  501    0  0.00000000000E+00  0.00000000000E+00  0.17857096438E+04  0.17857096438E+04  0.00000000000E+00 0. -1.
         -2   -1    0    0    0  501 -0.00000000000E+00 -0.00000000000E+00 -0.14776658615E+04  0.14776658615E+04  0.00000000000E+00 0.  1.
         23    2    1    2    0    0  0.28539430512E+03 -0.71769188909E+03  0.14331309971E+04  0.16307160653E+04  0.94015284598E+02 0.  0.
        254    2    1    2    0    0 -0.28539430512E+03  0.71769188909E+03 -0.11250872147E+04  0.16326594400E+04  0.89622767710E+03 0.  0.
        -24    2    4    4    0    0  0.30248382127E+03  0.11094608506E+03 -0.25927903804E+03  0.42039660650E+03  0.75512854986E+02 0.  0.
         24    2    4    4    0    0 -0.58787812639E+03  0.60674580403E+03 -0.86580817668E+03  0.12122628335E+04  0.78842986156E+02 0.  0.
         13    1    3    3    0    0  0.16948410595E+03 -0.37740493438E+03  0.85692051618E+03  0.95156298673E+03  0.00000000000E+00 0. -1.
        -13    1    3    3    0    0  0.11591019917E+03 -0.34028695470E+03  0.57621048089E+03  0.67915307855E+03  0.00000000000E+00 0.  1.
          2    1    6    6  502    0 -0.29461702831E+03  0.30412529298E+03 -0.37761077412E+03  0.56734582393E+03  0.00000000000E+00 0. -1.
          1    1    5    5  503    0  0.29529594654E+03  0.11307011583E+03 -0.23220872190E+03  0.39230783533E+03  0.00000000000E+00 0. -1.
         -2    1    5    5    0  503  0.71878747311E+01 -0.21240307689E+01 -0.27070316135E+02  0.28088771164E+02  0.00000000000E+00 0.  1.
         -1    1    6    6    0  502 -0.29326109809E+03  0.30262051104E+03 -0.48819740257E+03  0.64491700957E+03  0.00000000000E+00 0.  1.
<mgrwt>
<rscale>  0 0.32488042E+04</rscale>
<asrwt>0</asrwt>
<pdfrwt beam="1">  1        2 0.27472456E+00 0.32488042E+04</pdfrwt>
<pdfrwt beam="2">  1       -2 0.22733321E+00 0.32488042E+04</pdfrwt>
<totfact> 0.65493475E-01</totfact>
</mgrwt>
</event>
<event>
12    1  0.1541840E-007  0.1942950E+04  0.7818608E-02  0.8633768E-01
          2   -1    0    0  501    0  0.00000000000E+00  0.00000000000E+00  0.45089533665E+03  0.45089533665E+03  0.00000000000E+00 0. -1.
         -2   -1    0    0    0  501 -0.00000000000E+00 -0.00000000000E+00 -0.20930884076E+04  0.20930884076E+04  0.00000000000E+00 0.  1.
         23    2    1    2    0    0  0.56068365184E+03 -0.38850764813E+03 -0.39877827593E+03  0.79543413374E+03  0.91580552849E+02 0.  0.
        254    2    1    2    0    0 -0.56068365184E+03  0.38850764813E+03 -0.12434147950E+04  0.17485496105E+04  0.10227614765E+04 0.  0.
        -24    2    4    4    0    0 -0.66123114775E+03 -0.61013418931E+02 -0.38861854501E+03  0.77423737467E+03  0.86428414123E+02 0.  0.
         24    2    4    4    0    0  0.10054749591E+03  0.44952106706E+03 -0.85479624999E+03  0.97431223583E+03  0.80179269346E+02 0.  0.
         13    1    3    3    0    0  0.54849261616E+01 -0.29796007556E+01  0.50789231777E+01  0.80472291073E+01  0.00000000000E+00 0.  1.
        -13    1    3    3    0    0  0.55519872568E+03 -0.38552804737E+03 -0.40385719911E+03  0.78738690463E+03  0.00000000000E+00 0. -1.
          4    1    6    6  502    0  0.95355398092E+02  0.45035185622E+03 -0.83141951718E+03  0.95035144020E+03  0.00000000000E+00 0. -1.
          1    1    5    5  503    0 -0.61293343319E+03 -0.78734447288E+02 -0.35328861020E+03  0.71182817365E+03  0.00000000000E+00 0. -1.
         -2    1    5    5    0  503 -0.48297714557E+02  0.17721028358E+02 -0.35329934813E+02  0.62409201015E+02  0.00000000000E+00 0.  1.
         -3    1    6    6    0  502  0.51920978134E+01 -0.83078916119E+00 -0.23376732817E+02  0.23960795636E+02  0.00000000000E+00 0.  1.
<mgrwt>
<rscale>  0 0.19429501E+04</rscale>
<asrwt>0</asrwt>
<pdfrwt beam="1">  1        2 0.69368514E-01 0.19429501E+04</pdfrwt>
<pdfrwt beam="2">  1       -2 0.32201360E+00 0.19429501E+04</pdfrwt>
<totfact> 0.15097617E+00</totfact>
</mgrwt>
</event>
<event>
12    1  0.1541840E-007  0.1101586E+04  0.7818608E-02  0.9203648E-01
          1   -1    0    0  501    0  0.00000000000E+00  0.00000000000E+00  0.54479572316E+03  0.54479572316E+03  0.00000000000E+00 0. -1.
         -1   -1    0    0    0  501 -0.00000000000E+00 -0.00000000000E+00 -0.55685582957E+03  0.55685582957E+03  0.00000000000E+00 0.  1.
         23    2    1    2    0    0  0.48896933828E+02 -0.19919757826E+03 -0.14982728408E+03  0.27027401406E+03  0.92353897051E+02 0.  0.
        254    2    1    2    0    0 -0.48896933828E+02  0.19919757826E+03  0.13776717767E+03  0.83137753867E+03  0.79381246604E+03 0.  0.
        -24    2    4    4    0    0  0.48825175207E+02 -0.28796289909E+03 -0.21894813056E+02  0.30355878082E+03  0.79762281724E+02 0.  0.
         24    2    4    4    0    0 -0.97722109035E+02  0.48716047735E+03  0.15966199073E+03  0.52781875785E+03  0.78903412901E+02 0.  0.
         13    1    3    3    0    0  0.15242000041E+02 -0.10503994561E+02 -0.51762439237E+02  0.54972743999E+02  0.00000000000E+00 0. -1.
        -13    1    3    3    0    0  0.33654933787E+02 -0.18869358370E+03 -0.98064844847E+02  0.21530127007E+03  0.00000000000E+00 0.  1.
          4    1    6    6  502    0 -0.47518030122E+02  0.16588993179E+03  0.19261495982E+02  0.17363305528E+03  0.00000000000E+00 0. -1.
          1    1    5    5  503    0  0.16863921131E+02 -0.41576446285E+02  0.24034338118E+02  0.50898350959E+02  0.00000000000E+00 0. -1.
         -2    1    5    5    0  503  0.31961254076E+02 -0.24638645281E+03 -0.45929151175E+02  0.25266042986E+03  0.00000000000E+00 0.  1.
         -3    1    6    6    0  502 -0.50204078913E+02  0.32127054556E+03  0.14040049475E+03  0.35418570257E+03  0.00000000000E+00 0.  1.
<mgrwt>
<rscale>  0 0.11015855E+04</rscale>
<asrwt>0</asrwt>
<pdfrwt beam="1">  1        1 0.83814726E-01 0.11015855E+04</pdfrwt>
<pdfrwt beam="2">  1       -1 0.85670128E-01 0.11015855E+04</pdfrwt>
<totfact> 0.52754998E+01</totfact>
</mgrwt>
</event>
<event>
12    1  0.1541840E-007  0.1344363E+04  0.7818608E-02  0.8995107E-01
          1   -1    0    0  501    0  0.00000000000E+00  0.00000000000E+00  0.21582464264E+04  0.21582464264E+04  0.00000000000E+00 0. -1.
         -1   -1    0    0    0  501 -0.00000000000E+00 -0.00000000000E+00 -0.20934944611E+03  0.20934944611E+03  0.00000000000E+00 0.  1.
         23    2    1    2    0    0  0.18139597018E+03 -0.31301894894E+03  0.57152005127E+03  0.68347917837E+03  0.98098205216E+02 0.  0.
        254    2    1    2    0    0 -0.18139597018E+03  0.31301894894E+03  0.13773769290E+04  0.16841166941E+04  0.89899748302E+03 0.  0.
        -24    2    4    4    0    0 -0.48916532011E+03  0.25051148526E+03  0.49426402576E+03  0.74336673190E+03  0.79110405658E+02 0.  0.
         24    2    4    4    0    0  0.30776934993E+03  0.62507463685E+02  0.88311290325E+03  0.94074996223E+03  0.80578755098E+02 0.  0.
         11    1    3    3    0    0  0.60999949546E+02 -0.73512056251E+02  0.84389543163E+02  0.12746219539E+03  0.00000000000E+00 0. -1.
        -11    1    3    3    0    0  0.12039602063E+03 -0.23950689269E+03  0.48713050810E+03  0.55601698297E+03  0.00000000000E+00 0.  1.
          2    1    6    6  502    0  0.15352755591E+03  0.69120872215E+02  0.50524717633E+03  0.53256277995E+03  0.00000000000E+00 0. -1.
          1    1    5    5  503    0 -0.10176835461E+03  0.51745276199E+02  0.62417673634E+02  0.13011663072E+03  0.00000000000E+00 0. -1.
         -2    1    5    5    0  503 -0.38739696550E+03  0.19876620906E+03  0.43184635213E+03  0.61325010118E+03  0.00000000000E+00 0.  1.
         -1    1    6    6    0  502  0.15424179402E+03 -0.66134085300E+01  0.37786572692E+03  0.40818718228E+03  0.00000000000E+00 0.  1.
<mgrwt>
<rscale>  0 0.13443626E+04</rscale>
<asrwt>0</asrwt>
<pdfrwt beam="1">  1        1 0.33203790E+00 0.13443626E+04</pdfrwt>
<pdfrwt beam="2">  1       -1 0.32207609E-01 0.13443626E+04</pdfrwt>
<totfact> 0.20541602E+01</totfact>
</mgrwt>
</event>
<event>
12    1  0.1541840E-007  0.1713407E+04  0.7818608E-02  0.8753755E-01
          1   -1    0    0  501    0  0.00000000000E+00  0.00000000000E+00  0.39979771309E+03  0.39979771309E+03  0.00000000000E+00 0. -1.
         -1   -1    0    0    0  501 -0.00000000000E+00 -0.00000000000E+00 -0.18357797348E+04  0.18357797348E+04  0.00000000000E+00 0.  1.
         23    2    1    2    0    0 -0.29878529326E+03  0.48061815248E+03 -0.86395259277E+03  0.10369308196E+04  0.92439072375E+02 0.  0.
        254    2    1    2    0    0  0.29878529326E+03 -0.48061815248E+03 -0.57202942897E+03  0.11986466283E+04  0.88840847139E+03 0.  0.
        -24    2    4    4    0    0 -0.65176136330E+02 -0.30817616639E+02  0.20257444539E+03  0.22850331399E+03  0.77328548006E+02 0.  0.
         24    2    4    4    0    0  0.36396142959E+03 -0.44980053584E+03 -0.77460387435E+03  0.97014331434E+03  0.79865160895E+02 0.  0.
         13    1    3    3    0    0 -0.82705436428E+01  0.26360297535E+00 -0.23829254460E+01  0.86110227243E+01  0.00000000000E+00 0. -1.
        -13    1    3    3    0    0 -0.29051474962E+03  0.48035454951E+03 -0.86156966733E+03  0.10283197969E+04  0.00000000000E+00 0.  1.
          4    1    6    6  502    0  0.34971580103E+02 -0.33043258593E+02 -0.34178538539E+02  0.59017292805E+02  0.00000000000E+00 0. -1.
          1    1    5    5  503    0 -0.25791562171E+02 -0.23232417083E+02  0.17014208241E+02  0.38657899125E+02  0.00000000000E+00 0. -1.
         -2    1    5    5    0  503 -0.39384574159E+02 -0.75851995555E+01  0.18556023715E+03  0.18984541486E+03  0.00000000000E+00 0.  1.
         -3    1    6    6    0  502  0.32898984949E+03 -0.41675727725E+03 -0.74042533581E+03  0.91112602154E+03  0.00000000000E+00 0.  1.
<mgrwt>
<rscale>  0 0.17134066E+04</rscale>
<asrwt>0</asrwt>
<pdfrwt beam="1">  1        1 0.61507340E-01 0.17134066E+04</pdfrwt>
<pdfrwt beam="2">  1       -1 0.28242765E+00 0.17134066E+04</pdfrwt>
<totfact> 0.24519830E+00</totfact>
</mgrwt>
</event>
<event>
12    1  0.1541840E-007  0.2385463E+04  0.7818608E-02  0.8444966E-01
         -2   -1    0    0    0  501 -0.00000000000E+00  0.00000000000E+00  0.10823584526E+04  0.10823584526E+04  0.00000000000E+00 0. -1.
          2   -1    0    0  501    0  0.00000000000E+00 -0.00000000000E+00 -0.13143593122E+04  0.13143593122E+04  0.00000000000E+00 0.  1.
         23    2    1    2    0    0  0.75758205048E+03  0.56450270934E+03 -0.50742161938E+02  0.95059079252E+03  0.91946809500E+02 0.  0.
        254    2    1    2    0    0 -0.75758205048E+03 -0.56450270934E+03 -0.18125869763E+03  0.14461269723E+04  0.10797382240E+04 0.  0.
        -24    2    4    4    0    0  0.19847125413E+03 -0.12783694078E+03 -0.29487430269E+03  0.38588266554E+03  0.78876200695E+02 0.  0.
         24    2    4    4    0    0 -0.95605330461E+03 -0.43666576856E+03  0.11361560506E+03  0.10602443067E+04  0.80588892131E+02 0.  0.
         11    1    3    3    0    0  0.34071038845E+02  0.15967158146E+02  0.14461003332E+02  0.40310128313E+02  0.00000000000E+00 0. -1.
        -11    1    3    3    0    0  0.72351101163E+03  0.54853555119E+03 -0.65203165270E+02  0.91028066421E+03  0.00000000000E+00 0.  1.
          2    1    6    6  502    0 -0.98077765336E+02 -0.19909910565E+02  0.44169738030E+01  0.10017565697E+03  0.00000000000E+00 0. -1.
          3    1    5    5  503    0  0.79900375218E+02 -0.90218169881E+01 -0.10873002291E+03  0.13523195267E+03  0.00000000000E+00 0. -1.
         -4    1    5    5    0  503  0.11857087892E+03 -0.11881512379E+03 -0.18614427978E+03  0.25065071287E+03  0.00000000000E+00 0.  1.
         -1    1    6    6    0  502 -0.85797553927E+03 -0.41675585800E+03  0.10919863125E+03  0.96006864975E+03  0.00000000000E+00 0.  1.
<mgrwt>
<rscale>  0 0.23854626E+04</rscale>
<asrwt>0</asrwt>
<pdfrwt beam="1">  1        2 0.20220913E+00 0.23854626E+04</pdfrwt>
<pdfrwt beam="2">  1       -2 0.16651668E+00 0.23854626E+04</pdfrwt>
<totfact> 0.32959743E+00</totfact>
</mgrwt>
</event>
<event>
12    1  0.1541840E-007  0.1422112E+04  0.7818608E-02  0.8937966E-01
         -2   -1    0    0    0  501 -0.00000000000E+00  0.00000000000E+00  0.12054398775E+04  0.12054398775E+04  0.00000000000E+00 0.  1.
          2   -1    0    0  501    0  0.00000000000E+00 -0.00000000000E+00 -0.41943275435E+03  0.41943275435E+03  0.00000000000E+00 0. -1.
         23    2    1    2    0    0 -0.30867807770E+03 -0.14221618740E+03 -0.45522787754E+02  0.35519936567E+03  0.92664262559E+02 0.  0.
        254    2    1    2    0    0  0.30867807770E+03  0.14221618740E+03  0.83152991091E+03  0.12696732662E+04  0.89728513333E+03 0.  0.
        -24    2    4    4    0    0  0.62680976085E+02  0.50402794254E+03  0.44089199965E+03  0.67734387559E+03  0.80224053868E+02 0.  0.
         24    2    4    4    0    0  0.24599710162E+03 -0.36181175513E+03  0.39063791126E+03  0.59232939059E+03  0.82666856043E+02 0.  0.
         13    1    3    3    0    0 -0.28068113168E+03 -0.12735392101E+03 -0.68881134893E+02  0.31582515673E+03  0.00000000000E+00 0. -1.
        -13    1    3    3    0    0 -0.27996946021E+02 -0.14862266393E+02  0.23358347139E+02  0.39374208944E+02  0.00000000000E+00 0.  1.
          2    1    6    6  502    0  0.43550105462E+02 -0.64333707746E+02  0.31167933634E+02  0.83707094832E+02  0.00000000000E+00 0. -1.
          1    1    5    5  503    0  0.41122815588E+02  0.83696605250E+02  0.75704176538E+02  0.12011382118E+03  0.00000000000E+00 0. -1.
         -2    1    5    5    0  503  0.21558160496E+02  0.42033133729E+03  0.36518782311E+03  0.55723005441E+03  0.00000000000E+00 0.  1.
         -1    1    6    6    0  502  0.20244699615E+03 -0.29747804739E+03  0.35946997763E+03  0.50862229576E+03  0.00000000000E+00 0.  1.
<mgrwt>
<rscale>  0 0.14221125E+04</rscale>
<asrwt>0</asrwt>
<pdfrwt beam="1">  1        2 0.64528116E-01 0.14221125E+04</pdfrwt>
<pdfrwt beam="2">  1       -2 0.18545229E+00 0.14221125E+04</pdfrwt>
<totfact> 0.12169125E+01</totfact>
</mgrwt>
</event>
<event>
12    1  0.1541840E-007  0.1397838E+04  0.7818608E-02  0.8955385E-01
          1   -1    0    0  501    0  0.00000000000E+00  0.00000000000E+00  0.24886251709E+04  0.24886251709E+04  0.00000000000E+00 0. -1.
         -1   -1    0    0    0  501 -0.00000000000E+00 -0.00000000000E+00 -0.19628813983E+03  0.19628813983E+03  0.00000000000E+00 0.  1.
         23    2    1    2    0    0 -0.84901117075E+02  0.38610539199E+03  0.48857736894E+03  0.63495057677E+03  0.90381503098E+02 0.  0.
        254    2    1    2    0    0  0.84901117075E+02 -0.38610539199E+03  0.18037596621E+04  0.20499627339E+04  0.89023183412E+03 0.  0.
        -24    2    4    4    0    0  0.31605603891E+03  0.14079298288E+03  0.97651293777E+03  0.10390284279E+04  0.79299890905E+02 0.  0.
         24    2    4    4    0    0 -0.23115492183E+03 -0.52689837487E+03  0.82724672434E+03  0.10109343060E+04  0.81219041887E+02 0.  0.
         11    1    3    3    0    0  0.11293044627E+02  0.56584054443E+02  0.10788141790E+03  0.12234250448E+03  0.00000000000E+00 0.  1.
        -11    1    3    3    0    0 -0.96194161702E+02  0.32952133755E+03  0.38069595104E+03  0.51260807229E+03  0.00000000000E+00 0. -1.
          2    1    6    6  502    0 -0.20988457824E+03 -0.51626170450E+03  0.79304354694E+03  0.96927589007E+03  0.00000000000E+00 0. -1.
          3    1    5    5  503    0  0.22938692912E+03  0.10612565371E+03  0.80518498115E+03  0.84392172119E+03  0.00000000000E+00 0. -1.
         -4    1    5    5    0  503  0.86669109787E+02  0.34667329168E+02  0.17132795662E+03  0.19510670676E+03  0.00000000000E+00 0.  1.
         -3    1    6    6    0  502 -0.21270343590E+02 -0.10636670368E+02  0.34203177404E+02  0.41658415926E+02  0.00000000000E+00 0.  1.
<mgrwt>
<rscale>  0 0.13978378E+04</rscale>
<asrwt>0</asrwt>
<pdfrwt beam="1">  1        1 0.38286539E+00 0.13978378E+04</pdfrwt>
<pdfrwt beam="2">  1       -1 0.30198177E-01 0.13978378E+04</pdfrwt>
<totfact> 0.13617410E+01</totfact>
</mgrwt>
</event>
<event>
12    1  0.1541840E-007  0.2031390E+04  0.7818608E-02  0.8592084E-01
          1   -1    0    0  501    0  0.00000000000E+00  0.00000000000E+00  0.16933872232E+04  0.16933872232E+04  0.00000000000E+00 0. -1.
         -1   -1    0    0    0  501 -0.00000000000E+00 -0.00000000000E+00 -0.60921470856E+03  0.60921470856E+03  0.00000000000E+00 0.  1.
         23    2    1    2    0    0 -0.36801864764E+03 -0.63261533455E+03  0.82083543539E+03  0.11032254366E+04  0.87724942349E+02 0.  0.
        254    2    1    2    0    0  0.36801864764E+03  0.63261533455E+03  0.26333707921E+03  0.11993764951E+04  0.91297189067E+03 0.  0.
        -24    2    4    4    0    0  0.12746107199E+03  0.79272633616E+03  0.35970113868E+03  0.88392600745E+03  0.85316519981E+02 0.  0.
         24    2    4    4    0    0  0.24055757565E+03 -0.16011100161E+03 -0.96364059470E+02  0.31545048763E+03  0.81972545087E+02 0.  0.
         13    1    3    3    0    0 -0.21522763642E+03 -0.41809549792E+03  0.47350961703E+03  0.66733660043E+03  0.00000000000E+00 0. -1.
        -13    1    3    3    0    0 -0.15279101122E+03 -0.21451983663E+03  0.34732581836E+03  0.43588883619E+03  0.00000000000E+00 0.  1.
          4    1    6    6  502    0  0.16088268126E+03 -0.74181856313E+02 -0.26806331800E+02  0.17917802421E+03  0.00000000000E+00 0. -1.
          1    1    5    5  503    0  0.39713319979E+02  0.37974796503E+03  0.13035925181E+03  0.40345904285E+03  0.00000000000E+00 0. -1.
         -2    1    5    5    0  503  0.87747752014E+02  0.41297837113E+03  0.22934188687E+03  0.48046696460E+03  0.00000000000E+00 0.  1.
         -3    1    6    6    0  502  0.79674894394E+02 -0.85929145295E+02 -0.69557727671E+02  0.13627246342E+03  0.00000000000E+00 0.  1.
<mgrwt>
<rscale>  0 0.20313901E+04</rscale>
<asrwt>0</asrwt>
<pdfrwt beam="1">  1        1 0.26052111E+00 0.20313901E+04</pdfrwt>
<pdfrwt beam="2">  1       -1 0.93725341E-01 0.20313901E+04</pdfrwt>
<totfact> 0.49169434E+00</totfact>
</mgrwt>
</event>
<event>
12    1  0.1541840E-007  0.1667549E+04  0.7818608E-02  0.8780092E-01
         -1   -1    0    0    0  501 -0.00000000000E+00  0.00000000000E+00  0.42173639527E+03  0.42173639527E+03  0.00000000000E+00 0.  1.
          1   -1    0    0  501    0  0.00000000000E+00 -0.00000000000E+00 -0.16483762512E+04  0.16483762512E+04  0.00000000000E+00 0. -1.
         23    2    1    2    0    0 -0.44143538786E+03 -0.24454478724E+03 -0.81796306698E+03  0.96555359126E+03  0.92535420384E+02 0.  0.
        254    2    1    2    0    0  0.44143538786E+03  0.24454478724E+03 -0.40867678895E+03  0.11045590552E+04  0.89351364511E+03 0.  0.
        -24    2    4    4    0    0  0.60368326239E+02 -0.59386720923E+02  0.25352823183E+03  0.27846066405E+03  0.78055490848E+02 0.  0.
         24    2    4    4    0    0  0.38106706162E+03  0.30393150817E+03 -0.66220502078E+03  0.82609839116E+03  0.79602733776E+02 0.  0.
         13    1    3    3    0    0 -0.29901206630E+03 -0.12079195714E+03 -0.47524891924E+03  0.57433478733E+03  0.00000000000E+00 0. -1.
        -13    1    3    3    0    0 -0.14242332156E+03 -0.12375283011E+03 -0.34271414774E+03  0.39121880392E+03  0.00000000000E+00 0.  1.
          2    1    6    6  502    0  0.18628661094E+03  0.11651802553E+03 -0.34871909073E+03  0.41217005705E+03  0.00000000000E+00 0. -1.
          3    1    5    5  503    0  0.34731649421E+02  0.13710238937E+02  0.93144804535E+02  0.10035044960E+03  0.00000000000E+00 0. -1.
         -4    1    5    5    0  503  0.25636676817E+02 -0.73096959860E+02  0.16038342730E+03  0.17811021445E+03  0.00000000000E+00 0.  1.
         -1    1    6    6    0  502  0.19478045068E+03  0.18741348264E+03 -0.31348593005E+03  0.41392833411E+03  0.00000000000E+00 0.  1.
<mgrwt>
<rscale>  0 0.16675494E+04</rscale>
<asrwt>0</asrwt>
<pdfrwt beam="1">  1        1 0.25359634E+00 0.16675494E+04</pdfrwt>
<pdfrwt beam="2">  1       -1 0.64882523E-01 0.16675494E+04</pdfrwt>
<totfact> 0.11880051E+01</totfact>
</mgrwt>
</event>
<event>
12    1  0.1541840E-007  0.1603588E+04  0.7818608E-02  0.8818347E-01
         -2   -1    0    0    0  501 -0.00000000000E+00  0.00000000000E+00  0.22260967509E+03  0.22260967509E+03  0.00000000000E+00 0.  1.
          2   -1    0    0  501    0  0.00000000000E+00 -0.00000000000E+00 -0.28878957544E+04  0.28878957544E+04  0.00000000000E+00 0. -1.
         23    2    1    2    0    0 -0.40421897855E+03  0.18057860715E+03 -0.14219767168E+04  0.14920702396E+04  0.90852631915E+02 0.  0.
        254    2    1    2    0    0  0.40421897855E+03 -0.18057860715E+03 -0.12433093625E+04  0.16184351899E+04  0.93675646627E+03 0.  0.
        -24    2    4    4    0    0 -0.59969534484E+02 -0.47012346206E+03 -0.53561154616E+03  0.71974142163E+03  0.80842878369E+02 0.  0.
         24    2    4    4    0    0  0.46418851303E+03  0.28954485491E+03 -0.70769781637E+03  0.89869376832E+03  0.86643472188E+02 0.  0.
         11    1    3    3    0    0 -0.11654971666E+03  0.85457209879E+02 -0.56179497840E+03  0.58008651848E+03  0.00000000000E+00 0.  1.
        -11    1    3    3    0    0 -0.28766926189E+03  0.95121397270E+02 -0.86018173840E+03  0.91198372109E+03  0.00000000000E+00 0. -1.
          4    1    6    6  502    0  0.41496104959E+03  0.28076962950E+03 -0.61389885046E+03  0.79239892486E+03  0.00000000000E+00 0. -1.
          1    1    5    5  503    0 -0.64068350589E+02 -0.31147482118E+03 -0.39993100419E+03  0.51094630431E+03  0.00000000000E+00 0. -1.
         -2    1    5    5    0  503  0.40988161049E+01 -0.15864864088E+03 -0.13568054197E+03  0.20879511732E+03  0.00000000000E+00 0.  1.
         -3    1    6    6    0  502  0.49227463440E+02  0.87752254064E+01 -0.93798965919E+02  0.10629484346E+03  0.00000000000E+00 0.  1.
<mgrwt>
<rscale>  0 0.16035879E+04</rscale>
<asrwt>0</asrwt>
<pdfrwt beam="1">  1        2 0.44429163E+00 0.16035879E+04</pdfrwt>
<pdfrwt beam="2">  1       -2 0.34247644E-01 0.16035879E+04</pdfrwt>
<totfact> 0.15724013E+01</totfact>
</mgrwt>
</event>
<event>
12    1  0.1541840E-007  0.1933033E+04  0.7818608E-02  0.8638586E-01
         -1   -1    0    0    0  501 -0.00000000000E+00  0.00000000000E+00  0.14037844296E+04  0.14037844296E+04  0.00000000000E+00 0.  1.
          1   -1    0    0  501    0  0.00000000000E+00 -0.00000000000E+00 -0.66545390608E+03  0.66545390608E+03  0.00000000000E+00 0. -1.
         23    2    1    2    0    0  0.19619207969E+03 -0.42521900353E+02 -0.48470240529E+03  0.53239031971E+03  0.90573653361E+02 0.  0.
        254    2    1    2    0    0 -0.19619207969E+03  0.42521900353E+02  0.12230329288E+04  0.15368480159E+04  0.90873144278E+03 0.  0.
        -24    2    4    4    0    0 -0.21861053747E+02 -0.25432168431E+03  0.11441622126E+04  0.11748054598E+04  0.76832772012E+02 0.  0.
         24    2    4    4    0    0 -0.17433102594E+03  0.29684358467E+03  0.78870716154E+02  0.36204255612E+03  0.79666820004E+02 0.  0.
         11    1    3    3    0    0 -0.89397534485E+01 -0.12116318850E+01 -0.92121082876E+01  0.12893804041E+02  0.00000000000E+00 0.  1.
        -11    1    3    3    0    0  0.20513183314E+03 -0.41310268468E+02 -0.47549029700E+03  0.51949651567E+03  0.00000000000E+00 0. -1.
          2    1    6    6  502    0 -0.47052001289E+02  0.14697380763E+03  0.55664778521E+02  0.16405413290E+03  0.00000000000E+00 0. -1.
          3    1    5    5  503    0 -0.33463907845E+02 -0.22950342941E+03  0.91186178578E+03  0.94089509171E+03  0.00000000000E+00 0. -1.
         -4    1    5    5    0  503  0.11602854098E+02 -0.24818254906E+02  0.23230042684E+03  0.23391036811E+03  0.00000000000E+00 0.  1.
         -1    1    6    6    0  502 -0.12727902465E+03  0.14986977704E+03  0.23205937633E+02  0.19798842321E+03  0.00000000000E+00 0.  1.
<mgrwt>
<rscale>  0 0.19330327E+04</rscale>
<asrwt>0</asrwt>
<pdfrwt beam="1">  1        1 0.10237752E+00 0.19330327E+04</pdfrwt>
<pdfrwt beam="2">  1       -1 0.21596683E+00 0.19330327E+04</pdfrwt>
<totfact> 0.32135066E+00</totfact>
</mgrwt>
</event>
<event>
12    1  0.1541840E-007  0.1540909E+04  0.7818608E-02  0.8857696E-01
         -2   -1    0    0    0  501 -0.00000000000E+00  0.00000000000E+00  0.24165851408E+03  0.24165851408E+03  0.00000000000E+00 0. -1.
          2   -1    0    0  501    0  0.00000000000E+00 -0.00000000000E+00 -0.24563580261E+04  0.24563580261E+04  0.00000000000E+00 0.  1.
         23    2    1    2    0    0  0.15091362255E+03  0.48554891326E+03 -0.72224811396E+03  0.88793998709E+03  0.90897821355E+02 0.  0.
        254    2    1    2    0    0 -0.15091362255E+03 -0.48554891326E+03 -0.14924513981E+04  0.18100765531E+04  0.88906314953E+03 0.  0.
        -24    2    4    4    0    0  0.22964962570E+03 -0.57464249048E+03 -0.85646649910E+03  0.10597095692E+04  0.80601268300E+02 0.  0.
         24    2    4    4    0    0 -0.38056324824E+03  0.89093577226E+02 -0.63598489896E+03  0.75036698393E+03  0.76208709791E+02 0.  0.
         11    1    3    3    0    0  0.92808923450E+02  0.18373573570E+03 -0.24132372654E+03  0.31718993969E+03  0.00000000000E+00 0. -1.
        -11    1    3    3    0    0  0.58104699096E+02  0.30181317755E+03 -0.48092438742E+03  0.57075004741E+03  0.00000000000E+00 0.  1.
          2    1    6    6  502    0 -0.24903672386E+03  0.21036914796E+02 -0.41072516061E+03  0.48078789416E+03  0.00000000000E+00 0. -1.
          3    1    5    5  503    0  0.23200999373E+03 -0.54853982443E+03 -0.79907732072E+03  0.99661885425E+03  0.00000000000E+00 0. -1.
         -2    1    5    5    0  503 -0.23603680349E+01 -0.26102666056E+02 -0.57389178383E+02  0.63090714911E+02  0.00000000000E+00 0.  1.
         -1    1    6    6    0  502 -0.13152652438E+03  0.68056662430E+02 -0.22525973835E+03  0.26957908977E+03  0.00000000000E+00 0.  1.
<mgrwt>
<rscale>  0 0.15409086E+04</rscale>
<asrwt>0</asrwt>
<pdfrwt beam="1">  1        2 0.37790125E+00 0.15409086E+04</pdfrwt>
<pdfrwt beam="2">  1       -2 0.37178231E-01 0.15409086E+04</pdfrwt>
<totfact> 0.24291493E+01</totfact>
</mgrwt>
</event>
<event>
12    1  0.1541840E-007  0.2479908E+04  0.7818608E-02  0.8410178E-01
          1   -1    0    0  501    0  0.00000000000E+00  0.00000000000E+00  0.24000029464E+04  0.24000029464E+04  0.00000000000E+00 0. -1.
         -1   -1    0    0    0  501 -0.00000000000E+00 -0.00000000000E+00 -0.64061856692E+03  0.64061856692E+03  0.00000000000E+00 0.  1.
         23    2    1    2    0    0 -0.78874577170E+03  0.70569137482E+03  0.99005416193E+03  0.14520577674E+04  0.90245816938E+02 0.  0.
        254    2    1    2    0    0  0.78874577170E+03 -0.70569137482E+03  0.76933021751E+03  0.15885637459E+04  0.90085824760E+03 0.  0.
        -24    2    4    4    0    0  0.63036558226E+03 -0.44152657928E+03  0.19575534807E+02  0.77401632373E+03  0.80072344326E+02 0.  0.
         24    2    4    4    0    0  0.15838018944E+03 -0.26416479554E+03  0.74975468270E+03  0.81454742215E+03  0.80548712481E+02 0.  0.
         11    1    3    3    0    0 -0.33045124153E+03  0.30171097909E+03  0.35848381497E+03  0.57335694251E+03  0.00000000000E+00 0. -1.
        -11    1    3    3    0    0 -0.45829453017E+03  0.40398039573E+03  0.63157034697E+03  0.87870082490E+03  0.00000000000E+00 0.  1.
          2    1    6    6  502    0 -0.92263132712E+01 -0.10474541110E+02  0.41498952091E+02  0.43783603012E+02  0.00000000000E+00 0. -1.
          3    1    5    5  503    0  0.26795499357E+03 -0.14500565426E+03 -0.98550005048E+01  0.30483378976E+03  0.00000000000E+00 0. -1.
         -4    1    5    5    0  503  0.36241058870E+03 -0.29652092502E+03  0.29430535312E+02  0.46918253397E+03  0.00000000000E+00 0.  1.
         -1    1    6    6    0  502  0.16760650271E+03 -0.25369025443E+03  0.70825573061E+03  0.77076381913E+03  0.00000000000E+00 0.  1.
<mgrwt>
<rscale>  0 0.24799084E+04</rscale>
<asrwt>0</asrwt>
<pdfrwt beam="1">  1        1 0.36923122E+00 0.24799084E+04</pdfrwt>
<pdfrwt beam="2">  1       -1 0.98556704E-01 0.24799084E+04</pdfrwt>
<totfact> 0.13926425E+00</totfact>
</mgrwt>
</event>
<event>
12    1  0.1541840E-007  0.1119335E+04  0.7818608E-02  0.9186549E-01
         -2   -1    0    0    0  501 -0.00000000000E+00  0.00000000000E+00  0.98870417156E+02  0.98870417156E+02  0.00000000000E+00 0.  1.
          2   -1    0    0  501    0  0.00000000000E+00 -0.00000000000E+00 -0.31680629507E+04  0.31680629507E+04  0.00000000000E+00 0. -1.
         23    2    1    2    0    0 -0.18194916915E+03 -0.95659070467E+02 -0.56824859705E+03  0.61100747356E+03  0.90374259481E+02 0.  0.
        254    2    1    2    0    0  0.18194916915E+03  0.95659070467E+02 -0.25009439365E+04  0.26559258943E+04  0.87003771447E+03 0.  0.
        -24    2    4    4    0    0  0.22330845812E+03 -0.35916839086E+03 -0.12199469514E+04  0.12936659054E+04  0.80201683522E+02 0.  0.
         24    2    4    4    0    0 -0.41359288973E+02  0.45482746132E+03 -0.12809969851E+04  0.13622599889E+04  0.78869456941E+02 0.  0.
         11    1    3    3    0    0 -0.17523890475E+03 -0.87242065091E+02 -0.56738939335E+03  0.60020877646E+03  0.00000000000E+00 0. -1.
        -11    1    3    3    0    0 -0.67102644044E+01 -0.84170053761E+01 -0.85920369745E+00  0.10798697091E+02  0.00000000000E+00 0.  1.
          2    1    6    6  502    0 -0.49102794102E+02  0.42931966257E+03 -0.12419804246E+04  0.13150064001E+04  0.00000000000E+00 0. -1.
          1    1    5    5  503    0  0.15658964617E+03 -0.18615875915E+03 -0.63339451687E+03  0.67850130059E+03  0.00000000000E+00 0. -1.
         -2    1    5    5    0  503  0.66718811950E+02 -0.17300963171E+03 -0.58655243452E+03  0.61516460478E+03  0.00000000000E+00 0.  1.
         -1    1    6    6    0  502  0.77435051292E+01  0.25507798752E+02 -0.39016560453E+02  0.47253588841E+02  0.00000000000E+00 0.  1.
<mgrwt>
<rscale>  0 0.11193350E+04</rscale>
<asrwt>0</asrwt>
<pdfrwt beam="1">  1        2 0.48739423E+00 0.11193350E+04</pdfrwt>
<pdfrwt beam="2">  1       -2 0.15210836E-01 0.11193350E+04</pdfrwt>
<totfact> 0.47284093E+01</totfact>
</mgrwt>
</event>
<event>
12    1  0.1541840E-007  0.2040255E+04  0.7818608E-02  0.8588028E-01
         -1   -1    0    0    0  501 -0.00000000000E+00  0.00000000000E+00  0.66933026867E+03  0.66933026867E+03  0.00000000000E+00 0.  1.
          1   -1    0    0  501    0  0.00000000000E+00 -0.00000000000E+00 -0.15547782761E+04  0.15547782761E+04  0.00000000000E+00 0. -1.
         23    2    1    2    0    0  0.60609296471E+03 -0.33447181934E+03 -0.88370603088E+03  0.11265677764E+04  0.94860560968E+02 0.  0.
        254    2    1    2    0    0 -0.60609296471E+03  0.33447181934E+03 -0.17419765697E+01  0.10975407684E+04  0.85168810252E+03 0.  0.
        -24    2    4    4    0    0 -0.38923389256E+03  0.61503469238E+03  0.22891179377E+02  0.73333071651E+03  0.86482586324E+02 0.  0.
         24    2    4    4    0    0 -0.21685907216E+03 -0.28056287304E+03 -0.24633155947E+02  0.36421005188E+03  0.79364895337E+02 0.  0.
         13    1    3    3    0    0  0.11817284688E+02  0.52419764522E+01 -0.85386085908E+01  0.15493042670E+02  0.00000000000E+00 0.  1.
        -13    1    3    3    0    0  0.59427568002E+03 -0.33971379579E+03 -0.87516742229E+03  0.11110747337E+04  0.00000000000E+00 0. -1.
          4    1    6    6  502    0 -0.75459807126E+02 -0.42824554271E+02 -0.62460466170E+01  0.86989298413E+02  0.00000000000E+00 0. -1.
          3    1    5    5  503    0 -0.11723932257E+03  0.18151034612E+03 -0.32674468963E+02  0.21853760643E+03  0.00000000000E+00 0. -1.
         -2    1    5    5    0  503 -0.27199456999E+03  0.43352434626E+03  0.55565648341E+02  0.51479311008E+03  0.00000000000E+00 0.  1.
         -3    1    6    6    0  502 -0.14139926503E+03 -0.23773831877E+03 -0.18387109330E+02  0.27722075346E+03  0.00000000000E+00 0.  1.
<mgrwt>
<rscale>  0 0.20402550E+04</rscale>
<asrwt>0</asrwt>
<pdfrwt beam="1">  1        1 0.23919666E+00 0.20402550E+04</pdfrwt>
<pdfrwt beam="2">  1       -1 0.10297389E+00 0.20402550E+04</pdfrwt>
<totfact> 0.49366620E+00</totfact>
</mgrwt>
</event>
<event>
12    1  0.1541840E-007  0.1266438E+04  0.7818608E-02  0.9056612E-01
         -3   -1    0    0    0  501 -0.00000000000E+00  0.00000000000E+00  0.47577757984E+03  0.47577757984E+03  0.00000000000E+00 0.  1.
          3   -1    0    0  501    0  0.00000000000E+00 -0.00000000000E+00 -0.84276040151E+03  0.84276040151E+03  0.00000000000E+00 0. -1.
         23    2    1    2    0    0 -0.27551838806E+03  0.66306910719E+02 -0.17222989079E+03  0.34400833223E+03  0.91496496068E+02 0.  0.
        254    2    1    2    0    0  0.27551838806E+03 -0.66306910719E+02 -0.19475293088E+03  0.97452964912E+03  0.91185105383E+03 0.  0.
        -24    2    4    4    0    0  0.43359370513E+03 -0.30204529594E+03 -0.35168987090E+03  0.63996452929E+03  0.81449195980E+02 0.  0.
         24    2    4    4    0    0 -0.15807531707E+03  0.23573838522E+03  0.15693694002E+03  0.33456511984E+03  0.82123225320E+02 0.  0.
         11    1    3    3    0    0 -0.28053449014E+03  0.66327773450E+02 -0.17598526375E+03  0.33774218976E+03  0.00000000000E+00 0.  1.
        -11    1    3    3    0    0  0.50161020761E+01 -0.20862730365E-01  0.37553729654E+01  0.62661424658E+01  0.00000000000E+00 0. -1.
          2    1    6    6  502    0  0.67251915055E+01  0.35018664905E+02  0.21940849458E+02  0.41868078144E+02  0.00000000000E+00 0. -1.
          3    1    5    5  503    0  0.35926615211E+02 -0.50624143562E+02 -0.23727616273E+02  0.66456943700E+02  0.00000000000E+00 0. -1.
         -4    1    5    5    0  503  0.39766708992E+03 -0.25142115238E+03 -0.32796225463E+03  0.57350758559E+03  0.00000000000E+00 0.  1.
         -1    1    6    6    0  502 -0.16480050857E+03  0.20071972032E+03  0.13499609056E+03  0.29269704169E+03  0.00000000000E+00 0.  1.
<mgrwt>
<rscale>  0 0.12664383E+04</rscale>
<asrwt>0</asrwt>
<pdfrwt beam="1">  1        3 0.12965544E+00 0.12664383E+04</pdfrwt>
<pdfrwt beam="2">  1       -3 0.73196552E-01 0.12664383E+04</pdfrwt>
<totfact> 0.21340916E+00</totfact>
</mgrwt>
</event>
<event>
12    1  0.1541840E-007  0.1303767E+04  0.7818608E-02  0.9026583E-01
          3   -1    0    0  501    0  0.00000000000E+00  0.00000000000E+00  0.49172764005E+03  0.49172764005E+03  0.00000000000E+00 0. -1.
         -3   -1    0    0    0  501 -0.00000000000E+00 -0.00000000000E+00 -0.86420273726E+03  0.86420273726E+03  0.00000000000E+00 0.  1.
         23    2    1    2    0    0  0.23985444624E+03 -0.55920738648E+02  0.13341707902E+03  0.29442177685E+03  0.90701605933E+02 0.  0.
        254    2    1    2    0    0 -0.23985444624E+03  0.55920738648E+02 -0.50589217623E+03  0.10615086005E+04  0.90012017559E+03 0.  0.
        -24    2    4    4    0    0  0.68690719006E+02  0.19291532650E+03 -0.64991485019E+03  0.68579592115E+03  0.77407976969E+02 0.  0.
         24    2    4    4    0    0 -0.30854516524E+03 -0.13699458785E+03  0.14402267396E+03  0.37571267931E+03  0.80310962417E+02 0.  0.
         13    1    3    3    0    0  0.80310012195E+02 -0.56250892372E+02  0.23947298289E+02  0.10093232409E+03  0.00000000000E+00 0.  1.
        -13    1    3    3    0    0  0.15954443404E+03  0.33015372390E+00  0.10946978073E+03  0.19348945276E+03  0.00000000000E+00 0. -1.
          4    1    6    6  502    0 -0.26998831449E+03 -0.14482166084E+03  0.13756111560E+03  0.33584232005E+03  0.00000000000E+00 0. -1.
          3    1    5    5  503    0  0.58503992836E+02  0.19740823471E+03 -0.63210151917E+03  0.66478948461E+03  0.00000000000E+00 0. -1.
         -4    1    5    5    0  503  0.10186726170E+02 -0.44929082130E+01 -0.17813331018E+02  0.21006436543E+02  0.00000000000E+00 0.  1.
         -3    1    6    6    0  502 -0.38556850753E+02  0.78270729848E+01  0.64615583626E+01  0.39870359265E+02  0.00000000000E+00 0.  1.
<mgrwt>
<rscale>  0 0.13037674E+04</rscale>
<asrwt>0</asrwt>
<pdfrwt beam="1">  1        3 0.75650407E-01 0.13037674E+04</pdfrwt>
<pdfrwt beam="2">  1       -3 0.13295427E+00 0.13037674E+04</pdfrwt>
<totfact> 0.18556698E+00</totfact>
</mgrwt>
</event>
<event>
12    1  0.1541840E-007  0.1954230E+04  0.7818608E-02  0.8628324E-01
         -1   -1    0    0    0  501 -0.00000000000E+00  0.00000000000E+00  0.11190790526E+04  0.11190790526E+04  0.00000000000E+00 0.  1.
          1   -1    0    0  501    0  0.00000000000E+00 -0.00000000000E+00 -0.85316013057E+03  0.85316013057E+03  0.00000000000E+00 0. -1.
         23    2    1    2    0    0 -0.51101847123E+03 -0.65304531669E+02  0.67658438639E+03  0.85547823907E+03  0.93123712444E+02 0.  0.
        254    2    1    2    0    0  0.51101847123E+03  0.65304531669E+02 -0.41066546433E+03  0.11167609441E+04  0.90172297461E+03 0.  0.
        -24    2    4    4    0    0 -0.66238978771E+02 -0.30599967097E+03 -0.24733337100E+03  0.40638049877E+03  0.77122710212E+02 0.  0.
         24    2    4    4    0    0  0.57725745000E+03  0.37130420264E+03 -0.16333209334E+03  0.71038044535E+03  0.82885643786E+02 0.  0.
         11    1    3    3    0    0 -0.58597418054E+02  0.21792083546E+02  0.90134239776E+02  0.10969381700E+03  0.00000000000E+00 0. -1.
        -11    1    3    3    0    0 -0.45242105318E+03 -0.87096615214E+02  0.58645014661E+03  0.74578442207E+03  0.00000000000E+00 0.  1.
          2    1    6    6  502    0  0.39331512767E+03  0.28578114412E+03 -0.14154231932E+03  0.50636141257E+03  0.00000000000E+00 0. -1.
          3    1    5    5  503    0  0.70737066023E+01 -0.43598013819E+02 -0.10538587932E+02  0.45407994557E+02  0.00000000000E+00 0. -1.
         -4    1    5    5    0  503 -0.73312685373E+02 -0.26240165716E+03 -0.23679478306E+03  0.36097250422E+03  0.00000000000E+00 0.  1.
         -1    1    6    6    0  502  0.18394232233E+03  0.85523058525E+02 -0.21789774018E+02  0.20401903278E+03  0.00000000000E+00 0.  1.
<mgrwt>
<rscale>  0 0.19542299E+04</rscale>
<asrwt>0</asrwt>
<pdfrwt beam="1">  1        1 0.13125540E+00 0.19542299E+04</pdfrwt>
<pdfrwt beam="2">  1       -1 0.17216601E+00 0.19542299E+04</pdfrwt>
<totfact> 0.43974482E+00</totfact>
</mgrwt>
</event>
<event>
12    1  0.1541840E-007  0.1548828E+04  0.7818608E-02  0.8852617E-01
         -2   -1    0    0    0  501 -0.00000000000E+00  0.00000000000E+00  0.64854225374E+03  0.64854225374E+03  0.00000000000E+00 0.  1.
          2   -1    0    0  501    0  0.00000000000E+00 -0.00000000000E+00 -0.92471577504E+03  0.92471577504E+03  0.00000000000E+00 0. -1.
         23    2    1    2    0    0 -0.28529671931E+03  0.46400900491E+02  0.33229960275E+03  0.44980258953E+03  0.91389725634E+02 0.  0.
        254    2    1    2    0    0  0.28529671931E+03 -0.46400900491E+02 -0.60847312405E+03  0.11234554392E+04  0.89909138560E+03 0.  0.
        -24    2    4    4    0    0  0.22985734946E+02 -0.31651244447E+03 -0.65823784754E+03  0.73523081682E+03  0.81109916471E+02 0.  0.
         24    2    4    4    0    0  0.26231098436E+03  0.27011154398E+03  0.49764723482E+02  0.38822462243E+03  0.80464470714E+02 0.  0.
         11    1    3    3    0    0 -0.85983096414E+02  0.39444983718E+02  0.59061094899E+02  0.11152225132E+03  0.00000000000E+00 0. -1.
        -11    1    3    3    0    0 -0.19931362289E+03  0.69559167737E+01  0.27323850785E+03  0.33828033821E+03  0.00000000000E+00 0.  1.
          4    1    6    6  502    0  0.25256832146E+03  0.22330240330E+03  0.46225370016E+02  0.34028150869E+03  0.00000000000E+00 0. -1.
          1    1    5    5  503    0  0.39568346462E+02 -0.26665746500E+03 -0.59350637712E+03  0.65186016703E+03  0.00000000000E+00 0. -1.
         -2    1    5    5    0  503 -0.16582611517E+02 -0.49854979479E+02 -0.64731470420E+02  0.83370649789E+02  0.00000000000E+00 0.  1.
         -3    1    6    6    0  502  0.97426629026E+01  0.46809140683E+02  0.35393534657E+01  0.47943113738E+02  0.00000000000E+00 0.  1.
<mgrwt>
<rscale>  0 0.15488283E+04</rscale>
<asrwt>0</asrwt>
<pdfrwt beam="1">  1        2 0.14226397E+00 0.15488283E+04</pdfrwt>
<pdfrwt beam="2">  1       -2 0.99775731E-01 0.15488283E+04</pdfrwt>
<totfact> 0.22563845E+01</totfact>
</mgrwt>
</event>
<event>
12    1  0.1541840E-007  0.1115523E+04  0.7818608E-02  0.9190193E-01
         -2   -1    0    0    0  501 -0.00000000000E+00  0.00000000000E+00  0.36024213663E+03  0.36024213663E+03  0.00000000000E+00 0.  1.
          2   -1    0    0  501    0  0.00000000000E+00 -0.00000000000E+00 -0.86358017042E+03  0.86358017042E+03  0.00000000000E+00 0. -1.
         23    2    1    2    0    0  0.31811889788E+01  0.40066720687E+02 -0.30931383589E+03  0.32495344376E+03  0.91127545069E+02 0.  0.
        254    2    1    2    0    0 -0.31811889788E+01 -0.40066720687E+02 -0.19402419790E+03  0.89886886328E+03  0.87675788102E+03 0.  0.
        -24    2    4    4    0    0 -0.24870933253E+03 -0.92454117566E+02  0.25614300203E+03  0.37748517519E+03  0.80509155110E+02 0.  0.
         24    2    4    4    0    0  0.24552814355E+03  0.52387396879E+02 -0.45016719993E+03  0.52138368809E+03  0.78497985250E+02 0.  0.
         11    1    3    3    0    0 -0.27947132054E+01  0.30453624932E+02 -0.22624617899E+02  0.38040859986E+02  0.00000000000E+00 0.  1.
        -11    1    3    3    0    0  0.59759021842E+01  0.96130957547E+01 -0.28668921799E+03  0.28691258378E+03  0.00000000000E+00 0. -1.
          4    1    6    6  502    0  0.45461779732E+02 -0.84898092843E+01 -0.40703575009E+02  0.61608694975E+02  0.00000000000E+00 0. -1.
          3    1    5    5  503    0 -0.36373178564E+02 -0.37912887476E+02  0.22680995488E+02  0.57226066718E+02  0.00000000000E+00 0. -1.
         -4    1    5    5    0  503 -0.21233615397E+03 -0.54541230091E+02  0.23346200654E+03  0.32025910847E+03  0.00000000000E+00 0.  1.
         -3    1    6    6    0  502  0.20006636382E+03  0.60877206164E+02 -0.40946362492E+03  0.45977499312E+03  0.00000000000E+00 0.  1.
<mgrwt>
<rscale>  0 0.11155231E+04</rscale>
<asrwt>0</asrwt>
<pdfrwt beam="1">  1        2 0.13285849E+00 0.11155231E+04</pdfrwt>
<pdfrwt beam="2">  1       -2 0.55421868E-01 0.11155231E+04</pdfrwt>
<totfact> 0.94274629E+01</totfact>
</mgrwt>
</event>
<event>
12    1  0.1541840E-007  0.1459612E+04  0.7818608E-02  0.8911763E-01
          2   -1    0    0  501    0  0.00000000000E+00  0.00000000000E+00  0.15709602144E+04  0.15709602144E+04  0.00000000000E+00 0. -1.
         -2   -1    0    0    0  501 -0.00000000000E+00 -0.00000000000E+00 -0.33903921119E+03  0.33903921119E+03  0.00000000000E+00 0.  1.
         23    2    1    2    0    0 -0.34948991293E+03  0.23694366590E+03  0.90993892567E+03  0.10074994970E+04  0.93706392469E+02 0.  0.
        254    2    1    2    0    0  0.34948991293E+03 -0.23694366590E+03  0.32198207752E+03  0.90249992855E+03  0.72975897578E+03 0.  0.
        -24    2    4    4    0    0 -0.17925038542E+03 -0.13273558720E+03  0.26400315847E+03  0.35474618497E+03  0.79985944338E+02 0.  0.
         24    2    4    4    0    0  0.52874029835E+03 -0.10420807870E+03  0.57978919051E+02  0.54775374357E+03  0.79037850279E+02 0.  0.
         13    1    3    3    0    0 -0.11187487471E+03  0.26992605028E+02  0.26045818175E+03  0.28475086086E+03  0.00000000000E+00 0.  1.
        -13    1    3    3    0    0 -0.23761503822E+03  0.20995106087E+03  0.64948074392E+03  0.72274863616E+03  0.00000000000E+00 0. -1.
          4    1    6    6  502    0  0.49738254335E+02  0.11427870824E+02  0.14622765214E+02  0.53087808754E+02  0.00000000000E+00 0. -1.
          1    1    5    5  503    0 -0.37219866209E+02 -0.54261530130E+01  0.85943974793E+02  0.93814329291E+02  0.00000000000E+00 0. -1.
         -2    1    5    5    0  503 -0.14203051921E+03 -0.12730943419E+03  0.17805918367E+03  0.26093185568E+03  0.00000000000E+00 0.  1.
         -3    1    6    6    0  502  0.47900204402E+03 -0.11563594952E+03  0.43356153837E+02  0.49466593482E+03  0.00000000000E+00 0.  1.
<mgrwt>
<rscale>  0 0.14596124E+04</rscale>
<asrwt>0</asrwt>
<pdfrwt beam="1">  1        2 0.24168618E+00 0.14596124E+04</pdfrwt>
<pdfrwt beam="2">  1       -2 0.52159879E-01 0.14596124E+04</pdfrwt>
<totfact> 0.38923780E+01</totfact>
</mgrwt>
</event>
<event>
12    1  0.1541840E-007  0.1368600E+04  0.7818608E-02  0.8976867E-01
          2   -1    0    0  501    0  0.00000000000E+00  0.00000000000E+00  0.17569740544E+04  0.17569740544E+04  0.00000000000E+00 0.  1.
         -2   -1    0    0    0  501 -0.00000000000E+00 -0.00000000000E+00 -0.26651855586E+03  0.26651855586E+03  0.00000000000E+00 0. -1.
         23    2    1    2    0    0 -0.19149662798E+03 -0.15419586875E+03  0.86386018991E+03  0.90284055269E+03  0.91756805794E+02 0.  0.
        254    2    1    2    0    0  0.19149662798E+03  0.15419586875E+03  0.62659530861E+03  0.11206520575E+04  0.89598662314E+03 0.  0.
        -24    2    4    4    0    0 -0.11722740129E+03 -0.21261221601E+03 -0.75499469294E+02  0.26669385745E+03  0.80493637817E+02 0.  0.
         24    2    4    4    0    0  0.30872402927E+03  0.36680808476E+03  0.70209477790E+03  0.85395820009E+03  0.80304626633E+02 0.  0.
         13    1    3    3    0    0 -0.19745773700E+03 -0.15622099644E+03  0.85820764790E+03  0.89437963111E+03  0.00000000000E+00 0.  1.
        -13    1    3    3    0    0  0.59611090182E+01  0.20251276895E+01  0.56525420105E+01  0.84609215850E+01  0.00000000000E+00 0. -1.
          4    1    6    6  502    0  0.16299456464E+03  0.20848013857E+03  0.31815690961E+03  0.41382969373E+03  0.00000000000E+00 0. -1.
          3    1    5    5  503    0 -0.67479323791E+02 -0.15367135400E+03 -0.14689305825E+02  0.16847587330E+03  0.00000000000E+00 0. -1.
         -4    1    5    5    0  503 -0.49748077496E+02 -0.58940862011E+02 -0.60810163469E+02  0.98217984149E+02  0.00000000000E+00 0.  1.
         -3    1    6    6    0  502  0.14572946463E+03  0.15832794619E+03  0.38393786829E+03  0.44012850637E+03  0.00000000000E+00 0.  1.
<mgrwt>
<rscale>  0 0.13685996E+04</rscale>
<asrwt>0</asrwt>
<pdfrwt beam="1">  1        2 0.27030369E+00 0.13685996E+04</pdfrwt>
<pdfrwt beam="2">  1       -2 0.41002856E-01 0.13685996E+04</pdfrwt>
<totfact> 0.50098503E+01</totfact>
</mgrwt>
</event>
<event>
12    1  0.1541840E-007  0.2319076E+04  0.7818608E-02  0.8470438E-01
          2   -1    0    0  501    0  0.00000000000E+00  0.00000000000E+00  0.18907509339E+04  0.18907509339E+04  0.00000000000E+00 0. -1.
         -2   -1    0    0    0  501 -0.00000000000E+00 -0.00000000000E+00 -0.71110797413E+03  0.71110797413E+03  0.00000000000E+00 0.  1.
         23    2    1    2    0    0 -0.26445175042E+03 -0.94640853115E+03  0.47458865754E+03  0.10948066885E+04  0.87996903820E+02 0.  0.
        254    2    1    2    0    0  0.26445175042E+03  0.94640853115E+03  0.70505430225E+03  0.15070522196E+04  0.89915570806E+03 0.  0.
        -24    2    4    4    0    0  0.54504538634E+03  0.67964444432E+03  0.26160683994E+03  0.91308802990E+03  0.79376115865E+02 0.  0.
         24    2    4    4    0    0 -0.28059363592E+03  0.26676408683E+03  0.44344746232E+03  0.59396418970E+03  0.79069211934E+02 0.  0.
         11    1    3    3    0    0 -0.22297239012E+03 -0.66611884019E+03  0.31799898107E+03  0.77107350362E+03  0.00000000000E+00 0.  1.
        -11    1    3    3    0    0 -0.41479360298E+02 -0.28028969095E+03  0.15658967648E+03  0.32373318484E+03  0.00000000000E+00 0. -1.
          4    1    6    6  502    0 -0.15939702312E+03  0.13590570984E+03  0.29559452409E+03  0.36228979508E+03  0.00000000000E+00 0. -1.
          3    1    5    5  503    0  0.50658214969E+03  0.65103917627E+03  0.26077027573E+03  0.86514658881E+03  0.00000000000E+00 0. -1.
         -4    1    5    5    0  503  0.38463236651E+02  0.28605268051E+02  0.83656420960E+00  0.47941441089E+02  0.00000000000E+00 0.  1.
         -3    1    6    6    0  502 -0.12119661280E+03  0.13085837699E+03  0.14785293823E+03  0.23167439462E+03  0.00000000000E+00 0.  1.
<mgrwt>
<rscale>  0 0.23190757E+04</rscale>
<asrwt>0</asrwt>
<pdfrwt beam="1">  1        2 0.29088476E+00 0.23190757E+04</pdfrwt>
<pdfrwt beam="2">  1       -2 0.10940123E+00 0.23190757E+04</pdfrwt>
<totfact> 0.46306633E+00</totfact>
</mgrwt>
</event>
<event>
12    1  0.1541840E-007  0.1239254E+04  0.7818608E-02  0.9079175E-01
          1   -1    0    0  501    0  0.00000000000E+00  0.00000000000E+00  0.27422518196E+03  0.27422518196E+03  0.00000000000E+00 0. -1.
         -1   -1    0    0    0  501 -0.00000000000E+00 -0.00000000000E+00 -0.14000815589E+04  0.14000815589E+04  0.00000000000E+00 0.  1.
         23    2    1    2    0    0 -0.16358336304E+03 -0.21261627194E+03 -0.17185139237E+03  0.33154598009E+03  0.91785838205E+02 0.  0.
        254    2    1    2    0    0  0.16358336304E+03  0.21261627194E+03 -0.95400498457E+03  0.13427607608E+04  0.90604401347E+03 0.  0.
        -24    2    4    4    0    0 -0.70032680940E+02  0.49895850859E+02  0.15518082813E+03  0.19481536487E+03  0.80484561481E+02 0.  0.
         24    2    4    4    0    0  0.23361604398E+03  0.16272042108E+03 -0.11091858127E+04  0.11479453959E+04  0.80193973947E+02 0.  0.
         11    1    3    3    0    0 -0.15119877846E+03 -0.22148323804E+03 -0.16029518714E+03  0.31242669918E+03  0.00000000000E+00 0. -1.
        -11    1    3    3    0    0 -0.12384584579E+02  0.88669660998E+01 -0.11556205238E+02  0.19119280910E+02  0.00000000000E+00 0.  1.
          2    1    6    6  502    0  0.23618090851E+03  0.15850657193E+03 -0.11061892106E+04  0.11421735090E+04  0.00000000000E+00 0. -1.
          1    1    5    5  503    0 -0.82880223726E+02  0.33265302100E+02  0.91940580372E+02  0.12817481082E+03  0.00000000000E+00 0. -1.
         -2    1    5    5    0  503  0.12847542787E+02  0.16630548760E+02  0.63240247759E+02  0.66640554052E+02  0.00000000000E+00 0.  1.
         -1    1    6    6    0  502 -0.25648645273E+01  0.42138491554E+01 -0.29966020493E+01  0.57718869177E+01  0.00000000000E+00 0.  1.
<mgrwt>
<rscale>  0 0.12392540E+04</rscale>
<asrwt>0</asrwt>
<pdfrwt beam="1">  1        1 0.42188490E-01 0.12392540E+04</pdfrwt>
<pdfrwt beam="2">  1       -1 0.21539716E+00 0.12392540E+04</pdfrwt>
<totfact> 0.11504751E+01</totfact>
</mgrwt>
</event>
<event>
12    1  0.1541840E-007  0.1384423E+04  0.7818608E-02  0.8965172E-01
         -1   -1    0    0    0  501 -0.00000000000E+00  0.00000000000E+00  0.17711948009E+03  0.17711948009E+03  0.00000000000E+00 0.  1.
          1   -1    0    0  501    0  0.00000000000E+00 -0.00000000000E+00 -0.27052743327E+04  0.27052743327E+04  0.00000000000E+00 0. -1.
         23    2    1    2    0    0  0.19856902659E+03  0.22674875787E+03 -0.12355304693E+04  0.12753133959E+04  0.95100260999E+02 0.  0.
        254    2    1    2    0    0 -0.19856902659E+03 -0.22674875787E+03 -0.12926243833E+04  0.16070804169E+04  0.90608223277E+03 0.  0.
        -24    2    4    4    0    0 -0.78305507046E+02  0.26993327479E+03 -0.10295411159E+03  0.30985151618E+03  0.80079258921E+02 0.  0.
         24    2    4    4    0    0 -0.12026351954E+03 -0.49668203266E+03 -0.11896702717E+04  0.12972289007E+04  0.79568271198E+02 0.  0.
         11    1    3    3    0    0  0.16327898024E+03  0.12759760301E+03 -0.90548331147E+03  0.92889245935E+03  0.00000000000E+00 0. -1.
        -11    1    3    3    0    0  0.35290046350E+02  0.99151154855E+02 -0.33004715785E+03  0.34642093656E+03  0.00000000000E+00 0.  1.
          4    1    6    6  502    0  0.32188386178E+01 -0.94181130048E+02 -0.26390248126E+03  0.28022306435E+03  0.00000000000E+00 0. -1.
          1    1    5    5  503    0 -0.80324057783E+02  0.16803113956E+03 -0.90828600764E+02  0.20721064847E+03  0.00000000000E+00 0. -1.
         -2    1    5    5    0  503  0.20185507373E+01  0.10190213523E+03 -0.12125510831E+02  0.10264086771E+03  0.00000000000E+00 0.  1.
         -3    1    6    6    0  502 -0.12348235816E+03 -0.40250090261E+03 -0.92576779043E+03  0.10170058364E+04  0.00000000000E+00 0.  1.
<mgrwt>
<rscale>  0 0.13844230E+04</rscale>
<asrwt>0</asrwt>
<pdfrwt beam="1">  1        1 0.41619605E+00 0.13844230E+04</pdfrwt>
<pdfrwt beam="2">  1       -1 0.27249151E-01 0.13844230E+04</pdfrwt>
<totfact> 0.11527029E+01</totfact>
</mgrwt>
</event>
<event>
12    1  0.1541840E-007  0.1613564E+04  0.7818608E-02  0.8812258E-01
          1   -1    0    0  501    0  0.00000000000E+00  0.00000000000E+00  0.19330099533E+04  0.19330099533E+04  0.00000000000E+00 0. -1.
         -1   -1    0    0    0  501 -0.00000000000E+00 -0.00000000000E+00 -0.33672737882E+03  0.33672737882E+03  0.00000000000E+00 0.  1.
         23    2    1    2    0    0  0.16589428823E+03  0.27975485618E+03  0.11827491190E+04  0.12309501663E+04  0.10275767139E+03 0.  0.
        254    2    1    2    0    0 -0.16589428823E+03 -0.27975485618E+03  0.41353345555E+03  0.10387871659E+04  0.89570372485E+03 0.  0.
        -24    2    4    4    0    0 -0.83200876448E+02 -0.62870310147E+02 -0.27695926789E+03  0.30599596636E+03  0.77794817456E+02 0.  0.
         24    2    4    4    0    0 -0.82693411781E+02 -0.21688454603E+03  0.69049272344E+03  0.73279119952E+03  0.79533856350E+02 0.  0.
         11    1    3    3    0    0 -0.97783521842E+00  0.54599895566E+02  0.29511946451E+03  0.30012931061E+03  0.00000000000E+00 0.  1.
        -11    1    3    3    0    0  0.16687212345E+03  0.22515496061E+03  0.88762965445E+03  0.93082085566E+03  0.00000000000E+00 0. -1.
          4    1    6    6  502    0  0.10067342397E+02 -0.38069322006E+02  0.68745582195E+02  0.79224868143E+02  0.00000000000E+00 0. -1.
          1    1    5    5  503    0 -0.65557939393E+02 -0.39033932904E+02 -0.96022591746E+02  0.12264513631E+03  0.00000000000E+00 0. -1.
         -2    1    5    5    0  503 -0.17642937056E+02 -0.23836377243E+02 -0.18093667614E+03  0.18335083005E+03  0.00000000000E+00 0.  1.
         -3    1    6    6    0  502 -0.92760754178E+02 -0.17881522403E+03  0.62174714125E+03  0.65356633137E+03  0.00000000000E+00 0.  1.
<mgrwt>
<rscale>  0 0.16135642E+04</rscale>
<asrwt>0</asrwt>
<pdfrwt beam="1">  1        1 0.29738614E+00 0.16135642E+04</pdfrwt>
<pdfrwt beam="2">  1       -1 0.51804213E-01 0.16135642E+04</pdfrwt>
<totfact> 0.11898494E+01</totfact>
</mgrwt>
</event>
<event>
12    1  0.1541840E-007  0.2148354E+04  0.7818608E-02  0.8540237E-01
          1   -1    0    0  501    0  0.00000000000E+00  0.00000000000E+00  0.59115621454E+03  0.59115621454E+03  0.00000000000E+00 0. -1.
         -1   -1    0    0    0  501 -0.00000000000E+00 -0.00000000000E+00 -0.19518631307E+04  0.19518631307E+04  0.00000000000E+00 0.  1.
         23    2    1    2    0    0  0.55527102815E+03  0.36557910244E+03  0.12582118857E+03  0.68288587695E+03  0.92348008128E+02 0.  0.
        254    2    1    2    0    0 -0.55527102815E+03 -0.36557910244E+03 -0.14865281047E+04  0.18601334683E+04  0.89908660254E+03 0.  0.
        -24    2    4    4    0    0 -0.36819795203E+03 -0.57248399286E+03 -0.54685194727E+03  0.87669979765E+03  0.79043209707E+02 0.  0.
         24    2    4    4    0    0 -0.18707307612E+03  0.20690489042E+03 -0.93967615744E+03  0.98343367063E+03  0.79652584262E+02 0.  0.
         13    1    3    3    0    0  0.49180419875E+03  0.29040754212E+03  0.90038443697E+02  0.57819964698E+03  0.00000000000E+00 0. -1.
        -13    1    3    3    0    0  0.63466829400E+02  0.75171560314E+02  0.35782744870E+02  0.10468622997E+03  0.00000000000E+00 0.  1.
          2    1    6    6  502    0 -0.56185408126E+02  0.11954813541E+03 -0.46132087057E+03  0.47985987787E+03  0.00000000000E+00 0. -1.
          1    1    5    5  503    0 -0.28700948287E+03 -0.38355300011E+03 -0.36624560253E+03  0.60301176483E+03  0.00000000000E+00 0. -1.
         -2    1    5    5    0  503 -0.81188469151E+02 -0.18893099275E+03 -0.18060634474E+03  0.27368803281E+03  0.00000000000E+00 0.  1.
         -1    1    6    6    0  502 -0.13088766799E+03  0.87356755018E+02 -0.47835528687E+03  0.50357379276E+03  0.00000000000E+00 0.  1.
<mgrwt>
<rscale>  0 0.21483538E+04</rscale>
<asrwt>0</asrwt>
<pdfrwt beam="1">  1        1 0.90947112E-01 0.21483538E+04</pdfrwt>
<pdfrwt beam="2">  1       -1 0.30028663E+00 0.21483538E+04</pdfrwt>
<totfact> 0.10542745E+00</totfact>
</mgrwt>
</event>
<event>
12    1  0.1541840E-007  0.1503017E+04  0.7818608E-02  0.8882449E-01
          2   -1    0    0  501    0  0.00000000000E+00  0.00000000000E+00  0.26709366249E+04  0.26709366249E+04  0.00000000000E+00 0. -1.
         -2   -1    0    0    0  501 -0.00000000000E+00 -0.00000000000E+00 -0.21144830877E+03  0.21144830877E+03  0.00000000000E+00 0.  1.
         23    2    1    2    0    0 -0.14320648448E+03  0.25719779698E+03  0.69677367968E+02  0.31619953565E+03  0.92023946694E+02 0.  0.
        254    2    1    2    0    0  0.14320648448E+03 -0.25719779698E+03  0.23898109482E+04  0.25661853981E+04  0.88738510532E+03 0.  0.
        -24    2    4    4    0    0  0.17864832777E+02  0.26565608858E+03  0.30719821473E+03  0.41398459806E+03  0.78231672896E+02 0.  0.
         24    2    4    4    0    0  0.12534165171E+03 -0.52285388556E+03  0.20826127335E+04  0.21522008000E+04  0.74871694578E+02 0.  0.
         13    1    3    3    0    0 -0.12686821309E+03  0.14028084372E+03  0.56579601800E+02  0.19742216174E+03  0.00000000000E+00 0.  1.
        -13    1    3    3    0    0 -0.16338271392E+02  0.11691695327E+03  0.13097766168E+02  0.11877737390E+03  0.00000000000E+00 0. -1.
          2    1    6    6  502    0  0.10119554661E+03 -0.26281730789E+03  0.10983411335E+04  0.11338724450E+04  0.00000000000E+00 0. -1.
          3    1    5    5  503    0  0.40846757326E+02  0.21965184849E+03  0.22540618144E+03  0.31736940426E+03  0.00000000000E+00 0. -1.
         -4    1    5    5    0  503 -0.22981924549E+02  0.46004240090E+02  0.81792033295E+02  0.96615193799E+02  0.00000000000E+00 0.  1.
         -1    1    6    6    0  502  0.24146105096E+02 -0.26003657767E+03  0.98427159995E+03  0.10183283550E+04  0.00000000000E+00 0.  1.
<mgrwt>
<rscale>  0 0.15030170E+04</rscale>
<asrwt>0</asrwt>
<pdfrwt beam="1">  1        2 0.41091330E+00 0.15030170E+04</pdfrwt>
<pdfrwt beam="2">  1       -2 0.32530511E-01 0.15030170E+04</pdfrwt>
<totfact> 0.23602362E+01</totfact>
</mgrwt>
</event>
<event>
12    1  0.1541840E-007  0.1115085E+04  0.7818608E-02  0.9190613E-01
         -2   -1    0    0    0  501 -0.00000000000E+00  0.00000000000E+00  0.27125751069E+03  0.27125751069E+03  0.00000000000E+00 0.  1.
          2   -1    0    0  501    0  0.00000000000E+00 -0.00000000000E+00 -0.11459716372E+04  0.11459716372E+04  0.00000000000E+00 0. -1.
         23    2    1    2    0    0  0.52681387454E+01  0.10910023580E+03 -0.39003727106E+03  0.41779005546E+03  0.10241505206E+03 0.  0.
        254    2    1    2    0    0 -0.52681387454E+01 -0.10910023580E+03 -0.48467685541E+03  0.99943909238E+03  0.86720022513E+03 0.  0.
        -24    2    4    4    0    0 -0.23719118761E+02  0.33210103393E+03 -0.42569780080E+03  0.54694568327E+03  0.84126508955E+02 0.  0.
         24    2    4    4    0    0  0.18450980015E+02 -0.44120126974E+03 -0.58979054606E+02  0.45249340911E+03  0.79200740685E+02 0.  0.
         11    1    3    3    0    0  0.51799797935E+02  0.64033598591E+02 -0.17909877950E+03  0.19712912934E+03  0.00000000000E+00 0.  1.
        -11    1    3    3    0    0 -0.46531659190E+02  0.45066637214E+02 -0.21093849156E+03  0.22066092612E+03  0.00000000000E+00 0. -1.
          4    1    6    6  502    0  0.13709061937E+02 -0.16982834345E+03  0.15390707202E+02  0.17107448227E+03  0.00000000000E+00 0. -1.
          3    1    5    5  503    0  0.20783491350E+01  0.22357676833E+02 -0.75221576702E+02  0.78501406675E+02  0.00000000000E+00 0. -1.
         -4    1    5    5    0  503 -0.25797467896E+02  0.30974335710E+03 -0.35047622410E+03  0.46844427660E+03  0.00000000000E+00 0.  1.
         -3    1    6    6    0  502  0.47419180784E+01 -0.27137292629E+03 -0.74369761808E+02  0.28141892683E+03  0.00000000000E+00 0.  1.
<mgrwt>
<rscale>  0 0.11150846E+04</rscale>
<asrwt>0</asrwt>
<pdfrwt beam="1">  1        2 0.17630333E+00 0.11150846E+04</pdfrwt>
<pdfrwt beam="2">  1       -2 0.41731925E-01 0.11150846E+04</pdfrwt>
<totfact> 0.11012225E+02</totfact>
</mgrwt>
</event>
<event>
12    1  0.1541840E-007  0.1465718E+04  0.7818608E-02  0.8907575E-01
          2   -1    0    0  501    0  0.00000000000E+00  0.00000000000E+00  0.28427767093E+04  0.28427767093E+04  0.00000000000E+00 0. -1.
         -2   -1    0    0    0  501 -0.00000000000E+00 -0.00000000000E+00 -0.18892888235E+03  0.18892888235E+03  0.00000000000E+00 0.  1.
         23    2    1    2    0    0  0.19647359726E+03 -0.12064449691E+03  0.28912372387E+02  0.24779508950E+03  0.86078522563E+02 0.  0.
        254    2    1    2    0    0 -0.19647359726E+03  0.12064449691E+03  0.26249354545E+04  0.27839105021E+04  0.89817290893E+03 0.  0.
        -24    2    4    4    0    0 -0.49273019903E+03  0.73679715221E+02  0.90373303987E+03  0.10350014328E+04  0.79264172881E+02 0.  0.
         24    2    4    4    0    0  0.29625660177E+03  0.46964781686E+02  0.17212024147E+04  0.17489090693E+04  0.78558994909E+02 0.  0.
         11    1    3    3    0    0  0.41008601431E+02 -0.31121916986E+02  0.44056747682E+02  0.67758956047E+02  0.00000000000E+00 0. -1.
        -11    1    3    3    0    0  0.15546499583E+03 -0.89522579921E+02 -0.15144375295E+02  0.18003613345E+03  0.00000000000E+00 0.  1.
          4    1    6    6  502    0  0.25311701066E+03  0.65969816590E+02  0.15122347793E+04  0.15346902833E+04  0.00000000000E+00 0. -1.
          3    1    5    5  503    0 -0.33519187336E+03  0.22328401888E+02  0.55184338865E+03  0.64605206840E+03  0.00000000000E+00 0. -1.
         -2    1    5    5    0  503 -0.15753832567E+03  0.51351313333E+02  0.35188965122E+03  0.38894936441E+03  0.00000000000E+00 0.  1.
         -3    1    6    6    0  502  0.43139591110E+02 -0.19005034904E+02  0.20896763535E+03  0.21421878605E+03  0.00000000000E+00 0.  1.
<mgrwt>
<rscale>  0 0.14657184E+04</rscale>
<asrwt>0</asrwt>
<pdfrwt beam="1">  1        2 0.43735023E+00 0.14657184E+04</pdfrwt>
<pdfrwt beam="2">  1       -2 0.29065984E-01 0.14657184E+04</pdfrwt>
<totfact> 0.23089913E+01</totfact>
</mgrwt>
</event>
<event>
12    1  0.1541840E-007  0.1299021E+04  0.7818608E-02  0.9030342E-01
         -1   -1    0    0    0  501 -0.00000000000E+00  0.00000000000E+00  0.21075653374E+03  0.21075653374E+03  0.00000000000E+00 0.  1.
          1   -1    0    0  501    0  0.00000000000E+00 -0.00000000000E+00 -0.20016656004E+04  0.20016656004E+04  0.00000000000E+00 0. -1.
         23    2    1    2    0    0 -0.20177927557E+03  0.10025233272E+03 -0.83798931525E+03  0.87254619466E+03  0.91352958741E+02 0.  0.
        254    2    1    2    0    0  0.20177927557E+03 -0.10025233272E+03 -0.95291975138E+03  0.13398759394E+04  0.91457425848E+03 0.  0.
        -24    2    4    4    0    0  0.43133208541E+03  0.25664092715E+03 -0.47307381556E+03  0.69425209917E+03  0.79216215756E+02 0.  0.
         24    2    4    4    0    0 -0.22955280984E+03 -0.35689325987E+03 -0.47984593582E+03  0.64562384028E+03  0.80689091985E+02 0.  0.
         13    1    3    3    0    0 -0.19151035671E+03  0.73530423627E+02 -0.79392040970E+03  0.81999546149E+03  0.00000000000E+00 0. -1.
        -13    1    3    3    0    0 -0.10268918863E+02  0.26721909090E+02 -0.44068905555E+02  0.52550733171E+02  0.00000000000E+00 0.  1.
          2    1    6    6  502    0 -0.22643431378E+03 -0.34909776843E+03 -0.44276396934E+03  0.60760322820E+03  0.00000000000E+00 0. -1.
          1    1    5    5  503    0  0.25388389991E+03  0.11683829017E+03 -0.29713314754E+03  0.40791706026E+03  0.00000000000E+00 0. -1.
         -2    1    5    5    0  503  0.17744818550E+03  0.13980263698E+03 -0.17594066802E+03  0.28633503892E+03  0.00000000000E+00 0.  1.
         -1    1    6    6    0  502 -0.31184960637E+01 -0.77954914428E+01 -0.37081966480E+02  0.38020612075E+02  0.00000000000E+00 0.  1.
<mgrwt>
<rscale>  0 0.12990213E+04</rscale>
<asrwt>0</asrwt>
<pdfrwt beam="1">  1        1 0.30794856E+00 0.12990213E+04</pdfrwt>
<pdfrwt beam="2">  1       -1 0.32424081E-01 0.12990213E+04</pdfrwt>
<totfact> 0.26011253E+01</totfact>
</mgrwt>
</event>
<event>
12    1  0.1541840E-007  0.1632214E+04  0.7818608E-02  0.8800999E-01
          3   -1    0    0  501    0  0.00000000000E+00  0.00000000000E+00  0.37847495661E+03  0.37847495661E+03  0.00000000000E+00 0. -1.
         -3   -1    0    0    0  501 -0.00000000000E+00 -0.00000000000E+00 -0.17597736913E+04  0.17597736913E+04  0.00000000000E+00 0.  1.
         23    2    1    2    0    0 -0.80064007150E+02 -0.18419182290E+03 -0.11851661113E+04  0.12056364670E+04  0.92756166166E+02 0.  0.
        254    2    1    2    0    0  0.80064007150E+02  0.18419182290E+03 -0.19613262341E+03  0.93261218091E+03  0.88935965793E+03 0.  0.
        -24    2    4    4    0    0 -0.11668928927E+03  0.33231951894E+03  0.23413621240E+03  0.43043486980E+03  0.80010988497E+02 0.  0.
         24    2    4    4    0    0  0.19675329642E+03 -0.14812769605E+03 -0.43026883581E+03  0.50217731112E+03  0.79981915128E+02 0.  0.
         13    1    3    3    0    0  0.11787120513E+02 -0.24707202636E+01 -0.15954707699E+03  0.16000097014E+03  0.00000000000E+00 0. -1.
        -13    1    3    3    0    0 -0.91851127663E+02 -0.18172110263E+03 -0.10256190343E+04  0.10456354969E+04  0.00000000000E+00 0.  1.
          2    1    6    6  502    0  0.18316872741E+03 -0.14320826326E+03 -0.34719286233E+03  0.41785436819E+03  0.00000000000E+00 0. -1.
          3    1    5    5  503    0 -0.12566454349E+03  0.28286836424E+03  0.18759585542E+03  0.36193686459E+03  0.00000000000E+00 0. -1.
         -4    1    5    5    0  503  0.89752542203E+01  0.49451154704E+02  0.46540356976E+02  0.68498005207E+02  0.00000000000E+00 0.  1.
         -1    1    6    6    0  502  0.13584569009E+02 -0.49194327891E+01 -0.83075973481E+02  0.84322942927E+02  0.00000000000E+00 0.  1.
<mgrwt>
<rscale>  0 0.16322136E+04</rscale>
<asrwt>0</asrwt>
<pdfrwt beam="1">  1        3 0.58226917E-01 0.16322136E+04</pdfrwt>
<pdfrwt beam="2">  1       -3 0.27073441E+00 0.16322136E+04</pdfrwt>
<totfact> 0.40344577E-01</totfact>
</mgrwt>
</event>
<event>
12    1  0.1541840E-007  0.2030136E+04  0.7818608E-02  0.8592659E-01
          1   -1    0    0  501    0  0.00000000000E+00  0.00000000000E+00  0.13462685975E+04  0.13462685975E+04  0.00000000000E+00 0. -1.
         -1   -1    0    0    0  501 -0.00000000000E+00 -0.00000000000E+00 -0.76534726501E+03  0.76534726501E+03  0.00000000000E+00 0.  1.
         23    2    1    2    0    0 -0.35626953215E+03  0.40445910199E+03 -0.39738031451E+03  0.67564287467E+03  0.89816674441E+02 0.  0.
        254    2    1    2    0    0  0.35626953215E+03 -0.40445910199E+03  0.97830164700E+03  0.14359729878E+04  0.90245729236E+03 0.  0.
        -24    2    4    4    0    0  0.38140276373E+03 -0.49568194423E+03  0.22087153743E+03  0.66859883858E+03  0.84092287935E+02 0.  0.
         24    2    4    4    0    0 -0.25133231573E+02  0.91222842238E+02  0.75743010957E+03  0.76737414925E+03  0.78799922417E+02 0.  0.
         13    1    3    3    0    0 -0.25335278230E+03  0.33161472112E+03 -0.33400714424E+03  0.53452476833E+03  0.00000000000E+00 0.  1.
        -13    1    3    3    0    0 -0.10291674986E+03  0.72844380873E+02 -0.63373170276E+02  0.14111810634E+03  0.00000000000E+00 0. -1.
          2    1    6    6  502    0  0.20607127716E+02  0.67822996517E+02  0.39322095655E+03  0.39955892336E+03  0.00000000000E+00 0. -1.
          1    1    5    5  503    0  0.60416825341E+00  0.18451389449E+01  0.59045796372E+01  0.62155947178E+01  0.00000000000E+00 0. -1.
         -2    1    5    5    0  503  0.38079859547E+03 -0.49752708318E+03  0.21496695779E+03  0.66238324386E+03  0.00000000000E+00 0.  1.
         -1    1    6    6    0  502 -0.45740359289E+02  0.23399845720E+02  0.36420915302E+03  0.36781522588E+03  0.00000000000E+00 0.  1.
<mgrwt>
<rscale>  0 0.20301359E+04</rscale>
<asrwt>0</asrwt>
<pdfrwt beam="1">  1        1 0.20711825E+00 0.20301359E+04</pdfrwt>
<pdfrwt beam="2">  1       -1 0.11774573E+00 0.20301359E+04</pdfrwt>
<totfact> 0.50304240E+00</totfact>
</mgrwt>
</event>
<event>
12    1  0.1678077E-007  0.1664804E+04  0.7818608E-02  0.8781696E-01
         -2   -1    0    0    0  501 -0.00000000000E+00  0.00000000000E+00  0.13482132949E+04  0.13482132949E+04  0.00000000000E+00 0.  1.
          2   -1    0    0  501    0  0.00000000000E+00 -0.00000000000E+00 -0.51393457752E+03  0.51393457752E+03  0.00000000000E+00 0. -1.
         23    2    1    2    0    0  0.67031994182E+02 -0.11901706695E+02 -0.33104619415E+03  0.34979502846E+03  0.90166736722E+02 0.  0.
        254    2    1    2    0    0 -0.67031994182E+02  0.11901706695E+02  0.11653249115E+04  0.15123528440E+04  0.96155812947E+03 0.  0.
        -24    2    4    4    0    0 -0.41628292943E+03  0.39005481449E+02  0.10534304587E+04  0.11362683695E+04  0.81099760524E+02 0.  0.
         24    2    4    4    0    0  0.34925093525E+03 -0.27103774753E+02  0.11189445280E+03  0.37608447449E+03  0.78792975646E+02 0.  0.
         11    1    3    3    0    0  0.70286894927E+02 -0.41983479368E+02 -0.25965887168E+03  0.27226015092E+03  0.00000000000E+00 0. -1.
        -11    1    3    3    0    0 -0.32549007446E+01  0.30081772673E+02 -0.71387322469E+02  0.77534877541E+02  0.00000000000E+00 0.  1.
          2    1    6    6  502    0  0.35324030777E+03 -0.24108886775E+02  0.11017018665E+03  0.37080645016E+03  0.00000000000E+00 0. -1.
          1    1    5    5  503    0 -0.37357273973E+03  0.53644777398E+02  0.88993311508E+03  0.96665159356E+03  0.00000000000E+00 0. -1.
         -4    1    5    5    0  503 -0.42710189702E+02 -0.14639295949E+02  0.16349734364E+03  0.16961677590E+03  0.00000000000E+00 0.  1.
         -1    1    6    6    0  502 -0.39893725210E+01 -0.29948879788E+01  0.17242661460E+01  0.52780243329E+01  0.00000000000E+00 0.  1.
<mgrwt>
<rscale>  0 0.16648044E+04</rscale>
<asrwt>0</asrwt>
<pdfrwt beam="1">  1        2 0.79066859E-01 0.16648044E+04</pdfrwt>
<pdfrwt beam="2">  1       -2 0.20741743E+00 0.16648044E+04</pdfrwt>
<totfact> 0.67644707E+00</totfact>
</mgrwt>
</event>
<event>
12    1  0.1625676E-007  0.1946704E+04  0.7818608E-02  0.8631952E-01
         -2   -1    0    0    0  501 -0.00000000000E+00  0.00000000000E+00  0.50682569840E+03  0.50682569840E+03  0.00000000000E+00 0.  1.
          2   -1    0    0  501    0  0.00000000000E+00 -0.00000000000E+00 -0.18693104368E+04  0.18693104368E+04  0.00000000000E+00 0. -1.
         23    2    1    2    0    0  0.29565010820E+02  0.42431947104E+03  0.23227658019E+03  0.49297688021E+03  0.90292255165E+02 0.  0.
        254    2    1    2    0    0 -0.29565010820E+02 -0.42431947104E+03 -0.15947613186E+04  0.18831592550E+04  0.90669951640E+03 0.  0.
        -24    2    4    4    0    0  0.34586490520E+02 -0.21875952944E+03  0.34662115328E+02  0.23759172449E+03  0.78717267862E+02 0.  0.
         24    2    4    4    0    0 -0.64151501340E+02 -0.20555994159E+03 -0.16294234340E+04  0.16455675305E+04  0.80631666899E+02 0.  0.
         13    1    3    3    0    0 -0.30758483904E+02  0.14968950884E+03  0.96482609807E+02  0.18072611152E+03  0.00000000000E+00 0.  1.
        -13    1    3    3    0    0  0.60323494724E+02  0.27462996220E+03  0.13579397039E+03  0.31225076869E+03  0.00000000000E+00 0. -1.
          4    1    6    6  502    0 -0.53056010988E+01  0.73193847178E+01 -0.58670962032E+02  0.59363326906E+02  0.00000000000E+00 0. -1.
          1    1    5    5  503    0 -0.13620363862E+02 -0.69464182786E+02 -0.16295129807E+02  0.72638269923E+02  0.00000000000E+00 0. -1.
         -2    1    5    5    0  503  0.48206854382E+02 -0.14929534666E+03  0.50957245136E+02  0.16495345457E+03  0.00000000000E+00 0.  1.
         -3    1    6    6    0  502 -0.58845900241E+02 -0.21287932631E+03 -0.15707524719E+04  0.15862042036E+04  0.00000000000E+00 0.  1.
<mgrwt>
<rscale>  0 0.19467045E+04</rscale>
<asrwt>0</asrwt>
<pdfrwt beam="1">  1        2 0.28758622E+00 0.19467045E+04</pdfrwt>
<pdfrwt beam="2">  1       -2 0.77973185E-01 0.19467045E+04</pdfrwt>
<totfact> 0.10788654E+01</totfact>
</mgrwt>
</event>
<event>
12    1  0.1541840E-007  0.1438350E+04  0.7818608E-02  0.8926518E-01
         -2   -1    0    0    0  501 -0.00000000000E+00  0.00000000000E+00  0.59028605303E+03  0.59028605303E+03  0.00000000000E+00 0.  1.
          2   -1    0    0  501    0  0.00000000000E+00 -0.00000000000E+00 -0.87620639190E+03  0.87620639190E+03  0.00000000000E+00 0. -1.
         23    2    1    2    0    0 -0.39822480922E+03 -0.41452562755E+01  0.85693746181E+02  0.41865365049E+03  0.96577839621E+02 0.  0.
        254    2    1    2    0    0  0.39822480922E+03  0.41452562755E+01 -0.37161408505E+03  0.10478387944E+04  0.89513626288E+03 0.  0.
        -24    2    4    4    0    0  0.53716656987E+03  0.29677714723E+03 -0.12061068979E+03  0.63037212316E+03  0.78724051343E+02 0.  0.
         24    2    4    4    0    0 -0.13894176066E+03 -0.29263189096E+03 -0.25100339526E+03  0.41746667129E+03  0.79608295704E+02 0.  0.
         13    1    3    3    0    0 -0.48712748477E+02  0.54309788964E+01  0.45198253064E+02  0.66673154087E+02  0.00000000000E+00 0. -1.
        -13    1    3    3    0    0 -0.34951206074E+03 -0.95762351719E+01  0.40495493118E+02  0.35198049640E+03  0.00000000000E+00 0.  1.
          4    1    6    6  502    0 -0.13348437940E+03 -0.19803336884E+03 -0.17881433320E+03  0.29834520354E+03  0.00000000000E+00 0. -1.
          3    1    5    5  503    0  0.10280770186E+03  0.87950591064E+02 -0.85471055699E+01  0.13556468214E+03  0.00000000000E+00 0. -1.
         -4    1    5    5    0  503  0.43435886801E+03  0.20882655617E+03 -0.11206358422E+03  0.49480744102E+03  0.00000000000E+00 0.  1.
         -3    1    6    6    0  502 -0.54573812519E+01 -0.94598522112E+02 -0.72189062063E+02  0.11912146774E+03  0.00000000000E+00 0.  1.
<mgrwt>
<rscale>  0 0.14383496E+04</rscale>
<asrwt>0</asrwt>
<pdfrwt beam="1">  1        2 0.13480098E+00 0.14383496E+04</pdfrwt>
<pdfrwt beam="2">  1       -2 0.90813239E-01 0.14383496E+04</pdfrwt>
<totfact> 0.30588592E+01</totfact>
</mgrwt>
</event>
<event>
12    1  0.1541840E-007  0.1003278E+04  0.7818608E-02  0.9304957E-01
          2   -1    0    0  501    0  0.00000000000E+00  0.00000000000E+00  0.48450903882E+03  0.48450903882E+03  0.00000000000E+00 0. -1.
         -2   -1    0    0    0  501 -0.00000000000E+00 -0.00000000000E+00 -0.51937454885E+03  0.51937454885E+03  0.00000000000E+00 0.  1.
         23    2    1    2    0    0 -0.50997654468E+02 -0.17321677096E+01  0.46092368897E+02  0.10865158747E+03  0.84124311725E+02 0.  0.
        254    2    1    2    0    0  0.50997654468E+02  0.17321677096E+01 -0.80957878931E+02  0.89523200020E+03  0.89010246312E+03 0.  0.
        -24    2    4    4    0    0 -0.29483470060E+03  0.74365034694E+02 -0.32964379135E+03  0.45544546958E+03  0.79422210534E+02 0.  0.
         24    2    4    4    0    0  0.34583235506E+03 -0.72632866985E+02  0.24868591241E+03  0.43978653062E+03  0.81804390521E+02 0.  0.
         13    1    3    3    0    0  0.10928896211E+02 -0.12427736715E+02  0.42610811160E+02  0.45711821666E+02  0.00000000000E+00 0. -1.
        -13    1    3    3    0    0 -0.61926550679E+02  0.10695569006E+02  0.34815577367E+01  0.62939765805E+02  0.00000000000E+00 0.  1.
          2    1    6    6  502    0  0.33599518256E+03 -0.75815738167E+02  0.25418292381E+03  0.42807680107E+03  0.00000000000E+00 0. -1.
          3    1    5    5  503    0 -0.29708304531E+03  0.77551273600E+02 -0.33084438619E+03  0.45136519994E+03  0.00000000000E+00 0. -1.
         -4    1    5    5    0  503  0.22483447114E+01 -0.31862389057E+01  0.12005948459E+01  0.40802696344E+01  0.00000000000E+00 0.  1.
         -1    1    6    6    0  502  0.98371725068E+01  0.31828711818E+01 -0.54970113994E+01  0.11709729553E+02  0.00000000000E+00 0.  1.
<mgrwt>
<rscale>  0 0.10032780E+04</rscale>
<asrwt>0</asrwt>
<pdfrwt beam="1">  1        2 0.74539852E-01 0.10032780E+04</pdfrwt>
<pdfrwt beam="2">  1       -2 0.79903777E-01 0.10032780E+04</pdfrwt>
<totfact> 0.88438712E+01</totfact>
</mgrwt>
</event>
<event>
12    1  0.1541840E-007  0.2219816E+04  0.7818608E-02  0.8510225E-01
         -1   -1    0    0    0  501 -0.00000000000E+00  0.00000000000E+00  0.92269869081E+03  0.92269869081E+03  0.00000000000E+00 0.  1.
          1   -1    0    0  501    0  0.00000000000E+00 -0.00000000000E+00 -0.13351008226E+04  0.13351008226E+04  0.00000000000E+00 0. -1.
         23    2    1    2    0    0 -0.71386322590E+03 -0.39678561102E+03 -0.60780137005E+03  0.10226217073E+04  0.96400852985E+02 0.  0.
        254    2    1    2    0    0  0.71386322590E+03  0.39678561102E+03  0.19539923826E+03  0.12351778061E+04  0.90578354143E+03 0.  0.
        -24    2    4    4    0    0 -0.13549873302E+03 -0.13773245454E+03  0.71676224822E+02  0.22091574666E+03  0.79599938659E+02 0.  0.
         24    2    4    4    0    0  0.84936195892E+03  0.53451806555E+03  0.12372301344E+03  0.10142620594E+04  0.79340036989E+02 0.  0.
         11    1    3    3    0    0 -0.32737132831E+03 -0.17346037699E+03 -0.33500669723E+03  0.49948971578E+03  0.00000000000E+00 0. -1.
        -11    1    3    3    0    0 -0.38649189758E+03 -0.22332523403E+03 -0.27279467282E+03  0.52313199154E+03  0.00000000000E+00 0.  1.
          4    1    6    6  502    0  0.12150545239E+03  0.66583282116E+02  0.43661838632E+02  0.14526962715E+03  0.00000000000E+00 0. -1.
          3    1    5    5  503    0 -0.10155079821E+03 -0.52421702747E+02  0.57759791333E+02  0.12804996303E+03  0.00000000000E+00 0. -1.
         -4    1    5    5    0  503 -0.33947934809E+02 -0.85310751789E+02  0.13916433489E+02  0.92865783632E+02  0.00000000000E+00 0.  1.
         -1    1    6    6    0  502  0.72785650652E+03  0.46793478344E+03  0.80061174809E+02  0.86899243227E+03  0.00000000000E+00 0.  1.
<mgrwt>
<rscale>  0 0.22198160E+04</rscale>
<asrwt>0</asrwt>
<pdfrwt beam="1">  1        1 0.20540013E+00 0.22198160E+04</pdfrwt>
<pdfrwt beam="2">  1       -1 0.14195365E+00 0.22198160E+04</pdfrwt>
<totfact> 0.31413194E+00</totfact>
</mgrwt>
</event>
<event>
12    1  0.1541840E-007  0.1547253E+04  0.7818608E-02  0.8853624E-01
         -2   -1    0    0    0  501 -0.00000000000E+00  0.00000000000E+00  0.34202500057E+03  0.34202500057E+03  0.00000000000E+00 0.  1.
          2   -1    0    0  501    0  0.00000000000E+00 -0.00000000000E+00 -0.17498663732E+04  0.17498663732E+04  0.00000000000E+00 0. -1.
         23    2    1    2    0    0  0.41107108406E+03  0.28420868532E+03 -0.27733446442E+03  0.57873337577E+03  0.90906007043E+02 0.  0.
        254    2    1    2    0    0 -0.41107108406E+03 -0.28420868532E+03 -0.11305069082E+04  0.15131579980E+04  0.87283861307E+03 0.  0.
        -24    2    4    4    0    0  0.15275137419E+03 -0.38978642397E+03 -0.45767733525E+03  0.62546481891E+03  0.80444128793E+02 0.  0.
         24    2    4    4    0    0 -0.56382245825E+03  0.10557773865E+03 -0.67282957299E+03  0.88769317912E+03  0.79101976277E+02 0.  0.
         11    1    3    3    0    0  0.40212702575E+03  0.27355666045E+03 -0.28411562338E+03  0.56325933526E+03  0.00000000000E+00 0.  1.
        -11    1    3    3    0    0  0.89440583150E+01  0.10652024866E+02  0.67811589577E+01  0.15474040510E+02  0.00000000000E+00 0. -1.
          4    1    6    6  502    0 -0.52892058588E+03  0.11814134901E+03 -0.63030741432E+03  0.83126518096E+03  0.00000000000E+00 0. -1.
          1    1    5    5  503    0  0.13130200569E+03 -0.32769870556E+03 -0.42374151816E+03  0.55152836059E+03  0.00000000000E+00 0. -1.
         -2    1    5    5    0  503  0.21449368498E+02 -0.62087718408E+02 -0.33935817091E+02  0.73936458312E+02  0.00000000000E+00 0.  1.
         -3    1    6    6    0  502 -0.34901872367E+02 -0.12563610358E+02 -0.42522158661E+02  0.56427998167E+02  0.00000000000E+00 0.  1.
<mgrwt>
<rscale>  0 0.15472531E+04</rscale>
<asrwt>0</asrwt>
<pdfrwt beam="1">  1        2 0.26921021E+00 0.15472531E+04</pdfrwt>
<pdfrwt beam="2">  1       -2 0.52619231E-01 0.15472531E+04</pdfrwt>
<totfact> 0.30180658E+01</totfact>
</mgrwt>
</event>
<event>
12    1  0.1541840E-007  0.1240570E+04  0.7818608E-02  0.9078068E-01
         -2   -1    0    0    0  501 -0.00000000000E+00  0.00000000000E+00  0.39424191670E+03  0.39424191670E+03  0.00000000000E+00 0.  1.
          2   -1    0    0  501    0  0.00000000000E+00 -0.00000000000E+00 -0.97593288106E+03  0.97593288106E+03  0.00000000000E+00 0. -1.
         23    2    1    2    0    0  0.58955680032E+01  0.17707367664E+03 -0.37903185456E+03  0.42830255814E+03  0.91586515723E+02 0.  0.
        254    2    1    2    0    0 -0.58955680032E+01 -0.17707367664E+03 -0.20265910980E+03  0.94187223962E+03  0.90258670293E+03 0.  0.
        -24    2    4    4    0    0 -0.23248969733E+03  0.26832024981E+03 -0.23597784542E+03  0.43394277786E+03  0.81077586963E+02 0.  0.
         24    2    4    4    0    0  0.22659412933E+03 -0.44539392645E+03  0.33318735619E+02  0.50792946176E+03  0.84625946472E+02 0.  0.
         13    1    3    3    0    0 -0.17012837773E+02  0.17289900785E+03 -0.35259110982E+03  0.39306996107E+03  0.00000000000E+00 0. -1.
        -13    1    3    3    0    0  0.22908405777E+02  0.41746687836E+01 -0.26440744735E+02  0.35232597078E+02  0.00000000000E+00 0.  1.
          4    1    6    6  502    0  0.15101198882E+03 -0.37106506751E+03  0.32312388140E+02  0.40191789649E+03  0.00000000000E+00 0. -1.
          1    1    5    5  503    0 -0.19101617874E+03  0.24109563725E+03 -0.22978450932E+03  0.38394688118E+03  0.00000000000E+00 0. -1.
         -2    1    5    5    0  503 -0.41473518592E+02  0.27224612554E+02 -0.61933360975E+01  0.49995896683E+02  0.00000000000E+00 0.  1.
         -3    1    6    6    0  502  0.75582140511E+02 -0.74328858940E+02  0.10063474795E+01  0.10601156527E+03  0.00000000000E+00 0.  1.
<mgrwt>
<rscale>  0 0.12405703E+04</rscale>
<asrwt>0</asrwt>
<pdfrwt beam="1">  1        2 0.15014352E+00 0.12405703E+04</pdfrwt>
<pdfrwt beam="2">  1       -2 0.60652603E-01 0.12405703E+04</pdfrwt>
<totfact> 0.65046808E+01</totfact>
</mgrwt>
</event>
<event>
12    1  0.1541840E-007  0.1249745E+04  0.7818608E-02  0.9070395E-01
         -3   -1    0    0    0  501 -0.00000000000E+00  0.00000000000E+00  0.18528195238E+03  0.18528195238E+03  0.00000000000E+00 0.  1.
          3   -1    0    0  501    0  0.00000000000E+00 -0.00000000000E+00 -0.21074133497E+04  0.21074133497E+04  0.00000000000E+00 0. -1.
         23    2    1    2    0    0 -0.98808919883E+01  0.14041142620E+03 -0.99323822609E+03  0.10072857472E+04  0.91046153898E+02 0.  0.
        254    2    1    2    0    0  0.98808919883E+01 -0.14041142620E+03 -0.92889317128E+03  0.12854095549E+04  0.87728114056E+03 0.  0.
        -24    2    4    4    0    0 -0.10651842426E+03  0.32322504442E+03 -0.61679514810E+03  0.70888170918E+03  0.79097527443E+02 0.  0.
         24    2    4    4    0    0  0.11639931625E+03 -0.46363647062E+03 -0.31209802318E+03  0.57652784573E+03  0.80446274753E+02 0.  0.
         11    1    3    3    0    0 -0.47408833421E+02  0.58787791725E+02 -0.37234163353E+03  0.37992353704E+03  0.00000000000E+00 0.  1.
        -11    1    3    3    0    0  0.37527941433E+02  0.81623634474E+02 -0.62089659256E+03  0.62736221017E+03  0.00000000000E+00 0. -1.
          2    1    6    6  502    0  0.28529616047E+02 -0.58275093763E+02 -0.73421016239E+02  0.97982504410E+02  0.00000000000E+00 0. -1.
          1    1    5    5  503    0 -0.22738247851E+01  0.18390522294E+02 -0.81764622283E+01  0.20254286558E+02  0.00000000000E+00 0. -1.
         -2    1    5    5    0  503 -0.10424459947E+03  0.30483452213E+03 -0.60861868587E+03  0.68862742262E+03  0.00000000000E+00 0.  1.
         -1    1    6    6    0  502  0.87869700201E+02 -0.40536137685E+03 -0.23867700694E+03  0.47854534132E+03  0.00000000000E+00 0.  1.
<mgrwt>
<rscale>  0 0.12497450E+04</rscale>
<asrwt>0</asrwt>
<pdfrwt beam="1">  1        3 0.32421744E+00 0.12497450E+04</pdfrwt>
<pdfrwt beam="2">  1       -3 0.28504916E-01 0.12497450E+04</pdfrwt>
<totfact> 0.88709081E-01</totfact>
</mgrwt>
</event>
<event>
12    1  0.1541840E-007  0.1498009E+04  0.7818608E-02  0.8885778E-01
         -2   -1    0    0    0  501 -0.00000000000E+00  0.00000000000E+00  0.67024375859E+03  0.67024375859E+03  0.00000000000E+00 0.  1.
          2   -1    0    0  501    0  0.00000000000E+00 -0.00000000000E+00 -0.83702051222E+03  0.83702051222E+03  0.00000000000E+00 0. -1.
         23    2    1    2    0    0 -0.47580038452E+02 -0.32318777436E+03 -0.38666139741E+03  0.51441405675E+03  0.91654721548E+02 0.  0.
        254    2    1    2    0    0  0.47580038452E+02  0.32318777436E+03  0.21988464378E+03  0.99285021406E+03  0.91142092001E+03 0.  0.
        -24    2    4    4    0    0  0.21182095115E+03  0.14529783685E+03 -0.30724624850E+03  0.40826268347E+03  0.79363623640E+02 0.  0.
         24    2    4    4    0    0 -0.16424091270E+03  0.17788993751E+03  0.52713089228E+03  0.58458753059E+03  0.72496179583E+02 0.  0.
         11    1    3    3    0    0 -0.74336859529E+02 -0.24309324579E+03 -0.30349866695E+03  0.39589359135E+03  0.00000000000E+00 0. -1.
        -11    1    3    3    0    0  0.26756821078E+02 -0.80094528569E+02 -0.83162730462E+02  0.11852046540E+03  0.00000000000E+00 0.  1.
          2    1    6    6  502    0 -0.20351364048E+02 -0.27666504134E+01  0.29183540167E+02  0.35686291342E+02  0.00000000000E+00 0. -1.
          1    1    5    5  503    0  0.15123827868E+03  0.11825392318E+03 -0.17261629200E+03  0.25817318131E+03  0.00000000000E+00 0. -1.
         -2    1    5    5    0  503  0.60582672468E+02  0.27043913668E+02 -0.13462995650E+03  0.15008950215E+03  0.00000000000E+00 0.  1.
         -1    1    6    6    0  502 -0.14388954865E+03  0.18065658792E+03  0.49794735211E+03  0.54890123925E+03  0.00000000000E+00 0.  1.
<mgrwt>
<rscale>  0 0.14980090E+04</rscale>
<asrwt>0</asrwt>
<pdfrwt beam="1">  1        2 0.12877239E+00 0.14980090E+04</pdfrwt>
<pdfrwt beam="2">  1       -2 0.10311442E+00 0.14980090E+04</pdfrwt>
<totfact> 0.24050259E+01</totfact>
</mgrwt>
</event>
<event>
12    1  0.1541840E-007  0.1521188E+04  0.7818608E-02  0.8870484E-01
         -1   -1    0    0    0  501 -0.00000000000E+00  0.00000000000E+00  0.12289338102E+04  0.12289338102E+04  0.00000000000E+00 0.  1.
          1   -1    0    0  501    0  0.00000000000E+00 -0.00000000000E+00 -0.47073606643E+03  0.47073606643E+03  0.00000000000E+00 0. -1.
         23    2    1    2    0    0 -0.32876793495E+03 -0.53303833893E+02 -0.15204374407E+03  0.37721866416E+03  0.90812811431E+02 0.  0.
        254    2    1    2    0    0  0.32876793495E+03  0.53303833893E+02  0.91024148785E+03  0.13224512125E+04  0.89967104513E+03 0.  0.
        -24    2    4    4    0    0  0.17568424139E+03  0.32145572328E+03  0.18488606863E+02  0.37534137320E+03  0.79627778743E+02 0.  0.
         24    2    4    4    0    0  0.15308369356E+03 -0.26815188939E+03  0.89175288099E+03  0.94710983929E+03  0.80335508388E+02 0.  0.
         11    1    3    3    0    0 -0.32868946967E+03 -0.46305069980E+02 -0.13417448624E+03  0.35802754047E+03  0.00000000000E+00 0. -1.
        -11    1    3    3    0    0 -0.78465280831E-01 -0.69987639129E+01 -0.17869257826E+02  0.19191123687E+02  0.00000000000E+00 0.  1.
          4    1    6    6  502    0  0.28877934548E+02 -0.19224649376E+02  0.17202263063E+03  0.17548591879E+03  0.00000000000E+00 0. -1.
          3    1    5    5  503    0  0.14284353523E+02  0.60162354920E+02 -0.21848724162E+02  0.65581388004E+02  0.00000000000E+00 0. -1.
         -4    1    5    5    0  503  0.16139988787E+03  0.26129336836E+03  0.40337331025E+02  0.30975998519E+03  0.00000000000E+00 0.  1.
         -1    1    6    6    0  502  0.12420575901E+03 -0.24892724001E+03  0.71973025036E+03  0.77162392050E+03  0.00000000000E+00 0.  1.
<mgrwt>
<rscale>  0 0.15211883E+04</rscale>
<asrwt>0</asrwt>
<pdfrwt beam="1">  1        1 0.72420934E-01 0.15211883E+04</pdfrwt>
<pdfrwt beam="2">  1       -1 0.18906674E+00 0.15211883E+04</pdfrwt>
<totfact> 0.83408572E+00</totfact>
</mgrwt>
</event>
<event>
12    1  0.1541840E-007  0.1095980E+04  0.7818608E-02  0.9209119E-01
          3   -1    0    0  501    0  0.00000000000E+00  0.00000000000E+00  0.35789118343E+03  0.35789118343E+03  0.00000000000E+00 0. -1.
         -3   -1    0    0    0  501 -0.00000000000E+00 -0.00000000000E+00 -0.83906204400E+03  0.83906204400E+03  0.00000000000E+00 0.  1.
         23    2    1    2    0    0  0.13875195471E+03 -0.84170956767E+02 -0.12401952198E+03  0.22448953240E+03  0.93154996784E+02 0.  0.
        254    2    1    2    0    0 -0.13875195471E+03  0.84170956767E+02 -0.35715133859E+03  0.97246369503E+03  0.88982678348E+03 0.  0.
        -24    2    4    4    0    0  0.32422466923E+03 -0.11549610331E+03 -0.90632307131E+01  0.35432729022E+03  0.83694088382E+02 0.  0.
         24    2    4    4    0    0 -0.46297662394E+03  0.19966706007E+03 -0.34808810787E+03  0.61813640481E+03  0.81932868348E+02 0.  0.
         13    1    3    3    0    0  0.12687448982E+03 -0.64535156740E+02 -0.56449631634E+02  0.15312897679E+03  0.00000000000E+00 0. -1.
        -13    1    3    3    0    0  0.11877464894E+02 -0.19635800026E+02 -0.67569890350E+02  0.71360555610E+02  0.00000000000E+00 0.  1.
          4    1    6    6  502    0 -0.25813227129E+03  0.74236213771E+02 -0.15626929137E+03  0.31074648243E+03  0.00000000000E+00 0. -1.
          1    1    5    5  503    0  0.23641076841E+03 -0.92522419172E+02 -0.42873120426E+02  0.25746563640E+03  0.00000000000E+00 0. -1.
         -2    1    5    5    0  503  0.87813900818E+02 -0.22973684135E+02  0.33809889713E+02  0.96861653826E+02  0.00000000000E+00 0.  1.
         -3    1    6    6    0  502 -0.20484435265E+03  0.12543084630E+03 -0.19181881650E+03  0.30738992238E+03  0.00000000000E+00 0.  1.
<mgrwt>
<rscale>  0 0.10959798E+04</rscale>
<asrwt>0</asrwt>
<pdfrwt beam="1">  1        3 0.55060183E-01 0.10959798E+04</pdfrwt>
<pdfrwt beam="2">  1       -3 0.12908646E+00 0.10959798E+04</pdfrwt>
<totfact> 0.39964901E+00</totfact>
</mgrwt>
</event>
<event>
12    1  0.1541840E-007  0.2126549E+04  0.7818608E-02  0.8549638E-01
         -1   -1    0    0    0  501 -0.00000000000E+00  0.00000000000E+00  0.12024878387E+04  0.12024878387E+04  0.00000000000E+00 0.  1.
          1   -1    0    0  501    0  0.00000000000E+00 -0.00000000000E+00 -0.94017821682E+03  0.94017821682E+03  0.00000000000E+00 0. -1.
         23    2    1    2    0    0  0.74190811240E+02  0.21861762270E+03 -0.73796587907E+03  0.77856408602E+03  0.90942047136E+02 0.  0.
        254    2    1    2    0    0 -0.74190811240E+02 -0.21861762270E+03  0.10002755010E+04  0.13641019695E+04  0.89829013352E+03 0.  0.
        -24    2    4    4    0    0  0.25719543780E+03 -0.42360507143E+03  0.39086326762E+03  0.63628606550E+03  0.80592266388E+02 0.  0.
         24    2    4    4    0    0 -0.33138624904E+03  0.20498744873E+03  0.60941223334E+03  0.72781590402E+03  0.80597889568E+02 0.  0.
         11    1    3    3    0    0  0.62786411445E+02  0.22469581324E+03 -0.67207009252E+03  0.71141306651E+03  0.00000000000E+00 0. -1.
        -11    1    3    3    0    0  0.11404399795E+02 -0.60781905422E+01 -0.65895786555E+02  0.67151019505E+02  0.00000000000E+00 0.  1.
          2    1    6    6  502    0 -0.20117158194E+03  0.11265296234E+03  0.42814450862E+03  0.48628018217E+03  0.00000000000E+00 0. -1.
          1    1    5    5  503    0  0.17758236645E+03 -0.22621549182E+03  0.19894969335E+03  0.34969976565E+03  0.00000000000E+00 0. -1.
         -2    1    5    5    0  503  0.79613071357E+02 -0.19738957961E+03  0.19191357428E+03  0.28658629985E+03  0.00000000000E+00 0.  1.
         -1    1    6    6    0  502 -0.13021466710E+03  0.92334486386E+02  0.18126772472E+03  0.24153572184E+03  0.00000000000E+00 0.  1.
<mgrwt>
<rscale>  0 0.21265492E+04</rscale>
<asrwt>0</asrwt>
<pdfrwt beam="1">  1        1 0.14464280E+00 0.21265492E+04</pdfrwt>
<pdfrwt beam="2">  1       -1 0.18499813E+00 0.21265492E+04</pdfrwt>
<totfact> 0.29684544E+00</totfact>
</mgrwt>
</event>
<event>
12    1  0.1541840E-007  0.1409313E+04  0.7818608E-02  0.8947105E-01
         -1   -1    0    0    0  501 -0.00000000000E+00  0.00000000000E+00  0.71547170971E+03  0.71547170971E+03  0.00000000000E+00 0.  1.
          1   -1    0    0  501    0  0.00000000000E+00 -0.00000000000E+00 -0.69400488511E+03  0.69400488511E+03  0.00000000000E+00 0. -1.
         23    2    1    2    0    0 -0.24886008772E+03  0.11583315368E+03  0.24537704319E+03  0.37924723220E+03  0.90939029340E+02 0.  0.
        254    2    1    2    0    0  0.24886008772E+03 -0.11583315368E+03 -0.22391021859E+03  0.10302293626E+04  0.96741309216E+03 0.  0.
        -24    2    4    4    0    0  0.35538411618E+03 -0.69959605634E+02 -0.55645167677E+03  0.66896689366E+03  0.81768085312E+02 0.  0.
         24    2    4    4    0    0 -0.10652402847E+03 -0.45873548045E+02  0.33254145818E+03  0.36126246896E+03  0.80467378591E+02 0.  0.
         11    1    3    3    0    0 -0.30993805938E+02  0.41868370312E+02  0.81677223130E+02  0.96874894670E+02  0.00000000000E+00 0. -1.
        -11    1    3    3    0    0 -0.21786628178E+03  0.73964783367E+02  0.16369982006E+03  0.28237233753E+03  0.00000000000E+00 0.  1.
          2    1    6    6  502    0 -0.14792555655E+02 -0.33481421758E+02  0.39064335725E+02  0.53533612165E+02  0.00000000000E+00 0. -1.
          1    1    5    5  503    0  0.61722215406E+02  0.10019881438E+02 -0.60093870744E+02  0.86725447244E+02  0.00000000000E+00 0. -1.
         -4    1    5    5    0  503  0.29366190078E+03 -0.79979487072E+02 -0.49635780603E+03  0.58224144642E+03  0.00000000000E+00 0.  1.
         -1    1    6    6    0  502 -0.91731472812E+02 -0.12392126287E+02  0.29347712246E+03  0.30772885680E+03  0.00000000000E+00 0.  1.
<mgrwt>
<rscale>  0 0.14093131E+04</rscale>
<asrwt>0</asrwt>
<pdfrwt beam="1">  1        1 0.10676998E+00 0.14093131E+04</pdfrwt>
<pdfrwt beam="2">  1       -1 0.11007257E+00 0.14093131E+04</pdfrwt>
<totfact> 0.20502183E+01</totfact>
</mgrwt>
</event>
<event>
12    1  0.1541840E-007  0.1768519E+04  0.7818608E-02  0.8723222E-01
         -1   -1    0    0    0  501 -0.00000000000E+00  0.00000000000E+00  0.10304060487E+04  0.10304060487E+04  0.00000000000E+00 0.  1.
          1   -1    0    0  501    0  0.00000000000E+00 -0.00000000000E+00 -0.75884182937E+03  0.75884182937E+03  0.00000000000E+00 0. -1.
         23    2    1    2    0    0 -0.24345793722E+03 -0.49340908504E+03 -0.25855108265E+03  0.61457264260E+03  0.90147536284E+02 0.  0.
        254    2    1    2    0    0  0.24345793722E+03  0.49340908504E+03  0.53011530197E+03  0.11746752355E+04  0.89225298151E+03 0.  0.
        -24    2    4    4    0    0 -0.12231397120E+03  0.48640155478E+03  0.60825415722E+03  0.79220606701E+03  0.77911185209E+02 0.  0.
         24    2    4    4    0    0  0.36577190843E+03  0.70075302593E+01 -0.78138855254E+02  0.38246916845E+03  0.79616516124E+02 0.  0.
         11    1    3    3    0    0 -0.24057159142E+03 -0.47821901629E+03 -0.23111566614E+03  0.58308024257E+03  0.00000000000E+00 0. -1.
        -11    1    3    3    0    0 -0.28863458006E+01 -0.15190068757E+02 -0.27435416512E+02  0.31492400037E+02  0.00000000000E+00 0.  1.
          4    1    6    6  502    0  0.78796253736E+02  0.29945997333E+02 -0.35386622361E+02  0.91421143075E+02  0.00000000000E+00 0. -1.
          1    1    5    5  503    0 -0.77724349750E+02  0.23861318900E+03  0.35820854111E+03  0.43736790855E+03  0.00000000000E+00 0. -1.
         -2    1    5    5    0  503 -0.44589621455E+02  0.24778836579E+03  0.25004561612E+03  0.35483815846E+03  0.00000000000E+00 0.  1.
         -3    1    6    6    0  502  0.28697565469E+03 -0.22938467074E+02 -0.42752232893E+02  0.29104802537E+03  0.00000000000E+00 0.  1.
<mgrwt>
<rscale>  0 0.17685194E+04</rscale>
<asrwt>0</asrwt>
<pdfrwt beam="1">  1        1 0.11674490E+00 0.17685194E+04</pdfrwt>
<pdfrwt beam="2">  1       -1 0.15852401E+00 0.17685194E+04</pdfrwt>
<totfact> 0.68230908E+00</totfact>
</mgrwt>
</event>
<event>
12    1  0.1541840E-007  0.1458384E+04  0.7818608E-02  0.8912609E-01
          2   -1    0    0  501    0  0.00000000000E+00  0.00000000000E+00  0.15947475323E+04  0.15947475323E+04  0.00000000000E+00 0. -1.
         -2   -1    0    0    0  501 -0.00000000000E+00 -0.00000000000E+00 -0.33342020161E+03  0.33342020161E+03  0.00000000000E+00 0.  1.
         23    2    1    2    0    0  0.11228334458E+03  0.35151254442E+03  0.35558098503E+03  0.52056073381E+03  0.91526074479E+02 0.  0.
        254    2    1    2    0    0 -0.11228334458E+03 -0.35151254442E+03  0.90574634566E+03  0.14076070001E+04  0.10123301861E+04 0.  0.
        -24    2    4    4    0    0  0.25315729632E+02 -0.21872228732E+03 -0.18448643577E+03  0.29784337365E+03  0.78708990008E+02 0.  0.
         24    2    4    4    0    0 -0.13759907421E+03 -0.13279025710E+03  0.10902327814E+04  0.11097636265E+04  0.80006445321E+02 0.  0.
         13    1    3    3    0    0  0.82006707895E+02  0.29545692337E+03  0.33373536803E+03  0.45320987366E+03  0.00000000000E+00 0. -1.
        -13    1    3    3    0    0  0.30276636688E+02  0.56055621052E+02  0.21845617001E+02  0.67350860149E+02  0.00000000000E+00 0.  1.
          2    1    6    6  502    0 -0.57951430813E+02 -0.22175945958E+02  0.20782243412E+03  0.21688777060E+03  0.00000000000E+00 0. -1.
          3    1    5    5  503    0  0.49233270428E+02 -0.11382013893E+03 -0.11908812575E+03  0.17193289574E+03  0.00000000000E+00 0. -1.
         -4    1    5    5    0  503 -0.23917540797E+02 -0.10490214839E+03 -0.65398310022E+02  0.12591047791E+03  0.00000000000E+00 0.  1.
         -1    1    6    6    0  502 -0.79647643401E+02 -0.11061431114E+03  0.88241034731E+03  0.89287585585E+03  0.00000000000E+00 0.  1.
<mgrwt>
<rscale>  0 0.14583841E+04</rscale>
<asrwt>0</asrwt>
<pdfrwt beam="1">  1        2 0.24534577E+00 0.14583841E+04</pdfrwt>
<pdfrwt beam="2">  1       -2 0.51295417E-01 0.14583841E+04</pdfrwt>
<totfact> 0.39070093E+01</totfact>
</mgrwt>
</event>
<event>
12    1  0.1541840E-007  0.1713706E+04  0.7818608E-02  0.8753586E-01
         -2   -1    0    0    0  501 -0.00000000000E+00  0.00000000000E+00  0.99868711839E+03  0.99868711839E+03  0.00000000000E+00 0.  1.
          2   -1    0    0  501    0  0.00000000000E+00 -0.00000000000E+00 -0.73516244568E+03  0.73516244568E+03  0.00000000000E+00 0. -1.
         23    2    1    2    0    0 -0.36228683018E+03  0.38984381199E+03 -0.21725710776E+03  0.58188904466E+03  0.90356318863E+02 0.  0.
        254    2    1    2    0    0  0.36228683018E+03 -0.38984381199E+03  0.48078178047E+03  0.11519605194E+04  0.90146102122E+03 0.  0.
        -24    2    4    4    0    0  0.39603588659E+03 -0.57508612509E+03  0.86485046170E+02  0.70793770064E+03  0.78279307902E+02 0.  0.
         24    2    4    4    0    0 -0.33749056410E+02  0.18524231310E+03  0.39429673430E+03  0.44402281876E+03  0.78947042602E+02 0.  0.
         11    1    3    3    0    0 -0.12301069818E+02  0.17488076803E+02 -0.31676786364E+02  0.38217377503E+02  0.00000000000E+00 0.  1.
        -11    1    3    3    0    0 -0.34998576036E+03  0.37235573519E+03 -0.18558032140E+03  0.54367166716E+03  0.00000000000E+00 0. -1.
          4    1    6    6  502    0 -0.33961305418E+02  0.21316358426E+02  0.70914887559E+02  0.81465812951E+02  0.00000000000E+00 0. -1.
          1    1    5    5  503    0  0.15327021167E+02 -0.87960040940E+01  0.12342726982E+02  0.21555281841E+02  0.00000000000E+00 0. -1.
         -2    1    5    5    0  503  0.38070886542E+03 -0.56629012099E+03  0.74142319188E+02  0.68638241880E+03  0.00000000000E+00 0.  1.
         -3    1    6    6    0  502  0.21224900806E+00  0.16392595467E+03  0.32338184674E+03  0.36255700581E+03  0.00000000000E+00 0.  1.
<mgrwt>
<rscale>  0 0.17137062E+04</rscale>
<asrwt>0</asrwt>
<pdfrwt beam="1">  1        2 0.11310191E+00 0.17137062E+04</pdfrwt>
<pdfrwt beam="2">  1       -2 0.15364417E+00 0.17137062E+04</pdfrwt>
<totfact> 0.10275461E+01</totfact>
</mgrwt>
</event>
<event>
12    1  0.1541840E-007  0.5183425E+04  0.7818608E-02  0.7800819E-01
         -1   -1    0    0    0  501 -0.00000000000E+00  0.00000000000E+00  0.18195971094E+04  0.18195971094E+04  0.00000000000E+00 0.  1.
          1   -1    0    0  501    0  0.00000000000E+00 -0.00000000000E+00 -0.36914617129E+04  0.36914617129E+04  0.00000000000E+00 0. -1.
         23    2    1    2    0    0 -0.35200288671E+03 -0.13258875594E+04 -0.31466844538E+04  0.34338055481E+04  0.86681244664E+02 0.  0.
        254    2    1    2    0    0  0.35200288671E+03  0.13258875594E+04  0.12748198503E+04  0.20772532741E+04  0.89885018873E+03 0.  0.
        -24    2    4    4    0    0 -0.21701497224E+03  0.87373876490E+03  0.78775275730E+03  0.11989471727E+04  0.80031173485E+02 0.  0.
         24    2    4    4    0    0  0.56901785895E+03  0.45214879453E+03  0.48706709295E+03  0.87830610147E+03  0.77248939390E+02 0.  0.
         11    1    3    3    0    0 -0.28962169860E+03 -0.10425674348E+04 -0.25611109170E+04  0.27803087443E+04  0.00000000000E+00 0. -1.
        -11    1    3    3    0    0 -0.62381188113E+02 -0.28332012457E+03 -0.58557353680E+03  0.65349680383E+03  0.00000000000E+00 0.  1.
          2    1    6    6  502    0  0.19375985711E+02  0.37463457529E+02  0.32719228865E+02  0.53380590197E+02  0.00000000000E+00 0. -1.
          1    1    5    5  503    0 -0.72051815931E+02  0.29078935424E+03  0.31321680706E+03  0.43342205868E+03  0.00000000000E+00 0. -1.
         -2    1    5    5    0  503 -0.14496315631E+03  0.58294941065E+03  0.47453595024E+03  0.76552511398E+03  0.00000000000E+00 0.  1.
         -1    1    6    6    0  502  0.54964187324E+03  0.41468533700E+03  0.45434786408E+03  0.82492551127E+03  0.00000000000E+00 0.  1.
<mgrwt>
<rscale>  0 0.51834248E+04</rscale>
<asrwt>0</asrwt>
<pdfrwt beam="1">  1        1 0.56791718E+00 0.51834248E+04</pdfrwt>
<pdfrwt beam="2">  1       -1 0.27993802E+00 0.51834248E+04</pdfrwt>
<totfact> 0.55479611E-03</totfact>
</mgrwt>
</event>
<event>
12    1  0.1541840E-007  0.1413099E+04  0.7818608E-02  0.8944391E-01
          1   -1    0    0  501    0  0.00000000000E+00  0.00000000000E+00  0.20402670885E+04  0.20402670885E+04  0.00000000000E+00 0. -1.
         -1   -1    0    0    0  501 -0.00000000000E+00 -0.00000000000E+00 -0.24467980811E+03  0.24467980811E+03  0.00000000000E+00 0.  1.
         23    2    1    2    0    0 -0.21534780090E+03  0.37813096782E+02  0.11015170290E+04  0.11265527615E+04  0.89313232556E+02 0.  0.
        254    2    1    2    0    0  0.21534780090E+03 -0.37813096782E+02  0.69407025141E+03  0.11583941352E+04  0.90129848157E+03 0.  0.
        -24    2    4    4    0    0  0.18273917488E+03 -0.44113083665E+03  0.22591038643E+03  0.53460968759E+03  0.82352864471E+02 0.  0.
         24    2    4    4    0    0  0.32608626014E+02  0.40331773987E+03  0.46815986499E+03  0.62378444759E+03  0.78770908912E+02 0.  0.
         11    1    3    3    0    0 -0.14444565357E+03 -0.17171182677E+02  0.73035970660E+03  0.74470443625E+03  0.00000000000E+00 0.  1.
        -11    1    3    3    0    0 -0.70902147325E+02  0.54984279459E+02  0.37115732243E+03  0.38184832522E+03  0.00000000000E+00 0. -1.
          4    1    6    6  502    0  0.15084809479E+02  0.32304955106E+03  0.41415974201E+03  0.52546822532E+03  0.00000000000E+00 0. -1.
          1    1    5    5  503    0  0.87715906327E+02 -0.25646053420E+03  0.86658526214E+02  0.28456244656E+03  0.00000000000E+00 0. -1.
         -2    1    5    5    0  503  0.95023268557E+02 -0.18467030245E+03  0.13925186021E+03  0.25004724103E+03  0.00000000000E+00 0.  1.
         -3    1    6    6    0  502  0.17523816535E+02  0.80268188811E+02  0.54000122973E+02  0.98316222273E+02  0.00000000000E+00 0.  1.
<mgrwt>
<rscale>  0 0.14130989E+04</rscale>
<asrwt>0</asrwt>
<pdfrwt beam="1">  1        1 0.31388723E+00 0.14130989E+04</pdfrwt>
<pdfrwt beam="2">  1       -1 0.37643049E-01 0.14130989E+04</pdfrwt>
<totfact> 0.18564697E+01</totfact>
</mgrwt>
</event>
<event>
12    1  0.1541840E-007  0.2230658E+04  0.7818608E-02  0.8505775E-01
          1   -1    0    0  501    0  0.00000000000E+00  0.00000000000E+00  0.53281610905E+03  0.53281610905E+03  0.00000000000E+00 0. -1.
         -1   -1    0    0    0  501 -0.00000000000E+00 -0.00000000000E+00 -0.23346869883E+04  0.23346869883E+04  0.00000000000E+00 0.  1.
         23    2    1    2    0    0  0.90709940500E+03 -0.20358397573E+03 -0.84547505723E+03  0.12599696256E+04  0.91758483031E+02 0.  0.
        254    2    1    2    0    0 -0.90709940500E+03  0.20358397573E+03 -0.95639582201E+03  0.16075334718E+04  0.89732665669E+03 0.  0.
        -24    2    4    4    0    0  0.99109213276E+02 -0.15520337898E+03 -0.26776167552E+03  0.33404546546E+03  0.77326147656E+02 0.  0.
         24    2    4    4    0    0 -0.10062086183E+04  0.35878735471E+03 -0.68863414649E+03  0.12734880063E+04  0.79815820147E+02 0.  0.
         13    1    3    3    0    0  0.70707272999E+03 -0.18639847971E+03 -0.62674478604E+03  0.96307074795E+03  0.00000000000E+00 0. -1.
        -13    1    3    3    0    0  0.20002667501E+03 -0.17185496020E+02 -0.21873027119E+03  0.29689887761E+03  0.00000000000E+00 0.  1.
          4    1    6    6  502    0 -0.85766764266E+03  0.27509038522E+03 -0.57512618142E+03  0.10686620747E+04  0.00000000000E+00 0. -1.
          1    1    5    5  503    0  0.10838551286E+03 -0.12971151487E+03 -0.24941083389E+03  0.30129430886E+03  0.00000000000E+00 0. -1.
         -2    1    5    5    0  503 -0.92762995857E+01 -0.25491864115E+02 -0.18350841625E+02  0.32751156597E+02  0.00000000000E+00 0.  1.
         -3    1    6    6    0  502 -0.14854097562E+03  0.83696969495E+02 -0.11350796507E+03  0.20482593164E+03  0.00000000000E+00 0.  1.
<mgrwt>
<rscale>  0 0.22306581E+04</rscale>
<asrwt>0</asrwt>
<pdfrwt beam="1">  1        1 0.81971708E-01 0.22306581E+04</pdfrwt>
<pdfrwt beam="2">  1       -1 0.35918262E+00 0.22306581E+04</pdfrwt>
<totfact> 0.49837846E-01</totfact>
</mgrwt>
</event>
<event>
12    1  0.1541840E-007  0.1470863E+04  0.7818608E-02  0.8904063E-01
          1   -1    0    0  501    0  0.00000000000E+00  0.00000000000E+00  0.15650065903E+04  0.15650065903E+04  0.00000000000E+00 0. -1.
         -1   -1    0    0    0  501 -0.00000000000E+00 -0.00000000000E+00 -0.34559587255E+03  0.34559587255E+03  0.00000000000E+00 0.  1.
         23    2    1    2    0    0 -0.17076049243E+02  0.13645421303E+03 -0.17954116930E+03  0.24382798102E+03  0.91135663405E+02 0.  0.
        254    2    1    2    0    0  0.17076049243E+02 -0.13645421303E+03  0.13989518870E+04  0.16667744818E+04  0.89563354519E+03 0.  0.
        -24    2    4    4    0    0 -0.36479450097E+03 -0.57808149992E+02  0.11174421151E+04  0.11793668742E+04  0.76239971071E+02 0.  0.
         24    2    4    4    0    0  0.38187055021E+03 -0.78646063039E+02  0.28150977188E+03  0.48740760757E+03  0.79423572730E+02 0.  0.
         13    1    3    3    0    0  0.23789237076E+02  0.21477627429E+02 -0.75157659596E+01  0.32919644874E+02  0.00000000000E+00 0. -1.
        -13    1    3    3    0    0 -0.40865286320E+02  0.11497658560E+03 -0.17202540334E+03  0.21090833615E+03  0.00000000000E+00 0.  1.
          4    1    6    6  502    0 -0.65277376066E+00 -0.44833098199E+01 -0.25606201595E+01  0.52041287575E+01  0.00000000000E+00 0. -1.
          1    1    5    5  503    0 -0.58064326935E+02  0.39768538283E+01  0.10990926265E+03  0.12436771062E+03  0.00000000000E+00 0. -1.
         -2    1    5    5    0  503 -0.30673017403E+03 -0.61785003820E+02  0.10075328525E+04  0.10549991636E+04  0.00000000000E+00 0.  1.
         -3    1    6    6    0  502  0.38252332397E+03 -0.74162753219E+02  0.28407039204E+03  0.48220347881E+03  0.00000000000E+00 0.  1.
<mgrwt>
<rscale>  0 0.14708634E+04</rscale>
<asrwt>0</asrwt>
<pdfrwt beam="1">  1        1 0.24077024E+00 0.14708634E+04</pdfrwt>
<pdfrwt beam="2">  1       -1 0.53168597E-01 0.14708634E+04</pdfrwt>
<totfact> 0.20402768E+01</totfact>
</mgrwt>
</event>
<event>
12    1  0.1541840E-007  0.1199035E+04  0.7818608E-02  0.9113701E-01
         -2   -1    0    0    0  501 -0.00000000000E+00  0.00000000000E+00  0.16456150327E+03  0.16456150327E+03  0.00000000000E+00 0.  1.
          2   -1    0    0  501    0  0.00000000000E+00 -0.00000000000E+00 -0.21841160186E+04  0.21841160186E+04  0.00000000000E+00 0. -1.
         23    2    1    2    0    0  0.13023224930E+03 -0.29907460134E+02 -0.92962293370E+03  0.94671284976E+03  0.11921210551E+03 0.  0.
        254    2    1    2    0    0 -0.13023224930E+03  0.29907460134E+02 -0.10899315816E+04  0.14019646721E+04  0.87160724771E+03 0.  0.
        -24    2    4    4    0    0  0.76666424286E+02  0.30936102362E+03 -0.97214185119E+03  0.10262420572E+04  0.80814587706E+02 0.  0.
         24    2    4    4    0    0 -0.20689867359E+03 -0.27945356349E+03 -0.11778973040E+03  0.37572261487E+03  0.79948154818E+02 0.  0.
         13    1    3    3    0    0  0.15185718435E+03 -0.14610345471E+02 -0.79752127210E+03  0.81198167842E+03  0.00000000000E+00 0. -1.
        -13    1    3    3    0    0 -0.21624935045E+02 -0.15297114663E+02 -0.13210166160E+03  0.13473117134E+03  0.00000000000E+00 0.  1.
          2    1    6    6  502    0 -0.35287489128E+02 -0.58184699961E+02  0.84346027504E+01  0.68569736196E+02  0.00000000000E+00 0. -1.
          3    1    5    5  503    0  0.56483212189E+02  0.14133182268E+03 -0.35358038862E+03  0.38494691657E+03  0.00000000000E+00 0. -1.
         -4    1    5    5    0  503  0.20183212097E+02  0.16802920095E+03 -0.61856146258E+03  0.64129514064E+03  0.00000000000E+00 0.  1.
         -1    1    6    6    0  502 -0.17161118446E+03 -0.22126886353E+03 -0.12622433315E+03  0.30715287868E+03  0.00000000000E+00 0.  1.
<mgrwt>
<rscale>  0 0.11990353E+04</rscale>
<asrwt>0</asrwt>
<pdfrwt beam="1">  1        2 0.33601786E+00 0.11990353E+04</pdfrwt>
<pdfrwt beam="2">  1       -2 0.25317154E-01 0.11990353E+04</pdfrwt>
<totfact> 0.73141185E+01</totfact>
</mgrwt>
</event>
<event>
12    1  0.1541840E-007  0.1913319E+04  0.7818608E-02  0.8648255E-01
          2   -1    0    0  501    0  0.00000000000E+00  0.00000000000E+00  0.11120019610E+04  0.11120019610E+04  0.00000000000E+00 0. -1.
         -2   -1    0    0    0  501 -0.00000000000E+00 -0.00000000000E+00 -0.82301776070E+03  0.82301776070E+03  0.00000000000E+00 0.  1.
         23    2    1    2    0    0  0.67644391776E+03 -0.23113239726E+03 -0.89142443791E+02  0.72600696555E+03  0.90228486707E+02 0.  0.
        254    2    1    2    0    0 -0.67644391776E+03  0.23113239726E+03  0.37812664409E+03  0.12090127562E+04  0.89873996609E+03 0.  0.
        -24    2    4    4    0    0 -0.20871721515E+03 -0.31855131646E+03 -0.33710313873E+01  0.38863830315E+03  0.77398641533E+02 0.  0.
         24    2    4    4    0    0 -0.46772670261E+03  0.54968371371E+03  0.38149767548E+03  0.82037445300E+03  0.80952537221E+02 0.  0.
         11    1    3    3    0    0  0.60904076335E+03 -0.19283652889E+03 -0.10348870457E+03  0.64716805411E+03  0.00000000000E+00 0.  1.
        -11    1    3    3    0    0  0.67403154411E+02 -0.38295868373E+02  0.14346260776E+02  0.78838911441E+02  0.00000000000E+00 0. -1.
          4    1    6    6  502    0 -0.76247064068E+02  0.52314887585E+02  0.35708122743E+02  0.99123822928E+02  0.00000000000E+00 0. -1.
          1    1    5    5  503    0 -0.23243573790E+02 -0.43523590095E+02 -0.26687052242E+02  0.56096037067E+02  0.00000000000E+00 0. -1.
         -2    1    5    5    0  503 -0.18547364136E+03 -0.27502772636E+03  0.23316020855E+02  0.33254226609E+03  0.00000000000E+00 0.  1.
         -3    1    6    6    0  502 -0.39147963854E+03  0.49736882613E+03  0.34578955274E+03  0.72125063007E+03  0.00000000000E+00 0.  1.
<mgrwt>
<rscale>  0 0.19133190E+04</rscale>
<asrwt>0</asrwt>
<pdfrwt beam="1">  1        2 0.17107723E+00 0.19133190E+04</pdfrwt>
<pdfrwt beam="2">  1       -2 0.12661812E+00 0.19133190E+04</pdfrwt>
<totfact> 0.93028923E+00</totfact>
</mgrwt>
</event>
<event>
12    1  0.1541840E-007  0.1487732E+04  0.7818608E-02  0.8892652E-01
         -2   -1    0    0    0  501 -0.00000000000E+00  0.00000000000E+00  0.91700844853E+03  0.91700844853E+03  0.00000000000E+00 0.  1.
          2   -1    0    0  501    0  0.00000000000E+00 -0.00000000000E+00 -0.60341469425E+03  0.60341469425E+03  0.00000000000E+00 0. -1.
         23    2    1    2    0    0  0.65951512846E+02 -0.36581257359E+03  0.37381467798E+03  0.53500190809E+03  0.91220541234E+02 0.  0.
        254    2    1    2    0    0 -0.65951512846E+02  0.36581257359E+03 -0.60220923704E+02  0.98542123469E+03  0.91063714458E+03 0.  0.
        -24    2    4    4    0    0  0.11101020851E+03 -0.96109451943E+02  0.31551915680E+03  0.35891564041E+03  0.87794108443E+02 0.  0.
         24    2    4    4    0    0 -0.17696172136E+03  0.46192202553E+03 -0.37574008050E+03  0.62650559429E+03  0.81493822349E+02 0.  0.
         11    1    3    3    0    0  0.31608772354E+02 -0.13578564567E+03  0.20374295485E+03  0.24687658396E+03  0.00000000000E+00 0. -1.
        -11    1    3    3    0    0  0.34342740491E+02 -0.23002692792E+03  0.17007172313E+03  0.28812532412E+03  0.00000000000E+00 0.  1.
          2    1    6    6  502    0 -0.18415021426E+03  0.43923835049E+03 -0.34748508270E+03  0.58956552871E+03  0.00000000000E+00 0. -1.
          3    1    5    5  503    0 -0.91924076984E+01 -0.14174178629E+02  0.82529295066E+02  0.84240680453E+02  0.00000000000E+00 0. -1.
         -4    1    5    5    0  503  0.12020261621E+03 -0.81935273314E+02  0.23298986173E+03  0.27467495995E+03  0.00000000000E+00 0.  1.
         -1    1    6    6    0  502  0.71884929014E+01  0.22683675045E+02 -0.28254997801E+02  0.36940065572E+02  0.00000000000E+00 0.  1.
<mgrwt>
<rscale>  0 0.14877317E+04</rscale>
<asrwt>0</asrwt>
<pdfrwt beam="1">  1        2 0.92833030E-01 0.14877317E+04</pdfrwt>
<pdfrwt beam="2">  1       -2 0.14107822E+00 0.14877317E+04</pdfrwt>
<totfact> 0.16759950E+01</totfact>
</mgrwt>
</event>
<event>
12    1  0.1541840E-007  0.1283574E+04  0.7818608E-02  0.9042693E-01
         -1   -1    0    0    0  501 -0.00000000000E+00  0.00000000000E+00  0.25714936214E+03  0.25714936214E+03  0.00000000000E+00 0.  1.
          1   -1    0    0  501    0  0.00000000000E+00 -0.00000000000E+00 -0.16017567388E+04  0.16017567388E+04  0.00000000000E+00 0. -1.
         23    2    1    2    0    0  0.88312806556E+02  0.12785921739E+03  0.73927415858E+02  0.19476635257E+03  0.91222464347E+02 0.  0.
        254    2    1    2    0    0 -0.88312806556E+02 -0.12785921739E+03 -0.14185347925E+04  0.16641397484E+04  0.85613843113E+03 0.  0.
        -24    2    4    4    0    0 -0.35420046683E+02 -0.19086009262E+03 -0.15053785422E+04  0.15198888291E+04  0.78837446384E+02 0.  0.
         24    2    4    4    0    0 -0.52892759873E+02  0.63000875221E+02  0.86843749698E+02  0.14425091922E+03  0.80620943367E+02 0.  0.
         13    1    3    3    0    0 -0.57212437787E+01  0.68999776665E+02  0.29745840323E+02  0.75355934251E+02  0.00000000000E+00 0. -1.
        -13    1    3    3    0    0  0.94034050335E+02  0.58859440729E+02  0.44181575535E+02  0.11941041831E+03  0.00000000000E+00 0.  1.
          2    1    6    6  502    0 -0.22883156769E+02  0.61887599991E+02  0.16869632168E+02  0.68105054041E+02  0.00000000000E+00 0. -1.
          3    1    5    5  503    0  0.20023746398E+01 -0.11694538089E+03 -0.64398916237E+03  0.65452446315E+03  0.00000000000E+00 0. -1.
         -4    1    5    5    0  503 -0.37422421322E+02 -0.73914711725E+02 -0.86138937983E+03  0.86536436598E+03  0.00000000000E+00 0.  1.
         -1    1    6    6    0  502 -0.30009603104E+02  0.11132752297E+01  0.69974117530E+02  0.76145865182E+02  0.00000000000E+00 0.  1.
<mgrwt>
<rscale>  0 0.12835743E+04</rscale>
<asrwt>0</asrwt>
<pdfrwt beam="1">  1        1 0.24642411E+00 0.12835743E+04</pdfrwt>
<pdfrwt beam="2">  1       -1 0.39561441E-01 0.12835743E+04</pdfrwt>
<totfact> 0.34021850E+01</totfact>
</mgrwt>
</event>
<event>
12    1  0.1541840E-007  0.1362405E+04  0.7818608E-02  0.8981490E-01
         -1   -1    0    0    0  501 -0.00000000000E+00  0.00000000000E+00  0.80455277885E+03  0.80455277885E+03  0.00000000000E+00 0.  1.
          1   -1    0    0  501    0  0.00000000000E+00 -0.00000000000E+00 -0.57676374061E+03  0.57676374061E+03  0.00000000000E+00 0. -1.
         23    2    1    2    0    0  0.16004321843E+03 -0.68874333853E+02 -0.27062764971E+03  0.33499877852E+03  0.92883535625E+02 0.  0.
        254    2    1    2    0    0 -0.16004321843E+03  0.68874333853E+02  0.49841668795E+03  0.10463177409E+04  0.90332946069E+03 0.  0.
        -24    2    4    4    0    0 -0.24164094798E+03 -0.34266999554E+03  0.53884651708E+02  0.42997542012E+03  0.78499889371E+02 0.  0.
         24    2    4    4    0    0  0.81597729552E+02  0.41154432939E+03  0.44453203624E+03  0.61634232082E+03  0.79007598845E+02 0.  0.
         13    1    3    3    0    0  0.13531769988E+03 -0.12507648289E+02 -0.18639861337E+03  0.23067675269E+03  0.00000000000E+00 0. -1.
        -13    1    3    3    0    0  0.24725518549E+02 -0.56366685563E+02 -0.84229036340E+02  0.10432202582E+03  0.00000000000E+00 0.  1.
          4    1    6    6  502    0  0.35454237664E+02  0.30795571230E+03  0.28861576756E+03  0.42354785443E+03  0.00000000000E+00 0. -1.
          3    1    5    5  503    0 -0.92073909810E+02 -0.17997353683E+03  0.52937048019E+02  0.20897466325E+03  0.00000000000E+00 0. -1.
         -4    1    5    5    0  503 -0.14956703817E+03 -0.16269645871E+03  0.94760368906E+00  0.22100075687E+03  0.00000000000E+00 0.  1.
         -3    1    6    6    0  502  0.46143491889E+02  0.10358861709E+03  0.15591626868E+03  0.19279446640E+03  0.00000000000E+00 0.  1.
<mgrwt>
<rscale>  0 0.13624050E+04</rscale>
<asrwt>0</asrwt>
<pdfrwt beam="1">  1        1 0.88732883E-01 0.13624050E+04</pdfrwt>
<pdfrwt beam="2">  1       -1 0.12377735E+00 0.13624050E+04</pdfrwt>
<totfact> 0.20338095E+01</totfact>
</mgrwt>
</event>
<event>
12    1  0.1541840E-007  0.1447820E+04  0.7818608E-02  0.8919913E-01
          1   -1    0    0  501    0  0.00000000000E+00  0.00000000000E+00  0.17564160033E+04  0.17564160033E+04  0.00000000000E+00 0. -1.
         -1   -1    0    0    0  501 -0.00000000000E+00 -0.00000000000E+00 -0.29836079320E+03  0.29836079320E+03  0.00000000000E+00 0.  1.
         23    2    1    2    0    0 -0.30658128368E+03  0.28270763069E+03  0.27367257315E+03  0.50731168734E+03  0.92481256799E+02 0.  0.
        254    2    1    2    0    0  0.30658128368E+03 -0.28270763069E+03  0.11843826370E+04  0.15474651092E+04  0.90441713023E+03 0.  0.
        -24    2    4    4    0    0 -0.12415707154E+03 -0.32721691667E+03  0.95786027808E+02  0.37314063524E+03  0.87023454158E+02 0.  0.
         24    2    4    4    0    0  0.43073835522E+03  0.44509285977E+02  0.10885966092E+04  0.11743244740E+04  0.80490902880E+02 0.  0.
         11    1    3    3    0    0 -0.18578781245E+03  0.21684165712E+03  0.15117196474E+03  0.32309499910E+03  0.00000000000E+00 0.  1.
        -11    1    3    3    0    0 -0.12079347123E+03  0.65865973577E+02  0.12250060840E+03  0.18421668824E+03  0.00000000000E+00 0. -1.
          4    1    6    6  502    0  0.13715806658E+03  0.49671496405E+02  0.32582943390E+03  0.35699357526E+03  0.00000000000E+00 0. -1.
          1    1    5    5  503    0 -0.79993415657E+02 -0.17803367623E+03  0.96105403690E+02  0.21755731438E+03  0.00000000000E+00 0. -1.
         -2    1    5    5    0  503 -0.44163655882E+02 -0.14918324044E+03 -0.31937588211E+00  0.15558332086E+03  0.00000000000E+00 0.  1.
         -3    1    6    6    0  502  0.29358028864E+03 -0.51622104278E+01  0.76276717527E+03  0.81733089870E+03  0.00000000000E+00 0.  1.
<mgrwt>
<rscale>  0 0.14478200E+04</rscale>
<asrwt>0</asrwt>
<pdfrwt beam="1">  1        1 0.27021784E+00 0.14478200E+04</pdfrwt>
<pdfrwt beam="2">  1       -1 0.45901662E-01 0.14478200E+04</pdfrwt>
<totfact> 0.19998183E+01</totfact>
</mgrwt>
</event>
<event>
12    1  0.1541840E-007  0.1788420E+04  0.7818608E-02  0.8712482E-01
         -2   -1    0    0    0  501 -0.00000000000E+00  0.00000000000E+00  0.77410916948E+03  0.77410916948E+03  0.00000000000E+00 0.  1.
          2   -1    0    0  501    0  0.00000000000E+00 -0.00000000000E+00 -0.10329446977E+04  0.10329446977E+04  0.00000000000E+00 0. -1.
         23    2    1    2    0    0  0.15236687475E+03  0.50308782032E+03 -0.51316832838E+03  0.74003946639E+03  0.89463171661E+02 0.  0.
        254    2    1    2    0    0 -0.15236687475E+03 -0.50308782032E+03  0.25433280022E+03  0.10670144007E+04  0.89304061422E+03 0.  0.
        -24    2    4    4    0    0  0.29392723393E+03 -0.40725834882E+03 -0.54366315124E+02  0.51150026903E+03  0.80151403426E+02 0.  0.
         24    2    4    4    0    0 -0.44629410868E+03 -0.95829471508E+02  0.30869911534E+03  0.55551413171E+03  0.70278642988E+02 0.  0.
         11    1    3    3    0    0  0.14470833688E+03  0.37182395511E+03 -0.41703011814E+03  0.57715481094E+03  0.00000000000E+00 0. -1.
        -11    1    3    3    0    0  0.76585378757E+01  0.13126386522E+03 -0.96138210248E+02  0.16288465546E+03  0.00000000000E+00 0.  1.
          4    1    6    6  502    0 -0.37726376054E+03 -0.54370981344E+02  0.26034116334E+03  0.46158603744E+03  0.00000000000E+00 0. -1.
          1    1    5    5  503    0  0.19319024361E+03 -0.32665830108E+03 -0.36630761859E+02  0.38127408593E+03  0.00000000000E+00 0. -1.
         -2    1    5    5    0  503  0.10073699032E+03 -0.80600047737E+02 -0.17735553265E+02  0.13022618310E+03  0.00000000000E+00 0.  1.
         -3    1    6    6    0  502 -0.69030348145E+02 -0.41458490164E+02  0.48357952006E+02  0.93928094274E+02  0.00000000000E+00 0.  1.
<mgrwt>
<rscale>  0 0.17884205E+04</rscale>
<asrwt>0</asrwt>
<pdfrwt beam="1">  1        2 0.15891457E+00 0.17884205E+04</pdfrwt>
<pdfrwt beam="2">  1       -2 0.11909372E+00 0.17884205E+04</pdfrwt>
<totfact> 0.12270846E+01</totfact>
</mgrwt>
</event>
<event>
12    1  0.1541840E-007  0.2039476E+04  0.7818608E-02  0.8588384E-01
         -2   -1    0    0    0  501 -0.00000000000E+00  0.00000000000E+00  0.23126094768E+04  0.23126094768E+04  0.00000000000E+00 0.  1.
          2   -1    0    0  501    0  0.00000000000E+00 -0.00000000000E+00 -0.44965023464E+03  0.44965023464E+03  0.00000000000E+00 0. -1.
         23    2    1    2    0    0 -0.31496989850E+03 -0.38514416414E+02  0.17733514435E+04  0.18033608859E+04  0.81521441111E+02 0.  0.
        254    2    1    2    0    0  0.31496989850E+03  0.38514416414E+02  0.89607798713E+02  0.95889882559E+03  0.90042656719E+03 0.  0.
        -24    2    4    4    0    0 -0.92727818454E+02  0.18591658954E+03 -0.29788798309E+03  0.37197497152E+03  0.80403373005E+02 0.  0.
         24    2    4    4    0    0  0.40769771695E+03 -0.14740217312E+03  0.38749578180E+03  0.58692385407E+03  0.79886172238E+02 0.  0.
         11    1    3    3    0    0 -0.26924391904E+03 -0.58711014444E+02  0.15666005646E+04  0.15906528849E+04  0.00000000000E+00 0.  1.
        -11    1    3    3    0    0 -0.45725979463E+02  0.20196598030E+02  0.20675087889E+03  0.21270800101E+03  0.00000000000E+00 0. -1.
          2    1    6    6  502    0  0.34801732957E+01  0.45714118954E+01  0.16947907134E+02  0.17895277844E+02  0.00000000000E+00 0. -1.
          1    1    5    5  503    0 -0.11917265200E+01  0.12918088256E+02  0.27300238022E+01  0.13257082871E+02  0.00000000000E+00 0. -1.
         -4    1    5    5    0  503 -0.91536091934E+02  0.17299850128E+03 -0.30061800689E+03  0.35871788865E+03  0.00000000000E+00 0.  1.
         -1    1    6    6    0  502  0.40421754366E+03 -0.15197358502E+03  0.37054787467E+03  0.56902857623E+03  0.00000000000E+00 0.  1.
<mgrwt>
<rscale>  0 0.20394758E+04</rscale>
<asrwt>0</asrwt>
<pdfrwt beam="1">  1        2 0.69176960E-01 0.20394758E+04</pdfrwt>
<pdfrwt beam="2">  1       -2 0.35578607E+00 0.20394758E+04</pdfrwt>
<totfact> 0.92407621E-01</totfact>
</mgrwt>
</event>
<event>
12    1  0.1541840E-007  0.1772377E+04  0.7818608E-02  0.8721129E-01
          1   -1    0    0  501    0  0.00000000000E+00  0.00000000000E+00  0.79825405123E+03  0.79825405123E+03  0.00000000000E+00 0. -1.
         -1   -1    0    0    0  501 -0.00000000000E+00 -0.00000000000E+00 -0.98380918896E+03  0.98380918896E+03  0.00000000000E+00 0.  1.
         23    2    1    2    0    0 -0.94353095264E+02  0.55293631528E+03  0.19416997496E+03  0.59982988904E+03  0.86329839949E+02 0.  0.
        254    2    1    2    0    0  0.94353095264E+02 -0.55293631528E+03 -0.37972511269E+03  0.11822333511E+04  0.96893934795E+03 0.  0.
        -24    2    4    4    0    0  0.47881751769E+03 -0.23516228561E+03 -0.40972603956E+03  0.67742848060E+03  0.80413947890E+02 0.  0.
         24    2    4    4    0    0 -0.38446442243E+03 -0.31777402967E+03  0.30000926871E+02  0.50480487055E+03  0.71656651257E+02 0.  0.
         11    1    3    3    0    0 -0.10742947981E+03  0.50366937028E+03  0.16344476688E+03  0.54031298292E+03  0.00000000000E+00 0. -1.
        -11    1    3    3    0    0  0.13076384547E+02  0.49266945002E+02  0.30725208075E+02  0.59516906118E+02  0.00000000000E+00 0.  1.
          2    1    6    6  502    0 -0.88986143927E+02 -0.98162086611E+02 -0.17330998892E+02  0.13362145255E+03  0.00000000000E+00 0. -1.
          1    1    5    5  503    0  0.13603608056E+03 -0.84602685776E+02 -0.82507596883E+02  0.18019692893E+03  0.00000000000E+00 0. -1.
         -2    1    5    5    0  503  0.34278143713E+03 -0.15055959984E+03 -0.32721844268E+03  0.49723155167E+03  0.00000000000E+00 0.  1.
         -1    1    6    6    0  502 -0.29547827850E+03 -0.21961194306E+03  0.47331925763E+02  0.37118341800E+03  0.00000000000E+00 0.  1.
<mgrwt>
<rscale>  0 0.17723766E+04</rscale>
<asrwt>0</asrwt>
<pdfrwt beam="1">  1        1 0.12280832E+00 0.17723766E+04</pdfrwt>
<pdfrwt beam="2">  1       -1 0.15135526E+00 0.17723766E+04</pdfrwt>
<totfact> 0.71462951E+00</totfact>
</mgrwt>
</event>
<event>
12    1  0.1541840E-007  0.1829214E+04  0.7818608E-02  0.8690916E-01
          1   -1    0    0  501    0  0.00000000000E+00  0.00000000000E+00  0.99604010651E+03  0.99604010651E+03  0.00000000000E+00 0. -1.
         -1   -1    0    0    0  501 -0.00000000000E+00 -0.00000000000E+00 -0.83983200460E+03  0.83983200460E+03  0.00000000000E+00 0.  1.
         23    2    1    2    0    0  0.23473747634E+03 -0.54615096393E+03  0.40908617070E+03  0.72732651476E+03  0.90938472645E+02 0.  0.
        254    2    1    2    0    0 -0.23473747634E+03  0.54615096393E+03 -0.25287806880E+03  0.11085455963E+04  0.90085707151E+03 0.  0.
        -24    2    4    4    0    0 -0.63039078509E+02 -0.16318277016E+03  0.17379157343E+03  0.25959920550E+03  0.81152292643E+02 0.  0.
         24    2    4    4    0    0 -0.17169839784E+03  0.70933373410E+03 -0.42666964223E+03  0.84894639085E+03  0.77642158542E+02 0.  0.
         13    1    3    3    0    0  0.28351512553E+01 -0.62875659224E+02  0.64313901686E+02  0.89987024373E+02  0.00000000000E+00 0.  1.
        -13    1    3    3    0    0  0.23190232509E+03 -0.48327530471E+03  0.34477226902E+03  0.63733949039E+03  0.00000000000E+00 0. -1.
          2    1    6    6  502    0 -0.13247625679E+03  0.47052697669E+03 -0.24801273136E+03  0.54813858587E+03  0.00000000000E+00 0. -1.
          1    1    5    5  503    0 -0.26476209655E+02 -0.14232176988E+02  0.64836210549E+02  0.71465227474E+02  0.00000000000E+00 0. -1.
         -2    1    5    5    0  503 -0.36562868853E+02 -0.14895059317E+03  0.10895536289E+03  0.18813397802E+03  0.00000000000E+00 0.  1.
         -1    1    6    6    0  502 -0.39222141049E+02  0.23880675741E+03 -0.17865691087E+03  0.30080780497E+03  0.00000000000E+00 0.  1.
<mgrwt>
<rscale>  0 0.18292144E+04</rscale>
<asrwt>0</asrwt>
<pdfrwt beam="1">  1        1 0.15323694E+00 0.18292144E+04</pdfrwt>
<pdfrwt beam="2">  1       -1 0.12920492E+00 0.18292144E+04</pdfrwt>
<totfact> 0.73893918E+00</totfact>
</mgrwt>
</event>
<event>
12    1  0.1541840E-007  0.1268055E+04  0.7818608E-02  0.9055288E-01
          2   -1    0    0  501    0  0.00000000000E+00  0.00000000000E+00  0.13541027466E+04  0.13541027466E+04  0.00000000000E+00 0. -1.
         -2   -1    0    0    0  501 -0.00000000000E+00 -0.00000000000E+00 -0.29686896220E+03  0.29686896220E+03  0.00000000000E+00 0.  1.
         23    2    1    2    0    0 -0.21856884972E+01  0.13690349815E+03  0.65037080334E+03  0.67089745614E+03  0.91508850800E+02 0.  0.
        254    2    1    2    0    0  0.21856884972E+01 -0.13690349815E+03  0.40686298105E+03  0.98007425266E+03  0.88105658748E+03 0.  0.
        -24    2    4    4    0    0 -0.24006236246E+03  0.33707058364E+02 -0.18388265407E+03  0.31437720097E+03  0.79082807039E+02 0.  0.
         24    2    4    4    0    0  0.24224805096E+03 -0.17061055651E+03  0.59074563512E+03  0.66569705169E+03  0.79875396879E+02 0.  0.
         13    1    3    3    0    0  0.43411461008E+02  0.51094748566E+02  0.24103764981E+03  0.25018868261E+03  0.00000000000E+00 0.  1.
        -13    1    3    3    0    0 -0.45597149505E+02  0.85808749584E+02  0.40933315353E+03  0.42070877353E+03  0.00000000000E+00 0. -1.
          2    1    6    6  502    0  0.12564908491E+03 -0.84591851565E+02  0.21514627202E+03  0.26311858972E+03  0.00000000000E+00 0. -1.
          1    1    5    5  503    0 -0.52560188899E+02 -0.25422943486E+02 -0.42193618584E+02  0.72036108735E+02  0.00000000000E+00 0. -1.
         -2    1    5    5    0  503 -0.18750217357E+03  0.59130001850E+02 -0.14168903548E+03  0.24234109224E+03  0.00000000000E+00 0.  1.
         -3    1    6    6    0  502  0.11659896606E+03 -0.86018704949E+02  0.37559936310E+03  0.40257846197E+03  0.00000000000E+00 0.  1.
<mgrwt>
<rscale>  0 0.12680553E+04</rscale>
<asrwt>0</asrwt>
<pdfrwt beam="1">  1        2 0.20832350E+00 0.12680553E+04</pdfrwt>
<pdfrwt beam="2">  1       -2 0.45672149E-01 0.12680553E+04</pdfrwt>
<totfact> 0.68642004E+01</totfact>
</mgrwt>
</event>
<event>
12    1  0.1541840E-007  0.1722517E+04  0.7818608E-02  0.8748625E-01
          2   -1    0    0  501    0  0.00000000000E+00  0.00000000000E+00  0.22578831993E+04  0.22578831993E+04  0.00000000000E+00 0. -1.
         -2   -1    0    0    0  501 -0.00000000000E+00 -0.00000000000E+00 -0.32852300355E+03  0.32852300355E+03  0.00000000000E+00 0.  1.
         23    2    1    2    0    0 -0.43855790408E+02  0.33670356822E+03 -0.76891944009E+02  0.36115595061E+03  0.96065740022E+02 0.  0.
        254    2    1    2    0    0  0.43855790408E+02 -0.33670356822E+03  0.20062521398E+04  0.22252502523E+04  0.90077656142E+03 0.  0.
        -24    2    4    4    0    0 -0.38297475115E+03 -0.34807089506E+03  0.10065541608E+04  0.11351341787E+04  0.86921326387E+02 0.  0.
         24    2    4    4    0    0  0.42683054156E+03  0.11367326837E+02  0.99969797899E+03  0.10901160736E+04  0.81507529539E+02 0.  0.
         11    1    3    3    0    0 -0.26608136341E+02  0.23040272644E+03 -0.97354924752E+02  0.25153805009E+03  0.00000000000E+00 0.  1.
        -11    1    3    3    0    0 -0.17247654067E+02  0.10630084178E+03  0.20462980743E+02  0.10961790053E+03  0.00000000000E+00 0. -1.
          2    1    6    6  502    0  0.31640261408E+02 -0.11007501270E+02  0.13554324774E+03  0.13962178639E+03  0.00000000000E+00 0. -1.
          1    1    5    5  503    0 -0.10621949369E+03 -0.15137059267E+03  0.37368160766E+03  0.41693354514E+03  0.00000000000E+00 0. -1.
         -2    1    5    5    0  503 -0.27675525746E+03 -0.19670030239E+03  0.63287255316E+03  0.71820063355E+03  0.00000000000E+00 0.  1.
         -1    1    6    6    0  502  0.39519028015E+03  0.22374828107E+02  0.86415473124E+03  0.95049428719E+03  0.00000000000E+00 0.  1.
<mgrwt>
<rscale>  0 0.17225174E+04</rscale>
<asrwt>0</asrwt>
<pdfrwt beam="1">  1        2 0.34736664E+00 0.17225174E+04</pdfrwt>
<pdfrwt beam="2">  1       -2 0.50542002E-01 0.17225174E+04</pdfrwt>
<totfact> 0.16851904E+01</totfact>
</mgrwt>
</event>
<event>
12    1  0.1541840E-007  0.2424632E+04  0.7818608E-02  0.8430339E-01
          2   -1    0    0  501    0  0.00000000000E+00  0.00000000000E+00  0.22942273617E+04  0.22942273617E+04  0.00000000000E+00 0. -1.
         -2   -1    0    0    0  501 -0.00000000000E+00 -0.00000000000E+00 -0.64061209880E+03  0.64061209880E+03  0.00000000000E+00 0.  1.
         23    2    1    2    0    0 -0.18855076337E+03  0.71200638848E+03  0.16303960673E+04  0.17915471485E+04  0.94579920690E+02 0.  0.
        254    2    1    2    0    0  0.18855076337E+03 -0.71200638848E+03  0.23219195592E+02  0.11432923120E+04  0.87411308882E+03 0.  0.
        -24    2    4    4    0    0  0.44907432305E+03 -0.11643975336E+03  0.10738793093E+03  0.48289037965E+03  0.80156018296E+02 0.  0.
         24    2    4    4    0    0 -0.26052355968E+03 -0.59556663512E+03 -0.84168735342E+02  0.66040193235E+03  0.80462377723E+02 0.  0.
         13    1    3    3    0    0 -0.77283761301E+02  0.22367662344E+03  0.42922534234E+03  0.49014121041E+03  0.00000000000E+00 0.  1.
        -13    1    3    3    0    0 -0.11126700207E+03  0.48832976503E+03  0.12011707250E+04  0.13014059381E+04  0.00000000000E+00 0. -1.
          4    1    6    6  502    0 -0.61574789171E+01 -0.75277367812E+02 -0.28671515264E+01  0.75583180729E+02  0.00000000000E+00 0. -1.
          3    1    5    5  503    0  0.43712700565E+02  0.12426625922E+02  0.10045451944E+02  0.46541726732E+02  0.00000000000E+00 0. -1.
         -2    1    5    5    0  503  0.40536162248E+03 -0.12886637928E+03  0.97342478989E+02  0.43634865292E+03  0.00000000000E+00 0.  1.
         -3    1    6    6    0  502 -0.25436608076E+03 -0.52028926731E+03 -0.81301583815E+02  0.58481875162E+03  0.00000000000E+00 0.  1.
<mgrwt>
<rscale>  0 0.24246318E+04</rscale>
<asrwt>0</asrwt>
<pdfrwt beam="1">  1        2 0.35295805E+00 0.24246318E+04</pdfrwt>
<pdfrwt beam="2">  1       -2 0.98555709E-01 0.24246318E+04</pdfrwt>
<totfact> 0.35041054E+00</totfact>
</mgrwt>
</event>
<event>
12    1  0.1541840E-007  0.2473703E+04  0.7818608E-02  0.8412414E-01
         -2   -1    0    0    0  501 -0.00000000000E+00  0.00000000000E+00  0.10537255746E+04  0.10537255746E+04  0.00000000000E+00 0.  1.
          2   -1    0    0  501    0  0.00000000000E+00 -0.00000000000E+00 -0.14518031553E+04  0.14518031553E+04  0.00000000000E+00 0. -1.
         23    2    1    2    0    0 -0.87485817561E+03 -0.56842891497E+03  0.79139789826E+02  0.10504406386E+04  0.93135225161E+02 0.  0.
        254    2    1    2    0    0  0.87485817561E+03  0.56842891497E+03 -0.47721737052E+03  0.14550880913E+04  0.89501769585E+03 0.  0.
        -24    2    4    4    0    0  0.79194206086E+03  0.77467988089E+03 -0.27535895325E+03  0.11443568024E+04  0.80179751151E+02 0.  0.
         24    2    4    4    0    0  0.82916114743E+02 -0.20625096592E+03 -0.20185841727E+03  0.31073128887E+03  0.79953550476E+02 0.  0.
         11    1    3    3    0    0 -0.81653823950E+03 -0.51890183681E+03  0.50638104044E+02  0.96879204704E+03  0.00000000000E+00 0.  1.
        -11    1    3    3    0    0 -0.58319936104E+02 -0.49527078161E+02  0.28501685783E+02  0.81648591603E+02  0.00000000000E+00 0. -1.
          2    1    6    6  502    0  0.75498755008E+02 -0.17849549837E+03 -0.20466378413E+03  0.28186516187E+03  0.00000000000E+00 0. -1.
          1    1    5    5  503    0  0.62759084402E+03  0.58781791485E+03 -0.24191049289E+03  0.89326415751E+03  0.00000000000E+00 0. -1.
         -2    1    5    5    0  503  0.16435121684E+03  0.18686196604E+03 -0.33448460366E+02  0.25109264492E+03  0.00000000000E+00 0.  1.
         -1    1    6    6    0  502  0.74173597354E+01 -0.27755467550E+02  0.28053668604E+01  0.28866126993E+02  0.00000000000E+00 0.  1.
<mgrwt>
<rscale>  0 0.24737034E+04</rscale>
<asrwt>0</asrwt>
<pdfrwt beam="1">  1        2 0.22335433E+00 0.24737034E+04</pdfrwt>
<pdfrwt beam="2">  1       -2 0.16211163E+00 0.24737034E+04</pdfrwt>
<totfact> 0.29368652E+00</totfact>
</mgrwt>
</event>
<event>
12    1  0.1541840E-007  0.1142514E+04  0.7818608E-02  0.9164717E-01
         -2   -1    0    0    0  501 -0.00000000000E+00  0.00000000000E+00  0.82382400561E+03  0.82382400561E+03  0.00000000000E+00 0.  1.
          2   -1    0    0  501    0  0.00000000000E+00 -0.00000000000E+00 -0.39612182263E+03  0.39612182263E+03  0.00000000000E+00 0. -1.
         23    2    1    2    0    0  0.11066634027E+03  0.58268742515E+02  0.23997037735E+03  0.28543335521E+03  0.90797208330E+02 0.  0.
        254    2    1    2    0    0 -0.11066634027E+03 -0.58268742515E+02  0.18773180563E+03  0.93451247303E+03  0.90687818707E+03 0.  0.
        -24    2    4    4    0    0 -0.23958075534E+03  0.16479729874E+03  0.46092647505E+03  0.55068023717E+03  0.78983670499E+02 0.  0.
         24    2    4    4    0    0  0.12891441507E+03 -0.22306604126E+03 -0.27319466942E+03  0.38383223586E+03  0.79463656528E+02 0.  0.
         13    1    3    3    0    0  0.34574238886E+02 -0.11483483063E+02  0.18001174059E+02  0.40636075663E+02  0.00000000000E+00 0. -1.
        -13    1    3    3    0    0  0.76092101384E+02  0.69752225579E+02  0.22196920329E+03  0.24479727955E+03  0.00000000000E+00 0.  1.
          2    1    6    6  502    0  0.49882312356E+02 -0.23899931481E+02 -0.53824576875E+02  0.77178603813E+02  0.00000000000E+00 0. -1.
          1    1    5    5  503    0 -0.44151226916E+02  0.42094321813E+02  0.16160875520E+03  0.17273868277E+03  0.00000000000E+00 0. -1.
         -2    1    5    5    0  503 -0.19542952842E+03  0.12270297693E+03  0.29931771985E+03  0.37794155440E+03  0.00000000000E+00 0.  1.
         -3    1    6    6    0  502  0.79032102714E+02 -0.19916610978E+03 -0.21937009255E+03  0.30665363205E+03  0.00000000000E+00 0.  1.
<mgrwt>
<rscale>  0 0.11425142E+04</rscale>
<asrwt>0</asrwt>
<pdfrwt beam="1">  1        2 0.60941819E-01 0.11425142E+04</pdfrwt>
<pdfrwt beam="2">  1       -2 0.12674215E+00 0.11425142E+04</pdfrwt>
<totfact> 0.36849266E+01</totfact>
</mgrwt>
</event>
<event>
12    1  0.1541840E-007  0.1193167E+04  0.7818608E-02  0.9118859E-01
          1   -1    0    0  501    0  0.00000000000E+00  0.00000000000E+00  0.48940301573E+03  0.48940301573E+03  0.00000000000E+00 0. -1.
         -1   -1    0    0    0  501 -0.00000000000E+00 -0.00000000000E+00 -0.72723619337E+03  0.72723619337E+03  0.00000000000E+00 0.  1.
         23    2    1    2    0    0 -0.59740365060E+02 -0.23325181521E+02 -0.30837474844E+03  0.32812214463E+03  0.91957495681E+02 0.  0.
        254    2    1    2    0    0  0.59740365060E+02  0.23325181521E+02  0.70541570793E+02  0.88851706447E+03  0.88338750576E+03 0.  0.
        -24    2    4    4    0    0 -0.18591861087E+03  0.20037769642E+03  0.36224121752E+03  0.46067579646E+03  0.79287695688E+02 0.  0.
         24    2    4    4    0    0  0.24565897593E+03 -0.17705251490E+03 -0.29169964672E+03  0.42784126801E+03  0.79142537414E+02 0.  0.
         11    1    3    3    0    0 -0.60464981006E+02 -0.25333076705E+02 -0.31469509224E+03  0.32145105348E+03  0.00000000000E+00 0.  1.
        -11    1    3    3    0    0  0.72461594568E+00  0.20078951834E+01  0.63203438029E+01  0.66710911493E+01  0.00000000000E+00 0. -1.
          2    1    6    6  502    0  0.22365604108E+03 -0.14921991537E+03 -0.28486442964E+03  0.39170952392E+03  0.00000000000E+00 0. -1.
          1    1    5    5  503    0 -0.12382913687E+03  0.10467882281E+03  0.26552379381E+03  0.31111765646E+03  0.00000000000E+00 0. -1.
         -2    1    5    5    0  503 -0.62089473998E+02  0.95698873609E+02  0.96717423703E+02  0.14955814000E+03  0.00000000000E+00 0.  1.
         -1    1    6    6    0  502  0.22002934846E+02 -0.27832599529E+02 -0.68352170817E+01  0.36131744090E+02  0.00000000000E+00 0.  1.
<mgrwt>
<rscale>  0 0.11931665E+04</rscale>
<asrwt>0</asrwt>
<pdfrwt beam="1">  1        1 0.75292772E-01 0.11931665E+04</pdfrwt>
<pdfrwt beam="2">  1       -1 0.11188249E+00 0.11931665E+04</pdfrwt>
<totfact> 0.33153420E+01</totfact>
</mgrwt>
</event>
<event>
12    1  0.1541840E-007  0.2474008E+04  0.7818608E-02  0.8412304E-01
         -1   -1    0    0    0  501 -0.00000000000E+00  0.00000000000E+00  0.78021749696E+03  0.78021749696E+03  0.00000000000E+00 0.  1.
          1   -1    0    0  501    0  0.00000000000E+00 -0.00000000000E+00 -0.19612205427E+04  0.19612205427E+04  0.00000000000E+00 0. -1.
         23    2    1    2    0    0 -0.57920594702E+03 -0.89958621308E+03 -0.53438207499E+03  0.11994021672E+04  0.90920144491E+02 0.  0.
        254    2    1    2    0    0  0.57920594702E+03  0.89958621308E+03 -0.64662097073E+03  0.15420358725E+04  0.90278517288E+03 0.  0.
        -24    2    4    4    0    0  0.48807581120E+03  0.60490641338E+02 -0.45195865459E+03  0.67263380661E+03  0.79325261818E+02 0.  0.
         24    2    4    4    0    0  0.91130135823E+02  0.83909557175E+03 -0.19466231613E+03  0.86940206587E+03  0.74702440608E+02 0.  0.
         13    1    3    3    0    0 -0.36922068443E+03 -0.51854548058E+03 -0.28001185649E+03  0.69542790354E+03  0.00000000000E+00 0.  1.
        -13    1    3    3    0    0 -0.20998526259E+03 -0.38104073250E+03 -0.25437021850E+03  0.50397426362E+03  0.00000000000E+00 0. -1.
          2    1    6    6  502    0  0.52316512285E+02  0.72084911754E+03 -0.17144287158E+03  0.74280086560E+03  0.00000000000E+00 0. -1.
          1    1    5    5  503    0  0.31331591291E+03  0.37907927960E+02 -0.23700319365E+03  0.39468263971E+03  0.00000000000E+00 0. -1.
         -2    1    5    5    0  503  0.17475989829E+03  0.22582713378E+02 -0.21495546094E+03  0.27795116690E+03  0.00000000000E+00 0.  1.
         -3    1    6    6    0  502  0.38813623538E+02  0.11824645420E+03 -0.23219444551E+02  0.12660120027E+03  0.00000000000E+00 0.  1.
<mgrwt>
<rscale>  0 0.24740077E+04</rscale>
<asrwt>0</asrwt>
<pdfrwt beam="1">  1        1 0.30172624E+00 0.24740077E+04</pdfrwt>
<pdfrwt beam="2">  1       -1 0.12003346E+00 0.24740077E+04</pdfrwt>
<totfact> 0.17438491E+00</totfact>
</mgrwt>
</event>
<event>
12    1  0.1541840E-007  0.1366521E+04  0.7818608E-02  0.8978415E-01
          2   -1    0    0  501    0  0.00000000000E+00  0.00000000000E+00  0.24417112859E+04  0.24417112859E+04  0.00000000000E+00 0. -1.
         -2   -1    0    0    0  501 -0.00000000000E+00 -0.00000000000E+00 -0.19119587514E+03  0.19119587514E+03  0.00000000000E+00 0.  1.
         23    2    1    2    0    0 -0.25108014625E+03 -0.26825796053E+02  0.91401588740E+02  0.28369414200E+03  0.91472687753E+02 0.  0.
        254    2    1    2    0    0  0.25108014625E+03  0.26825796053E+02  0.21591138221E+04  0.23492130191E+04  0.89065619027E+03 0.  0.
        -24    2    4    4    0    0 -0.14002260588E+03 -0.34269912067E+03  0.97983214012E+03  0.10504817256E+04  0.79948830220E+02 0.  0.
         24    2    4    4    0    0  0.39110275213E+03  0.36952491673E+03  0.11792816819E+04  0.12987312935E+04  0.80546015543E+02 0.  0.
         13    1    3    3    0    0 -0.23262296225E+02 -0.32117373273E+02  0.49386374255E+01  0.39963110880E+02  0.00000000000E+00 0. -1.
        -13    1    3    3    0    0 -0.22781785003E+03  0.52915772196E+01  0.86462951315E+02  0.24373103112E+03  0.00000000000E+00 0.  1.
          4    1    6    6  502    0  0.14538058359E+03  0.17484919021E+03  0.56598601118E+03  0.60995730855E+03  0.00000000000E+00 0. -1.
          1    1    5    5  503    0 -0.84733210219E+00 -0.74093833897E+02  0.15185757978E+03  0.16897141395E+03  0.00000000000E+00 0. -1.
         -2    1    5    5    0  503 -0.13917527378E+03 -0.26860528678E+03  0.82797456034E+03  0.88151031162E+03  0.00000000000E+00 0.  1.
         -3    1    6    6    0  502  0.24572216854E+03  0.19467572651E+03  0.61329567075E+03  0.68877398497E+03  0.00000000000E+00 0.  1.
<mgrwt>
<rscale>  0 0.13665213E+04</rscale>
<asrwt>0</asrwt>
<pdfrwt beam="1">  1        2 0.37564787E+00 0.13665213E+04</pdfrwt>
<pdfrwt beam="2">  1       -2 0.29414752E-01 0.13665213E+04</pdfrwt>
<totfact> 0.39182822E+01</totfact>
</mgrwt>
</event>
<event>
12    1  0.1541840E-007  0.1636956E+04  0.7818608E-02  0.8798161E-01
         -2   -1    0    0    0  501 -0.00000000000E+00  0.00000000000E+00  0.25364981734E+03  0.25364981734E+03  0.00000000000E+00 0. -1.
          2   -1    0    0  501    0  0.00000000000E+00 -0.00000000000E+00 -0.26410666105E+04  0.26410666105E+04  0.00000000000E+00 0.  1.
         23    2    1    2    0    0 -0.14686203508E+03  0.77981264016E+02 -0.17886027473E+04  0.17989128512E+04  0.96633966764E+02 0.  0.
        254    2    1    2    0    0  0.14686203508E+03 -0.77981264016E+02 -0.59881404588E+03  0.10958035767E+04  0.90252849389E+03 0.  0.
        -24    2    4    4    0    0 -0.69727649864E+02 -0.39384706062E+03 -0.57374096362E+03  0.70391832002E+03  0.79654601953E+02 0.  0.
         24    2    4    4    0    0  0.21658968495E+03  0.31586579660E+03 -0.25073082260E+02  0.39188525668E+03  0.79139761598E+02 0.  0.
         11    1    3    3    0    0 -0.11734270575E+03  0.17900906383E+02 -0.90028129537E+03  0.90807277453E+03  0.00000000000E+00 0.  1.
        -11    1    3    3    0    0 -0.29519329329E+02  0.60080357633E+02 -0.88832145192E+03  0.89084007663E+03  0.00000000000E+00 0. -1.
          4    1    6    6  502    0 -0.58539548220E+01  0.40556893568E+01  0.32258364899E+01  0.78181471128E+01  0.00000000000E+00 0. -1.
          1    1    5    5  503    0 -0.35067379512E+02 -0.74559634915E+02 -0.79500597030E+02  0.11449543743E+03  0.00000000000E+00 0. -1.
         -2    1    5    5    0  503 -0.34660270353E+02 -0.31928742570E+03 -0.49424036659E+03  0.58942288259E+03  0.00000000000E+00 0.  1.
         -3    1    6    6    0  502  0.22244363977E+03  0.31181010724E+03 -0.28298918750E+02  0.38406710957E+03  0.00000000000E+00 0.  1.
<mgrwt>
<rscale>  0 0.16369558E+04</rscale>
<asrwt>0</asrwt>
<pdfrwt beam="1">  1        2 0.40631794E+00 0.16369558E+04</pdfrwt>
<pdfrwt beam="2">  1       -2 0.39023049E-01 0.16369558E+04</pdfrwt>
<totfact> 0.17131751E+01</totfact>
</mgrwt>
</event>
<event>
12    1  0.1541840E-007  0.2224258E+04  0.7818608E-02  0.8508399E-01
         -2   -1    0    0    0  501 -0.00000000000E+00  0.00000000000E+00  0.57397020306E+03  0.57397020306E+03  0.00000000000E+00 0.  1.
          2   -1    0    0  501    0  0.00000000000E+00 -0.00000000000E+00 -0.21548690888E+04  0.21548690888E+04  0.00000000000E+00 0. -1.
         23    2    1    2    0    0  0.84752120174E+03 -0.33390107837E+03 -0.44457068063E+03  0.10177614572E+04  0.91723367595E+02 0.  0.
        254    2    1    2    0    0 -0.84752120174E+03  0.33390107837E+03 -0.11363282051E+04  0.17110778347E+04  0.89820011634E+03 0.  0.
        -24    2    4    4    0    0 -0.51065224421E+03  0.10365882382E+03 -0.28367552189E+02  0.52769271531E+03  0.78383783422E+02 0.  0.
         24    2    4    4    0    0 -0.33686895753E+03  0.23024225455E+03 -0.11079606529E+04  0.11833851194E+04  0.79569729954E+02 0.  0.
         13    1    3    3    0    0  0.52865694892E+03 -0.20305874024E+03 -0.22666211123E+03  0.60998912638E+03  0.00000000000E+00 0.  1.
        -13    1    3    3    0    0  0.31886425283E+03 -0.13084233813E+03 -0.21790856940E+03  0.40777233083E+03  0.00000000000E+00 0. -1.
          2    1    6    6  502    0 -0.32063972465E+03  0.23482511387E+03 -0.10790735930E+04  0.11499358618E+04  0.00000000000E+00 0. -1.
          1    1    5    5  503    0 -0.45228778757E+03  0.78343450395E+02 -0.46946048766E+02  0.46141724123E+03  0.00000000000E+00 0. -1.
         -2    1    5    5    0  503 -0.58364456641E+02  0.25315373420E+02  0.18578496577E+02  0.66275474087E+02  0.00000000000E+00 0.  1.
         -1    1    6    6    0  502 -0.16229232879E+02 -0.45828593198E+01 -0.28887059898E+02  0.33449257525E+02  0.00000000000E+00 0.  1.
<mgrwt>
<rscale>  0 0.22242578E+04</rscale>
<asrwt>0</asrwt>
<pdfrwt beam="1">  1        2 0.33151832E+00 0.22242578E+04</pdfrwt>
<pdfrwt beam="2">  1       -2 0.88303108E-01 0.22242578E+04</pdfrwt>
<totfact> 0.55135307E+00</totfact>
</mgrwt>
</event>
<event>
12    1  0.1541840E-007  0.1101383E+04  0.7818608E-02  0.9203845E-01
          2   -1    0    0  501    0  0.00000000000E+00  0.00000000000E+00  0.58278743540E+03  0.58278743540E+03  0.00000000000E+00 0. -1.
         -2   -1    0    0    0  501 -0.00000000000E+00 -0.00000000000E+00 -0.52036351542E+03  0.52036351542E+03  0.00000000000E+00 0.  1.
         23    2    1    2    0    0  0.10730924194E+03 -0.37925345094E+02 -0.10033933857E+03  0.17684603445E+03  0.90845648382E+02 0.  0.
        254    2    1    2    0    0 -0.10730924194E+03  0.37925345094E+02  0.16276325856E+03  0.92630491637E+03  0.90476257358E+03 0.  0.
        -24    2    4    4    0    0  0.60370084539E+01 -0.14741922185E+03 -0.33563572251E+03  0.37676032062E+03  0.86764788552E+02 0.  0.
         24    2    4    4    0    0 -0.11334625039E+03  0.18534456695E+03  0.49839898106E+03  0.54954459574E+03  0.79985857570E+02 0.  0.
         11    1    3    3    0    0  0.91630758168E+02 -0.33570699338E+02 -0.11780530371E+03  0.15297476026E+03  0.00000000000E+00 0.  1.
        -11    1    3    3    0    0  0.15678483772E+02 -0.43546457555E+01  0.17465965138E+02  0.23871274186E+02  0.00000000000E+00 0. -1.
          2    1    6    6  502    0 -0.96757564331E+02  0.15178408749E+03  0.31899422272E+03  0.36627551051E+03  0.00000000000E+00 0. -1.
          3    1    5    5  503    0  0.29793590265E+02 -0.18943463911E+02 -0.38892683186E+02  0.52527646542E+02  0.00000000000E+00 0. -1.
         -4    1    5    5    0  503 -0.23756581811E+02 -0.12847575794E+03 -0.29674303932E+03  0.32423267408E+03  0.00000000000E+00 0.  1.
         -1    1    6    6    0  502 -0.16588686064E+02  0.33560479459E+02  0.17940475834E+03  0.18326908523E+03  0.00000000000E+00 0.  1.
<mgrwt>
<rscale>  0 0.11013833E+04</rscale>
<asrwt>0</asrwt>
<pdfrwt beam="1">  1        2 0.89659606E-01 0.11013833E+04</pdfrwt>
<pdfrwt beam="2">  1       -2 0.80055925E-01 0.11013833E+04</pdfrwt>
<totfact> 0.70430511E+01</totfact>
</mgrwt>
</event>
<event>
12    1  0.1541840E-007  0.1381317E+04  0.7818608E-02  0.8967455E-01
          2   -1    0    0  501    0  0.00000000000E+00  0.00000000000E+00  0.98698585187E+03  0.98698585187E+03  0.00000000000E+00 0. -1.
         -2   -1    0    0    0  501 -0.00000000000E+00 -0.00000000000E+00 -0.48329865934E+03  0.48329865934E+03  0.00000000000E+00 0.  1.
         23    2    1    2    0    0  0.34107275482E+03  0.25078635935E+02  0.35993049164E+03  0.50465368419E+03  0.90364927347E+02 0.  0.
        254    2    1    2    0    0 -0.34107275482E+03 -0.25078635935E+02  0.14375670089E+03  0.96563082703E+03  0.89152529016E+03 0.  0.
        -24    2    4    4    0    0  0.11780081560E+03  0.16736189700E+03  0.35615413647E+03  0.41886622517E+03  0.81951869669E+02 0.  0.
         24    2    4    4    0    0 -0.45887357042E+03 -0.19244053293E+03 -0.21239743558E+03  0.54676460185E+03  0.78997131914E+02 0.  0.
         13    1    3    3    0    0  0.23244342017E+03  0.40934217593E+02  0.29238212684E+03  0.37575638630E+03  0.00000000000E+00 0.  1.
        -13    1    3    3    0    0  0.10862933465E+03 -0.15855581657E+02  0.67548364802E+02  0.12889729789E+03  0.00000000000E+00 0. -1.
          4    1    6    6  502    0 -0.19532361492E+03 -0.95712992846E+02 -0.13323943398E+03  0.25507849441E+03  0.00000000000E+00 0. -1.
          1    1    5    5  503    0  0.86963137989E+02  0.16542778273E+03  0.32551835714E+03  0.37535468494E+03  0.00000000000E+00 0. -1.
         -2    1    5    5    0  503  0.30837677611E+02  0.19341142630E+01  0.30635779333E+02  0.43511540237E+02  0.00000000000E+00 0.  1.
         -3    1    6    6    0  502 -0.26354995550E+03 -0.96727540087E+02 -0.79158001605E+02  0.29168610744E+03  0.00000000000E+00 0.  1.
<mgrwt>
<rscale>  0 0.13813167E+04</rscale>
<asrwt>0</asrwt>
<pdfrwt beam="1">  1        2 0.15184398E+00 0.13813167E+04</pdfrwt>
<pdfrwt beam="2">  1       -2 0.74353640E-01 0.13813167E+04</pdfrwt>
<totfact> 0.40750880E+01</totfact>
</mgrwt>
</event>
<event>
12    1  0.1541840E-007  0.2560055E+04  0.7818608E-02  0.8381897E-01
         -1   -1    0    0    0  501 -0.00000000000E+00  0.00000000000E+00  0.85733641198E+03  0.85733641198E+03  0.00000000000E+00 0. -1.
          1   -1    0    0  501    0  0.00000000000E+00 -0.00000000000E+00 -0.19111177383E+04  0.19111177383E+04  0.00000000000E+00 0.  1.
         23    2    1    2    0    0  0.70692010482E+03 -0.30790023194E+03  0.41704926947E+03  0.88092049108E+03  0.86903573139E+02 0.  0.
        254    2    1    2    0    0 -0.70692010482E+03  0.30790023194E+03 -0.14708305958E+04  0.18875336592E+04  0.89716335507E+03 0.  0.
        -24    2    4    4    0    0 -0.17346417899E+03 -0.23328736285E+03 -0.85326652115E+03  0.90492328532E+03  0.79432871865E+02 0.  0.
         24    2    4    4    0    0 -0.53345592583E+03  0.54118759479E+03 -0.61756407461E+03  0.98261037386E+03  0.81722230861E+02 0.  0.
         11    1    3    3    0    0  0.61810589244E+02 -0.45127217837E+02  0.19871892210E+02  0.79069000451E+02  0.00000000000E+00 0.  1.
        -11    1    3    3    0    0  0.64510951557E+03 -0.26277301410E+03  0.39717737726E+03  0.80185149063E+03  0.00000000000E+00 0. -1.
          2    1    6    6  502    0 -0.51496734367E+03  0.53860697463E+03 -0.59692953585E+03  0.95478464008E+03  0.00000000000E+00 0. -1.
          3    1    5    5  503    0 -0.14979949824E+03 -0.17708934231E+03 -0.74945903024E+03  0.78453130138E+03  0.00000000000E+00 0. -1.
         -4    1    5    5    0  503 -0.23664680750E+02 -0.56198020538E+02 -0.10380749091E+03  0.12039198394E+03  0.00000000000E+00 0.  1.
         -1    1    6    6    0  502 -0.18488582157E+02  0.25806201626E+01 -0.20634538762E+02  0.27825733782E+02  0.00000000000E+00 0.  1.
<mgrwt>
<rscale>  0 0.25600553E+04</rscale>
<asrwt>0</asrwt>
<pdfrwt beam="1">  1        1 0.29401811E+00 0.25600553E+04</pdfrwt>
<pdfrwt beam="2">  1       -1 0.13189791E+00 0.25600553E+04</pdfrwt>
<totfact> 0.14791396E+00</totfact>
</mgrwt>
</event>
<event>
12    1  0.1541840E-007  0.3576153E+04  0.7818608E-02  0.8095976E-01
         -2   -1    0    0    0  501 -0.00000000000E+00  0.00000000000E+00  0.71499865948E+03  0.71499865948E+03  0.00000000000E+00 0.  1.
          2   -1    0    0  501    0  0.00000000000E+00 -0.00000000000E+00 -0.44716412147E+04  0.44716412147E+04  0.00000000000E+00 0. -1.
         23    2    1    2    0    0  0.90731326720E+03  0.11084200577E+04 -0.49812492698E+03  0.15191176910E+04  0.88191423224E+02 0.  0.
        254    2    1    2    0    0 -0.90731326720E+03 -0.11084200577E+04 -0.32585176282E+04  0.36675221831E+04  0.88372475414E+03 0.  0.
        -24    2    4    4    0    0 -0.12553912029E+03 -0.76624306401E+03 -0.11354793595E+04  0.13780212652E+04  0.82101934023E+02 0.  0.
         24    2    4    4    0    0 -0.78177414691E+03 -0.34217699371E+03 -0.21230382687E+04  0.22895009180E+04  0.79164708036E+02 0.  0.
         13    1    3    3    0    0  0.30603425213E+03  0.33206158694E+03 -0.19020513732E+03  0.48999985231E+03  0.00000000000E+00 0. -1.
        -13    1    3    3    0    0  0.60127901507E+03  0.77635847078E+03 -0.30791978966E+03  0.10291178387E+04  0.00000000000E+00 0.  1.
          4    1    6    6  502    0 -0.63678744267E+03 -0.30159719324E+03 -0.16883221486E+04  0.18294509536E+04  0.00000000000E+00 0. -1.
          1    1    5    5  503    0 -0.40284388968E+02 -0.46168351412E+03 -0.63898117052E+03  0.78934874135E+03  0.00000000000E+00 0. -1.
         -2    1    5    5    0  503 -0.85254731326E+02 -0.30455954989E+03 -0.49649818898E+03  0.58867252382E+03  0.00000000000E+00 0.  1.
         -3    1    6    6    0  502 -0.14498670423E+03 -0.40579800466E+02 -0.43471612012E+03  0.46004996435E+03  0.00000000000E+00 0.  1.
<mgrwt>
<rscale>  0 0.35761529E+04</rscale>
<asrwt>0</asrwt>
<pdfrwt beam="1">  1        2 0.68794480E+00 0.35761529E+04</pdfrwt>
<pdfrwt beam="2">  1       -2 0.10999979E+00 0.35761529E+04</pdfrwt>
<totfact> 0.70012490E-02</totfact>
</mgrwt>
</event>
<event>
12    1  0.1541840E-007  0.1196150E+04  0.7818608E-02  0.9116234E-01
          1   -1    0    0  501    0  0.00000000000E+00  0.00000000000E+00  0.26729138126E+04  0.26729138126E+04  0.00000000000E+00 0. -1.
         -1   -1    0    0    0  501 -0.00000000000E+00 -0.00000000000E+00 -0.13382153275E+03  0.13382153275E+03  0.00000000000E+00 0.  1.
         23    2    1    2    0    0 -0.19447705773E+02 -0.28851821819E+03  0.85112558496E+03  0.90409209833E+03  0.96678774316E+02 0.  0.
        254    2    1    2    0    0  0.19447705773E+02  0.28851821819E+03  0.16879666949E+04  0.19026432470E+04  0.82897453935E+03 0.  0.
        -24    2    4    4    0    0  0.28400232800E+03 -0.78429937529E+02  0.11717596308E+04  0.12108894586E+04  0.80150303496E+02 0.  0.
         24    2    4    4    0    0 -0.26455462222E+03  0.36694815572E+03  0.51620706409E+03  0.69175378843E+03  0.86101531160E+02 0.  0.
         13    1    3    3    0    0  0.82018215411E+01 -0.74409149307E+01  0.11681352268E+03  0.11733727529E+03  0.00000000000E+00 0.  1.
        -13    1    3    3    0    0 -0.27649527314E+02 -0.28107730326E+03  0.73431206229E+03  0.78675482305E+03  0.00000000000E+00 0. -1.
          4    1    6    6  502    0 -0.12762981963E+02 -0.26472397520E+01  0.18635202969E+02  0.22741424243E+02  0.00000000000E+00 0. -1.
          3    1    5    5  503    0  0.15710835859E+03 -0.29479030248E+02  0.77945696848E+03  0.79567909064E+03  0.00000000000E+00 0. -1.
         -4    1    5    5    0  503  0.12689396940E+03 -0.48950907280E+02  0.39230266230E+03  0.41521036794E+03  0.00000000000E+00 0.  1.
         -3    1    6    6    0  502 -0.25179164026E+03  0.36959539547E+03  0.49757186112E+03  0.66901236419E+03  0.00000000000E+00 0.  1.
<mgrwt>
<rscale>  0 0.11961495E+04</rscale>
<asrwt>0</asrwt>
<pdfrwt beam="1">  1        1 0.41121747E+00 0.11961495E+04</pdfrwt>
<pdfrwt beam="2">  1       -1 0.20587930E-01 0.11961495E+04</pdfrwt>
<totfact> 0.19950480E+01</totfact>
</mgrwt>
</event>
<event>
12    1  0.1541840E-007  0.1450120E+04  0.7818608E-02  0.8918317E-01
         -1   -1    0    0    0  501 -0.00000000000E+00  0.00000000000E+00  0.87043627767E+03  0.87043627767E+03  0.00000000000E+00 0.  1.
          1   -1    0    0  501    0  0.00000000000E+00 -0.00000000000E+00 -0.60396357877E+03  0.60396357877E+03  0.00000000000E+00 0. -1.
         23    2    1    2    0    0  0.76422099415E+02  0.23312694596E+02 -0.35311717643E+03  0.37345780218E+03  0.91625164166E+02 0.  0.
        254    2    1    2    0    0 -0.76422099415E+02 -0.23312694596E+02  0.61958987533E+03  0.11009420543E+04  0.90653073540E+03 0.  0.
        -24    2    4    4    0    0  0.34815419053E+02 -0.11635628026E+02 -0.22689884790E+03  0.24341196387E+03  0.80117387194E+02 0.  0.
         24    2    4    4    0    0 -0.11123751847E+03 -0.11677066570E+02  0.84648872324E+03  0.85753009039E+03  0.79401246618E+02 0.  0.
         11    1    3    3    0    0  0.72017526290E+02  0.35443519107E+02 -0.15169052009E+03  0.17161812557E+03  0.00000000000E+00 0.  1.
        -11    1    3    3    0    0  0.44045731247E+01 -0.12130824511E+02 -0.20142665634E+03  0.20183967660E+03  0.00000000000E+00 0. -1.
          2    1    6    6  502    0 -0.43806249598E+02  0.16864741418E+02  0.55513515443E+03  0.55711618778E+03  0.00000000000E+00 0. -1.
          3    1    5    5  503    0  0.58077202490E+02 -0.19737641373E+02 -0.18386643828E+03  0.19382828241E+03  0.00000000000E+00 0. -1.
         -4    1    5    5    0  503 -0.23261783437E+02  0.81020133472E+01 -0.43032409619E+02  0.49583681455E+02  0.00000000000E+00 0.  1.
         -1    1    6    6    0  502 -0.67431268869E+02 -0.28541807988E+02  0.29135356881E+03  0.30041390261E+03  0.00000000000E+00 0.  1.
<mgrwt>
<rscale>  0 0.14501197E+04</rscale>
<asrwt>0</asrwt>
<pdfrwt beam="1">  1        1 0.92917474E-01 0.14501197E+04</pdfrwt>
<pdfrwt beam="2">  1       -1 0.13391327E+00 0.14501197E+04</pdfrwt>
<totfact> 0.15497880E+01</totfact>
</mgrwt>
</event>
<event>
12    1  0.1541840E-007  0.1347587E+04  0.7818608E-02  0.8992657E-01
          1   -1    0    0  501    0  0.00000000000E+00  0.00000000000E+00  0.15073656740E+03  0.15073656740E+03  0.00000000000E+00 0. -1.
         -1   -1    0    0    0  501 -0.00000000000E+00 -0.00000000000E+00 -0.30118607726E+04  0.30118607726E+04  0.00000000000E+00 0.  1.
         23    2    1    2    0    0  0.40544342180E+02 -0.34944659053E+03 -0.57214253744E+03  0.67776444012E+03  0.90888887295E+02 0.  0.
        254    2    1    2    0    0 -0.40544342180E+02  0.34944659053E+03 -0.22889816677E+04  0.24848328998E+04  0.90066680943E+03 0.  0.
        -24    2    4    4    0    0  0.39697720934E+03  0.29112867090E+03 -0.14532050290E+04  0.15363578075E+04  0.79016761107E+02 0.  0.
         24    2    4    4    0    0 -0.43752155152E+03  0.58317919630E+02 -0.83577663875E+03  0.94847509238E+03  0.79096922727E+02 0.  0.
         11    1    3    3    0    0 -0.19264105900E+01 -0.80562109749E+01  0.19282717168E+01  0.85048118643E+01  0.00000000000E+00 0. -1.
        -11    1    3    3    0    0  0.42470752770E+02 -0.34139037956E+03 -0.57407080915E+03  0.66925962826E+03  0.00000000000E+00 0.  1.
          2    1    6    6  502    0 -0.28752539692E+03  0.21087927309E+02 -0.46981380126E+03  0.55121734588E+03  0.00000000000E+00 0. -1.
          3    1    5    5  503    0  0.19969072479E+03  0.17915415302E+03 -0.87662445268E+03  0.91675679826E+03  0.00000000000E+00 0. -1.
         -4    1    5    5    0  503  0.19728648455E+03  0.11197451788E+03 -0.57658057629E+03  0.61960100920E+03  0.00000000000E+00 0.  1.
         -1    1    6    6    0  502 -0.14999615461E+03  0.37229992320E+02 -0.36596283749E+03  0.39725774650E+03  0.00000000000E+00 0.  1.
<mgrwt>
<rscale>  0 0.13475868E+04</rscale>
<asrwt>0</asrwt>
<pdfrwt beam="1">  1        1 0.23190241E-01 0.13475868E+04</pdfrwt>
<pdfrwt beam="2">  1       -1 0.46336320E+00 0.13475868E+04</pdfrwt>
<totfact> 0.55826933E-01</totfact>
</mgrwt>
</event>
<event>
12    1  0.1541840E-007  0.2350750E+04  0.7818608E-02  0.8458176E-01
         -1   -1    0    0    0  501 -0.00000000000E+00  0.00000000000E+00  0.95821012900E+03  0.95821012900E+03  0.00000000000E+00 0.  1.
          1   -1    0    0  501    0  0.00000000000E+00 -0.00000000000E+00 -0.14417570088E+04  0.14417570088E+04  0.00000000000E+00 0. -1.
         23    2    1    2    0    0 -0.81054476296E+03  0.99065350268E+02 -0.79307741513E+03  0.11420593932E+04  0.92364034049E+02 0.  0.
        254    2    1    2    0    0  0.81054476296E+03 -0.99065350268E+02  0.30953053536E+03  0.12579077446E+04  0.90538720179E+03 0.  0.
        -24    2    4    4    0    0  0.42521074899E+03 -0.48697699073E+03  0.68720901112E+02  0.65525869618E+03  0.81796247554E+02 0.  0.
         24    2    4    4    0    0  0.38533401397E+03  0.38791164046E+03  0.24080963425E+03  0.60264904840E+03  0.78986406813E+02 0.  0.
         11    1    3    3    0    0 -0.17758042573E+03 -0.15951100126E+02 -0.18143713126E+03  0.25437900424E+03  0.00000000000E+00 0.  1.
        -11    1    3    3    0    0 -0.63296433723E+03  0.11501645039E+03 -0.61164028387E+03  0.88768038895E+03  0.00000000000E+00 0. -1.
          4    1    6    6  502    0  0.24905551632E+03  0.25652406204E+03  0.19749183499E+03  0.40845595785E+03  0.00000000000E+00 0. -1.
          1    1    5    5  503    0  0.74051124836E+02 -0.59292969286E+02 -0.13452316801E+02  0.95813308697E+02  0.00000000000E+00 0. -1.
         -2    1    5    5    0  503  0.35115962415E+03 -0.42768402144E+03  0.82173217913E+02  0.55944538748E+03  0.00000000000E+00 0.  1.
         -3    1    6    6    0  502  0.13627849765E+03  0.13138757842E+03  0.43317799263E+02  0.19419309054E+03  0.00000000000E+00 0.  1.
<mgrwt>
<rscale>  0 0.23507498E+04</rscale>
<asrwt>0</asrwt>
<pdfrwt beam="1">  1        1 0.22180877E+00 0.23507498E+04</pdfrwt>
<pdfrwt beam="2">  1       -1 0.14741694E+00 0.23507498E+04</pdfrwt>
<totfact> 0.23630535E+00</totfact>
</mgrwt>
</event>
<event>
12    1  0.1541840E-007  0.1963087E+04  0.7818608E-02  0.8624076E-01
          1   -1    0    0  501    0  0.00000000000E+00  0.00000000000E+00  0.12155869079E+04  0.12155869079E+04  0.00000000000E+00 0. -1.
         -1   -1    0    0    0  501 -0.00000000000E+00 -0.00000000000E+00 -0.79256159025E+03  0.79256159025E+03  0.00000000000E+00 0.  1.
         23    2    1    2    0    0  0.46524417922E+03 -0.60879923956E+03  0.26219618502E+03  0.81511550747E+03  0.92616362973E+02 0.  0.
        254    2    1    2    0    0 -0.46524417922E+03  0.60879923956E+03  0.16082913266E+03  0.11930329907E+04  0.90020722427E+03 0.  0.
        -24    2    4    4    0    0 -0.83673759082E+02  0.26472919596E+03  0.49627617148E+03  0.57428536915E+03  0.80192279509E+02 0.  0.
         24    2    4    4    0    0 -0.38157042014E+03  0.34407004360E+03 -0.33544703882E+03  0.61874762156E+03  0.79647491535E+02 0.  0.
         13    1    3    3    0    0  0.17907071608E+03 -0.28919190155E+03  0.14955220026E+03  0.37156982908E+03  0.00000000000E+00 0.  1.
        -13    1    3    3    0    0  0.28617346314E+03 -0.31960733801E+03  0.11264398476E+03  0.44354567839E+03  0.00000000000E+00 0. -1.
          2    1    6    6  502    0 -0.32254820461E+03  0.32431841904E+03 -0.30175096327E+03  0.54797210245E+03  0.00000000000E+00 0. -1.
          1    1    5    5  503    0 -0.67161612760E+02  0.26338181405E+03  0.45809266302E+03  0.53266269826E+03  0.00000000000E+00 0. -1.
         -2    1    5    5    0  503 -0.16512146322E+02  0.13473819052E+01  0.38183508457E+02  0.41622670893E+02  0.00000000000E+00 0.  1.
         -1    1    6    6    0  502 -0.59022215523E+02  0.19751624560E+02 -0.33696075548E+02  0.70775519110E+02  0.00000000000E+00 0.  1.
<mgrwt>
<rscale>  0 0.19630868E+04</rscale>
<asrwt>0</asrwt>
<pdfrwt beam="1">  1        1 0.18701337E+00 0.19630868E+04</pdfrwt>
<pdfrwt beam="2">  1       -1 0.12193255E+00 0.19630868E+04</pdfrwt>
<totfact> 0.57660321E+00</totfact>
</mgrwt>
</event>
<event>
12    1  0.1541840E-007  0.1131016E+04  0.7818608E-02  0.9175478E-01
          1   -1    0    0  501    0  0.00000000000E+00  0.00000000000E+00  0.17728488361E+04  0.17728488361E+04  0.00000000000E+00 0. -1.
         -1   -1    0    0    0  501 -0.00000000000E+00 -0.00000000000E+00 -0.18038720565E+03  0.18038720565E+03  0.00000000000E+00 0.  1.
         23    2    1    2    0    0 -0.10412078267E+03 -0.36121278395E+02  0.56983670906E+03  0.58699468346E+03  0.87766732203E+02 0.  0.
        254    2    1    2    0    0  0.10412078267E+03  0.36121278395E+02  0.10226249214E+04  0.13662413583E+04  0.89928184409E+03 0.  0.
        -24    2    4    4    0    0 -0.15575284235E+03  0.19995236240E+03  0.10136871925E+04  0.10479882884E+04  0.80484987802E+02 0.  0.
         24    2    4    4    0    0  0.25987362502E+03 -0.16383108400E+03  0.89377288859E+01  0.31825306989E+03  0.82645075042E+02 0.  0.
         13    1    3    3    0    0 -0.24222404061E+02 -0.53312538941E+02  0.21153016130E+03  0.21948567335E+03  0.00000000000E+00 0.  1.
        -13    1    3    3    0    0 -0.79898378612E+02  0.17191260546E+02  0.35830654776E+03  0.36750901011E+03  0.00000000000E+00 0. -1.
          4    1    6    6  502    0  0.15693972537E+03 -0.14095907663E+03  0.21595606047E+02  0.21205166560E+03  0.00000000000E+00 0. -1.
          3    1    5    5  503    0  0.96151389956E+01  0.10879700576E+02  0.46399835495E+02  0.48618551156E+02  0.00000000000E+00 0. -1.
         -4    1    5    5    0  503 -0.16536798134E+03  0.18907266182E+03  0.96728735697E+03  0.99936973722E+03  0.00000000000E+00 0.  1.
         -3    1    6    6    0  502  0.10293389966E+03 -0.22872007378E+02 -0.12657877161E+02  0.10620140430E+03  0.00000000000E+00 0.  1.
<mgrwt>
<rscale>  0 0.11310159E+04</rscale>
<asrwt>0</asrwt>
<pdfrwt beam="1">  1        1 0.27274596E+00 0.11310159E+04</pdfrwt>
<pdfrwt beam="2">  1       -1 0.27751879E-01 0.11310159E+04</pdfrwt>
<totfact> 0.49479099E+01</totfact>
</mgrwt>
</event>
<event>
12    1  0.1541840E-007  0.2518400E+04  0.7818608E-02  0.8396460E-01
         -2   -1    0    0    0  501 -0.00000000000E+00  0.00000000000E+00  0.12348250510E+04  0.12348250510E+04  0.00000000000E+00 0.  1.
          2   -1    0    0  501    0  0.00000000000E+00 -0.00000000000E+00 -0.12840560928E+04  0.12840560928E+04  0.00000000000E+00 0. -1.
         23    2    1    2    0    0 -0.57770169126E+03 -0.69906049537E+03 -0.63390401709E+03  0.11102210017E+04  0.91277321708E+02 0.  0.
        254    2    1    2    0    0  0.57770169126E+03  0.69906049537E+03  0.58467297527E+03  0.14086601420E+04  0.90556948242E+03 0.  0.
        -24    2    4    4    0    0 -0.95250339076E+02  0.55343853643E+03  0.13776525097E+03  0.58393240789E+03  0.81430657031E+02 0.  0.
         24    2    4    4    0    0  0.67295203034E+03  0.14562195894E+03  0.44690772430E+03  0.82472773415E+03  0.79869464644E+02 0.  0.
         13    1    3    3    0    0 -0.19627143409E+03 -0.17895561473E+03 -0.16309106762E+03  0.31168298673E+03  0.00000000000E+00 0.  1.
        -13    1    3    3    0    0 -0.38143025717E+03 -0.52010488064E+03 -0.47081294948E+03  0.79853801497E+03  0.00000000000E+00 0. -1.
          4    1    6    6  502    0  0.62914667333E+03  0.11554854957E+03  0.41932956464E+03  0.76486226711E+03  0.00000000000E+00 0. -1.
          3    1    5    5  503    0 -0.87702713043E+02  0.44598549874E+03  0.79371645430E+02  0.46140512466E+03  0.00000000000E+00 0. -1.
         -4    1    5    5    0  503 -0.75476260328E+01  0.10745303769E+03  0.58393605539E+02  0.12252728323E+03  0.00000000000E+00 0.  1.
         -3    1    6    6    0  502  0.43805357007E+02  0.30073409374E+02  0.27578159654E+02  0.59865467039E+02  0.00000000000E+00 0.  1.
<mgrwt>
<rscale>  0 0.25184000E+04</rscale>
<asrwt>0</asrwt>
<pdfrwt beam="1">  1        2 0.19754709E+00 0.25184000E+04</pdfrwt>
<pdfrwt beam="2">  1       -2 0.18997308E+00 0.25184000E+04</pdfrwt>
<totfact> 0.23324754E+00</totfact>
</mgrwt>
</event>
<event>
12    1  0.1541840E-007  0.1151399E+04  0.7818608E-02  0.9156494E-01
          1   -1    0    0  501    0  0.00000000000E+00  0.00000000000E+00  0.71845361682E+03  0.71845361682E+03  0.00000000000E+00 0. -1.
         -1   -1    0    0    0  501 -0.00000000000E+00 -0.00000000000E+00 -0.46131034944E+03  0.46131034944E+03  0.00000000000E+00 0.  1.
         23    2    1    2    0    0 -0.18205689829E+03  0.37911707419E+02  0.13033703358E+03  0.24517317390E+03  0.92412829758E+02 0.  0.
        254    2    1    2    0    0  0.18205689829E+03 -0.37911707419E+02  0.12680623380E+03  0.93459079236E+03  0.90708219939E+03 0.  0.
        -24    2    4    4    0    0  0.28188669926E+03  0.80117331325E+02 -0.32816221474E+03  0.44752598437E+03  0.81915624287E+02 0.  0.
         24    2    4    4    0    0 -0.99829800971E+02 -0.11802903874E+03  0.45496844855E+03  0.48706480799E+03  0.79617804900E+02 0.  0.
         11    1    3    3    0    0 -0.74160643546E+02  0.19801000451E+02  0.23456034509E+01  0.76794417281E+02  0.00000000000E+00 0.  1.
        -11    1    3    3    0    0 -0.10789625475E+03  0.18110706968E+02  0.12799143013E+03  0.16837875662E+03  0.00000000000E+00 0. -1.
          2    1    6    6  502    0 -0.10047053743E+03 -0.12863850048E+03  0.42929993333E+03  0.45928272932E+03  0.00000000000E+00 0. -1.
          1    1    5    5  503    0  0.27203393851E+03  0.63050692296E+02 -0.32335291198E+03  0.42724110194E+03  0.00000000000E+00 0. -1.
         -2    1    5    5    0  503  0.98527607520E+01  0.17066639029E+02 -0.48093027628E+01  0.20284882431E+02  0.00000000000E+00 0.  1.
         -1    1    6    6    0  502  0.64073646115E+00  0.10609461732E+02  0.25668515219E+02  0.27782078666E+02  0.00000000000E+00 0.  1.
<mgrwt>
<rscale>  0 0.11513993E+04</rscale>
<asrwt>0</asrwt>
<pdfrwt beam="1">  1        1 0.11053133E+00 0.11513993E+04</pdfrwt>
<pdfrwt beam="2">  1       -1 0.70970823E-01 0.11513993E+04</pdfrwt>
<totfact> 0.52160145E+01</totfact>
</mgrwt>
</event>
<event>
12    1  0.1541840E-007  0.1400815E+04  0.7818608E-02  0.8953229E-01
          2   -1    0    0  501    0  0.00000000000E+00  0.00000000000E+00  0.25170402082E+03  0.25170402082E+03  0.00000000000E+00 0. -1.
         -2   -1    0    0    0  501 -0.00000000000E+00 -0.00000000000E+00 -0.19489977883E+04  0.19489977883E+04  0.00000000000E+00 0.  1.
         23    2    1    2    0    0 -0.28971445357E+03 -0.28041456586E+03 -0.52201653772E+03  0.66599148289E+03  0.92068432555E+02 0.  0.
        254    2    1    2    0    0  0.28971445357E+03  0.28041456586E+03 -0.11752772298E+04  0.15347103262E+04  0.90082874358E+03 0.  0.
        -24    2    4    4    0    0 -0.17599431710E+03  0.44369893362E+03 -0.51674199979E+03  0.70794734516E+03  0.79526132951E+02 0.  0.
         24    2    4    4    0    0  0.46570877067E+03 -0.16328436776E+03 -0.65853522996E+03  0.82676298105E+03  0.79510589908E+02 0.  0.
         13    1    3    3    0    0 -0.27687304524E+03 -0.22810589653E+03 -0.46841640409E+03  0.59000416171E+03  0.00000000000E+00 0. -1.
        -13    1    3    3    0    0 -0.12841408328E+02 -0.52308669330E+02 -0.53600133629E+02  0.75987321179E+02  0.00000000000E+00 0.  1.
          2    1    6    6  502    0  0.10474422763E+03 -0.68318753128E+02 -0.13791731556E+03  0.18617193984E+03  0.00000000000E+00 0. -1.
          1    1    5    5  503    0 -0.40218551752E+02  0.19557329496E+03 -0.18760832186E+03  0.27397687501E+03  0.00000000000E+00 0. -1.
         -2    1    5    5    0  503 -0.13577576535E+03  0.24812563866E+03 -0.32913367793E+03  0.43397047016E+03  0.00000000000E+00 0.  1.
         -1    1    6    6    0  502  0.36096454304E+03 -0.94965614632E+02 -0.52061791440E+03  0.64059104121E+03  0.00000000000E+00 0.  1.
<mgrwt>
<rscale>  0 0.14008149E+04</rscale>
<asrwt>0</asrwt>
<pdfrwt beam="1">  1        2 0.38723695E-01 0.14008149E+04</pdfrwt>
<pdfrwt beam="2">  1       -2 0.29984582E+00 0.14008149E+04</pdfrwt>
<totfact> 0.41608943E+00</totfact>
</mgrwt>
</event>
<event>
12    1  0.1541840E-007  0.1222195E+04  0.7818608E-02  0.9093648E-01
          2   -1    0    0  501    0  0.00000000000E+00  0.00000000000E+00  0.18294783994E+04  0.18294783994E+04  0.00000000000E+00 0. -1.
         -2   -1    0    0    0  501 -0.00000000000E+00 -0.00000000000E+00 -0.20412390370E+03  0.20412390370E+03  0.00000000000E+00 0.  1.
         23    2    1    2    0    0  0.13672504768E+03  0.31816728728E+02  0.56141032994E+01  0.16717204817E+03  0.90603160228E+02 0.  0.
        254    2    1    2    0    0 -0.13672504768E+03 -0.31816728728E+02  0.16197403924E+04  0.18664302549E+04  0.91667710501E+03 0.  0.
        -24    2    4    4    0    0  0.31828506293E+03 -0.93911559113E+02  0.26002794365E+03  0.42903670909E+03  0.79581430263E+02 0.  0.
         24    2    4    4    0    0 -0.45501011061E+03  0.62094830385E+02  0.13597124487E+04  0.14373935458E+04  0.79951820712E+02 0.  0.
         11    1    3    3    0    0  0.40308897672E+02  0.33243650853E+02  0.38924273901E+02  0.65154022533E+02  0.00000000000E+00 0. -1.
        -11    1    3    3    0    0  0.96416150010E+02 -0.14269221251E+01 -0.33310170602E+02  0.10201802564E+03  0.00000000000E+00 0.  1.
          4    1    6    6  502    0 -0.42251909675E+03  0.50043324034E+02  0.13052072670E+04  0.13728046952E+04  0.00000000000E+00 0. -1.
          3    1    5    5  503    0  0.24473627289E+03 -0.84553313673E+02  0.15946000918E+03  0.30409307893E+03  0.00000000000E+00 0. -1.
         -4    1    5    5    0  503  0.73548790039E+02 -0.93582454400E+01  0.10056793447E+03  0.12494363016E+03  0.00000000000E+00 0.  1.
         -3    1    6    6    0  502 -0.32491013864E+02  0.12051506352E+02  0.54505181752E+02  0.64588850625E+02  0.00000000000E+00 0.  1.
<mgrwt>
<rscale>  0 0.12221952E+04</rscale>
<asrwt>0</asrwt>
<pdfrwt beam="1">  1        2 0.28145820E+00 0.12221952E+04</pdfrwt>
<pdfrwt beam="2">  1       -2 0.31403679E-01 0.12221952E+04</pdfrwt>
<totfact> 0.77085568E+01</totfact>
</mgrwt>
</event>
<event>
12    1  0.1541840E-007  0.1650385E+04  0.7818608E-02  0.8790179E-01
          2   -1    0    0  501    0  0.00000000000E+00  0.00000000000E+00  0.17051144737E+04  0.17051144737E+04  0.00000000000E+00 0. -1.
         -2   -1    0    0    0  501 -0.00000000000E+00 -0.00000000000E+00 -0.39935315543E+03  0.39935315543E+03  0.00000000000E+00 0.  1.
         23    2    1    2    0    0 -0.58124266738E+03  0.36162147423E+02  0.46991931449E+03  0.75410748968E+03  0.93290967257E+02 0.  0.
        254    2    1    2    0    0  0.58124266738E+03 -0.36162147423E+02  0.83584200376E+03  0.13503601394E+04  0.88639151148E+03 0.  0.
        -24    2    4    4    0    0  0.72601791004E+03 -0.19503165192E+03  0.39412898576E+03  0.85261116639E+03  0.80428805118E+02 0.  0.
         24    2    4    4    0    0 -0.14477524266E+03  0.15886950450E+03  0.44171301800E+03  0.49774897303E+03  0.80276145509E+02 0.  0.
         13    1    3    3    0    0 -0.49867664625E+03  0.19108131585E+02  0.43788505130E+03  0.66391779337E+03  0.00000000000E+00 0. -1.
        -13    1    3    3    0    0 -0.82566021132E+02  0.17054015839E+02  0.32034263190E+02  0.90189696307E+02  0.00000000000E+00 0.  1.
          4    1    6    6  502    0 -0.12057431924E+03  0.12581826967E+03  0.27103664512E+03  0.32222549006E+03  0.00000000000E+00 0. -1.
          3    1    5    5  503    0  0.55116779831E+03 -0.15879791275E+03  0.26264725606E+03  0.63086155383E+03  0.00000000000E+00 0. -1.
         -4    1    5    5    0  503  0.17485011173E+03 -0.36233739175E+02  0.13148172970E+03  0.22174961256E+03  0.00000000000E+00 0.  1.
         -3    1    6    6    0  502 -0.24200923425E+02  0.33051234832E+02  0.17067637288E+03  0.17552348298E+03  0.00000000000E+00 0.  1.
<mgrwt>
<rscale>  0 0.16503852E+04</rscale>
<asrwt>0</asrwt>
<pdfrwt beam="1">  1        2 0.26232530E+00 0.16503852E+04</pdfrwt>
<pdfrwt beam="2">  1       -2 0.61438948E-01 0.16503852E+04</pdfrwt>
<totfact> 0.22918661E+01</totfact>
</mgrwt>
</event>
<event>
12    1  0.1541840E-007  0.1802129E+04  0.7818608E-02  0.8705168E-01
          1   -1    0    0  501    0  0.00000000000E+00  0.00000000000E+00  0.12140033695E+04  0.12140033695E+04  0.00000000000E+00 0. -1.
         -1   -1    0    0    0  501 -0.00000000000E+00 -0.00000000000E+00 -0.66879335037E+03  0.66879335037E+03  0.00000000000E+00 0.  1.
         23    2    1    2    0    0 -0.27947362106E+03 -0.48350076930E+02 -0.42428549658E+03  0.51841953986E+03  0.91090075733E+02 0.  0.
        254    2    1    2    0    0  0.27947362106E+03  0.48350076930E+02  0.96949551571E+03  0.13643771800E+04  0.91714791584E+03 0.  0.
        -24    2    4    4    0    0  0.17743378819E+03 -0.33979918125E+03  0.10107616586E+03  0.40453446841E+03  0.80532676973E+02 0.  0.
         24    2    4    4    0    0  0.10203983288E+03  0.38814925818E+03  0.86841934984E+03  0.95984271159E+03  0.77935163456E+02 0.  0.
         13    1    3    3    0    0 -0.28597222698E+03 -0.45101837794E+02 -0.41957051059E+03  0.50975847589E+03  0.00000000000E+00 0.  1.
        -13    1    3    3    0    0  0.64986059195E+01 -0.32482391361E+01 -0.47149859810E+01  0.86610639753E+01  0.00000000000E+00 0. -1.
          2    1    6    6  502    0 -0.89020218987E+01  0.32626284339E+02  0.10705069783E+03  0.11226563289E+03  0.00000000000E+00 0. -1.
          3    1    5    5  503    0  0.11031256652E+03 -0.16700469158E+03  0.16646154740E+02  0.20083954742E+03  0.00000000000E+00 0. -1.
         -4    1    5    5    0  503  0.67121221665E+02 -0.17279448967E+03  0.84430011123E+02  0.20369492099E+03  0.00000000000E+00 0.  1.
         -1    1    6    6    0  502  0.11094185478E+03  0.35552297384E+03  0.76136865202E+03  0.84757707870E+03  0.00000000000E+00 0.  1.
<mgrwt>
<rscale>  0 0.18021292E+04</rscale>
<asrwt>0</asrwt>
<pdfrwt beam="1">  1        1 0.18676975E+00 0.18021292E+04</pdfrwt>
<pdfrwt beam="2">  1       -1 0.10289128E+00 0.18021292E+04</pdfrwt>
<totfact> 0.87886437E+00</totfact>
</mgrwt>
</event>
<event>
12    1  0.1541840E-007  0.3384832E+04  0.7818608E-02  0.8141639E-01
          2   -1    0    0  501    0  0.00000000000E+00  0.00000000000E+00  0.28773057349E+04  0.28773057349E+04  0.00000000000E+00 0.  1.
         -2   -1    0    0    0  501 -0.00000000000E+00 -0.00000000000E+00 -0.99546987717E+03  0.99546987717E+03  0.00000000000E+00 0. -1.
         23    2    1    2    0    0 -0.67063625548E+03 -0.27069264716E+03  0.24716894117E+04  0.25768047554E+04  0.87445430971E+02 0.  0.
        254    2    1    2    0    0  0.67063625548E+03  0.27069264716E+03 -0.58985355397E+03  0.12959708566E+04  0.89921396212E+03 0.  0.
        -24    2    4    4    0    0 -0.20622064193E+03  0.88246642341E+02 -0.37050272500E+02  0.24048842585E+03  0.78406232109E+02 0.  0.
         24    2    4    4    0    0  0.87685689742E+03  0.18244600482E+03 -0.55280328147E+03  0.10554824308E+04  0.79291427201E+02 0.  0.
         11    1    3    3    0    0 -0.15319904161E+03 -0.94462910819E+02  0.53574787148E+03  0.56517162851E+03  0.00000000000E+00 0. -1.
        -11    1    3    3    0    0 -0.51743721387E+03 -0.17622973634E+03  0.19359415402E+04  0.20116331269E+04  0.00000000000E+00 0.  1.
          2    1    6    6  502    0  0.15874931765E+03  0.51585040671E+02 -0.74447382636E+02  0.18276973234E+03  0.00000000000E+00 0. -1.
          1    1    5    5  503    0 -0.13252785360E+03  0.20828758725E+02 -0.41744177423E+02  0.14049927231E+03  0.00000000000E+00 0. -1.
         -2    1    5    5    0  503 -0.73692788331E+02  0.67417883616E+02  0.46939049239E+01  0.99989153545E+02  0.00000000000E+00 0.  1.
         -1    1    6    6    0  502  0.71810757976E+03  0.13086096414E+03 -0.47835589883E+03  0.87271269843E+03  0.00000000000E+00 0.  1.
<mgrwt>
<rscale>  0 0.33848316E+04</rscale>
<asrwt>0</asrwt>
<pdfrwt beam="1">  1        2 0.44266242E+00 0.33848316E+04</pdfrwt>
<pdfrwt beam="2">  1       -2 0.15314921E+00 0.33848316E+04</pdfrwt>
<totfact> 0.48757823E-01</totfact>
</mgrwt>
</event>
<event>
12    1  0.1541840E-007  0.1119478E+04  0.7818608E-02  0.9186412E-01
         -2   -1    0    0    0  501 -0.00000000000E+00  0.00000000000E+00  0.11113195061E+03  0.11113195061E+03  0.00000000000E+00 0.  1.
          2   -1    0    0  501    0  0.00000000000E+00 -0.00000000000E+00 -0.28192427601E+04  0.28192427601E+04  0.00000000000E+00 0. -1.
         23    2    1    2    0    0 -0.12287473242E+03 -0.38919919264E+02 -0.18387269287E+03  0.24793907568E+03  0.10512686661E+03 0.  0.
        254    2    1    2    0    0  0.12287473242E+03  0.38919919264E+02 -0.25242381166E+04  0.26824356350E+04  0.89837069559E+03 0.  0.
        -24    2    4    4    0    0  0.35622900322E+03 -0.28094359316E+03 -0.17410967560E+04  0.18010390950E+04  0.80594681269E+02 0.  0.
         24    2    4    4    0    0 -0.23335427079E+03  0.31986351243E+03 -0.78314136062E+03  0.88139654004E+03  0.82356467897E+02 0.  0.
         13    1    3    3    0    0 -0.89708944196E+02  0.16215362845E+02 -0.14920850123E+03  0.17485368026E+03  0.00000000000E+00 0. -1.
        -13    1    3    3    0    0 -0.33165788227E+02 -0.55135282109E+02 -0.34664191639E+02  0.73085395422E+02  0.00000000000E+00 0.  1.
          4    1    6    6  502    0 -0.67349153865E+02  0.16006757404E+03 -0.35442361593E+03  0.39468168987E+03  0.00000000000E+00 0. -1.
          3    1    5    5  503    0  0.51925064325E+02 -0.34506283997E+02 -0.36615461486E+03  0.37142441751E+03  0.00000000000E+00 0. -1.
         -4    1    5    5    0  503  0.30430393889E+03 -0.24643730916E+03 -0.13749421412E+04  0.14296146775E+04  0.00000000000E+00 0.  1.
         -3    1    6    6    0  502 -0.16600511693E+03  0.15979593839E+03 -0.42871774469E+03  0.48671485018E+03  0.00000000000E+00 0.  1.
<mgrwt>
<rscale>  0 0.11194784E+04</rscale>
<asrwt>0</asrwt>
<pdfrwt beam="1">  1        2 0.43372962E+00 0.11194784E+04</pdfrwt>
<pdfrwt beam="2">  1       -2 0.17097225E-01 0.11194784E+04</pdfrwt>
<totfact> 0.63575215E+01</totfact>
</mgrwt>
</event>
<event>
12    1  0.1541840E-007  0.1618848E+04  0.7818608E-02  0.8809052E-01
          3   -1    0    0  501    0  0.00000000000E+00  0.00000000000E+00  0.17925751567E+04  0.17925751567E+04  0.00000000000E+00 0. -1.
         -3   -1    0    0    0  501 -0.00000000000E+00 -0.00000000000E+00 -0.36548961351E+03  0.36548961351E+03  0.00000000000E+00 0.  1.
         23    2    1    2    0    0 -0.45417298237E+03 -0.22566399915E+03  0.19907984717E+03  0.55251141432E+03  0.91862609248E+02 0.  0.
        254    2    1    2    0    0  0.45417298237E+03  0.22566399915E+03  0.12280056960E+04  0.16055533559E+04  0.90144675422E+03 0.  0.
        -24    2    4    4    0    0  0.25821073494E+03  0.12115621172E+03  0.13198359103E+04  0.13524509723E+04  0.76191804700E+02 0.  0.
         24    2    4    4    0    0  0.19596224743E+03  0.10450778743E+03 -0.91830214252E+02  0.25310238360E+03  0.79403704465E+02 0.  0.
         11    1    3    3    0    0 -0.26802678440E+03 -0.10099339071E+03  0.14934113905E+03  0.32301826254E+03  0.00000000000E+00 0.  1.
        -11    1    3    3    0    0 -0.18614619797E+03 -0.12467060844E+03  0.49738708122E+02  0.22949315178E+03  0.00000000000E+00 0. -1.
          2    1    6    6  502    0  0.18709158525E+03  0.11562539709E+03 -0.78265335690E+02  0.23344797385E+03  0.00000000000E+00 0. -1.
          3    1    5    5  503    0  0.24141194149E+03  0.87637535568E+02  0.11133097016E+04  0.11425491476E+04  0.00000000000E+00 0. -1.
         -4    1    5    5    0  503  0.16798793458E+02  0.33518676152E+02  0.20652620872E+03  0.20990182467E+03  0.00000000000E+00 0.  1.
         -1    1    6    6    0  502  0.88706621833E+01 -0.11117609665E+02 -0.13564878562E+02  0.19654409750E+02  0.00000000000E+00 0.  1.
<mgrwt>
<rscale>  0 0.16188485E+04</rscale>
<asrwt>0</asrwt>
<pdfrwt beam="1">  1        3 0.27578079E+00 0.16188485E+04</pdfrwt>
<pdfrwt beam="2">  1       -3 0.56229172E-01 0.16188485E+04</pdfrwt>
<totfact> 0.41252489E-01</totfact>
</mgrwt>
</event>
<event>
12    1  0.2447691E-007  0.1805765E+04  0.7818608E-02  0.8703239E-01
         -2   -1    0    0    0  501 -0.00000000000E+00  0.00000000000E+00  0.45365246450E+03  0.45365246450E+03  0.00000000000E+00 0. -1.
          2   -1    0    0  501    0  0.00000000000E+00 -0.00000000000E+00 -0.17969642379E+04  0.17969642379E+04  0.00000000000E+00 0.  1.
         23    2    1    2    0    0 -0.45924725702E+03  0.48393695920E+01  0.11453444322E+03  0.48237268565E+03  0.92918279140E+02 0.  0.
        254    2    1    2    0    0  0.45924725702E+03 -0.48393695920E+01 -0.14578462167E+04  0.17682440168E+04  0.88906684167E+03 0.  0.
        -24    2    4    4    0    0  0.45594578986E+03  0.18950248097E+03 -0.14755766839E+04  0.15576868376E+04  0.72553294096E+02 0.  0.
         24    2    4    4    0    0  0.33014671562E+01 -0.19434185056E+03  0.17730467198E+02  0.21055717921E+03  0.78995580158E+02 0.  0.
         11    1    3    3    0    0 -0.45143670933E+01  0.15289404474E+01 -0.98335161107E+01  0.10927726582E+02  0.00000000000E+00 0.  1.
        -11    1    3    3    0    0 -0.45473288993E+03  0.33104291446E+01  0.12436795933E+03  0.47144495907E+03  0.00000000000E+00 0. -1.
          2    1    6    6  502    0  0.21030828559E+02 -0.19051408608E+03  0.16256757258E+02  0.19235954591E+03  0.00000000000E+00 0. -1.
          1    1    5    5  503    0  0.35594868627E+03  0.17226855149E+03 -0.12288136553E+04  0.12908752537E+04  0.00000000000E+00 0. -1.
         -2    1    5    5    0  503  0.99997103595E+02  0.17233929479E+02 -0.24676302854E+03  0.26681158391E+03  0.00000000000E+00 0.  1.
         -1    1    6    6    0  502 -0.17729361403E+02 -0.38277644758E+01  0.14737099400E+01  0.18197633297E+02  0.00000000000E+00 0.  1.
<mgrwt>
<rscale>  0 0.18057655E+04</rscale>
<asrwt>0</asrwt>
<pdfrwt beam="1">  1        2 0.27645603E+00 0.18057655E+04</pdfrwt>
<pdfrwt beam="2">  1       -2 0.69792688E-01 0.18057655E+04</pdfrwt>
<totfact> 0.15292197E+01</totfact>
</mgrwt>
</event>
<event>
12    1  0.1541840E-007  0.2669971E+04  0.7818608E-02  0.8344815E-01
          1   -1    0    0  501    0  0.00000000000E+00  0.00000000000E+00  0.45324691485E+04  0.45324691485E+04  0.00000000000E+00 0. -1.
         -1   -1    0    0    0  501 -0.00000000000E+00 -0.00000000000E+00 -0.39320425630E+03  0.39320425630E+03  0.00000000000E+00 0.  1.
         23    2    1    2    0    0 -0.17284586790E+03  0.98504703350E+03  0.29931392754E+04  0.31571365012E+04  0.91841237676E+02 0.  0.
        254    2    1    2    0    0  0.17284586790E+03 -0.98504703350E+03  0.11461256168E+04  0.17685369036E+04  0.90217819623E+03 0.  0.
        -24    2    4    4    0    0 -0.24038753282E+03 -0.85385237256E+03  0.88690097851E+03  0.12569002836E+04  0.79717859691E+02 0.  0.
         24    2    4    4    0    0  0.41323340072E+03 -0.13119466094E+03  0.25922463830E+03  0.51163662004E+03  0.81244909618E+02 0.  0.
         11    1    3    3    0    0 -0.28414696048E+02  0.42028809954E+03  0.12313311452E+04  0.13013938184E+04  0.00000000000E+00 0.  1.
        -11    1    3    3    0    0 -0.14443117185E+03  0.56475893396E+03  0.17618081302E+04  0.18557426827E+04  0.00000000000E+00 0. -1.
          4    1    6    6  502    0  0.33371969146E+03 -0.96124387978E+02  0.16850522131E+03  0.38600873052E+03  0.00000000000E+00 0. -1.
          1    1    5    5  503    0 -0.13050356744E+03 -0.59936495866E+03  0.60745651979E+03  0.86329193105E+03  0.00000000000E+00 0. -1.
         -2    1    5    5    0  503 -0.10988396538E+03 -0.25448741390E+03  0.27944445872E+03  0.39360835254E+03  0.00000000000E+00 0.  1.
         -3    1    6    6    0  502  0.79513709255E+02 -0.35070272959E+02  0.90719416992E+02  0.12562788952E+03  0.00000000000E+00 0.  1.
<mgrwt>
<rscale>  0 0.26699709E+04</rscale>
<asrwt>0</asrwt>
<pdfrwt beam="1">  1        1 0.69730291E+00 0.26699709E+04</pdfrwt>
<pdfrwt beam="2">  1       -1 0.60492966E-01 0.26699709E+04</pdfrwt>
<totfact> 0.72549100E-02</totfact>
</mgrwt>
</event>
<event>
12    1  0.1541840E-007  0.2006572E+04  0.7818608E-02  0.8603554E-01
          1   -1    0    0  501    0  0.00000000000E+00  0.00000000000E+00  0.10762862409E+04  0.10762862409E+04  0.00000000000E+00 0. -1.
         -1   -1    0    0    0  501 -0.00000000000E+00 -0.00000000000E+00 -0.93523736886E+03  0.93523736886E+03  0.00000000000E+00 0.  1.
         23    2    1    2    0    0 -0.71677459775E+03  0.53888548676E+02 -0.29628763276E+03  0.78251518545E+03  0.88734742267E+02 0.  0.
        254    2    1    2    0    0  0.71677459775E+03 -0.53888548676E+02  0.43733650484E+03  0.12290084244E+04  0.89583965586E+03 0.  0.
        -24    2    4    4    0    0 -0.40799418459E+02  0.29644980481E+03  0.10612723198E+03  0.32751755362E+03  0.80359686678E+02 0.  0.
         24    2    4    4    0    0  0.75757401620E+03 -0.35033835349E+03  0.33120927286E+03  0.90149087073E+03  0.79566674140E+02 0.  0.
         13    1    3    3    0    0 -0.49229533039E+03  0.65852568059E+02 -0.23526263041E+03  0.54958143920E+03  0.00000000000E+00 0.  1.
        -13    1    3    3    0    0 -0.22447926735E+03 -0.11964019383E+02 -0.61025002351E+02  0.23293374625E+03  0.00000000000E+00 0. -1.
          2    1    6    6  502    0  0.68387116466E+03 -0.29461223698E+03  0.31064716341E+03  0.80683195287E+03  0.00000000000E+00 0. -1.
          1    1    5    5  503    0 -0.43231648065E+02  0.23498190130E+03  0.49696986450E+02  0.24403946360E+03  0.00000000000E+00 0. -1.
         -2    1    5    5    0  503  0.24322296062E+01  0.61467903511E+02  0.56430245526E+02  0.83478090018E+02  0.00000000000E+00 0.  1.
         -1    1    6    6    0  502  0.73702851547E+02 -0.55726116504E+02  0.20562109452E+02  0.94658917868E+02  0.00000000000E+00 0.  1.
<mgrwt>
<rscale>  0 0.20065723E+04</rscale>
<asrwt>0</asrwt>
<pdfrwt beam="1">  1        1 0.16558250E+00 0.20065723E+04</pdfrwt>
<pdfrwt beam="2">  1       -1 0.14388267E+00 0.20065723E+04</pdfrwt>
<totfact> 0.47784388E+00</totfact>
</mgrwt>
</event>
<event>
12    1  0.1541840E-007  0.1900980E+04  0.7818608E-02  0.8654369E-01
         -1   -1    0    0    0  501 -0.00000000000E+00  0.00000000000E+00  0.61142709006E+03  0.61142709006E+03  0.00000000000E+00 0.  1.
          1   -1    0    0  501    0  0.00000000000E+00 -0.00000000000E+00 -0.14775784216E+04  0.14775784216E+04  0.00000000000E+00 0. -1.
         23    2    1    2    0    0  0.55645001771E+03  0.25935290905E+03 -0.72906909791E+03  0.95709905332E+03  0.87156724820E+02 0.  0.
        254    2    1    2    0    0 -0.55645001771E+03 -0.25935290905E+03 -0.13708223365E+03  0.11319064584E+04  0.94102079578E+03 0.  0.
        -24    2    4    4    0    0 -0.44110377169E+03 -0.37193431459E+03  0.30379290368E+03  0.65647753128E+03  0.75927261076E+02 0.  0.
         24    2    4    4    0    0 -0.11534624601E+03  0.11258140554E+03 -0.44087513733E+03  0.47542892710E+03  0.75382018173E+02 0.  0.
         13    1    3    3    0    0  0.23806381641E+03  0.96156720986E+02 -0.24262547268E+03  0.35325290610E+03  0.00000000000E+00 0.  1.
        -13    1    3    3    0    0  0.31838620130E+03  0.16319618807E+03 -0.48644362523E+03  0.60384614721E+03  0.00000000000E+00 0. -1.
          2    1    6    6  502    0 -0.88035829270E+02  0.11934089910E+03 -0.39079273801E+03  0.41798507331E+03  0.00000000000E+00 0. -1.
          1    1    5    5  503    0 -0.36361492167E+03 -0.30422784443E+03  0.21503986705E+03  0.52058864472E+03  0.00000000000E+00 0. -1.
         -2    1    5    5    0  503 -0.77488850027E+02 -0.67706470157E+02  0.88753036633E+02  0.13588888656E+03  0.00000000000E+00 0.  1.
         -1    1    6    6    0  502 -0.27310416744E+02 -0.67594935594E+01 -0.50082399325E+02  0.57443853789E+02  0.00000000000E+00 0.  1.
<mgrwt>
<rscale>  0 0.19009802E+04</rscale>
<asrwt>0</asrwt>
<pdfrwt beam="1">  1        1 0.22731976E+00 0.19009802E+04</pdfrwt>
<pdfrwt beam="2">  1       -1 0.94065706E-01 0.19009802E+04</pdfrwt>
<totfact> 0.69445933E+00</totfact>
</mgrwt>
</event>
<event>
12    1  0.1541840E-007  0.1956015E+04  0.7818608E-02  0.8627466E-01
          2   -1    0    0  501    0  0.00000000000E+00  0.00000000000E+00  0.54176482469E+03  0.54176482469E+03  0.00000000000E+00 0. -1.
         -2   -1    0    0    0  501 -0.00000000000E+00 -0.00000000000E+00 -0.17655231273E+04  0.17655231273E+04  0.00000000000E+00 0.  1.
         23    2    1    2    0    0 -0.56727977139E+03  0.33803120439E+03 -0.16685522912E+02  0.66673152517E+03  0.90449354961E+02 0.  0.
        254    2    1    2    0    0  0.56727977139E+03 -0.33803120439E+03 -0.12070727797E+04  0.16405564268E+04  0.89349273074E+03 0.  0.
        -24    2    4    4    0    0 -0.29222228390E+02  0.92145606868E+02 -0.77255643227E+03  0.78263601967E+03  0.79567246702E+02 0.  0.
         24    2    4    4    0    0  0.59650199978E+03 -0.43017681126E+03 -0.43451634738E+03  0.85792040710E+03  0.79726056569E+02 0.  0.
         13    1    3    3    0    0 -0.18805143458E+03  0.72273614395E+02  0.18556085322E+02  0.20231447226E+03  0.00000000000E+00 0.  1.
        -13    1    3    3    0    0 -0.37922833681E+03  0.26575759000E+03 -0.35241608234E+02  0.46441705291E+03  0.00000000000E+00 0. -1.
          2    1    6    6  502    0  0.50509380651E+03 -0.36605834536E+03 -0.40011277082E+03  0.74108615893E+03  0.00000000000E+00 0. -1.
          1    1    5    5  503    0 -0.40962475142E+02  0.10196602148E+03 -0.68135103072E+03  0.69015521513E+03  0.00000000000E+00 0. -1.
         -2    1    5    5    0  503  0.11740246752E+02 -0.98204146111E+01 -0.91205401546E+02  0.92480804539E+02  0.00000000000E+00 0.  1.
         -1    1    6    6    0  502  0.91408193268E+02 -0.64118465901E+02 -0.34403576558E+02  0.11683424817E+03  0.00000000000E+00 0.  1.
<mgrwt>
<rscale>  0 0.19560146E+04</rscale>
<asrwt>0</asrwt>
<pdfrwt beam="1">  1        2 0.83348435E-01 0.19560146E+04</pdfrwt>
<pdfrwt beam="2">  1       -2 0.27161894E+00 0.19560146E+04</pdfrwt>
<totfact> 0.24764129E+00</totfact>
</mgrwt>
</event>
<event>
12    1  0.1541840E-007  0.1279754E+04  0.7818608E-02  0.9045776E-01
         -2   -1    0    0    0  501 -0.00000000000E+00  0.00000000000E+00  0.82127990957E+03  0.82127990957E+03  0.00000000000E+00 0.  1.
          2   -1    0    0  501    0  0.00000000000E+00 -0.00000000000E+00 -0.49854217076E+03  0.49854217076E+03  0.00000000000E+00 0. -1.
         23    2    1    2    0    0  0.12232642564E+03  0.95272119618E+02 -0.20564444075E+03  0.27379887772E+03  0.92928242431E+02 0.  0.
        254    2    1    2    0    0 -0.12232642564E+03 -0.95272119618E+02  0.52838217955E+03  0.10460232026E+04  0.88934598529E+03 0.  0.
        -24    2    4    4    0    0 -0.18086387335E+03 -0.34247378617E+03  0.64416780212E+03  0.75585609857E+03  0.79788780878E+02 0.  0.
         24    2    4    4    0    0  0.58537447719E+02  0.24720166655E+03 -0.11578562257E+03  0.29016710405E+03  0.79090714666E+02 0.  0.
         11    1    3    3    0    0  0.11975750776E+02  0.14802653043E+02  0.76551953163E+01  0.20521675348E+02  0.00000000000E+00 0.  1.
        -11    1    3    3    0    0  0.11035067486E+03  0.80469466575E+02 -0.21329963607E+03  0.25327720237E+03  0.00000000000E+00 0. -1.
          2    1    6    6  502    0 -0.95601919112E+01  0.16057744073E+02  0.67052145895E+01  0.19854679971E+02  0.00000000000E+00 0. -1.
          1    1    5    5  503    0 -0.15217932147E+03 -0.24619757333E+03  0.52922392277E+03  0.60319959502E+03  0.00000000000E+00 0. -1.
         -2    1    5    5    0  503 -0.28684551889E+02 -0.96276212846E+02  0.11494387935E+03  0.15265650355E+03  0.00000000000E+00 0.  1.
         -1    1    6    6    0  502  0.68097639630E+02  0.23114392248E+03 -0.12249083716E+03  0.27031242408E+03  0.00000000000E+00 0.  1.
<mgrwt>
<rscale>  0 0.12797541E+04</rscale>
<asrwt>0</asrwt>
<pdfrwt beam="1">  1        2 0.76698795E-01 0.12797541E+04</pdfrwt>
<pdfrwt beam="2">  1       -2 0.12635076E+00 0.12797541E+04</pdfrwt>
<totfact> 0.28291509E+01</totfact>
</mgrwt>
</event>
<event>
12    1  0.1541840E-007  0.2689602E+04  0.7818608E-02  0.8338387E-01
         -1   -1    0    0    0  501 -0.00000000000E+00  0.00000000000E+00  0.13181425453E+04  0.13181425453E+04  0.00000000000E+00 0.  1.
          1   -1    0    0  501    0  0.00000000000E+00 -0.00000000000E+00 -0.13719985323E+04  0.13719985323E+04  0.00000000000E+00 0. -1.
         23    2    1    2    0    0 -0.11346303323E+04  0.29292780401E+03 -0.21850759978E+03  0.11956712957E+04  0.93228680472E+02 0.  0.
        254    2    1    2    0    0  0.11346303323E+04 -0.29292780401E+03  0.16465161283E+03  0.14944697819E+04  0.91276343375E+03 0.  0.
        -24    2    4    4    0    0  0.67673344363E+03 -0.32569747093E+03  0.51292283778E+03  0.91280791478E+03  0.77983687247E+02 0.  0.
         24    2    4    4    0    0  0.45789688866E+03  0.32769666918E+02 -0.34827122495E+03  0.58166186709E+03  0.79336434148E+02 0.  0.
         13    1    3    3    0    0 -0.10588352006E+04  0.25829191690E+03 -0.18323353693E+03  0.11051792730E+04  0.00000000000E+00 0.  1.
        -13    1    3    3    0    0 -0.75795131657E+02  0.34635887107E+02 -0.35274062854E+02  0.90492022681E+02  0.00000000000E+00 0. -1.
          4    1    6    6  502    0  0.25366153301E+03  0.10439395070E+02 -0.14366837919E+03  0.29170834318E+03  0.00000000000E+00 0. -1.
          1    1    5    5  503    0  0.33631229047E+02 -0.33773226196E+02  0.45413982438E+02  0.65834035086E+02  0.00000000000E+00 0. -1.
         -2    1    5    5    0  503  0.64310221458E+03 -0.29192424473E+03  0.46750885534E+03  0.84697387969E+03  0.00000000000E+00 0.  1.
         -3    1    6    6    0  502  0.20423535565E+03  0.22330271848E+02 -0.20460284575E+03  0.28995352391E+03  0.00000000000E+00 0.  1.
<mgrwt>
<rscale>  0 0.26896019E+04</rscale>
<asrwt>0</asrwt>
<pdfrwt beam="1">  1        1 0.21107670E+00 0.26896019E+04</pdfrwt>
<pdfrwt beam="2">  1       -1 0.20279116E+00 0.26896019E+04</pdfrwt>
<totfact> 0.10117600E+00</totfact>
</mgrwt>
</event>
<event>
12    1  0.1541840E-007  0.1470249E+04  0.7818608E-02  0.8904481E-01
          1   -1    0    0  501    0  0.00000000000E+00  0.00000000000E+00  0.12072978441E+04  0.12072978441E+04  0.00000000000E+00 0. -1.
         -1   -1    0    0    0  501 -0.00000000000E+00 -0.00000000000E+00 -0.44761799980E+03  0.44761799980E+03  0.00000000000E+00 0.  1.
         23    2    1    2    0    0  0.39762598363E+03 -0.13156896994E+02 -0.54566875724E+01  0.40797031283E+03  0.90169140600E+02 0.  0.
        254    2    1    2    0    0 -0.39762598363E+03  0.13156896994E+02  0.76513653191E+03  0.12469455311E+04  0.90064405748E+03 0.  0.
        -24    2    4    4    0    0 -0.11702289451E+03 -0.32978757314E+02 -0.19419835754E+03  0.24319767245E+03  0.81548449044E+02 0.  0.
         24    2    4    4    0    0 -0.28060308913E+03  0.46135654308E+02  0.95933488944E+03  0.10037478587E+04  0.79496801278E+02 0.  0.
         11    1    3    3    0    0  0.16110633013E+02 -0.17569263401E+02 -0.11309870363E+02  0.26384553817E+02  0.00000000000E+00 0.  1.
        -11    1    3    3    0    0  0.38151535062E+03  0.44123664064E+01  0.58531827903E+01  0.38158575902E+03  0.00000000000E+00 0. -1.
          4    1    6    6  502    0 -0.67324167941E+02  0.17581420574E+02  0.36701082366E+03  0.37354865095E+03  0.00000000000E+00 0. -1.
          3    1    5    5  503    0 -0.11793020796E+03 -0.47973263081E+01 -0.16128085996E+03  0.19985510771E+03  0.00000000000E+00 0. -1.
         -4    1    5    5    0  503  0.90731345230E+00 -0.28181431006E+02 -0.32917497580E+02  0.43342564739E+02  0.00000000000E+00 0.  1.
         -1    1    6    6    0  502 -0.21327892118E+03  0.28554233734E+02  0.59232406578E+03  0.63019920770E+03  0.00000000000E+00 0.  1.
<mgrwt>
<rscale>  0 0.14702493E+04</rscale>
<asrwt>0</asrwt>
<pdfrwt beam="1">  1        1 0.18573813E+00 0.14702493E+04</pdfrwt>
<pdfrwt beam="2">  1       -1 0.68864308E-01 0.14702493E+04</pdfrwt>
<totfact> 0.21839135E+01</totfact>
</mgrwt>
</event>
<event>
12    1  0.1541840E-007  0.4630759E+04  0.7818608E-02  0.7888136E-01
          2   -1    0    0  501    0  0.00000000000E+00  0.00000000000E+00  0.32833219142E+04  0.32833219142E+04  0.00000000000E+00 0. -1.
         -2   -1    0    0    0  501 -0.00000000000E+00 -0.00000000000E+00 -0.16327918728E+04  0.16327918728E+04  0.00000000000E+00 0.  1.
         23    2    1    2    0    0  0.16397841715E+04  0.11522784611E+04  0.18237343372E+04  0.27112519241E+04  0.90787015379E+02 0.  0.
        254    2    1    2    0    0 -0.16397841715E+04 -0.11522784611E+04 -0.17320429588E+03  0.22048618628E+04  0.90265072156E+03 0.  0.
        -24    2    4    4    0    0 -0.14211278380E+04 -0.12799680974E+04 -0.55392139777E+02  0.19148523733E+04  0.75290504324E+02 0.  0.
         24    2    4    4    0    0 -0.21865633348E+03  0.12768963628E+03 -0.11781215611E+03  0.29000948956E+03  0.78170099952E+02 0.  0.
         13    1    3    3    0    0  0.15558978967E+04  0.10922598445E+04  0.17010056085E+04  0.25509351056E+04  0.00000000000E+00 0. -1.
        -13    1    3    3    0    0  0.83886274780E+02  0.60018616588E+02  0.12272872871E+03  0.16031681847E+03  0.00000000000E+00 0.  1.
          2    1    6    6  502    0 -0.39519383237E+02 -0.23194491710E+01 -0.37552695482E+02  0.54565249325E+02  0.00000000000E+00 0. -1.
          1    1    5    5  503    0 -0.12189728008E+03 -0.13113313093E+03  0.99461859036E+01  0.17931472759E+03  0.00000000000E+00 0. -1.
         -2    1    5    5    0  503 -0.12992305579E+04 -0.11488349665E+04 -0.65338325681E+02  0.17355376457E+04  0.00000000000E+00 0.  1.
         -1    1    6    6    0  502 -0.17913695025E+03  0.13000908545E+03 -0.80259460623E+02  0.23544424024E+03  0.00000000000E+00 0.  1.
<mgrwt>
<rscale>  0 0.46307586E+04</rscale>
<asrwt>0</asrwt>
<pdfrwt beam="1">  1        2 0.50512645E+00 0.46307586E+04</pdfrwt>
<pdfrwt beam="2">  1       -2 0.25119875E+00 0.46307586E+04</pdfrwt>
<totfact> 0.54064659E-02</totfact>
</mgrwt>
</event>
<event>
12    1  0.1541840E-007  0.1854140E+04  0.7818608E-02  0.8678027E-01
          1   -1    0    0  501    0  0.00000000000E+00  0.00000000000E+00  0.12836793806E+04  0.12836793806E+04  0.00000000000E+00 0. -1.
         -1   -1    0    0    0  501 -0.00000000000E+00 -0.00000000000E+00 -0.66952736566E+03  0.66952736566E+03  0.00000000000E+00 0.  1.
         23    2    1    2    0    0 -0.14213426519E+03 -0.61474442935E+03 -0.95620258475E+02  0.64474561267E+03  0.91873872620E+02 0.  0.
        254    2    1    2    0    0  0.14213426519E+03  0.61474442935E+03  0.70977227342E+03  0.13084611336E+04  0.90010054729E+03 0.  0.
        -24    2    4    4    0    0 -0.26059786079E+03  0.60129577952E+03  0.29131238052E+03  0.72219547513E+03  0.85061987630E+02 0.  0.
         24    2    4    4    0    0  0.40273212598E+03  0.13448649833E+02  0.41845989289E+03  0.58626565845E+03  0.78896824007E+02 0.  0.
         13    1    3    3    0    0 -0.10465409324E+03 -0.36576941429E+03 -0.16414213001E+02  0.38080069597E+03  0.00000000000E+00 0. -1.
        -13    1    3    3    0    0 -0.37480171950E+02 -0.24897501506E+03 -0.79206045474E+02  0.26394491670E+03  0.00000000000E+00 0.  1.
          4    1    6    6  502    0  0.12692859180E+03  0.24335810018E+02  0.17945669531E+03  0.22115108988E+03  0.00000000000E+00 0. -1.
          3    1    5    5  503    0 -0.19260908982E+02  0.10822938660E+03  0.28483374449E+02  0.11356005177E+03  0.00000000000E+00 0. -1.
         -4    1    5    5    0  503 -0.24133695181E+03  0.49306639292E+03  0.26282900607E+03  0.60863542336E+03  0.00000000000E+00 0.  1.
         -3    1    6    6    0  502  0.27580353418E+03 -0.10887160185E+02  0.23900319759E+03  0.36511456857E+03  0.00000000000E+00 0.  1.
<mgrwt>
<rscale>  0 0.18541397E+04</rscale>
<asrwt>0</asrwt>
<pdfrwt beam="1">  1        1 0.19748914E+00 0.18541397E+04</pdfrwt>
<pdfrwt beam="2">  1       -1 0.10300421E+00 0.18541397E+04</pdfrwt>
<totfact> 0.77705243E+00</totfact>
</mgrwt>
</event>
<event>
12    1  0.1541840E-007  0.1808494E+04  0.7818608E-02  0.8701795E-01
          1   -1    0    0  501    0  0.00000000000E+00  0.00000000000E+00  0.18496694817E+04  0.18496694817E+04  0.00000000000E+00 0. -1.
         -1   -1    0    0    0  501 -0.00000000000E+00 -0.00000000000E+00 -0.44205883686E+03  0.44205883686E+03  0.00000000000E+00 0.  1.
         23    2    1    2    0    0 -0.65035031353E+03 -0.20435587854E+03  0.42261768140E+03  0.80706606671E+03  0.89627428841E+02 0.  0.
        254    2    1    2    0    0  0.65035031353E+03  0.20435587854E+03  0.98499296345E+03  0.14846622519E+04  0.87709407060E+03 0.  0.
        -24    2    4    4    0    0  0.86248920921E+02 -0.49524220954E+02  0.83298451305E+03  0.84270035572E+03  0.79932257106E+02 0.  0.
         24    2    4    4    0    0  0.56410139261E+03  0.25388009949E+03  0.15200845040E+03  0.64196189615E+03  0.79643085464E+02 0.  0.
         13    1    3    3    0    0 -0.24848971009E+02 -0.26965053808E+02  0.31361210322E+02  0.48250502588E+02  0.00000000000E+00 0. -1.
        -13    1    3    3    0    0 -0.62550134252E+03 -0.17739082473E+03  0.39125647108E+03  0.75881556412E+03  0.00000000000E+00 0.  1.
          4    1    6    6  502    0  0.41784328086E+03  0.15673597904E+03  0.86620216864E+02  0.45460118396E+03  0.00000000000E+00 0. -1.
          3    1    5    5  503    0  0.59171501778E+02 -0.68974234931E+02  0.68531190115E+03  0.69131115539E+03  0.00000000000E+00 0. -1.
         -4    1    5    5    0  503  0.27077419143E+02  0.19450013977E+02  0.14767261189E+03  0.15138920032E+03  0.00000000000E+00 0.  1.
         -3    1    6    6    0  502  0.14625811175E+03  0.97144120450E+02  0.65388233539E+02  0.18736071220E+03  0.00000000000E+00 0.  1.
<mgrwt>
<rscale>  0 0.18084941E+04</rscale>
<asrwt>0</asrwt>
<pdfrwt beam="1">  1        1 0.28456453E+00 0.18084941E+04</pdfrwt>
<pdfrwt beam="2">  1       -1 0.68009053E-01 0.18084941E+04</pdfrwt>
<totfact> 0.77798500E+00</totfact>
</mgrwt>
</event>
<event>
12    1  0.1541840E-007  0.1660996E+04  0.7818608E-02  0.8783928E-01
         -1   -1    0    0    0  501 -0.00000000000E+00  0.00000000000E+00  0.63805063455E+03  0.63805063455E+03  0.00000000000E+00 0.  1.
          1   -1    0    0  501    0  0.00000000000E+00 -0.00000000000E+00 -0.10809914198E+04  0.10809914198E+04  0.00000000000E+00 0. -1.
         23    2    1    2    0    0  0.34631866926E+03 -0.35825040077E+03  0.15828389196E+03  0.53038877013E+03  0.89322375130E+02 0.  0.
        254    2    1    2    0    0 -0.34631866926E+03  0.35825040077E+03 -0.60122467717E+03  0.11886532842E+04  0.89618388027E+03 0.  0.
        -24    2    4    4    0    0 -0.58592592844E+03  0.17643754478E+02 -0.43013313005E+03  0.73150248628E+03  0.80379612984E+02 0.  0.
         24    2    4    4    0    0  0.23960725918E+03  0.34060664629E+03 -0.17109154712E+03  0.45715079791E+03  0.79309573091E+02 0.  0.
         13    1    3    3    0    0  0.87269406697E+02 -0.12009415983E+03  0.84606147453E+02  0.17087058482E+03  0.00000000000E+00 0. -1.
        -13    1    3    3    0    0  0.25904926256E+03 -0.23815624093E+03  0.73677744503E+02  0.35951818531E+03  0.00000000000E+00 0.  1.
          4    1    6    6  502    0  0.11719231648E+03  0.23345059673E+03 -0.10309915768E+03  0.28082495699E+03  0.00000000000E+00 0. -1.
          1    1    5    5  503    0 -0.23979791743E+02 -0.15620988425E+02 -0.24160684537E+02  0.37453763078E+02  0.00000000000E+00 0. -1.
         -2    1    5    5    0  503 -0.56194613670E+03  0.33264742902E+02 -0.40597244551E+03  0.69404872320E+03  0.00000000000E+00 0.  1.
         -3    1    6    6    0  502  0.12241494270E+03  0.10715604956E+03 -0.67992389441E+02  0.17632584092E+03  0.00000000000E+00 0.  1.
<mgrwt>
<rscale>  0 0.16609964E+04</rscale>
<asrwt>0</asrwt>
<pdfrwt beam="1">  1        1 0.16630637E+00 0.16609964E+04</pdfrwt>
<pdfrwt beam="2">  1       -1 0.98161638E-01 0.16609964E+04</pdfrwt>
<totfact> 0.12443545E+01</totfact>
</mgrwt>
</event>
<event>
12    1  0.1541840E-007  0.1468712E+04  0.7818608E-02  0.8905530E-01
          1   -1    0    0  501    0  0.00000000000E+00  0.00000000000E+00  0.10529391806E+04  0.10529391806E+04  0.00000000000E+00 0. -1.
         -1   -1    0    0    0  501 -0.00000000000E+00 -0.00000000000E+00 -0.51216489441E+03  0.51216489441E+03  0.00000000000E+00 0.  1.
         23    2    1    2    0    0  0.10034787288E+03 -0.35563387400E+03 -0.14386850549E+03  0.40899544846E+03  0.10016976622E+03 0.  0.
        254    2    1    2    0    0 -0.10034787288E+03  0.35563387400E+03  0.68464279172E+03  0.11561086266E+04  0.85516446155E+03 0.  0.
        -24    2    4    4    0    0 -0.32017664666E+03  0.36167953790E+03  0.76518951792E+03  0.90842041727E+03  0.79921730322E+02 0.  0.
         24    2    4    4    0    0  0.21982877378E+03 -0.60456639060E+01 -0.80546726198E+02  0.24768820932E+03  0.80625269613E+02 0.  0.
         13    1    3    3    0    0  0.53494675419E+02 -0.25808701328E+03 -0.55663820760E+02  0.26938642814E+03  0.00000000000E+00 0.  1.
        -13    1    3    3    0    0  0.46853197462E+02 -0.97546860714E+02 -0.88204684731E+02  0.13960902032E+03  0.00000000000E+00 0. -1.
          4    1    6    6  502    0  0.40160740621E+02 -0.19837392973E+02 -0.46007429331E+02  0.64211298078E+02  0.00000000000E+00 0. -1.
          1    1    5    5  503    0 -0.12724415880E+03  0.14763974372E+03  0.38332483838E+03  0.43003081470E+03  0.00000000000E+00 0. -1.
         -2    1    5    5    0  503 -0.19293248786E+03  0.21403979419E+03  0.38186467954E+03  0.47838960257E+03  0.00000000000E+00 0.  1.
         -3    1    6    6    0  502  0.17966803316E+03  0.13791729067E+02 -0.34539296866E+02  0.18347691124E+03  0.00000000000E+00 0.  1.
<mgrwt>
<rscale>  0 0.14687117E+04</rscale>
<asrwt>0</asrwt>
<pdfrwt beam="1">  1        1 0.16199064E+00 0.14687117E+04</pdfrwt>
<pdfrwt beam="2">  1       -1 0.78794599E-01 0.14687117E+04</pdfrwt>
<totfact> 0.21515146E+01</totfact>
</mgrwt>
</event>
<event>
12    1  0.1541840E-007  0.2034370E+04  0.7818608E-02  0.8590718E-01
          2   -1    0    0  501    0  0.00000000000E+00  0.00000000000E+00  0.36791434862E+04  0.36791434862E+04  0.00000000000E+00 0. -1.
         -2   -1    0    0    0  501 -0.00000000000E+00 -0.00000000000E+00 -0.28122464752E+03  0.28122464752E+03  0.00000000000E+00 0.  1.
         23    2    1    2    0    0  0.56511013634E+03  0.22783982348E+03  0.27968079550E+03  0.67666245407E+03  0.91598460767E+02 0.  0.
        254    2    1    2    0    0 -0.56511013634E+03 -0.22783982348E+03  0.31182380432E+04  0.32837056796E+04  0.82949023216E+03 0.  0.
        -24    2    4    4    0    0 -0.29104121379E+03  0.29520060905E+03  0.10596942241E+04  0.11406601952E+04  0.79406829849E+02 0.  0.
         24    2    4    4    0    0 -0.27406892255E+03 -0.52304043252E+03  0.20585438191E+04  0.21430454844E+04  0.79725936471E+02 0.  0.
         11    1    3    3    0    0  0.45502764038E+03  0.14637723952E+03  0.19936936420E+03  0.51790403855E+03  0.00000000000E+00 0.  1.
        -11    1    3    3    0    0  0.11008249596E+03  0.81462583953E+02  0.80311431294E+02  0.15875841552E+03  0.00000000000E+00 0. -1.
          4    1    6    6  502    0 -0.22919572287E+03 -0.42425061407E+03  0.15597559974E+04  0.16325924275E+04  0.00000000000E+00 0. -1.
          3    1    5    5  503    0 -0.23500700319E+03  0.20375798620E+03  0.85021911288E+03  0.90532764698E+03  0.00000000000E+00 0. -1.
         -4    1    5    5    0  503 -0.56034210604E+02  0.91442622848E+02  0.20947511121E+03  0.23533254821E+03  0.00000000000E+00 0.  1.
         -3    1    6    6    0  502 -0.44873199678E+02 -0.98789818453E+02  0.49878782163E+03  0.51045305689E+03  0.00000000000E+00 0.  1.
<mgrwt>
<rscale>  0 0.20343705E+04</rscale>
<asrwt>0</asrwt>
<pdfrwt beam="1">  1        2 0.56602204E+00 0.20343705E+04</pdfrwt>
<pdfrwt beam="2">  1       -2 0.43265333E-01 0.20343705E+04</pdfrwt>
<totfact> 0.28571705E+00</totfact>
</mgrwt>
</event>
<event>
12    1  0.1541840E-007  0.1346945E+04  0.7818608E-02  0.8993144E-01
          1   -1    0    0  501    0  0.00000000000E+00  0.00000000000E+00  0.73127758326E+03  0.73127758326E+03  0.00000000000E+00 0. -1.
         -1   -1    0    0    0  501 -0.00000000000E+00 -0.00000000000E+00 -0.62023649810E+03  0.62023649810E+03  0.00000000000E+00 0.  1.
         23    2    1    2    0    0  0.23766556420E+03 -0.15942147288E+02  0.31664690939E+03  0.40633925180E+03  0.90040267979E+02 0.  0.
        254    2    1    2    0    0 -0.23766556420E+03  0.15942147288E+02 -0.20560582424E+03  0.94517482956E+03  0.89125901455E+03 0.  0.
        -24    2    4    4    0    0  0.23472366100E+02 -0.42543649643E+02 -0.51792226312E+03  0.52647515048E+03  0.81066018442E+02 0.  0.
         24    2    4    4    0    0 -0.26113793030E+03  0.58485796930E+02  0.31231643888E+03  0.41869967908E+03  0.78449067449E+02 0.  0.
         11    1    3    3    0    0  0.10168583388E+03 -0.22226344601E+02  0.20643666022E+03  0.23119280675E+03  0.00000000000E+00 0. -1.
        -11    1    3    3    0    0  0.13597973032E+03  0.62841973135E+01  0.11021024917E+03  0.17514644505E+03  0.00000000000E+00 0.  1.
          2    1    6    6  502    0 -0.15127279082E+03 -0.36279464806E+00  0.14062389698E+03  0.20653975226E+03  0.00000000000E+00 0. -1.
          3    1    5    5  503    0  0.25053225139E+02  0.19864537399E+02 -0.18771038803E+03  0.19041390105E+03  0.00000000000E+00 0. -1.
         -2    1    5    5    0  503 -0.15808590385E+01 -0.62408187042E+02 -0.33021187509E+03  0.33606124944E+03  0.00000000000E+00 0.  1.
         -1    1    6    6    0  502 -0.10986513948E+03  0.58848591578E+02  0.17169254190E+03  0.21215992682E+03  0.00000000000E+00 0.  1.
<mgrwt>
<rscale>  0 0.13469448E+04</rscale>
<asrwt>0</asrwt>
<pdfrwt beam="1">  1        1 0.11250424E+00 0.13469448E+04</pdfrwt>
<pdfrwt beam="2">  1       -1 0.95421000E-01 0.13469448E+04</pdfrwt>
<totfact> 0.26454393E+01</totfact>
</mgrwt>
</event>
<event>
12    1  0.1541840E-007  0.1622524E+04  0.7818608E-02  0.8806829E-01
          2   -1    0    0  501    0  0.00000000000E+00  0.00000000000E+00  0.20640649482E+04  0.20640649482E+04  0.00000000000E+00 0. -1.
         -2   -1    0    0    0  501 -0.00000000000E+00 -0.00000000000E+00 -0.31885936225E+03  0.31885936225E+03  0.00000000000E+00 0.  1.
         23    2    1    2    0    0 -0.20966830113E+03 -0.16277973887E+03  0.13269522604E+04  0.13562604286E+04  0.90454457628E+02 0.  0.
        254    2    1    2    0    0  0.20966830113E+03  0.16277973887E+03  0.41825332557E+03  0.10266638819E+04  0.89924681936E+03 0.  0.
        -24    2    4    4    0    0 -0.86563920242E+01 -0.30683144479E+03 -0.53965567961E+02  0.32127012641E+03  0.77985530484E+02 0.  0.
         24    2    4    4    0    0  0.21832469316E+03  0.46961118366E+03  0.47221889353E+03  0.70539375547E+03  0.79933293336E+02 0.  0.
         11    1    3    3    0    0 -0.81514722762E+02 -0.11879709576E+03  0.73685783325E+03  0.75081080600E+03  0.00000000000E+00 0. -1.
        -11    1    3    3    0    0 -0.12815357837E+03 -0.43982643117E+02  0.59009442711E+03  0.60544962255E+03  0.00000000000E+00 0.  1.
          2    1    6    6  502    0  0.13581009351E+03  0.19771527942E+03  0.21785953827E+03  0.32403470744E+03  0.00000000000E+00 0. -1.
          1    1    5    5  503    0 -0.28778474477E+02 -0.25060103866E+03 -0.65112919457E+02  0.26051635928E+03  0.00000000000E+00 0. -1.
         -2    1    5    5    0  503  0.20122082453E+02 -0.56230406131E+02  0.11147351496E+02  0.60753767136E+02  0.00000000000E+00 0.  1.
         -1    1    6    6    0  502  0.82514599649E+02  0.27189590425E+03  0.25435935527E+03  0.38135904803E+03  0.00000000000E+00 0.  1.
<mgrwt>
<rscale>  0 0.16225245E+04</rscale>
<asrwt>0</asrwt>
<pdfrwt beam="1">  1        2 0.31754845E+00 0.16225245E+04</pdfrwt>
<pdfrwt beam="2">  1       -2 0.49055288E-01 0.16225245E+04</pdfrwt>
<totfact> 0.23184985E+01</totfact>
</mgrwt>
</event>
<event>
12    1  0.1541840E-007  0.1089041E+04  0.7818608E-02  0.9215939E-01
         -2   -1    0    0    0  501 -0.00000000000E+00  0.00000000000E+00  0.13159452729E+03  0.13159452729E+03  0.00000000000E+00 0. -1.
          2   -1    0    0  501    0  0.00000000000E+00 -0.00000000000E+00 -0.22531541189E+04  0.22531541189E+04  0.00000000000E+00 0.  1.
         23    2    1    2    0    0 -0.15127048141E+03 -0.17562826727E+02 -0.21325027058E+03  0.27747140754E+03  0.91233177460E+02 0.  0.
        254    2    1    2    0    0  0.15127048141E+03  0.17562826727E+02 -0.19083093210E+04  0.21072772386E+04  0.88078469811E+03 0.  0.
        -24    2    4    4    0    0  0.25555266979E+03 -0.21913452037E+03 -0.17705045087E+04  0.18039374362E+04  0.78593596399E+02 0.  0.
         24    2    4    4    0    0 -0.10428218838E+03  0.23669734710E+03 -0.13780481232E+03  0.30333980244E+03  0.78258932451E+02 0.  0.
         11    1    3    3    0    0 -0.20420373109E+02 -0.22156649838E+02 -0.99723878641E+02  0.10417658442E+03  0.00000000000E+00 0.  1.
        -11    1    3    3    0    0 -0.13085010830E+03  0.45938231115E+01 -0.11352639194E+03  0.17329482312E+03  0.00000000000E+00 0. -1.
          2    1    6    6  502    0 -0.50087749433E+02  0.14634445484E+03 -0.12157287457E+03  0.19673699687E+03  0.00000000000E+00 0. -1.
          3    1    5    5  503    0  0.22098389492E+03 -0.21815628285E+03 -0.15590810499E+04  0.15897043014E+04  0.00000000000E+00 0. -1.
         -4    1    5    5    0  503  0.34568774873E+02 -0.97823751882E+00 -0.21142345875E+03  0.21423313482E+03  0.00000000000E+00 0.  1.
         -1    1    6    6    0  502 -0.54194438952E+02  0.90352892255E+02 -0.16231937751E+02  0.10660280557E+03  0.00000000000E+00 0.  1.
<mgrwt>
<rscale>  0 0.10890413E+04</rscale>
<asrwt>0</asrwt>
<pdfrwt beam="1">  1        2 0.34663907E+00 0.10890413E+04</pdfrwt>
<pdfrwt beam="2">  1       -2 0.20245314E-01 0.10890413E+04</pdfrwt>
<totfact> 0.10070207E+02</totfact>
</mgrwt>
</event>
<event>
12    1  0.1541840E-007  0.2180821E+04  0.7818608E-02  0.8526454E-01
         -1   -1    0    0    0  501 -0.00000000000E+00  0.00000000000E+00  0.23422390081E+04  0.23422390081E+04  0.00000000000E+00 0.  1.
          1   -1    0    0  501    0  0.00000000000E+00 -0.00000000000E+00 -0.50763174243E+03  0.50763174243E+03  0.00000000000E+00 0. -1.
         23    2    1    2    0    0  0.37981298803E+03 -0.40966708280E+03 -0.16421471011E+03  0.58901497410E+03  0.88809594575E+02 0.  0.
        254    2    1    2    0    0 -0.37981298803E+03  0.40966708280E+03  0.19988219758E+04  0.22608557764E+04  0.89671317953E+03 0.  0.
        -24    2    4    4    0    0 -0.50819640592E+03  0.49101584171E+03  0.89448080545E+03  0.11433853580E+04  0.88735684876E+02 0.  0.
         24    2    4    4    0    0  0.12838341789E+03 -0.81348758907E+02  0.11043411703E+04  0.11174704184E+04  0.77915293830E+02 0.  0.
         13    1    3    3    0    0  0.37188783231E+02 -0.12463905244E+02  0.43082841402E+00  0.39224229059E+02  0.00000000000E+00 0.  1.
        -13    1    3    3    0    0  0.34262420480E+03 -0.39720317756E+03 -0.16464553852E+03  0.54979074504E+03  0.00000000000E+00 0. -1.
          2    1    6    6  502    0  0.57549385477E+01  0.10027692378E+02  0.27608862317E+02  0.29931976389E+02  0.00000000000E+00 0. -1.
          1    1    5    5  503    0 -0.15620514958E+03  0.11750265469E+03  0.29935624543E+03  0.35752074666E+03  0.00000000000E+00 0. -1.
         -2    1    5    5    0  503 -0.35199125635E+03  0.37351318702E+03  0.59512456002E+03  0.78586461134E+03  0.00000000000E+00 0.  1.
         -1    1    6    6    0  502  0.12262847934E+03 -0.91376451285E+02  0.10767323080E+04  0.10875384420E+04  0.00000000000E+00 0.  1.
<mgrwt>
<rscale>  0 0.21808208E+04</rscale>
<asrwt>0</asrwt>
<pdfrwt beam="1">  1        1 0.78097192E-01 0.21808208E+04</pdfrwt>
<pdfrwt beam="2">  1       -1 0.36034446E+00 0.21808208E+04</pdfrwt>
<totfact> 0.52613992E-01</totfact>
</mgrwt>
</event>
<event>
12    1  0.1541840E-007  0.2527792E+04  0.7818608E-02  0.8393151E-01
          2   -1    0    0  501    0  0.00000000000E+00  0.00000000000E+00  0.16671176433E+04  0.16671176433E+04  0.00000000000E+00 0. -1.
         -2   -1    0    0    0  501 -0.00000000000E+00 -0.00000000000E+00 -0.95820033943E+03  0.95820033943E+03  0.00000000000E+00 0.  1.
         23    2    1    2    0    0 -0.19539866613E+03 -0.10472767511E+04  0.58061448521E+03  0.12167022721E+04  0.91005529482E+02 0.  0.
        254    2    1    2    0    0  0.19539866613E+03  0.10472767511E+04  0.12830281865E+03  0.14086157106E+04  0.91256088818E+03 0.  0.
        -24    2    4    4    0    0 -0.21427418211E+03  0.12530975252E+03 -0.21695918025E+03  0.33934536302E+03  0.80424065516E+02 0.  0.
         24    2    4    4    0    0  0.40967284825E+03  0.92196699862E+03  0.34526199890E+03  0.10692703476E+04  0.79235340345E+02 0.  0.
         13    1    3    3    0    0 -0.11234118147E+03 -0.48598507363E+03  0.22609868282E+03  0.54765193985E+03  0.00000000000E+00 0. -1.
        -13    1    3    3    0    0 -0.83057484665E+02 -0.56129167750E+03  0.35451580239E+03  0.66905033229E+03  0.00000000000E+00 0.  1.
          4    1    6    6  502    0  0.11242665581E+03  0.31914801809E+03  0.14327829641E+03  0.36745595737E+03  0.00000000000E+00 0. -1.
          3    1    5    5  503    0 -0.79311550681E+02  0.15561788769E+02 -0.10489094160E+03  0.13241828035E+03  0.00000000000E+00 0. -1.
         -4    1    5    5    0  503 -0.13496263143E+03  0.10974796375E+03 -0.11206823865E+03  0.20692708267E+03  0.00000000000E+00 0.  1.
         -3    1    6    6    0  502  0.29724619244E+03  0.60281898053E+03  0.20198370249E+03  0.70181439019E+03  0.00000000000E+00 0.  1.
<mgrwt>
<rscale>  0 0.25277917E+04</rscale>
<asrwt>0</asrwt>
<pdfrwt beam="1">  1        2 0.25647964E+00 0.25277917E+04</pdfrwt>
<pdfrwt beam="2">  1       -2 0.14741544E+00 0.25277917E+04</pdfrwt>
<totfact> 0.28561633E+00</totfact>
</mgrwt>
</event>
<event>
12    1  0.1541840E-007  0.1306055E+04  0.7818608E-02  0.9024777E-01
         -1   -1    0    0    0  501 -0.00000000000E+00  0.00000000000E+00  0.18447587263E+04  0.18447587263E+04  0.00000000000E+00 0.  1.
          1   -1    0    0  501    0  0.00000000000E+00 -0.00000000000E+00 -0.23116573382E+03  0.23116573382E+03  0.00000000000E+00 0. -1.
         23    2    1    2    0    0  0.21418581917E+03 -0.78033998864E+02  0.79552676978E+03  0.83265622726E+03  0.92134039589E+02 0.  0.
        254    2    1    2    0    0 -0.21418581917E+03  0.78033998864E+02  0.81806622266E+03  0.12432682328E+04  0.90803011183E+03 0.  0.
        -24    2    4    4    0    0  0.28340833174E+03 -0.18499859292E+03  0.43904295278E+03  0.55991100466E+03  0.78720117346E+02 0.  0.
         24    2    4    4    0    0 -0.49759415090E+03  0.26303259178E+03  0.37902326988E+03  0.68335722817E+03  0.80823132997E+02 0.  0.
         11    1    3    3    0    0  0.19266951318E+03 -0.95045550901E+02  0.74248821687E+03  0.77294498526E+03  0.00000000000E+00 0.  1.
        -11    1    3    3    0    0  0.21516305988E+02  0.17011552038E+02  0.53038552907E+02  0.59711241995E+02  0.00000000000E+00 0. -1.
          2    1    6    6  502    0 -0.11597851783E+03  0.73077495613E+02  0.54127669394E+02  0.14738094027E+03  0.00000000000E+00 0. -1.
          1    1    5    5  503    0  0.20597671775E+03 -0.15006419094E+03  0.37556362868E+03  0.45386529813E+03  0.00000000000E+00 0. -1.
         -2    1    5    5    0  503  0.77431613981E+02 -0.34934401980E+02  0.63479324099E+02  0.10604570653E+03  0.00000000000E+00 0.  1.
         -1    1    6    6    0  502 -0.38161563308E+03  0.18995509617E+03  0.32489560049E+03  0.53597628789E+03  0.00000000000E+00 0.  1.
<mgrwt>
<rscale>  0 0.13060551E+04</rscale>
<asrwt>0</asrwt>
<pdfrwt beam="1">  1        1 0.35563960E-01 0.13060551E+04</pdfrwt>
<pdfrwt beam="2">  1       -1 0.28380902E+00 0.13060551E+04</pdfrwt>
<totfact> 0.51040219E+00</totfact>
</mgrwt>
</event>
<event>
12    1  0.1541840E-007  0.3596225E+04  0.7818608E-02  0.8091357E-01
          1   -1    0    0  501    0  0.00000000000E+00  0.00000000000E+00  0.24667229821E+04  0.24667229821E+04  0.00000000000E+00 0. -1.
         -1   -1    0    0    0  501 -0.00000000000E+00 -0.00000000000E+00 -0.13107301134E+04  0.13107301134E+04  0.00000000000E+00 0.  1.
         23    2    1    2    0    0 -0.30543202192E+03  0.34466117412E+03  0.22436673583E+04  0.22922291694E+04  0.90505830096E+02 0.  0.
        254    2    1    2    0    0  0.30543202192E+03 -0.34466117412E+03 -0.10876744896E+04  0.14852239260E+04  0.90043004733E+03 0.  0.
        -24    2    4    4    0    0  0.10051178056E+03 -0.19229872403E+03 -0.11797237673E+04  0.12021336581E+04  0.79345746160E+02 0.  0.
         24    2    4    4    0    0  0.20492024136E+03 -0.15236245009E+03  0.92049277706E+02  0.28309026794E+03  0.80376668006E+02 0.  0.
         13    1    3    3    0    0 -0.12682440352E+03  0.79698334336E+02  0.71996825112E+03  0.73538461804E+03  0.00000000000E+00 0.  1.
        -13    1    3    3    0    0 -0.17860761840E+03  0.26496283978E+03  0.15236991072E+04  0.15568445514E+04  0.00000000000E+00 0. -1.
          2    1    6    6  502    0  0.79811956055E+02 -0.63960693436E+02  0.79209065240E+02  0.12936380734E+03  0.00000000000E+00 0. -1.
          3    1    5    5  503    0  0.10403856444E+03 -0.12071206076E+03 -0.81137306892E+03  0.82687464678E+03  0.00000000000E+00 0. -1.
         -4    1    5    5    0  503 -0.35267838852E+01 -0.71586663265E+02 -0.36835069841E+03  0.37525901132E+03  0.00000000000E+00 0.  1.
         -1    1    6    6    0  502  0.12510828530E+03 -0.88401756657E+02  0.12840212465E+02  0.15372646060E+03  0.00000000000E+00 0.  1.
<mgrwt>
<rscale>  0 0.35962247E+04</rscale>
<asrwt>0</asrwt>
<pdfrwt beam="1">  1        1 0.37949584E+00 0.35962247E+04</pdfrwt>
<pdfrwt beam="2">  1       -1 0.20165079E+00 0.35962247E+04</pdfrwt>
<totfact> 0.16950178E-01</totfact>
</mgrwt>
</event>
<event>
12    1  0.1541840E-007  0.2675778E+04  0.7818608E-02  0.8342907E-01
          2   -1    0    0  501    0  0.00000000000E+00  0.00000000000E+00  0.21083694118E+04  0.21083694118E+04  0.00000000000E+00 0. -1.
         -2   -1    0    0    0  501 -0.00000000000E+00 -0.00000000000E+00 -0.84897199061E+03  0.84897199061E+03  0.00000000000E+00 0.  1.
         23    2    1    2    0    0 -0.43983147811E+03 -0.81321444215E+03  0.13758323694E+04  0.16601009562E+04  0.90835115992E+02 0.  0.
        254    2    1    2    0    0  0.43983147811E+03  0.81321444215E+03 -0.11643494820E+03  0.12972404461E+04  0.90249998330E+03 0.  0.
        -24    2    4    4    0    0  0.43143038198E+03  0.94424122633E+03  0.83388801967E+02  0.10448215112E+04  0.83514250252E+02 0.  0.
         24    2    4    4    0    0  0.84010961359E+01 -0.13102678418E+03 -0.19982375016E+03  0.25241893492E+03  0.80914714274E+02 0.  0.
         11    1    3    3    0    0 -0.34788682891E+03 -0.63702628568E+03  0.10097457258E+04  0.12435490200E+04  0.00000000000E+00 0. -1.
        -11    1    3    3    0    0 -0.91944649197E+02 -0.17618815647E+03  0.36608664356E+03  0.41655193625E+03  0.00000000000E+00 0.  1.
          2    1    6    6  502    0  0.96990892385E+01 -0.39991703117E+01 -0.70001373582E+02  0.70783175957E+02  0.00000000000E+00 0. -1.
          1    1    5    5  503    0  0.18025677425E+03  0.34409569311E+03  0.65889172421E+02  0.39399966209E+03  0.00000000000E+00 0. -1.
         -2    1    5    5    0  503  0.25117360772E+03  0.60014553322E+03  0.17499629546E+02  0.65082184912E+03  0.00000000000E+00 0.  1.
         -1    1    6    6    0  502 -0.12979931026E+01 -0.12702761387E+03 -0.12982237658E+03  0.18163575896E+03  0.00000000000E+00 0.  1.
<mgrwt>
<rscale>  0 0.26757777E+04</rscale>
<asrwt>0</asrwt>
<pdfrwt beam="1">  1        2 0.32436452E+00 0.26757777E+04</pdfrwt>
<pdfrwt beam="2">  1       -2 0.13061108E+00 0.26757777E+04</pdfrwt>
<totfact> 0.21928893E+00</totfact>
</mgrwt>
</event>
<event>
12    1  0.1541840E-007  0.1632338E+04  0.7818608E-02  0.8800924E-01
         -2   -1    0    0    0  501 -0.00000000000E+00  0.00000000000E+00  0.39470335631E+03  0.39470335631E+03  0.00000000000E+00 0.  1.
          2   -1    0    0  501    0  0.00000000000E+00 -0.00000000000E+00 -0.16876769638E+04  0.16876769638E+04  0.00000000000E+00 0. -1.
         23    2    1    2    0    0  0.35764943388E+03  0.16883678060E+03 -0.90872269437E+03  0.99519651864E+03  0.90665315445E+02 0.  0.
        254    2    1    2    0    0 -0.35764943388E+03 -0.16883678060E+03 -0.38425091310E+03  0.10871838014E+04  0.93696364809E+03 0.  0.
        -24    2    4    4    0    0 -0.42351935594E+03 -0.50551101063E+03 -0.23613951474E+03  0.70502399473E+03  0.79918308280E+02 0.  0.
         24    2    4    4    0    0  0.65869922056E+02  0.33667423003E+03 -0.14811139837E+03  0.38215980671E+03  0.80129568442E+02 0.  0.
         11    1    3    3    0    0  0.76141755685E+02  0.52328782040E+02 -0.30911680954E+03  0.32262837805E+03  0.00000000000E+00 0. -1.
        -11    1    3    3    0    0  0.28150767819E+03  0.11650799856E+03 -0.59960588483E+03  0.67256814059E+03  0.00000000000E+00 0.  1.
          2    1    6    6  502    0  0.80612122653E+02  0.28315199346E+03 -0.14020552626E+03  0.32608427639E+03  0.00000000000E+00 0. -1.
          3    1    5    5  503    0 -0.42521252030E+03 -0.50487172809E+03 -0.23868062731E+03  0.70190426063E+03  0.00000000000E+00 0. -1.
         -4    1    5    5    0  503  0.16931643608E+01 -0.63928254197E+00  0.25411125714E+01  0.31197340947E+01  0.00000000000E+00 0.  1.
         -1    1    6    6    0  502 -0.14742200597E+02  0.53522236577E+02 -0.79058721074E+01  0.56075530318E+02  0.00000000000E+00 0.  1.
<mgrwt>
<rscale>  0 0.16323379E+04</rscale>
<asrwt>0</asrwt>
<pdfrwt beam="1">  1        2 0.25964261E+00 0.16323379E+04</pdfrwt>
<pdfrwt beam="2">  1       -2 0.60723592E-01 0.16323379E+04</pdfrwt>
<totfact> 0.24060749E+01</totfact>
</mgrwt>
</event>
<event>
12    1  0.1541840E-007  0.1610969E+04  0.7818608E-02  0.8813837E-01
         -2   -1    0    0    0  501 -0.00000000000E+00  0.00000000000E+00  0.73872562204E+03  0.73872562204E+03  0.00000000000E+00 0.  1.
          2   -1    0    0  501    0  0.00000000000E+00 -0.00000000000E+00 -0.87827668441E+03  0.87827668441E+03  0.00000000000E+00 0. -1.
         23    2    1    2    0    0 -0.22220103508E+03  0.40246980069E+03 -0.34722897851E+03  0.58352525912E+03  0.92620322061E+02 0.  0.
        254    2    1    2    0    0  0.22220103508E+03 -0.40246980069E+03  0.20767791614E+03  0.10334770473E+04  0.90199193458E+03 0.  0.
        -24    2    4    4    0    0 -0.14330769780E+03 -0.24033987724E+02 -0.27096401251E+03  0.31743237798E+03  0.78911911016E+02 0.  0.
         24    2    4    4    0    0  0.36550873288E+03 -0.37843581297E+03  0.47864192865E+03  0.71604466935E+03  0.82532262120E+02 0.  0.
         13    1    3    3    0    0 -0.14297412711E+03  0.27189639925E+03 -0.17584974906E+03  0.35396664701E+03  0.00000000000E+00 0. -1.
        -13    1    3    3    0    0 -0.79226907963E+02  0.13057340144E+03 -0.17137922945E+03  0.22955861211E+03  0.00000000000E+00 0.  1.
          4    1    6    6  502    0  0.10770021658E+03 -0.16599413002E+03  0.16138210396E+03  0.25533815096E+03  0.00000000000E+00 0. -1.
          3    1    5    5  503    0 -0.47997461998E+01 -0.24299345447E+02 -0.25259972099E+02  0.35377421375E+02  0.00000000000E+00 0. -1.
         -4    1    5    5    0  503 -0.13850795160E+03  0.26535772275E+00 -0.24570404041E+03  0.28205495660E+03  0.00000000000E+00 0.  1.
         -3    1    6    6    0  502  0.25780851630E+03 -0.21244168295E+03  0.31725982468E+03  0.46070651839E+03  0.00000000000E+00 0.  1.
<mgrwt>
<rscale>  0 0.16109693E+04</rscale>
<asrwt>0</asrwt>
<pdfrwt beam="1">  1        2 0.13511949E+00 0.16109693E+04</pdfrwt>
<pdfrwt beam="2">  1       -2 0.11365010E+00 0.16109693E+04</pdfrwt>
<totfact> 0.17642796E+01</totfact>
</mgrwt>
</event>
<event>
12    1  0.1541840E-007  0.1732008E+04  0.7818608E-02  0.8743317E-01
         -2   -1    0    0    0  501 -0.00000000000E+00  0.00000000000E+00  0.42923277907E+03  0.42923277907E+03  0.00000000000E+00 0.  1.
          2   -1    0    0  501    0  0.00000000000E+00 -0.00000000000E+00 -0.17472172224E+04  0.17472172224E+04  0.00000000000E+00 0. -1.
         23    2    1    2    0    0  0.60004119268E+03 -0.64892631007E+02 -0.26628142099E+03  0.66578592503E+03  0.90025642618E+02 0.  0.
        254    2    1    2    0    0 -0.60004119268E+03  0.64892631007E+02 -0.10517030223E+04  0.15106640764E+04  0.90098069801E+03 0.  0.
        -24    2    4    4    0    0 -0.49214535488E+03  0.38805130396E+03 -0.95863241502E+03  0.11485576373E+04  0.86125921277E+02 0.  0.
         24    2    4    4    0    0 -0.10789583781E+03 -0.32315867296E+03 -0.93070607309E+02  0.36210643910E+03  0.79911798690E+02 0.  0.
         13    1    3    3    0    0  0.15848259827E+03 -0.13401153496E+02 -0.11473762809E+03  0.19611488513E+03  0.00000000000E+00 0. -1.
        -13    1    3    3    0    0  0.44155859441E+03 -0.51491477510E+02 -0.15154379290E+03  0.46967103990E+03  0.00000000000E+00 0.  1.
          4    1    6    6  502    0 -0.18397204158E+02 -0.17999054384E+03 -0.42461041457E+02  0.18584400188E+03  0.00000000000E+00 0. -1.
          3    1    5    5  503    0 -0.45552595607E+03  0.35588794822E+03 -0.83413762617E+03  0.10148624083E+04  0.00000000000E+00 0. -1.
         -4    1    5    5    0  503 -0.36619398810E+02  0.32163355746E+02 -0.12449478886E+03  0.13369522907E+03  0.00000000000E+00 0.  1.
         -3    1    6    6    0  502 -0.89498633647E+02 -0.14316812912E+03 -0.50609565852E+02  0.17626243722E+03  0.00000000000E+00 0.  1.
<mgrwt>
<rscale>  0 0.17320080E+04</rscale>
<asrwt>0</asrwt>
<pdfrwt beam="1">  1        2 0.26880265E+00 0.17320080E+04</pdfrwt>
<pdfrwt beam="2">  1       -2 0.66035812E-01 0.17320080E+04</pdfrwt>
<totfact> 0.18486042E+01</totfact>
</mgrwt>
</event>
<event>
12    1  0.1541840E-007  0.1398637E+04  0.7818608E-02  0.8954806E-01
          2   -1    0    0  501    0  0.00000000000E+00  0.00000000000E+00  0.56152282822E+03  0.56152282822E+03  0.00000000000E+00 0. -1.
         -2   -1    0    0    0  501 -0.00000000000E+00 -0.00000000000E+00 -0.87092877567E+03  0.87092877567E+03  0.00000000000E+00 0.  1.
         23    2    1    2    0    0  0.99382580598E+02  0.35449486543E+03  0.70283182084E+02  0.38602841178E+03  0.92383451280E+02 0.  0.
        254    2    1    2    0    0 -0.99382580598E+02 -0.35449486543E+03 -0.37968912954E+03  0.10464231921E+04  0.90293640693E+03 0.  0.
        -24    2    4    4    0    0  0.61100923012E+01 -0.62297105820E+03 -0.97000154299E+02  0.63532867393E+03  0.78123116999E+02 0.  0.
         24    2    4    4    0    0 -0.10549267290E+03  0.26847619276E+03 -0.28268897524E+03  0.41109451818E+03  0.76664698774E+02 0.  0.
         11    1    3    3    0    0  0.82858017998E+02  0.26363335983E+03  0.91812606324E+02  0.29120019616E+03  0.00000000000E+00 0. -1.
        -11    1    3    3    0    0  0.16524562601E+02  0.90861505601E+02 -0.21529424240E+02  0.94828215618E+02  0.00000000000E+00 0.  1.
          4    1    6    6  502    0 -0.11694269258E+03  0.25543773155E+03 -0.26268806454E+03  0.38461545380E+03  0.00000000000E+00 0. -1.
          3    1    5    5  503    0  0.21703517876E+02 -0.38330414544E+03 -0.25618770795E+02  0.38477192207E+03  0.00000000000E+00 0. -1.
         -4    1    5    5    0  503 -0.15593425575E+02 -0.23966691276E+03 -0.71381383503E+02  0.25055675186E+03  0.00000000000E+00 0.  1.
         -3    1    6    6    0  502  0.11450019685E+02  0.13038461211E+02 -0.20000910704E+02  0.26479064381E+02  0.00000000000E+00 0.  1.
<mgrwt>
<rscale>  0 0.13986370E+04</rscale>
<asrwt>0</asrwt>
<pdfrwt beam="1">  1        2 0.86388127E-01 0.13986370E+04</pdfrwt>
<pdfrwt beam="2">  1       -2 0.13398904E+00 0.13986370E+04</pdfrwt>
<totfact> 0.21014454E+01</totfact>
</mgrwt>
</event>
<event>
12    1  0.2367102E-007  0.1918626E+04  0.7818608E-02  0.8645640E-01
          2   -1    0    0  501    0  0.00000000000E+00  0.00000000000E+00  0.25866346069E+04  0.25866346069E+04  0.00000000000E+00 0. -1.
         -2   -1    0    0    0  501 -0.00000000000E+00 -0.00000000000E+00 -0.35578328840E+03  0.35578328840E+03  0.00000000000E+00 0.  1.
         23    2    1    2    0    0 -0.51399873114E+03  0.18641892234E+03  0.10786117924E+03  0.56569332405E+03  0.97098880917E+02 0.  0.
        254    2    1    2    0    0  0.51399873114E+03 -0.18641892234E+03  0.21229901393E+04  0.23767245713E+04  0.91803368455E+03 0.  0.
        -24    2    4    4    0    0 -0.91056375038E+02 -0.39963132422E+03  0.94368559192E+03  0.10319720115E+04  0.80170302732E+02 0.  0.
         24    2    4    4    0    0  0.60505510617E+03  0.21321240188E+03  0.11793045474E+04  0.13447525597E+04  0.77775456856E+02 0.  0.
         13    1    3    3    0    0 -0.49290217823E+03  0.17122295391E+03  0.12232472964E+03  0.53594141166E+03  0.00000000000E+00 0. -1.
        -13    1    3    3    0    0 -0.21096552901E+02  0.15195968428E+02 -0.14463550396E+02  0.29751912390E+02  0.00000000000E+00 0.  1.
          4    1    6    6  502    0  0.99873626852E+02  0.54712433243E+02  0.26068881929E+03  0.28447645279E+03  0.00000000000E+00 0. -1.
          3    1    5    5  503    0  0.93570418743E+01 -0.29641321552E+02  0.42711700590E+02  0.52824724735E+02  0.00000000000E+00 0. -1.
         -4    1    5    5    0  503 -0.10041341691E+03 -0.36999000267E+03  0.90097389133E+03  0.97914728679E+03  0.00000000000E+00 0.  1.
         -1    1    6    6    0  502  0.50518147932E+03  0.15849996864E+03  0.91861572806E+03  0.10602761069E+04  0.00000000000E+00 0.  1.
<mgrwt>
<rscale>  0 0.19186259E+04</rscale>
<asrwt>0</asrwt>
<pdfrwt beam="1">  1        2 0.39794377E+00 0.19186259E+04</pdfrwt>
<pdfrwt beam="2">  1       -2 0.54735892E-01 0.19186259E+04</pdfrwt>
<totfact> 0.91095452E+00</totfact>
</mgrwt>
</event>
<event>
12    1  0.1541840E-007  0.2742679E+04  0.7818608E-02  0.8321288E-01
         -2   -1    0    0    0  501 -0.00000000000E+00  0.00000000000E+00  0.66134173534E+03  0.66134173534E+03  0.00000000000E+00 0.  1.
          2   -1    0    0  501    0  0.00000000000E+00 -0.00000000000E+00 -0.28435715972E+04  0.28435715972E+04  0.00000000000E+00 0. -1.
         23    2    1    2    0    0 -0.13861112862E+03 -0.21425245050E+03  0.54533263707E+03  0.60933561761E+03  0.93728609895E+02 0.  0.
        254    2    1    2    0    0  0.13861112862E+03  0.21425245050E+03 -0.27275624989E+04  0.28955777149E+04  0.93789976014E+03 0.  0.
        -24    2    4    4    0    0 -0.31325878316E+03 -0.85443072817E+02 -0.49848716327E+03  0.60020501165E+03  0.79529995251E+02 0.  0.
         24    2    4    4    0    0  0.45186991178E+03  0.29969552331E+03 -0.22290753356E+04  0.22953727033E+04  0.77169754589E+02 0.  0.
         11    1    3    3    0    0  0.11247015103E+02 -0.12187642616E+02  0.65349411258E+02  0.67420913173E+02  0.00000000000E+00 0. -1.
        -11    1    3    3    0    0 -0.14985814373E+03 -0.20206480788E+03  0.47998322582E+03  0.54191470444E+03  0.00000000000E+00 0.  1.
          2    1    6    6  502    0  0.34928705682E+03  0.19598296470E+03 -0.15616133325E+04  0.16121560008E+04  0.00000000000E+00 0. -1.
          1    1    5    5  503    0 -0.18483437263E+03 -0.63212941741E+02 -0.23004217036E+03  0.30179301094E+03  0.00000000000E+00 0. -1.
         -2    1    5    5    0  503 -0.12842441053E+03 -0.22230131076E+02 -0.26844499291E+03  0.29841200071E+03  0.00000000000E+00 0.  1.
         -1    1    6    6    0  502  0.10258285496E+03  0.10371255861E+03 -0.66746200311E+03  0.68321670248E+03  0.00000000000E+00 0.  1.
<mgrwt>
<rscale>  0 0.27426794E+04</rscale>
<asrwt>0</asrwt>
<pdfrwt beam="1">  1        2 0.43747255E+00 0.27426794E+04</pdfrwt>
<pdfrwt beam="2">  1       -2 0.10174488E+00 0.27426794E+04</pdfrwt>
<totfact> 0.15071488E+00</totfact>
</mgrwt>
</event>
<event>
12    1  0.1541840E-007  0.1971383E+04  0.7818608E-02  0.8620118E-01
          2   -1    0    0  501    0  0.00000000000E+00  0.00000000000E+00  0.83975704155E+03  0.83975704155E+03  0.00000000000E+00 0. -1.
         -2   -1    0    0    0  501 -0.00000000000E+00 -0.00000000000E+00 -0.11569861311E+04  0.11569861311E+04  0.00000000000E+00 0.  1.
         23    2    1    2    0    0 -0.67035107418E+03  0.23635028326E+03 -0.43839102062E+03  0.84033682019E+03  0.93526816211E+02 0.  0.
        254    2    1    2    0    0  0.67035107418E+03 -0.23635028326E+03  0.12116193111E+03  0.11564063524E+04  0.90408153357E+03 0.  0.
        -24    2    4    4    0    0  0.39817570844E+02 -0.89582186395E+02  0.42024133308E+03  0.43884942604E+03  0.79847565015E+02 0.  0.
         24    2    4    4    0    0  0.63053350334E+03 -0.14676809686E+03 -0.29907940197E+03  0.71755692639E+03  0.79536663498E+02 0.  0.
         11    1    3    3    0    0 -0.45058201302E+03  0.18064634969E+03 -0.34285166987E+03  0.59431012245E+03  0.00000000000E+00 0.  1.
        -11    1    3    3    0    0 -0.21976906116E+03  0.55703933566E+02 -0.95539350755E+02  0.24602669774E+03  0.00000000000E+00 0. -1.
          4    1    6    6  502    0  0.24813383929E+03 -0.27021759044E+02 -0.88057913047E+02  0.26467862345E+03  0.00000000000E+00 0. -1.
          3    1    5    5  503    0  0.31112401285E+02 -0.68394232423E+02  0.15125973657E+03  0.16889422858E+03  0.00000000000E+00 0. -1.
         -4    1    5    5    0  503  0.87051695581E+01 -0.21187953972E+02  0.26898159651E+03  0.26995519746E+03  0.00000000000E+00 0.  1.
         -3    1    6    6    0  502  0.38239966405E+03 -0.11974633782E+03 -0.21102148893E+03  0.45287830294E+03  0.00000000000E+00 0.  1.
<mgrwt>
<rscale>  0 0.19713825E+04</rscale>
<asrwt>0</asrwt>
<pdfrwt beam="1">  1        2 0.12919339E+00 0.19713825E+04</pdfrwt>
<pdfrwt beam="2">  1       -2 0.17799787E+00 0.19713825E+04</pdfrwt>
<totfact> 0.56231391E+00</totfact>
</mgrwt>
</event>
<event>
12    1  0.1541840E-007  0.1345985E+04  0.7818608E-02  0.8993873E-01
          1   -1    0    0  501    0  0.00000000000E+00  0.00000000000E+00  0.92333127487E+03  0.92333127487E+03  0.00000000000E+00 0. -1.
         -1   -1    0    0    0  501 -0.00000000000E+00 -0.00000000000E+00 -0.49052709899E+03  0.49052709899E+03  0.00000000000E+00 0.  1.
         23    2    1    2    0    0 -0.10607421126E+03  0.24490209947E+02 -0.24854103931E+03  0.28650769665E+03  0.91991865616E+02 0.  0.
        254    2    1    2    0    0  0.10607421126E+03 -0.24490209947E+02  0.68134521519E+03  0.11273506772E+04  0.89153616778E+03 0.  0.
        -24    2    4    4    0    0 -0.32998170021E+03  0.19959608466E+03  0.37364725893E+03  0.54296487147E+03  0.80449102242E+02 0.  0.
         24    2    4    4    0    0  0.43605591147E+03 -0.22408629461E+03  0.30769795626E+03  0.58438580574E+03  0.80432035315E+02 0.  0.
         13    1    3    3    0    0 -0.30483322400E+02 -0.32805913382E+02 -0.54613603486E+02  0.70626528890E+02  0.00000000000E+00 0. -1.
        -13    1    3    3    0    0 -0.75590888860E+02  0.57296123329E+02 -0.19392743583E+03  0.21588116776E+03  0.00000000000E+00 0.  1.
          2    1    6    6  502    0  0.40983987837E+03 -0.19846893858E+03  0.26045435246E+03  0.52459042614E+03  0.00000000000E+00 0. -1.
          1    1    5    5  503    0 -0.27086462250E+03  0.18317324000E+03  0.34471392390E+03  0.47512921285E+03  0.00000000000E+00 0. -1.
         -2    1    5    5    0  503 -0.59117077709E+02  0.16422844665E+02  0.28933335036E+02  0.67835658617E+02  0.00000000000E+00 0.  1.
         -1    1    6    6    0  502  0.26216033101E+02 -0.25617356030E+02  0.47243603801E+02  0.59795379601E+02  0.00000000000E+00 0.  1.
<mgrwt>
<rscale>  0 0.13459852E+04</rscale>
<asrwt>0</asrwt>
<pdfrwt beam="1">  1        1 0.14205097E+00 0.13459852E+04</pdfrwt>
<pdfrwt beam="2">  1       -1 0.75465708E-01 0.13459852E+04</pdfrwt>
<totfact> 0.30102877E+01</totfact>
</mgrwt>
</event>
<event>
12    1  0.1541840E-007  0.1712046E+04  0.7818608E-02  0.8754524E-01
         -1   -1    0    0    0  501 -0.00000000000E+00  0.00000000000E+00  0.49066009591E+03  0.49066009591E+03  0.00000000000E+00 0.  1.
          1   -1    0    0  501    0  0.00000000000E+00 -0.00000000000E+00 -0.14934477053E+04  0.14934477053E+04  0.00000000000E+00 0. -1.
         23    2    1    2    0    0 -0.16723859611E+03  0.40743347424E+03  0.13002988491E+03  0.46945298508E+03  0.97506667828E+02 0.  0.
        254    2    1    2    0    0  0.16723859611E+03 -0.40743347424E+03 -0.11328174943E+04  0.15146548161E+04  0.90384343373E+03 0.  0.
        -24    2    4    4    0    0 -0.17738824821E+03 -0.23061011907E+03 -0.10733558273E+04  0.11149715028E+04  0.80131782735E+02 0.  0.
         24    2    4    4    0    0  0.34462684432E+03 -0.17682335517E+03 -0.59461667065E+02  0.39968331332E+03  0.78593258855E+02 0.  0.
         13    1    3    3    0    0 -0.10550657992E+03  0.16482769409E+03  0.91981141797E+02  0.21624138732E+03  0.00000000000E+00 0. -1.
        -13    1    3    3    0    0 -0.61732016186E+02  0.24260578015E+03  0.38048743109E+02  0.25321159776E+03  0.00000000000E+00 0.  1.
          4    1    6    6  502    0  0.33554421702E+03 -0.17902083435E+03 -0.68784082498E+02  0.38648367457E+03  0.00000000000E+00 0. -1.
          3    1    5    5  503    0 -0.17409958704E+03 -0.23699638715E+03 -0.10358369595E+04  0.10767711737E+04  0.00000000000E+00 0. -1.
         -4    1    5    5    0  503 -0.32886611726E+01  0.63862680801E+01 -0.37518867745E+02  0.38200329177E+02  0.00000000000E+00 0.  1.
         -3    1    6    6    0  502  0.90826273006E+01  0.21974791871E+01  0.93224154337E+01  0.13199638744E+02  0.00000000000E+00 0.  1.
<mgrwt>
<rscale>  0 0.17120458E+04</rscale>
<asrwt>0</asrwt>
<pdfrwt beam="1">  1        1 0.22976118E+00 0.17120458E+04</pdfrwt>
<pdfrwt beam="2">  1       -1 0.75486170E-01 0.17120458E+04</pdfrwt>
<totfact> 0.11084123E+01</totfact>
</mgrwt>
</event>
<event>
12    1  0.1541840E-007  0.1549521E+04  0.7818608E-02  0.8852173E-01
         -2   -1    0    0    0  501 -0.00000000000E+00  0.00000000000E+00  0.48191078806E+03  0.48191078806E+03  0.00000000000E+00 0. -1.
          2   -1    0    0  501    0  0.00000000000E+00 -0.00000000000E+00 -0.12455712372E+04  0.12455712372E+04  0.00000000000E+00 0.  1.
         23    2    1    2    0    0 -0.50922821894E+03  0.27787532750E+02 -0.25981973232E+03  0.57963771455E+03  0.91586357500E+02 0.  0.
        254    2    1    2    0    0  0.50922821894E+03 -0.27787532750E+02 -0.50384071685E+03  0.11478443107E+04  0.89644049875E+03 0.  0.
        -24    2    4    4    0    0  0.58407982084E+02  0.29517440339E+03  0.96520477213E+02  0.32654845066E+03  0.82330233318E+02 0.  0.
         24    2    4    4    0    0  0.45082023686E+03 -0.32296193614E+03 -0.60036119407E+03  0.82129586008E+03  0.80932245036E+02 0.  0.
         13    1    3    3    0    0 -0.26357468701E+03  0.54038708871E+02 -0.10976794735E+03  0.29058699206E+03  0.00000000000E+00 0. -1.
        -13    1    3    3    0    0 -0.24565353193E+03 -0.26251176122E+02 -0.15005178497E+03  0.28905072249E+03  0.00000000000E+00 0.  1.
          4    1    6    6  502    0  0.18455342493E+03 -0.96691580823E+02 -0.18624099071E+03  0.27945471024E+03  0.00000000000E+00 0. -1.
          1    1    5    5  503    0 -0.10025584232E+02  0.11597189200E+03  0.61154414471E+02  0.13149089125E+03  0.00000000000E+00 0. -1.
         -2    1    5    5    0  503  0.68433566316E+02  0.17920251139E+03  0.35366062742E+02  0.19505755941E+03  0.00000000000E+00 0.  1.
         -3    1    6    6    0  502  0.26626681193E+03 -0.22627035532E+03 -0.41412020335E+03  0.54184114983E+03  0.00000000000E+00 0.  1.
<mgrwt>
<rscale>  0 0.15495215E+04</rscale>
<asrwt>0</asrwt>
<pdfrwt beam="1">  1        2 0.19162635E+00 0.15495215E+04</pdfrwt>
<pdfrwt beam="2">  1       -2 0.74140121E-01 0.15495215E+04</pdfrwt>
<totfact> 0.28062578E+01</totfact>
</mgrwt>
</event>
<event>
12    1  0.1541840E-007  0.1782337E+04  0.7818608E-02  0.8715749E-01
          2   -1    0    0  501    0  0.00000000000E+00  0.00000000000E+00  0.12782512424E+04  0.12782512424E+04  0.00000000000E+00 0. -1.
         -2   -1    0    0    0  501 -0.00000000000E+00 -0.00000000000E+00 -0.62130314118E+03  0.62130314118E+03  0.00000000000E+00 0.  1.
         23    2    1    2    0    0 -0.56281831597E+03 -0.27985778259E+03  0.45327773328E+03  0.78234110425E+03  0.10729428987E+03 0.  0.
        254    2    1    2    0    0  0.56281831597E+03  0.27985778259E+03  0.20367036792E+03  0.11172132793E+04  0.90088792722E+03 0.  0.
        -24    2    4    4    0    0  0.17408871321E+03  0.32622473590E+03  0.49493480907E+03  0.62286370421E+03  0.79178724440E+02 0.  0.
         24    2    4    4    0    0  0.38872960277E+03 -0.46366953308E+02 -0.29126444115E+03  0.49434957510E+03  0.79283852687E+02 0.  0.
         13    1    3    3    0    0 -0.23392686193E+03 -0.65049599440E+02  0.20372966275E+03  0.31695268196E+03  0.00000000000E+00 0.  1.
        -13    1    3    3    0    0 -0.32889145405E+03 -0.21480818315E+03  0.24954807053E+03  0.46538842229E+03  0.00000000000E+00 0. -1.
          2    1    6    6  502    0  0.11638740784E+03 -0.18576204012E+02 -0.13470348260E+03  0.17898640251E+03  0.00000000000E+00 0. -1.
          1    1    5    5  503    0  0.61940206201E+02  0.65479355396E+02  0.82457754994E+02  0.12216143617E+03  0.00000000000E+00 0. -1.
         -2    1    5    5    0  503  0.11214850701E+03  0.26074538051E+03  0.41247705408E+03  0.50070226804E+03  0.00000000000E+00 0.  1.
         -1    1    6    6    0  502  0.27234219493E+03 -0.27790749297E+02 -0.15656095856E+03  0.31536317259E+03  0.00000000000E+00 0.  1.
<mgrwt>
<rscale>  0 0.17823372E+04</rscale>
<asrwt>0</asrwt>
<pdfrwt beam="1">  1        2 0.19665404E+00 0.17823372E+04</pdfrwt>
<pdfrwt beam="2">  1       -2 0.95585098E-01 0.17823372E+04</pdfrwt>
<totfact> 0.14787553E+01</totfact>
</mgrwt>
</event>
<event>
12    1  0.1541840E-007  0.1020534E+04  0.7818608E-02  0.9286306E-01
         -1   -1    0    0    0  501 -0.00000000000E+00  0.00000000000E+00  0.61530665917E+03  0.61530665917E+03  0.00000000000E+00 0.  1.
          1   -1    0    0  501    0  0.00000000000E+00 -0.00000000000E+00 -0.42315883510E+03  0.42315883510E+03  0.00000000000E+00 0. -1.
         23    2    1    2    0    0  0.66172804939E+01  0.16118890964E+02  0.97791604582E+02  0.13592494360E+03  0.92783540126E+02 0.  0.
        254    2    1    2    0    0 -0.66172804939E+01 -0.16118890964E+02  0.94356219490E+02  0.90254055067E+03  0.89742561943E+03 0.  0.
        -24    2    4    4    0    0 -0.17941033812E+03 -0.11893926155E+03  0.43931710623E+03  0.49523880344E+03  0.76989189145E+02 0.  0.
         24    2    4    4    0    0  0.17279305763E+03  0.10282037059E+03 -0.34496088674E+03  0.40730174723E+03  0.80419093156E+02 0.  0.
         13    1    3    3    0    0  0.16789182081E+02 -0.56146015024E+01 -0.13381536652E+02  0.22191572908E+02  0.00000000000E+00 0. -1.
        -13    1    3    3    0    0 -0.10171901587E+02  0.21733492467E+02  0.11117314123E+03  0.11373337069E+03  0.00000000000E+00 0.  1.
          4    1    6    6  502    0  0.13462604561E+03  0.91886078243E+02 -0.32332691245E+03  0.36208771844E+03  0.00000000000E+00 0. -1.
          3    1    5    5  503    0 -0.17784631891E+03 -0.12487542077E+03  0.43802237076E+03  0.48896501014E+03  0.00000000000E+00 0. -1.
         -4    1    5    5    0  503 -0.15640192142E+01  0.59361592217E+01  0.12947354744E+01  0.62737932988E+01  0.00000000000E+00 0.  1.
         -3    1    6    6    0  502  0.38167012022E+02  0.10934292346E+02 -0.21633974287E+02  0.45214028788E+02  0.00000000000E+00 0.  1.
<mgrwt>
<rscale>  0 0.10205341E+04</rscale>
<asrwt>0</asrwt>
<pdfrwt beam="1">  1        1 0.65101359E-01 0.10205341E+04</pdfrwt>
<pdfrwt beam="2">  1       -1 0.94662563E-01 0.10205341E+04</pdfrwt>
<totfact> 0.60176677E+01</totfact>
</mgrwt>
</event>
<event>
12    1  0.1541840E-007  0.1302864E+04  0.7818608E-02  0.9027297E-01
         -2   -1    0    0    0  501 -0.00000000000E+00  0.00000000000E+00  0.22272838923E+03  0.22272838923E+03  0.00000000000E+00 0.  1.
          2   -1    0    0  501    0  0.00000000000E+00 -0.00000000000E+00 -0.19052952004E+04  0.19052952004E+04  0.00000000000E+00 0. -1.
         23    2    1    2    0    0  0.99851405847E+02 -0.34051909195E+03 -0.44371137332E+03  0.57524856184E+03  0.90042044890E+02 0.  0.
        254    2    1    2    0    0 -0.99851405847E+02  0.34051909195E+03 -0.12388554379E+04  0.15527750278E+04  0.86627012867E+03 0.  0.
        -24    2    4    4    0    0 -0.44672848742E+03  0.84452604896E+02 -0.42149968967E+03  0.62519445069E+03  0.80669255837E+02 0.  0.
         24    2    4    4    0    0  0.34687708157E+03  0.25606648705E+03 -0.81735574821E+03  0.92758057713E+03  0.80259282534E+02 0.  0.
         11    1    3    3    0    0  0.11990073635E+02 -0.81113634917E+02 -0.16631393147E+03  0.18542790361E+03  0.00000000000E+00 0.  1.
        -11    1    3    3    0    0  0.87861332213E+02 -0.25940545703E+03 -0.27739744185E+03  0.38982065823E+03  0.00000000000E+00 0. -1.
          4    1    6    6  502    0  0.24866829949E+03  0.22082955039E+03 -0.58619724958E+03  0.67396500571E+03  0.00000000000E+00 0. -1.
          1    1    5    5  503    0 -0.80441581370E+02 -0.90765001211E+01 -0.10204344916E+03  0.13025396879E+03  0.00000000000E+00 0. -1.
         -2    1    5    5    0  503 -0.36628690605E+03  0.93529105017E+02 -0.31945624051E+03  0.49494048190E+03  0.00000000000E+00 0.  1.
         -3    1    6    6    0  502  0.98208782078E+02  0.35236936660E+02 -0.23115849862E+03  0.25361557142E+03  0.00000000000E+00 0.  1.
<mgrwt>
<rscale>  0 0.13028635E+04</rscale>
<asrwt>0</asrwt>
<pdfrwt beam="1">  1        2 0.29312233E+00 0.13028635E+04</pdfrwt>
<pdfrwt beam="2">  1       -2 0.34265908E-01 0.13028635E+04</pdfrwt>
<totfact> 0.58992206E+01</totfact>
</mgrwt>
</event>
<event>
12    1  0.1541840E-007  0.1439236E+04  0.7818608E-02  0.8925897E-01
          2   -1    0    0  501    0  0.00000000000E+00  0.00000000000E+00  0.48051523640E+03  0.48051523640E+03  0.00000000000E+00 0.  1.
         -2   -1    0    0    0  501 -0.00000000000E+00 -0.00000000000E+00 -0.10776972438E+04  0.10776972438E+04  0.00000000000E+00 0. -1.
         23    2    1    2    0    0 -0.32387216537E+03  0.19476705317E+03 -0.38421955850E+03  0.54652154973E+03  0.90740016984E+02 0.  0.
        254    2    1    2    0    0  0.32387216537E+03 -0.19476705317E+03 -0.21296244894E+03  0.10116909305E+04  0.91396835268E+03 0.  0.
        -24    2    4    4    0    0  0.24016375629E+02  0.31451777146E+03  0.96888982873E+02  0.33971415965E+03  0.80746643301E+02 0.  0.
         24    2    4    4    0    0  0.29985578975E+03 -0.50928482463E+03 -0.30985143181E+03  0.67197677085E+03  0.79122332640E+02 0.  0.
         13    1    3    3    0    0 -0.47649981398E+02  0.44312702714E+02 -0.11664477518E+03  0.13356698666E+03  0.00000000000E+00 0. -1.
        -13    1    3    3    0    0 -0.27622218398E+03  0.15045435046E+03 -0.26757478332E+03  0.41295456307E+03  0.00000000000E+00 0.  1.
          4    1    6    6  502    0  0.17287064788E+03 -0.35558642735E+03 -0.18304370024E+03  0.43569595410E+03  0.00000000000E+00 0. -1.
          3    1    5    5  503    0  0.34743031942E+02  0.30896038898E+03  0.10108126451E+03  0.32692663132E+03  0.00000000000E+00 0. -1.
         -4    1    5    5    0  503 -0.10726656313E+02  0.55573824755E+01 -0.41922816350E+01  0.12787528336E+02  0.00000000000E+00 0.  1.
         -3    1    6    6    0  502  0.12698514186E+03 -0.15369839727E+03 -0.12680773157E+03  0.23628081675E+03  0.00000000000E+00 0.  1.
<mgrwt>
<rscale>  0 0.14392358E+04</rscale>
<asrwt>0</asrwt>
<pdfrwt beam="1">  1        2 0.73925421E-01 0.14392358E+04</pdfrwt>
<pdfrwt beam="2">  1       -2 0.16579958E+00 0.14392358E+04</pdfrwt>
<totfact> 0.14283033E+01</totfact>
</mgrwt>
</event>
<event>
12    1  0.1541840E-007  0.2288686E+04  0.7818608E-02  0.8482396E-01
         -2   -1    0    0    0  501 -0.00000000000E+00  0.00000000000E+00  0.13731387984E+04  0.13731387984E+04  0.00000000000E+00 0.  1.
          2   -1    0    0  501    0  0.00000000000E+00 -0.00000000000E+00 -0.95366948139E+03  0.95366948139E+03  0.00000000000E+00 0. -1.
         23    2    1    2    0    0 -0.74443866265E+03 -0.52426240258E+03  0.49243614718E+03  0.10390252285E+04  0.89666477413E+02 0.  0.
        254    2    1    2    0    0  0.74443866265E+03  0.52426240258E+03 -0.72966830222E+02  0.12877830513E+04  0.90775604630E+03 0.  0.
        -24    2    4    4    0    0  0.93636179408E+03  0.52479137910E+03 -0.70897746158E+02  0.10787494184E+04  0.80587941990E+02 0.  0.
         24    2    4    4    0    0 -0.19192313143E+03 -0.52897651522E+00 -0.20690840634E+01  0.20903363282E+03  0.82801028647E+02 0.  0.
         13    1    3    3    0    0 -0.48338918930E+03 -0.38729870322E+03  0.35271173239E+03  0.71279096517E+03  0.00000000000E+00 0.  1.
        -13    1    3    3    0    0 -0.26104947335E+03 -0.13696369936E+03  0.13972441479E+03  0.32623426332E+03  0.00000000000E+00 0. -1.
          4    1    6    6  502    0 -0.11539439540E+03  0.38334807119E+02 -0.13913548139E+02  0.12238876888E+03  0.00000000000E+00 0. -1.
          1    1    5    5  503    0  0.85727402210E+03  0.49542844810E+03 -0.47830616063E+02  0.99128999995E+03  0.00000000000E+00 0. -1.
         -2    1    5    5    0  503  0.79087771980E+02  0.29362930996E+02 -0.23067130096E+02  0.87459418499E+02  0.00000000000E+00 0.  1.
         -3    1    6    6    0  502 -0.76528736030E+02 -0.38863783635E+02  0.11844464076E+02  0.86644863933E+02  0.00000000000E+00 0.  1.
<mgrwt>
<rscale>  0 0.22886857E+04</rscale>
<asrwt>0</asrwt>
<pdfrwt beam="1">  1        2 0.14671838E+00 0.22886857E+04</pdfrwt>
<pdfrwt beam="2">  1       -2 0.21125212E+00 0.22886857E+04</pdfrwt>
<totfact> 0.27531838E+00</totfact>
</mgrwt>
</event>
<event>
12    1  0.1541840E-007  0.1480021E+04  0.7818608E-02  0.8897848E-01
          1   -1    0    0  501    0  0.00000000000E+00  0.00000000000E+00  0.11089007051E+04  0.11089007051E+04  0.00000000000E+00 0. -1.
         -1   -1    0    0    0  501 -0.00000000000E+00 -0.00000000000E+00 -0.49383639248E+03  0.49383639248E+03  0.00000000000E+00 0.  1.
         23    2    1    2    0    0  0.45514581021E+03  0.61392849178E+02  0.15607007586E+03  0.49341494269E+03  0.90408222039E+02 0.  0.
        254    2    1    2    0    0 -0.45514581021E+03 -0.61392849178E+02  0.45899423674E+03  0.11093221549E+04  0.89944046129E+03 0.  0.
        -24    2    4    4    0    0 -0.22955757784E+03  0.31661551557E+03 -0.81210637663E+02  0.40790742255E+03  0.82772165968E+02 0.  0.
         24    2    4    4    0    0 -0.22558823238E+03 -0.37800836475E+03  0.54020487440E+03  0.70141473231E+03  0.79880823501E+02 0.  0.
         11    1    3    3    0    0  0.41728647124E+03  0.29925551292E+02  0.14647797412E+03  0.44325989510E+03  0.00000000000E+00 0. -1.
        -11    1    3    3    0    0  0.37859338967E+02  0.31467297886E+02  0.95921017440E+01  0.50155047593E+02  0.00000000000E+00 0.  1.
          4    1    6    6  502    0 -0.54945281374E+01 -0.18527028277E+02  0.46397884499E+01  0.19873808218E+02  0.00000000000E+00 0. -1.
          3    1    5    5  503    0 -0.41307396728E+02  0.16311572517E+02 -0.17820997132E+02  0.47853488496E+02  0.00000000000E+00 0. -1.
         -4    1    5    5    0  503 -0.18825018111E+03  0.30030394305E+03 -0.63389640531E+02  0.36005393405E+03  0.00000000000E+00 0.  1.
         -3    1    6    6    0  502 -0.22009370424E+03 -0.35948133647E+03  0.53556508595E+03  0.68154092409E+03  0.00000000000E+00 0.  1.
<mgrwt>
<rscale>  0 0.14800210E+04</rscale>
<asrwt>0</asrwt>
<pdfrwt beam="1">  1        1 0.17060011E+00 0.14800210E+04</pdfrwt>
<pdfrwt beam="2">  1       -1 0.75974830E-01 0.14800210E+04</pdfrwt>
<totfact> 0.21051753E+01</totfact>
</mgrwt>
</event>
<event>
12    1  0.1541840E-007  0.1420802E+04  0.7818608E-02  0.8938897E-01
         -1   -1    0    0    0  501 -0.00000000000E+00  0.00000000000E+00  0.82944302342E+03  0.82944302342E+03  0.00000000000E+00 0.  1.
          1   -1    0    0  501    0  0.00000000000E+00 -0.00000000000E+00 -0.60844417933E+03  0.60844417933E+03  0.00000000000E+00 0. -1.
         23    2    1    2    0    0  0.26423091423E+03 -0.22548702253E+03  0.32321172952E+03  0.48361574232E+03  0.93573451108E+02 0.  0.
        254    2    1    2    0    0 -0.26423091423E+03  0.22548702253E+03 -0.10221288542E+03  0.95427146044E+03  0.88290666148E+03 0.  0.
        -24    2    4    4    0    0 -0.22752117273E+03 -0.21464474021E+03  0.22838909502E+03  0.39682457318E+03  0.86428667784E+02 0.  0.
         24    2    4    4    0    0 -0.36709741496E+02  0.44013176274E+03 -0.33060198044E+03  0.55744688725E+03  0.79911131531E+02 0.  0.
         11    1    3    3    0    0  0.25211909557E+03 -0.20700959180E+03  0.26156829758E+03  0.41813273460E+03  0.00000000000E+00 0.  1.
        -11    1    3    3    0    0  0.12111818663E+02 -0.18477430729E+02  0.61643431943E+02  0.65483007715E+02  0.00000000000E+00 0. -1.
          2    1    6    6  502    0  0.77130189077E+01  0.10320404485E+03 -0.11628626200E+03  0.15566971531E+03  0.00000000000E+00 0. -1.
          3    1    5    5  503    0 -0.18672082841E+03 -0.21271610453E+03  0.19107152347E+03  0.34149836891E+03  0.00000000000E+00 0. -1.
         -4    1    5    5    0  503 -0.40800344324E+02 -0.19286356813E+01  0.37317571557E+02  0.55326204274E+02  0.00000000000E+00 0.  1.
         -1    1    6    6    0  502 -0.44422760404E+02  0.33692771789E+03 -0.21431571844E+03  0.40177717194E+03  0.00000000000E+00 0.  1.
<mgrwt>
<rscale>  0 0.14208023E+04</rscale>
<asrwt>0</asrwt>
<pdfrwt beam="1">  1        1 0.93606797E-01 0.14208023E+04</pdfrwt>
<pdfrwt beam="2">  1       -1 0.12760662E+00 0.14208023E+04</pdfrwt>
<totfact> 0.17368265E+01</totfact>
</mgrwt>
</event>
<event>
12    1  0.1541840E-007  0.2177940E+04  0.7818608E-02  0.8527667E-01
          1   -1    0    0  501    0  0.00000000000E+00  0.00000000000E+00  0.52469558780E+03  0.52469558780E+03  0.00000000000E+00 0. -1.
         -1   -1    0    0    0  501 -0.00000000000E+00 -0.00000000000E+00 -0.22600821845E+04  0.22600821845E+04  0.00000000000E+00 0.  1.
         23    2    1    2    0    0  0.82351039526E+02  0.87698606828E+03 -0.48663812781E+03  0.10097639057E+04  0.83187860874E+02 0.  0.
        254    2    1    2    0    0 -0.82351039526E+02 -0.87698606828E+03 -0.12487484689E+04  0.17750138666E+04  0.90300344980E+03 0.  0.
        -24    2    4    4    0    0  0.90836388107E+02  0.14259312379E+03 -0.58052191151E+02  0.19589589947E+03  0.80131755113E+02 0.  0.
         24    2    4    4    0    0 -0.17318742763E+03 -0.10195791921E+04 -0.11906962777E+04  0.15791179671E+04  0.79500404130E+02 0.  0.
         11    1    3    3    0    0  0.14590882130E+02  0.20765087771E+03 -0.76095289675E+02  0.22163545286E+03  0.00000000000E+00 0.  1.
        -11    1    3    3    0    0  0.67760157395E+02  0.66933519057E+03 -0.41054283814E+03  0.78812845286E+03  0.00000000000E+00 0. -1.
          4    1    6    6  502    0  0.82240798259E+01 -0.69320321045E+02 -0.78591418752E+02  0.10511685640E+03  0.00000000000E+00 0. -1.
          3    1    5    5  503    0  0.18454985541E+01  0.50283483519E+02 -0.44119946116E+02  0.66920880336E+02  0.00000000000E+00 0. -1.
         -4    1    5    5    0  503  0.88990889553E+02  0.92309640268E+02 -0.13932245036E+02  0.12897501914E+03  0.00000000000E+00 0.  1.
         -3    1    6    6    0  502 -0.18141150746E+03 -0.95025887102E+03 -0.11121048590E+04  0.14740011107E+04  0.00000000000E+00 0.  1.
<mgrwt>
<rscale>  0 0.21779395E+04</rscale>
<asrwt>0</asrwt>
<pdfrwt beam="1">  1        1 0.80722398E-01 0.21779395E+04</pdfrwt>
<pdfrwt beam="2">  1       -1 0.34770495E+00 0.21779395E+04</pdfrwt>
<totfact> 0.60983215E-01</totfact>
</mgrwt>
</event>
<event>
12    1  0.1541840E-007  0.1269545E+04  0.7818608E-02  0.9054071E-01
          2   -1    0    0  501    0  0.00000000000E+00  0.00000000000E+00  0.55558351444E+03  0.55558351444E+03  0.00000000000E+00 0.  1.
         -2   -1    0    0    0  501 -0.00000000000E+00 -0.00000000000E+00 -0.72524908740E+03  0.72524908740E+03  0.00000000000E+00 0. -1.
         23    2    1    2    0    0  0.12452639657E+03 -0.51434291975E+02 -0.31698684713E+03  0.35652068683E+03  0.92054489555E+02 0.  0.
        254    2    1    2    0    0 -0.12452639657E+03  0.51434291975E+02  0.14732127418E+03  0.92431191501E+03  0.90249468064E+03 0.  0.
        -24    2    4    4    0    0 -0.31079690444E+03  0.31056424828E+03 -0.16027159817E+03  0.47447532270E+03  0.79968609776E+02 0.  0.
         24    2    4    4    0    0  0.18627050787E+03 -0.25912995631E+03  0.30759287235E+03  0.44983659231E+03  0.76775961770E+02 0.  0.
         13    1    3    3    0    0  0.76569318340E+02 -0.56498582064E+02 -0.11704683720E+03  0.15084731481E+03  0.00000000000E+00 0. -1.
        -13    1    3    3    0    0  0.47957078230E+02  0.50642900888E+01 -0.19994000993E+03  0.20567337201E+03  0.00000000000E+00 0.  1.
          4    1    6    6  502    0  0.72312621158E+02 -0.14314747819E+03  0.19288570951E+03  0.25084898370E+03  0.00000000000E+00 0. -1.
          1    1    5    5  503    0 -0.27667853363E+03  0.28819896992E+03 -0.16721335342E+03  0.43309348044E+03  0.00000000000E+00 0. -1.
         -2    1    5    5    0  503 -0.34118370813E+02  0.22365278357E+02  0.69417552504E+01  0.41381842261E+02  0.00000000000E+00 0.  1.
         -3    1    6    6    0  502  0.11395788671E+03 -0.11598247812E+03  0.11470716284E+03  0.19898760861E+03  0.00000000000E+00 0.  1.
<mgrwt>
<rscale>  0 0.12695455E+04</rscale>
<asrwt>0</asrwt>
<pdfrwt beam="1">  1        2 0.85474387E-01 0.12695455E+04</pdfrwt>
<pdfrwt beam="2">  1       -2 0.11157678E+00 0.12695455E+04</pdfrwt>
<totfact> 0.33909655E+01</totfact>
</mgrwt>
</event>
<event>
12    1  0.1541840E-007  0.1363464E+04  0.7818608E-02  0.8980698E-01
         -2   -1    0    0    0  501 -0.00000000000E+00  0.00000000000E+00  0.26639056539E+03  0.26639056539E+03  0.00000000000E+00 0.  1.
          2   -1    0    0  501    0  0.00000000000E+00 -0.00000000000E+00 -0.17446496854E+04  0.17446496854E+04  0.00000000000E+00 0. -1.
         23    2    1    2    0    0  0.19058686998E+03 -0.31164397931E+03 -0.47776320218E+03  0.60805162470E+03  0.89575532915E+02 0.  0.
        254    2    1    2    0    0 -0.19058686998E+03  0.31164397931E+03 -0.10004959178E+04  0.14029886261E+04  0.91320297771E+03 0.  0.
        -24    2    4    4    0    0 -0.24465226203E+03  0.48826463159E+03 -0.21599628360E+03  0.59289004161E+03  0.81284236714E+02 0.  0.
         24    2    4    4    0    0  0.54065392050E+02 -0.17662065228E+03 -0.78449963425E+03  0.81009858449E+03  0.81866470738E+02 0.  0.
         13    1    3    3    0    0  0.17758788919E+03 -0.25403004524E+03 -0.43905049245E+03  0.53743283970E+03  0.00000000000E+00 0. -1.
        -13    1    3    3    0    0  0.12998980795E+02 -0.57613934064E+02 -0.38712709735E+02  0.70618785001E+02  0.00000000000E+00 0.  1.
          4    1    6    6  502    0 -0.14248890712E+02 -0.36999037709E+01 -0.87362945085E+02  0.88594606768E+02  0.00000000000E+00 0. -1.
          1    1    5    5  503    0 -0.12502962153E+03  0.16356980313E+03 -0.88936085276E+02  0.22427018085E+03  0.00000000000E+00 0. -1.
         -4    1    5    5    0  503 -0.11962264050E+03  0.32469482846E+03 -0.12706019832E+03  0.36861986076E+03  0.00000000000E+00 0.  1.
         -3    1    6    6    0  502  0.68314282762E+02 -0.17292074851E+03 -0.69713668916E+03  0.72150397772E+03  0.00000000000E+00 0.  1.
<mgrwt>
<rscale>  0 0.13634636E+04</rscale>
<asrwt>0</asrwt>
<pdfrwt beam="1">  1        2 0.26840763E+00 0.13634636E+04</pdfrwt>
<pdfrwt beam="2">  1       -2 0.40983165E-01 0.13634636E+04</pdfrwt>
<totfact> 0.50960392E+01</totfact>
</mgrwt>
</event>
<event>
12    1  0.1541840E-007  0.2551034E+04  0.7818608E-02  0.8385027E-01
         -2   -1    0    0    0  501 -0.00000000000E+00  0.00000000000E+00  0.12712282035E+04  0.12712282035E+04  0.00000000000E+00 0.  1.
          2   -1    0    0  501    0  0.00000000000E+00 -0.00000000000E+00 -0.12798204463E+04  0.12798204463E+04  0.00000000000E+00 0. -1.
         23    2    1    2    0    0  0.37409567618E+02  0.10502043434E+04 -0.37126335170E+03  0.11183140718E+04  0.91985042497E+02 0.  0.
        254    2    1    2    0    0 -0.37409567618E+02 -0.10502043434E+04  0.36267110898E+03  0.14327345781E+04  0.90380827566E+03 0.  0.
        -24    2    4    4    0    0  0.93650252861E+02  0.13836823686E+03  0.21979279814E+02  0.18740045043E+03  0.81973783907E+02 0.  0.
         24    2    4    4    0    0 -0.13105982048E+03 -0.11885725803E+04  0.34069182916E+03  0.12453341276E+04  0.70033647611E+02 0.  0.
         11    1    3    3    0    0  0.56716429290E+02  0.98736469189E+03 -0.35274962952E+03  0.10500181376E+04  0.00000000000E+00 0. -1.
        -11    1    3    3    0    0 -0.19306861673E+02  0.62839651548E+02 -0.18513722174E+02  0.68295934162E+02  0.00000000000E+00 0.  1.
          4    1    6    6  502    0 -0.10366872263E+03 -0.86891234273E+03  0.28027507874E+03  0.91886341921E+03  0.00000000000E+00 0. -1.
          1    1    5    5  503    0  0.40057492516E+02  0.48680336666E+01 -0.61561767454E+01  0.40819100561E+02  0.00000000000E+00 0. -1.
         -2    1    5    5    0  503  0.53592760344E+02  0.13350020319E+03  0.28135456559E+02  0.14658134987E+03  0.00000000000E+00 0.  1.
         -3    1    6    6    0  502 -0.27391097852E+02 -0.31966023757E+03  0.60416750423E+02  0.32647070842E+03  0.00000000000E+00 0.  1.
<mgrwt>
<rscale>  0 0.25510342E+04</rscale>
<asrwt>0</asrwt>
<pdfrwt beam="1">  1        2 0.19689545E+00 0.25510342E+04</pdfrwt>
<pdfrwt beam="2">  1       -2 0.19557357E+00 0.25510342E+04</pdfrwt>
<totfact> 0.21463926E+00</totfact>
</mgrwt>
</event>
<event>
12    1  0.1541840E-007  0.1127031E+04  0.7818608E-02  0.9179239E-01
         -1   -1    0    0    0  501 -0.00000000000E+00  0.00000000000E+00  0.24030895715E+03  0.24030895715E+03  0.00000000000E+00 0. -1.
          1   -1    0    0  501    0  0.00000000000E+00 -0.00000000000E+00 -0.13214233823E+04  0.13214233823E+04  0.00000000000E+00 0.  1.
         23    2    1    2    0    0 -0.54469453076E+01  0.36096231818E+02 -0.45786664099E+03  0.46818969360E+03  0.90703478987E+02 0.  0.
        254    2    1    2    0    0  0.54469453076E+01 -0.36096231818E+02 -0.62324778416E+03  0.10935426459E+04  0.89781128901E+03 0.  0.
        -24    2    4    4    0    0 -0.75668957626E+02 -0.30668664008E+02 -0.84019701874E+03  0.84804343296E+03  0.81118898988E+02 0.  0.
         24    2    4    4    0    0  0.81115902933E+02 -0.54275678095E+01  0.21694923458E+03  0.24549921290E+03  0.81201261983E+02 0.  0.
         13    1    3    3    0    0  0.92114572130E+01 -0.23300132292E+02 -0.25686045126E+03  0.25807951979E+03  0.00000000000E+00 0.  1.
        -13    1    3    3    0    0 -0.14658402521E+02  0.59396364110E+02 -0.20100618973E+03  0.21011017382E+03  0.00000000000E+00 0. -1.
          2    1    6    6  502    0 -0.29859169762E+01 -0.26940699281E+02  0.66322942307E+02  0.71648095956E+02  0.00000000000E+00 0. -1.
          1    1    5    5  503    0 -0.34534902057E+02 -0.86661393337E+00 -0.94466273871E+02  0.10058472736E+03  0.00000000000E+00 0. -1.
         -2    1    5    5    0  503 -0.41134055568E+02 -0.29802050075E+02 -0.74573074487E+03  0.74745870559E+03  0.00000000000E+00 0.  1.
         -1    1    6    6    0  502  0.84101819910E+02  0.21513131472E+02  0.15062629228E+03  0.17385111694E+03  0.00000000000E+00 0.  1.
<mgrwt>
<rscale>  0 0.11270313E+04</rscale>
<asrwt>0</asrwt>
<pdfrwt beam="1">  1        1 0.20329591E+00 0.11270313E+04</pdfrwt>
<pdfrwt beam="2">  1       -1 0.36970609E-01 0.11270313E+04</pdfrwt>
<totfact> 0.61030851E+01</totfact>
</mgrwt>
</event>
<event>
12    1  0.1541840E-007  0.1412538E+04  0.7818608E-02  0.8944793E-01
         -2   -1    0    0    0  501 -0.00000000000E+00  0.00000000000E+00  0.52577998713E+03  0.52577998713E+03  0.00000000000E+00 0.  1.
          2   -1    0    0  501    0  0.00000000000E+00 -0.00000000000E+00 -0.94871587298E+03  0.94871587298E+03  0.00000000000E+00 0. -1.
         23    2    1    2    0    0 -0.10228115280E+03 -0.34036208083E+03 -0.34350573382E+03  0.50296008940E+03  0.93085348353E+02 0.  0.
        254    2    1    2    0    0  0.10228115280E+03  0.34036208083E+03 -0.79430152021E+02  0.97153577071E+03  0.90070240614E+03 0.  0.
        -24    2    4    4    0    0 -0.38965980680E+03  0.78978047426E+02 -0.25368333226E+02  0.40595859773E+03  0.78016240212E+02 0.  0.
         24    2    4    4    0    0  0.49194095960E+03  0.26138403340E+03 -0.54061818795E+02  0.56557717297E+03  0.81408462034E+02 0.  0.
         11    1    3    3    0    0 -0.22726211889E+02 -0.90386389494E+02 -0.15149565610E+03  0.17786824880E+03  0.00000000000E+00 0.  1.
        -11    1    3    3    0    0 -0.79554940913E+02 -0.24997569133E+03 -0.19201007772E+03  0.32509184061E+03  0.00000000000E+00 0. -1.
          4    1    6    6  502    0  0.48125397302E+02  0.55123413582E+02  0.19243191529E+00  0.73175690092E+02  0.00000000000E+00 0. -1.
          3    1    5    5  503    0 -0.10899030636E+03  0.44357447431E+02  0.20568907528E+02  0.11945522165E+03  0.00000000000E+00 0. -1.
         -2    1    5    5    0  503 -0.28066950044E+03  0.34620599995E+02 -0.45937240754E+02  0.28650337608E+03  0.00000000000E+00 0.  1.
         -3    1    6    6    0  502  0.44381556230E+03  0.20626061982E+03 -0.54254250711E+02  0.49240148288E+03  0.00000000000E+00 0.  1.
<mgrwt>
<rscale>  0 0.14125379E+04</rscale>
<asrwt>0</asrwt>
<pdfrwt beam="1">  1        2 0.14595629E+00 0.14125379E+04</pdfrwt>
<pdfrwt beam="2">  1       -2 0.80889230E-01 0.14125379E+04</pdfrwt>
<totfact> 0.35676413E+01</totfact>
</mgrwt>
</event>
<event>
12    1  0.1541840E-007  0.1498872E+04  0.7818608E-02  0.8885203E-01
         -3   -1    0    0    0  501 -0.00000000000E+00  0.00000000000E+00  0.18458589765E+03  0.18458589765E+03  0.00000000000E+00 0.  1.
          3   -1    0    0  501    0  0.00000000000E+00 -0.00000000000E+00 -0.30427809227E+04  0.30427809227E+04  0.00000000000E+00 0. -1.
         23    2    1    2    0    0 -0.16382093234E+03  0.22065417285E+02 -0.18795975273E+04  0.18889342391E+04  0.88665180205E+02 0.  0.
        254    2    1    2    0    0  0.16382093234E+03 -0.22065417285E+02 -0.97859749773E+03  0.13384325813E+04  0.89801143181E+03 0.  0.
        -24    2    4    4    0    0 -0.13391331502E+03 -0.73978902907E+02 -0.10100326407E+04  0.10239513531E+04  0.70034164694E+02 0.  0.
         24    2    4    4    0    0  0.29773424736E+03  0.51913485622E+02  0.31435143012E+02  0.31448122818E+03  0.81052961800E+02 0.  0.
         11    1    3    3    0    0 -0.48432567988E+01 -0.94487012463E+00 -0.49880846587E+03  0.49883287335E+03  0.00000000000E+00 0. -1.
        -11    1    3    3    0    0 -0.15897767554E+03  0.23010287409E+02 -0.13807890615E+04  0.13901013657E+04  0.00000000000E+00 0.  1.
          2    1    6    6  502    0  0.17731358227E+03  0.67484336588E+02  0.35388309450E+02  0.19299371645E+03  0.00000000000E+00 0. -1.
          3    1    5    5  503    0  0.81891079605E+01 -0.61123969880E+01 -0.44285808396E+02  0.45449485271E+02  0.00000000000E+00 0. -1.
         -4    1    5    5    0  503 -0.14210242298E+03 -0.67866505919E+02 -0.96574683235E+03  0.97850186787E+03  0.00000000000E+00 0.  1.
         -1    1    6    6    0  502  0.12042066509E+03 -0.15570850966E+02 -0.39531664381E+01  0.12148751173E+03  0.00000000000E+00 0.  1.
<mgrwt>
<rscale>  0 0.14988722E+04</rscale>
<asrwt>0</asrwt>
<pdfrwt beam="1">  1        3 0.46812012E+00 0.14988722E+04</pdfrwt>
<pdfrwt beam="2">  1       -3 0.28397832E-01 0.14988722E+04</pdfrwt>
<totfact> 0.15229547E-01</totfact>
</mgrwt>
</event>
<event>
12    1  0.1541840E-007  0.1535874E+04  0.7818608E-02  0.8860941E-01
          1   -1    0    0  501    0  0.00000000000E+00  0.00000000000E+00  0.34662772303E+03  0.34662772303E+03  0.00000000000E+00 0. -1.
         -1   -1    0    0    0  501 -0.00000000000E+00 -0.00000000000E+00 -0.17013276403E+04  0.17013276403E+04  0.00000000000E+00 0.  1.
         23    2    1    2    0    0 -0.40496062997E+03 -0.24355320978E+03 -0.22152231305E+03  0.53015070877E+03  0.93146986108E+02 0.  0.
        254    2    1    2    0    0  0.40496062997E+03  0.24355320978E+03 -0.11331776042E+04  0.15178046546E+04  0.89237223672E+03 0.  0.
        -24    2    4    4    0    0  0.37587185344E+03  0.55271796690E+03 -0.63880641011E+03  0.92837153236E+03  0.83804960190E+02 0.  0.
         24    2    4    4    0    0  0.29088776530E+02 -0.30916475713E+03 -0.49437119412E+03  0.58943312220E+03  0.81237454463E+02 0.  0.
         13    1    3    3    0    0 -0.33966223509E+03 -0.15974514715E+03 -0.16929424764E+03  0.41176387441E+03  0.00000000000E+00 0. -1.
        -13    1    3    3    0    0 -0.65298394875E+02 -0.83808062628E+02 -0.52228065408E+02  0.11838683436E+03  0.00000000000E+00 0.  1.
          4    1    6    6  502    0  0.73320921135E+01 -0.11442155787E+03 -0.25848376973E+03  0.28277183682E+03  0.00000000000E+00 0. -1.
          1    1    5    5  503    0  0.19414474809E+03  0.25956153526E+03 -0.25550985275E+03  0.41273436815E+03  0.00000000000E+00 0. -1.
         -2    1    5    5    0  503  0.18172710535E+03  0.29315643164E+03 -0.38329655737E+03  0.51563716421E+03  0.00000000000E+00 0.  1.
         -3    1    6    6    0  502  0.21756684416E+02 -0.19474319925E+03 -0.23588742438E+03  0.30666128539E+03  0.00000000000E+00 0.  1.
<mgrwt>
<rscale>  0 0.15358741E+04</rscale>
<asrwt>0</asrwt>
<pdfrwt beam="1">  1        1 0.53327342E-01 0.15358741E+04</pdfrwt>
<pdfrwt beam="2">  1       -1 0.26174271E+00 0.15358741E+04</pdfrwt>
<totfact> 0.40936218E+00</totfact>
</mgrwt>
</event>
<event>
12    1  0.1541840E-007  0.1398932E+04  0.7818608E-02  0.8954592E-01
         -2   -1    0    0    0  501 -0.00000000000E+00  0.00000000000E+00  0.49042667366E+03  0.49042667366E+03  0.00000000000E+00 0.  1.
          2   -1    0    0  501    0  0.00000000000E+00 -0.00000000000E+00 -0.99760616582E+03  0.99760616582E+03  0.00000000000E+00 0. -1.
         23    2    1    2    0    0 -0.10771783461E+03  0.39030299178E+03 -0.13691950486E+03  0.43712358612E+03  0.91599789564E+02 0.  0.
        254    2    1    2    0    0  0.10771783461E+03 -0.39030299178E+03 -0.37025998731E+03  0.10509092534E+04  0.89631369693E+03 0.  0.
        -24    2    4    4    0    0  0.14991895906E+02  0.26666837393E+03 -0.24345641398E+03  0.37061005579E+03  0.82121917604E+02 0.  0.
         24    2    4    4    0    0  0.92725938699E+02 -0.65697136570E+03 -0.12680357332E+03  0.68029919756E+03  0.80736465944E+02 0.  0.
         11    1    3    3    0    0 -0.44429108331E+02  0.64474990092E+02 -0.60002772057E+00  0.78302809961E+02  0.00000000000E+00 0.  1.
        -11    1    3    3    0    0 -0.63288726274E+02  0.32582800169E+03 -0.13631947714E+03  0.35882077616E+03  0.00000000000E+00 0. -1.
          2    1    6    6  502    0  0.45453913455E+02 -0.41369380114E+03 -0.41704281757E+02  0.41826769713E+03  0.00000000000E+00 0. -1.
          3    1    5    5  503    0 -0.60589104827E+01  0.10644519372E+03 -0.14968520401E+03  0.18377418198E+03  0.00000000000E+00 0. -1.
         -4    1    5    5    0  503  0.21050806389E+02  0.16022318021E+03 -0.93771209975E+02  0.18683587382E+03  0.00000000000E+00 0.  1.
         -1    1    6    6    0  502  0.47272025244E+02 -0.24327756457E+03 -0.85099291565E+02  0.26203150043E+03  0.00000000000E+00 0.  1.
<mgrwt>
<rscale>  0 0.13989320E+04</rscale>
<asrwt>0</asrwt>
<pdfrwt beam="1">  1        2 0.15347787E+00 0.13989320E+04</pdfrwt>
<pdfrwt beam="2">  1       -2 0.75450259E-01 0.13989320E+04</pdfrwt>
<totfact> 0.38780867E+01</totfact>
</mgrwt>
</event>
<event>
12    1  0.1541840E-007  0.1357033E+04  0.7818608E-02  0.8985521E-01
         -1   -1    0    0    0  501 -0.00000000000E+00  0.00000000000E+00  0.45469687384E+03  0.45469687384E+03  0.00000000000E+00 0.  1.
          1   -1    0    0  501    0  0.00000000000E+00 -0.00000000000E+00 -0.10125091521E+04  0.10125091521E+04  0.00000000000E+00 0. -1.
         23    2    1    2    0    0 -0.20795995270E+02 -0.10457905717E+03 -0.53734096913E+03  0.55495022163E+03  0.88685843096E+02 0.  0.
        254    2    1    2    0    0  0.20795995270E+02  0.10457905717E+03 -0.20471309095E+02  0.91225580427E+03  0.90577167394E+03 0.  0.
        -24    2    4    4    0    0 -0.36905827035E+03 -0.59813397039E+02  0.19694510028E+03  0.42994903925E+03  0.79291578716E+02 0.  0.
         24    2    4    4    0    0  0.38985426562E+03  0.16439245421E+03 -0.21741640937E+03  0.48230676501E+03  0.79615909779E+02 0.  0.
         11    1    3    3    0    0  0.23433453000E+02 -0.41734950919E+02 -0.33689147344E+03  0.34027459165E+03  0.00000000000E+00 0.  1.
        -11    1    3    3    0    0 -0.44229448270E+02 -0.62844106250E+02 -0.20044949569E+03  0.21467562998E+03  0.00000000000E+00 0. -1.
          4    1    6    6  502    0  0.24008228295E+03  0.13335760187E+03 -0.11225694441E+03  0.29669070449E+03  0.00000000000E+00 0. -1.
          3    1    5    5  503    0 -0.26517411578E+03 -0.82791999232E+01  0.12312078052E+03  0.29248005646E+03  0.00000000000E+00 0. -1.
         -2    1    5    5    0  503 -0.10388415456E+03 -0.51534197116E+02  0.73824319762E+02  0.13746898279E+03  0.00000000000E+00 0.  1.
         -3    1    6    6    0  502  0.14977198267E+03  0.31034852337E+02 -0.10515946496E+03  0.18561606052E+03  0.00000000000E+00 0.  1.
<mgrwt>
<rscale>  0 0.13570332E+04</rscale>
<asrwt>0</asrwt>
<pdfrwt beam="1">  1        1 0.15577064E+00 0.13570332E+04</pdfrwt>
<pdfrwt beam="2">  1       -1 0.69953365E-01 0.13570332E+04</pdfrwt>
<totfact> 0.29907856E+01</totfact>
</mgrwt>
</event>
<event>
12    1  0.1541840E-007  0.2699739E+04  0.7818608E-02  0.8335090E-01
         -1   -1    0    0    0  501 -0.00000000000E+00  0.00000000000E+00  0.67861868068E+03  0.67861868068E+03  0.00000000000E+00 0.  1.
          1   -1    0    0  501    0  0.00000000000E+00 -0.00000000000E+00 -0.26850833736E+04  0.26850833736E+04  0.00000000000E+00 0. -1.
         23    2    1    2    0    0 -0.40545610126E+03 -0.26827222703E+03  0.47224651228E+03  0.68365438457E+03  0.89453403131E+02 0.  0.
        254    2    1    2    0    0  0.40545610126E+03  0.26827222703E+03 -0.24787112052E+04  0.26800476697E+04  0.89570175576E+03 0.  0.
        -24    2    4    4    0    0  0.26864044029E+03 -0.25590710662E+03 -0.50346573260E+03  0.63033619264E+03  0.78675526519E+02 0.  0.
         24    2    4    4    0    0  0.13681566097E+03  0.52417933366E+03 -0.19752454726E+04  0.20497114771E+04  0.78993438091E+02 0.  0.
         11    1    3    3    0    0 -0.14254914293E+03 -0.53162090455E+02  0.11522047244E+03  0.19084607222E+03  0.00000000000E+00 0. -1.
        -11    1    3    3    0    0 -0.26290695833E+03 -0.21511013658E+03  0.35702603985E+03  0.49280831235E+03  0.00000000000E+00 0.  1.
          2    1    6    6  502    0  0.12884062728E+03  0.42321529248E+03 -0.15044559717E+04  0.15681514154E+04  0.00000000000E+00 0. -1.
          3    1    5    5  503    0  0.66790803317E+02 -0.10930212422E+03 -0.19981088820E+03  0.23734438441E+03  0.00000000000E+00 0. -1.
         -4    1    5    5    0  503  0.20184963698E+03 -0.14660498240E+03 -0.30365484440E+03  0.39299180823E+03  0.00000000000E+00 0.  1.
         -1    1    6    6    0  502  0.79750336814E+01  0.10096404118E+03 -0.47078950092E+03  0.48156006162E+03  0.00000000000E+00 0.  1.
<mgrwt>
<rscale>  0 0.26997391E+04</rscale>
<asrwt>0</asrwt>
<pdfrwt beam="1">  1        1 0.41308975E+00 0.26997391E+04</pdfrwt>
<pdfrwt beam="2">  1       -1 0.10440287E+00 0.26997391E+04</pdfrwt>
<totfact> 0.75707670E-01</totfact>
</mgrwt>
</event>
<event>
12    1  0.1541840E-007  0.1682487E+04  0.7818608E-02  0.8771416E-01
          2   -1    0    0  501    0  0.00000000000E+00  0.00000000000E+00  0.61795232043E+03  0.61795232043E+03  0.00000000000E+00 0. -1.
         -2   -1    0    0    0  501 -0.00000000000E+00 -0.00000000000E+00 -0.11452191656E+04  0.11452191656E+04  0.00000000000E+00 0.  1.
         23    2    1    2    0    0 -0.52823796080E+03  0.68500801597E+02 -0.45889454348E+03  0.70936427976E+03  0.94264395800E+02 0.  0.
        254    2    1    2    0    0  0.52823796080E+03 -0.68500801597E+02 -0.68372301650E+02  0.10538072062E+04  0.90670124806E+03 0.  0.
        -24    2    4    4    0    0  0.58627015352E+03 -0.24215264035E+03 -0.33442259808E+03  0.72147985854E+03  0.79649971922E+02 0.  0.
         24    2    4    4    0    0 -0.58032192727E+02  0.17365183875E+03  0.26605029643E+03  0.33232734770E+03  0.78332683490E+02 0.  0.
         11    1    3    3    0    0 -0.47872610150E+03  0.34641524548E+02 -0.42070467658E+03  0.63825632811E+03  0.00000000000E+00 0. -1.
        -11    1    3    3    0    0 -0.49511859301E+02  0.33859277049E+02 -0.38189866895E+02  0.71107951645E+02  0.00000000000E+00 0.  1.
          4    1    6    6  502    0 -0.25866912948E+02  0.16309939649E+03  0.22558299091E+03  0.27956787388E+03  0.00000000000E+00 0. -1.
          1    1    5    5  503    0  0.43852347907E+03 -0.15822043382E+03 -0.27614251450E+03  0.54184059989E+03  0.00000000000E+00 0. -1.
         -4    1    5    5    0  503  0.14774667445E+03 -0.83932206532E+02 -0.58280083575E+02  0.17963925864E+03  0.00000000000E+00 0.  1.
         -3    1    6    6    0  502 -0.32165279779E+02  0.10552442263E+02  0.40467305522E+02  0.52759473815E+02  0.00000000000E+00 0.  1.
<mgrwt>
<rscale>  0 0.16824873E+04</rscale>
<asrwt>0</asrwt>
<pdfrwt beam="1">  1        2 0.95069588E-01 0.16824873E+04</pdfrwt>
<pdfrwt beam="2">  1       -2 0.17618756E+00 0.16824873E+04</pdfrwt>
<totfact> 0.87800919E+00</totfact>
</mgrwt>
</event>
<event>
12    1  0.1541840E-007  0.1367677E+04  0.7818608E-02  0.8977553E-01
          1   -1    0    0  501    0  0.00000000000E+00  0.00000000000E+00  0.19057669573E+04  0.19057669573E+04  0.00000000000E+00 0. -1.
         -1   -1    0    0    0  501 -0.00000000000E+00 -0.00000000000E+00 -0.24537912207E+03  0.24537912207E+03  0.00000000000E+00 0.  1.
         23    2    1    2    0    0  0.58300041222E+02  0.79754103747E+02 -0.10530857198E+03  0.16542163634E+03  0.80714376442E+02 0.  0.
        254    2    1    2    0    0 -0.58300041222E+02 -0.79754103747E+02  0.17656964072E+04  0.19857244430E+04  0.90313794591E+03 0.  0.
        -24    2    4    4    0    0  0.16089546914E+03  0.27324804130E+03  0.13610018009E+04  0.13998218755E+04  0.81385115475E+02 0.  0.
         24    2    4    4    0    0 -0.21919551037E+03 -0.35300214504E+03  0.40469460627E+03  0.58590256749E+03  0.82746045693E+02 0.  0.
         13    1    3    3    0    0  0.28153404978E+02  0.54989752085E+02 -0.10996569427E+03  0.12613065037E+03  0.00000000000E+00 0.  1.
        -13    1    3    3    0    0  0.30146636244E+02  0.24764351661E+02  0.46571222909E+01  0.39290985965E+02  0.00000000000E+00 0. -1.
          2    1    6    6  502    0 -0.76843556942E+02 -0.16914960773E+03  0.22653089104E+03  0.29297229670E+03  0.00000000000E+00 0. -1.
          3    1    5    5  503    0  0.83312529533E+02  0.11336069739E+03  0.76737217460E+03  0.78016131642E+03  0.00000000000E+00 0. -1.
         -4    1    5    5    0  503  0.77582939611E+02  0.15988734391E+03  0.59362962629E+03  0.61966055907E+03  0.00000000000E+00 0.  1.
         -1    1    6    6    0  502 -0.14235195343E+03 -0.18385253731E+03  0.17816371523E+03  0.29293027079E+03  0.00000000000E+00 0.  1.
<mgrwt>
<rscale>  0 0.13676775E+04</rscale>
<asrwt>0</asrwt>
<pdfrwt beam="1">  1        1 0.29319491E+00 0.13676775E+04</pdfrwt>
<pdfrwt beam="2">  1       -1 0.37750635E-01 0.13676775E+04</pdfrwt>
<totfact> 0.22862731E+01</totfact>
</mgrwt>
</event>
<event>
12    1  0.1541840E-007  0.1255586E+04  0.7818608E-02  0.9065547E-01
          1   -1    0    0  501    0  0.00000000000E+00  0.00000000000E+00  0.29400688532E+04  0.29400688532E+04  0.00000000000E+00 0. -1.
         -1   -1    0    0    0  501 -0.00000000000E+00 -0.00000000000E+00 -0.13405267667E+03  0.13405267667E+03  0.00000000000E+00 0.  1.
         23    2    1    2    0    0 -0.91136491883E+02  0.14305300028E+03  0.12746269252E+04  0.12893328880E+04  0.94527649792E+02 0.  0.
        254    2    1    2    0    0  0.91136491883E+02 -0.14305300028E+03  0.15313892513E+04  0.17847886418E+04  0.90085927647E+03 0.  0.
        -24    2    4    4    0    0  0.19483524283E+03 -0.32750791390E+03  0.15081567804E+04  0.15575366150E+04  0.78493485223E+02 0.  0.
         24    2    4    4    0    0 -0.10369875095E+03  0.18445491362E+03  0.23232470819E+02  0.22725202679E+03  0.79540492025E+02 0.  0.
         11    1    3    3    0    0 -0.11053876281E+03  0.12102465400E+03  0.10317381690E+04  0.10446767128E+04  0.00000000000E+00 0. -1.
        -11    1    3    3    0    0  0.19402270925E+02  0.22028346278E+02  0.24288875626E+03  0.24465617522E+03  0.00000000000E+00 0.  1.
          4    1    6    6  502    0  0.97562659709E+01  0.33854852231E+02 -0.79997297074E+01  0.36129370610E+02  0.00000000000E+00 0. -1.
          1    1    5    5  503    0  0.31359980357E+02 -0.12314471553E+03  0.52214773550E+03  0.53738843216E+03  0.00000000000E+00 0. -1.
         -2    1    5    5    0  503  0.16347526247E+03 -0.20436319837E+03  0.98600904494E+03  0.10201481829E+04  0.00000000000E+00 0.  1.
         -3    1    6    6    0  502 -0.11345501692E+03  0.15060006139E+03  0.31232200526E+02  0.19112265618E+03  0.00000000000E+00 0.  1.
<mgrwt>
<rscale>  0 0.12555861E+04</rscale>
<asrwt>0</asrwt>
<pdfrwt beam="1">  1        1 0.45231824E+00 0.12555861E+04</pdfrwt>
<pdfrwt beam="2">  1       -1 0.20623491E-01 0.12555861E+04</pdfrwt>
<totfact> 0.12789122E+01</totfact>
</mgrwt>
</event>
<event>
12    1  0.1541840E-007  0.1587319E+04  0.7818608E-02  0.8828376E-01
          2   -1    0    0  501    0  0.00000000000E+00  0.00000000000E+00  0.20800624187E+04  0.20800624187E+04  0.00000000000E+00 0. -1.
         -2   -1    0    0    0  501 -0.00000000000E+00 -0.00000000000E+00 -0.30282532110E+03  0.30282532110E+03  0.00000000000E+00 0.  1.
         23    2    1    2    0    0  0.17376857557E+03 -0.27520578791E+02  0.13733291887E+04  0.13872953804E+04  0.87192385347E+02 0.  0.
        254    2    1    2    0    0 -0.17376857557E+03  0.27520578791E+02  0.40390790890E+03  0.99559235931E+03  0.89280997247E+03 0.  0.
        -24    2    4    4    0    0  0.22159097426E+03  0.32840095227E+03  0.14579715396E+03  0.43022260494E+03  0.82975504666E+02 0.  0.
         24    2    4    4    0    0 -0.39535954983E+03 -0.30088037347E+03  0.25811075494E+03  0.56536975437E+03  0.78636025833E+02 0.  0.
         11    1    3    3    0    0  0.16413110632E+02 -0.33263724499E+02  0.34368202687E+03  0.34567788642E+03  0.00000000000E+00 0.  1.
        -11    1    3    3    0    0  0.15735546494E+03  0.57431457082E+01  0.10296471618E+04  0.10416174940E+04  0.00000000000E+00 0. -1.
          2    1    6    6  502    0 -0.17884269623E+03 -0.14030108249E+03  0.74470494458E+02  0.23919648469E+03  0.00000000000E+00 0. -1.
          3    1    5    5  503    0  0.13430209136E+03  0.23886022478E+03  0.65935391753E+02  0.28184877969E+03  0.00000000000E+00 0. -1.
         -4    1    5    5    0  503  0.87288882907E+02  0.89540727484E+02  0.79861762206E+02  0.14837382525E+03  0.00000000000E+00 0.  1.
         -1    1    6    6    0  502 -0.21651685360E+03 -0.16057929099E+03  0.18364026048E+03  0.32617326968E+03  0.00000000000E+00 0.  1.
<mgrwt>
<rscale>  0 0.15873192E+04</rscale>
<asrwt>0</asrwt>
<pdfrwt beam="1">  1        2 0.32000959E+00 0.15873192E+04</pdfrwt>
<pdfrwt beam="2">  1       -2 0.46588512E-01 0.15873192E+04</pdfrwt>
<totfact> 0.25285854E+01</totfact>
</mgrwt>
</event>
<event>
12    1  0.1541840E-007  0.2124874E+04  0.7818608E-02  0.8550365E-01
         -2   -1    0    0    0  501 -0.00000000000E+00  0.00000000000E+00  0.34877360609E+03  0.34877360609E+03  0.00000000000E+00 0.  1.
          2   -1    0    0  501    0  0.00000000000E+00 -0.00000000000E+00 -0.32364028206E+04  0.32364028206E+04  0.00000000000E+00 0. -1.
         23    2    1    2    0    0 -0.51807459541E+03  0.56448359458E+03 -0.49933657687E+03  0.91889767401E+03  0.89403038702E+02 0.  0.
        254    2    1    2    0    0  0.51807459541E+03 -0.56448359458E+03 -0.23882926376E+04  0.26662787526E+04  0.90446539403E+03 0.  0.
        -24    2    4    4    0    0  0.43393513702E+03  0.58183735669E+01 -0.17396604697E+04  0.17948229512E+04  0.81469747903E+02 0.  0.
         24    2    4    4    0    0  0.84139458393E+02 -0.57030196815E+03 -0.64863216794E+03  0.87145580145E+03  0.79923346137E+02 0.  0.
         11    1    3    3    0    0 -0.45467419825E+03  0.53054360159E+03 -0.44049221512E+03  0.82597731889E+03  0.00000000000E+00 0.  1.
        -11    1    3    3    0    0 -0.63400397164E+02  0.33939992991E+02 -0.58844361750E+02  0.92920355114E+02  0.00000000000E+00 0. -1.
          2    1    6    6  502    0 -0.11515144587E+02 -0.13954346549E+03 -0.17520219695E+03  0.22427836974E+03  0.00000000000E+00 0. -1.
          3    1    5    5  503    0  0.81063193253E+02  0.69892338865E+01 -0.21553463595E+03  0.23038070663E+03  0.00000000000E+00 0. -1.
         -4    1    5    5    0  503  0.35287194377E+03 -0.11708603197E+01 -0.15241258337E+04  0.15644422446E+04  0.00000000000E+00 0.  1.
         -1    1    6    6    0  502  0.95654602979E+02 -0.43075850266E+03 -0.47342997099E+03  0.64717743171E+03  0.00000000000E+00 0.  1.
<mgrwt>
<rscale>  0 0.21248735E+04</rscale>
<asrwt>0</asrwt>
<pdfrwt beam="1">  1        2 0.49790814E+00 0.21248735E+04</pdfrwt>
<pdfrwt beam="2">  1       -2 0.53657476E-01 0.21248735E+04</pdfrwt>
<totfact> 0.37043741E+00</totfact>
</mgrwt>
</event>
<event>
12    1  0.1541840E-007  0.1987968E+04  0.7818608E-02  0.8612267E-01
         -2   -1    0    0    0  501 -0.00000000000E+00  0.00000000000E+00  0.36624079129E+03  0.36624079129E+03  0.00000000000E+00 0.  1.
          2   -1    0    0  501    0  0.00000000000E+00 -0.00000000000E+00 -0.26976906377E+04  0.26976906377E+04  0.00000000000E+00 0. -1.
         23    2    1    2    0    0 -0.23582406564E+03  0.71660908591E+03 -0.12848007134E+04  0.14927425065E+04  0.91791860542E+02 0.  0.
        254    2    1    2    0    0  0.23582406564E+03 -0.71660908591E+03 -0.10466491330E+04  0.15711889225E+04  0.89667087081E+03 0.  0.
        -24    2    4    4    0    0  0.38627064856E+03 -0.34861820544E+02 -0.65823649550E+03  0.76815583168E+03  0.79798103105E+02 0.  0.
         24    2    4    4    0    0 -0.15044658292E+03 -0.68174726537E+03 -0.38841263754E+03  0.80303309082E+03  0.81143452034E+02 0.  0.
         13    1    3    3    0    0 -0.11795946088E+03  0.34921838216E+03 -0.53799418407E+03  0.65215462502E+03  0.00000000000E+00 0. -1.
        -13    1    3    3    0    0 -0.11786460476E+03  0.36739070375E+03 -0.74680652934E+03  0.84058788150E+03  0.00000000000E+00 0.  1.
          2    1    6    6  502    0 -0.12241329928E+03 -0.64550418620E+03 -0.36462679726E+03  0.75140759347E+03  0.00000000000E+00 0. -1.
          3    1    5    5  503    0  0.32209871610E+03  0.12077932300E+01 -0.52491019255E+03  0.61585692487E+03  0.00000000000E+00 0. -1.
         -4    1    5    5    0  503  0.64171932462E+02 -0.36069613774E+02 -0.13332630296E+03  0.15229890681E+03  0.00000000000E+00 0.  1.
         -1    1    6    6    0  502 -0.28033283642E+02 -0.36243079166E+02 -0.23785840279E+02  0.51625497353E+02  0.00000000000E+00 0.  1.
<mgrwt>
<rscale>  0 0.19879682E+04</rscale>
<asrwt>0</asrwt>
<pdfrwt beam="1">  1        2 0.41502934E+00 0.19879682E+04</pdfrwt>
<pdfrwt beam="2">  1       -2 0.56344736E-01 0.19879682E+04</pdfrwt>
<totfact> 0.73321161E+00</totfact>
</mgrwt>
</event>
<event>
12    1  0.1541840E-007  0.2706686E+04  0.7818608E-02  0.8332839E-01
         -1   -1    0    0    0  501 -0.00000000000E+00  0.00000000000E+00  0.16581505653E+04  0.16581505653E+04  0.00000000000E+00 0.  1.
          1   -1    0    0  501    0  0.00000000000E+00 -0.00000000000E+00 -0.11045664287E+04  0.11045664287E+04  0.00000000000E+00 0. -1.
         23    2    1    2    0    0  0.83247357375E+03  0.81065419037E+03 -0.60986860340E+02  0.11668821057E+04  0.87874820650E+02 0.  0.
        254    2    1    2    0    0 -0.83247357375E+03 -0.81065419037E+03  0.61457099694E+03  0.15958348884E+04  0.90488618806E+03 0.  0.
        -24    2    4    4    0    0 -0.61869187668E+02 -0.64930342680E+03  0.42364073833E+03  0.78189724710E+03  0.80430674553E+02 0.  0.
         24    2    4    4    0    0 -0.77060438608E+03 -0.16135076357E+03  0.19093025861E+03  0.81393764128E+03  0.78580732351E+02 0.  0.
         11    1    3    3    0    0  0.66721091372E+02  0.38524673132E+02  0.66068476371E+01  0.77327258515E+02  0.00000000000E+00 0.  1.
        -11    1    3    3    0    0  0.76575248238E+03  0.77212951724E+03 -0.67593707977E+02  0.10895548472E+04  0.00000000000E+00 0. -1.
          4    1    6    6  502    0 -0.28838270500E+03 -0.47779046770E+02  0.34124585059E+02  0.29429901318E+03  0.00000000000E+00 0. -1.
          1    1    5    5  503    0 -0.57242219848E+02 -0.20510017060E+03  0.14006072017E+03  0.25487204054E+03  0.00000000000E+00 0. -1.
         -2    1    5    5    0  503 -0.46269678199E+01 -0.44420325620E+03  0.28358001816E+03  0.52702520656E+03  0.00000000000E+00 0.  1.
         -3    1    6    6    0  502 -0.48222168108E+03 -0.11357171680E+03  0.15680567355E+03  0.51963862810E+03  0.00000000000E+00 0.  1.
<mgrwt>
<rscale>  0 0.27066861E+04</rscale>
<asrwt>0</asrwt>
<pdfrwt beam="1">  1        1 0.16993330E+00 0.27066861E+04</pdfrwt>
<pdfrwt beam="2">  1       -1 0.25510009E+00 0.27066861E+04</pdfrwt>
<totfact> 0.70878854E-01</totfact>
</mgrwt>
</event>
<event>
12    1  0.1541840E-007  0.1234077E+04  0.7818608E-02  0.9083541E-01
         -1   -1    0    0    0  501 -0.00000000000E+00  0.00000000000E+00  0.27822373703E+03  0.27822373703E+03  0.00000000000E+00 0.  1.
          1   -1    0    0  501    0  0.00000000000E+00 -0.00000000000E+00 -0.13684539772E+04  0.13684539772E+04  0.00000000000E+00 0. -1.
         23    2    1    2    0    0 -0.16820906211E+03  0.23087121559E+03 -0.36860219993E+03  0.47503214337E+03  0.90510489356E+02 0.  0.
        254    2    1    2    0    0  0.16820906211E+03 -0.23087121559E+03 -0.72162804027E+03  0.11716455709E+04  0.87773031648E+03 0.  0.
        -24    2    4    4    0    0  0.28875700248E+03  0.73246673768E+00  0.91906542419E+02  0.31351953688E+03  0.80414827492E+02 0.  0.
         24    2    4    4    0    0 -0.12054794037E+03 -0.23160368233E+03 -0.81353458268E+03  0.85812603399E+03  0.79810409009E+02 0.  0.
         11    1    3    3    0    0 -0.10885671967E+02  0.36103535504E+02 -0.12507012366E+02  0.39728937669E+02  0.00000000000E+00 0.  1.
        -11    1    3    3    0    0 -0.15732339014E+03  0.19476768009E+03 -0.35609518756E+03  0.43530320571E+03  0.00000000000E+00 0. -1.
          2    1    6    6  502    0 -0.10468783333E+03 -0.23456280215E+03 -0.76263197103E+03  0.80472776380E+03  0.00000000000E+00 0. -1.
          1    1    5    5  503    0  0.25427176799E+03  0.16160797116E+02  0.10195495332E+03  0.27442688620E+03  0.00000000000E+00 0. -1.
         -2    1    5    5    0  503  0.34485234485E+02 -0.15428330378E+02 -0.10048410906E+02  0.39092650683E+02  0.00000000000E+00 0.  1.
         -1    1    6    6    0  502 -0.15860107040E+02  0.29591198161E+01 -0.50902611657E+02  0.53398270187E+02  0.00000000000E+00 0.  1.
<mgrwt>
<rscale>  0 0.12340768E+04</rscale>
<asrwt>0</asrwt>
<pdfrwt beam="1">  1        1 0.21053138E+00 0.12340768E+04</pdfrwt>
<pdfrwt beam="2">  1       -1 0.42803652E-01 0.12340768E+04</pdfrwt>
<totfact> 0.42904889E+01</totfact>
</mgrwt>
</event>
<event>
12    1  0.1541840E-007  0.3227731E+04  0.7818608E-02  0.8181532E-01
         -2   -1    0    0    0  501 -0.00000000000E+00  0.00000000000E+00  0.10482923376E+04  0.10482923376E+04  0.00000000000E+00 0.  1.
          2   -1    0    0  501    0  0.00000000000E+00 -0.00000000000E+00 -0.24845765012E+04  0.24845765012E+04  0.00000000000E+00 0. -1.
         23    2    1    2    0    0 -0.80394684866E+02  0.14813114036E+04 -0.72938637153E+03  0.16556218719E+04  0.91282659777E+02 0.  0.
        254    2    1    2    0    0  0.80394684866E+02 -0.14813114036E+04 -0.70689779209E+03  0.18772469668E+04  0.90752680743E+03 0.  0.
        -24    2    4    4    0    0  0.31341526759E+03 -0.14293088979E+04 -0.49270507528E+03  0.15461638124E+04  0.81921841177E+02 0.  0.
         24    2    4    4    0    0 -0.23302058273E+03 -0.52002505740E+02 -0.21419271681E+03  0.33108315444E+03  0.82065112186E+02 0.  0.
         13    1    3    3    0    0 -0.21573363582E+02  0.81487316278E+02 -0.55478714417E+02  0.10091323245E+03  0.00000000000E+00 0. -1.
        -13    1    3    3    0    0 -0.58821321284E+02  0.13998240873E+04 -0.67390765711E+03  0.15547086395E+04  0.00000000000E+00 0.  1.
          4    1    6    6  502    0 -0.10436992709E+03 -0.20367945477E+02 -0.43214937828E+02  0.11478443159E+03  0.00000000000E+00 0. -1.
          1    1    5    5  503    0  0.68456487340E+02 -0.35875448513E+03 -0.87408331373E+02  0.37554132616E+03  0.00000000000E+00 0. -1.
         -2    1    5    5    0  503  0.24495878025E+03 -0.10705544128E+04 -0.40529674390E+03  0.11706224863E+04  0.00000000000E+00 0.  1.
         -3    1    6    6    0  502 -0.12865065564E+03 -0.31634560262E+02 -0.17097777899E+03  0.21629872285E+03  0.00000000000E+00 0.  1.
<mgrwt>
<rscale>  0 0.32277314E+04</rscale>
<asrwt>0</asrwt>
<pdfrwt beam="1">  1        2 0.38224254E+00 0.32277314E+04</pdfrwt>
<pdfrwt beam="2">  1       -2 0.16127574E+00 0.32277314E+04</pdfrwt>
<totfact> 0.73575440E-01</totfact>
</mgrwt>
</event>
<event>
12    1  0.1541840E-007  0.1818297E+04  0.7818608E-02  0.8696629E-01
         -2   -1    0    0    0  501 -0.00000000000E+00  0.00000000000E+00  0.56439329450E+03  0.56439329450E+03  0.00000000000E+00 0. -1.
          2   -1    0    0  501    0  0.00000000000E+00 -0.00000000000E+00 -0.14644947374E+04  0.14644947374E+04  0.00000000000E+00 0.  1.
         23    2    1    2    0    0 -0.41901937304E+03  0.17420584920E+03  0.22866492115E+03  0.51649828534E+03  0.92509025035E+02 0.  0.
        254    2    1    2    0    0  0.41901937304E+03 -0.17420584920E+03 -0.11287663641E+04  0.15123897466E+04  0.89849002666E+03 0.  0.
        -24    2    4    4    0    0  0.17349669450E+03  0.23918761253E+03 -0.94154565373E+03  0.99008457064E+03  0.80295840291E+02 0.  0.
         24    2    4    4    0    0  0.24552267854E+03 -0.41339346173E+03 -0.18722071033E+03  0.52230517593E+03  0.81089842407E+02 0.  0.
         11    1    3    3    0    0 -0.26418174111E+03  0.77668131932E+02  0.98859903605E+02  0.29257069504E+03  0.00000000000E+00 0.  1.
        -11    1    3    3    0    0 -0.15483763193E+03  0.96537717268E+02  0.12980501755E+03  0.22392759030E+03  0.00000000000E+00 0. -1.
          2    1    6    6  502    0  0.61562455881E+02 -0.16056543667E+03 -0.39236711751E+02  0.17638229779E+03  0.00000000000E+00 0. -1.
          3    1    5    5  503    0  0.11172089328E+03  0.92886777102E+02 -0.39228958812E+03  0.41833076902E+03  0.00000000000E+00 0. -1.
         -4    1    5    5    0  503  0.61775801218E+02  0.14630083543E+03 -0.54925606561E+03  0.57175380163E+03  0.00000000000E+00 0.  1.
         -1    1    6    6    0  502  0.18396022266E+03 -0.25282802507E+03 -0.14798399858E+03  0.34592287813E+03  0.00000000000E+00 0.  1.
<mgrwt>
<rscale>  0 0.18182970E+04</rscale>
<asrwt>0</asrwt>
<pdfrwt beam="1">  1        2 0.22530688E+00 0.18182970E+04</pdfrwt>
<pdfrwt beam="2">  1       -2 0.86829739E-01 0.18182970E+04</pdfrwt>
<totfact> 0.14385076E+01</totfact>
</mgrwt>
</event>
<event>
12    1  0.1541840E-007  0.1321886E+04  0.7818608E-02  0.9012387E-01
          2   -1    0    0  501    0  0.00000000000E+00  0.00000000000E+00  0.31594185862E+04  0.31594185862E+04  0.00000000000E+00 0. -1.
         -2   -1    0    0    0  501 -0.00000000000E+00 -0.00000000000E+00 -0.13826776848E+03  0.13826776848E+03  0.00000000000E+00 0.  1.
         23    2    1    2    0    0 -0.23774783884E+03 -0.27893999952E+03  0.88098727696E+03  0.95849974096E+03  0.90838389725E+02 0.  0.
        254    2    1    2    0    0  0.23774783884E+03  0.27893999952E+03  0.21401635407E+04  0.23391866137E+04  0.87015083430E+03 0.  0.
        -24    2    4    4    0    0  0.48946079133E+03  0.23957433789E+03  0.19048692372E+04  0.19830134225E+04  0.82750791392E+02 0.  0.
         24    2    4    4    0    0 -0.25171295250E+03  0.39365661633E+02  0.23529430355E+03  0.35617319119E+03  0.81159516182E+02 0.  0.
         13    1    3    3    0    0 -0.30300340333E+02 -0.35662563786E+01  0.10558323814E+03  0.10990290708E+03  0.00000000000E+00 0.  1.
        -13    1    3    3    0    0 -0.20744749850E+03 -0.27537374314E+03  0.77540403882E+03  0.84859683388E+03  0.00000000000E+00 0. -1.
          4    1    6    6  502    0 -0.21023529901E+03  0.48928600872E+02  0.15650475064E+03  0.26662075295E+03  0.00000000000E+00 0. -1.
          1    1    5    5  503    0  0.42299351550E+03  0.19668530003E+03  0.17153404912E+04  0.17776393398E+04  0.00000000000E+00 0. -1.
         -2    1    5    5    0  503  0.66467275834E+02  0.42889037856E+02  0.18952874595E+03  0.20537408275E+03  0.00000000000E+00 0.  1.
         -3    1    6    6    0  502 -0.41477653490E+02 -0.95629392395E+01  0.78789552914E+02  0.89552438237E+02  0.00000000000E+00 0.  1.
<mgrwt>
<rscale>  0 0.13218862E+04</rscale>
<asrwt>0</asrwt>
<pdfrwt beam="1">  1        2 0.48606434E+00 0.13218862E+04</pdfrwt>
<pdfrwt beam="2">  1       -2 0.21271967E-01 0.13218862E+04</pdfrwt>
<totfact> 0.26203373E+01</totfact>
</mgrwt>
</event>
<event>
12    1  0.1541840E-007  0.2137183E+04  0.7818608E-02  0.8545038E-01
         -2   -1    0    0    0  501 -0.00000000000E+00  0.00000000000E+00  0.69460465015E+03  0.69460465015E+03  0.00000000000E+00 0.  1.
          2   -1    0    0  501    0  0.00000000000E+00 -0.00000000000E+00 -0.16439395347E+04  0.16439395347E+04  0.00000000000E+00 0. -1.
         23    2    1    2    0    0  0.38628767987E+02 -0.84435160389E+03 -0.53607144629E+03  0.10051291344E+04  0.92142110968E+02 0.  0.
        254    2    1    2    0    0 -0.38628767987E+02  0.84435160389E+03 -0.41326343825E+03  0.13334150504E+04  0.94487417925E+03 0.  0.
        -24    2    4    4    0    0  0.16615428372E+03  0.22242517478E+03  0.26093222431E+03  0.39032842080E+03  0.84796497742E+02 0.  0.
         24    2    4    4    0    0 -0.20478305171E+03  0.62192642911E+03 -0.67419566256E+03  0.94308662962E+03  0.78383787046E+02 0.  0.
         11    1    3    3    0    0  0.44261100473E+02 -0.49440385428E+03 -0.36114303497E+03  0.61385544540E+03  0.00000000000E+00 0.  1.
        -11    1    3    3    0    0 -0.56323324852E+01 -0.34994774961E+03 -0.17492841132E+03  0.39127368901E+03  0.00000000000E+00 0. -1.
          2    1    6    6  502    0 -0.10342170197E+03  0.40138592448E+03 -0.46205644259E+03  0.62072768985E+03  0.00000000000E+00 0. -1.
          1    1    5    5  503    0  0.60642489670E+02  0.14912767788E+03  0.13033750052E+03  0.20713386953E+03  0.00000000000E+00 0. -1.
         -2    1    5    5    0  503  0.10551179405E+03  0.73297496897E+02  0.13059472379E+03  0.18319455128E+03  0.00000000000E+00 0.  1.
         -1    1    6    6    0  502 -0.10136134973E+03  0.22054050463E+03 -0.21213921997E+03  0.32235893977E+03  0.00000000000E+00 0.  1.
<mgrwt>
<rscale>  0 0.21371832E+04</rscale>
<asrwt>0</asrwt>
<pdfrwt beam="1">  1        2 0.25291377E+00 0.21371832E+04</pdfrwt>
<pdfrwt beam="2">  1       -2 0.10686225E+00 0.21371832E+04</pdfrwt>
<totfact> 0.68231189E+00</totfact>
</mgrwt>
</event>
<event>
12    1  0.1541840E-007  0.2027495E+04  0.7818608E-02  0.8593873E-01
         -2   -1    0    0    0  501 -0.00000000000E+00  0.00000000000E+00  0.48436834956E+03  0.48436834956E+03  0.00000000000E+00 0.  1.
          2   -1    0    0  501    0  0.00000000000E+00 -0.00000000000E+00 -0.21216987123E+04  0.21216987123E+04  0.00000000000E+00 0. -1.
         23    2    1    2    0    0  0.20203584098E+03  0.75600377435E+03 -0.99014191297E+03  0.12654994393E+04  0.93528793078E+02 0.  0.
        254    2    1    2    0    0 -0.20203584098E+03 -0.75600377435E+03 -0.64718844980E+03  0.13405676226E+04  0.87516196978E+03 0.  0.
        -24    2    4    4    0    0 -0.33205608307E+03 -0.23776322447E+03 -0.68237300605E+03  0.79944693570E+03  0.81791750170E+02 0.  0.
         24    2    4    4    0    0  0.13002024209E+03 -0.51824054987E+03  0.35184556249E+02  0.54112068690E+03  0.78071210479E+02 0.  0.
         11    1    3    3    0    0  0.11071059001E+03  0.40324038804E+03 -0.45383251389E+03  0.61710906326E+03  0.00000000000E+00 0.  1.
        -11    1    3    3    0    0  0.91325250976E+02  0.35276338631E+03 -0.53630939908E+03  0.64839037602E+03  0.00000000000E+00 0. -1.
          4    1    6    6  502    0  0.23079952375E+02 -0.13694268306E+03 -0.23299546612E+02  0.14081495488E+03  0.00000000000E+00 0. -1.
          3    1    5    5  503    0 -0.28285526847E+02 -0.37724527938E+02 -0.42771139139E+02  0.63659888316E+02  0.00000000000E+00 0. -1.
         -4    1    5    5    0  503 -0.30377055623E+03 -0.20003869654E+03 -0.63960186691E+03  0.73578704739E+03  0.00000000000E+00 0.  1.
         -3    1    6    6    0  502  0.10694028972E+03 -0.38129786682E+03  0.58484102861E+02  0.40030573202E+03  0.00000000000E+00 0.  1.
<mgrwt>
<rscale>  0 0.20274947E+04</rscale>
<asrwt>0</asrwt>
<pdfrwt beam="1">  1        2 0.32641519E+00 0.20274947E+04</pdfrwt>
<pdfrwt beam="2">  1       -2 0.74518206E-01 0.20274947E+04</pdfrwt>
<totfact> 0.85791715E+00</totfact>
</mgrwt>
</event>
<event>
12    1  0.1541840E-007  0.1284824E+04  0.7818608E-02  0.9041687E-01
         -1   -1    0    0    0  501 -0.00000000000E+00  0.00000000000E+00  0.60736306659E+03  0.60736306659E+03  0.00000000000E+00 0.  1.
          1   -1    0    0  501    0  0.00000000000E+00 -0.00000000000E+00 -0.67948387098E+03  0.67948387098E+03  0.00000000000E+00 0. -1.
         23    2    1    2    0    0 -0.30088517438E+01  0.18755897624E+03  0.23621044373E+03  0.31554077673E+03  0.92645481785E+02 0.  0.
        254    2    1    2    0    0  0.30088517438E+01 -0.18755897624E+03 -0.30833124813E+03  0.97130616084E+03  0.90176497867E+03 0.  0.
        -24    2    4    4    0    0  0.22612295717E+03  0.13636754967E+03  0.18778803503E+03  0.33389014632E+03  0.80564156739E+02 0.  0.
         24    2    4    4    0    0 -0.22311410542E+03 -0.32392652591E+03 -0.49611928315E+03  0.63741601452E+03  0.73868357335E+02 0.  0.
         11    1    3    3    0    0 -0.20072539181E+02  0.16750055200E+03  0.23486375462E+03  0.28917179148E+03  0.00000000000E+00 0.  1.
        -11    1    3    3    0    0  0.17063687437E+02  0.20058424234E+02  0.13466891088E+01  0.26368985253E+02  0.00000000000E+00 0. -1.
          2    1    6    6  502    0 -0.10759829675E+03 -0.99851496610E+02 -0.20792005719E+03  0.25451613901E+03  0.00000000000E+00 0. -1.
          1    1    5    5  503    0  0.61412513334E+02  0.48171206280E+01  0.20972653052E+02  0.65073447897E+02  0.00000000000E+00 0. -1.
         -2    1    5    5    0  503  0.16471044383E+03  0.13155042905E+03  0.16681538198E+03  0.26881669843E+03  0.00000000000E+00 0.  1.
         -1    1    6    6    0  502 -0.11551580868E+03 -0.22407502930E+03 -0.28819922597E+03  0.38289987550E+03  0.00000000000E+00 0.  1.
<mgrwt>
<rscale>  0 0.12848244E+04</rscale>
<asrwt>0</asrwt>
<pdfrwt beam="1">  1        1 0.10453598E+00 0.12848244E+04</pdfrwt>
<pdfrwt beam="2">  1       -1 0.93440472E-01 0.12848244E+04</pdfrwt>
<totfact> 0.31169294E+01</totfact>
</mgrwt>
</event>
<event>
12    1  0.1541840E-007  0.1996815E+04  0.7818608E-02  0.8608111E-01
          2   -1    0    0  501    0  0.00000000000E+00  0.00000000000E+00  0.16044166025E+04  0.16044166025E+04  0.00000000000E+00 0. -1.
         -2   -1    0    0    0  501 -0.00000000000E+00 -0.00000000000E+00 -0.62129625785E+03  0.62129625785E+03  0.00000000000E+00 0.  1.
         23    2    1    2    0    0  0.79076522428E+02  0.33162845239E+03 -0.40437980142E+03  0.53987613282E+03  0.10822517341E+03 0.  0.
        254    2    1    2    0    0 -0.79076522428E+02 -0.33162845239E+03  0.13875001461E+04  0.16858367276E+04  0.89479511046E+03 0.  0.
        -24    2    4    4    0    0  0.27322412672E+02  0.30005503112E+03  0.45318166717E+03  0.55020820183E+03  0.81091959938E+02 0.  0.
         24    2    4    4    0    0 -0.10639893510E+03 -0.63168348351E+03  0.93431847894E+03  0.11356285257E+04  0.79726856471E+02 0.  0.
         13    1    3    3    0    0  0.25647619881E+02  0.15394629358E+03 -0.26603758242E+03  0.30843679575E+03  0.00000000000E+00 0.  1.
        -13    1    3    3    0    0  0.53428902547E+02  0.17768215881E+03 -0.13834221900E+03  0.23143933707E+03  0.00000000000E+00 0. -1.
          2    1    6    6  502    0 -0.10967674489E+03 -0.57812932318E+03  0.81938961940E+03  0.10087922735E+04  0.00000000000E+00 0. -1.
          3    1    5    5  503    0  0.16928679020E+02  0.28319740724E+03  0.37896076125E+03  0.47339054723E+03  0.00000000000E+00 0. -1.
         -4    1    5    5    0  503  0.10393733652E+02  0.16857623876E+02  0.74220905920E+02  0.76817654595E+02  0.00000000000E+00 0.  1.
         -1    1    6    6    0  502  0.32778097892E+01 -0.53554160326E+02  0.11492885955E+03  0.12683625224E+03  0.00000000000E+00 0.  1.
<mgrwt>
<rscale>  0 0.19968155E+04</rscale>
<asrwt>0</asrwt>
<pdfrwt beam="1">  1        2 0.24683332E+00 0.19968155E+04</pdfrwt>
<pdfrwt beam="2">  1       -2 0.95584041E-01 0.19968155E+04</pdfrwt>
<totfact> 0.94676861E+00</totfact>
</mgrwt>
</event>
<event>
12    1  0.1541840E-007  0.1632247E+04  0.7818608E-02  0.8800979E-01
          2   -1    0    0  501    0  0.00000000000E+00  0.00000000000E+00  0.23873150307E+04  0.23873150307E+04  0.00000000000E+00 0. -1.
         -2   -1    0    0    0  501 -0.00000000000E+00 -0.00000000000E+00 -0.27899851518E+03  0.27899851518E+03  0.00000000000E+00 0.  1.
         23    2    1    2    0    0  0.15516847675E+03  0.23676170205E+03 -0.52032171577E+02  0.30281584787E+03  0.94110207259E+02 0.  0.
        254    2    1    2    0    0 -0.15516847675E+03 -0.23676170205E+03  0.21603486871E+04  0.23634976980E+04  0.91590477613E+03 0.  0.
        -24    2    4    4    0    0  0.20918893933E+03 -0.46806453327E+03  0.11111725248E+04  0.12262633329E+04  0.78568201287E+02 0.  0.
         24    2    4    4    0    0 -0.36435741608E+03  0.23130283123E+03  0.10491761623E+04  0.11372343650E+04  0.79208933429E+02 0.  0.
         13    1    3    3    0    0  0.28195560128E+02  0.12209519874E+03 -0.51141986986E+01  0.12541284701E+03  0.00000000000E+00 0. -1.
        -13    1    3    3    0    0  0.12697291662E+03  0.11466650330E+03 -0.46917972879E+02  0.17740300086E+03  0.00000000000E+00 0.  1.
          4    1    6    6  502    0 -0.28218777827E+03  0.18884125371E+03  0.73332352026E+03  0.80811778020E+03  0.00000000000E+00 0. -1.
          3    1    5    5  503    0  0.24912745224E+02 -0.13111893032E+03  0.32365215069E+03  0.35009075025E+03  0.00000000000E+00 0. -1.
         -4    1    5    5    0  503  0.18427619411E+03 -0.33694560295E+03  0.78752037410E+03  0.87617258270E+03  0.00000000000E+00 0.  1.
         -3    1    6    6    0  502 -0.82169637816E+02  0.42461577513E+02  0.31585264203E+03  0.32911658485E+03  0.00000000000E+00 0.  1.
<mgrwt>
<rscale>  0 0.16322467E+04</rscale>
<asrwt>0</asrwt>
<pdfrwt beam="1">  1        2 0.36727922E+00 0.16322467E+04</pdfrwt>
<pdfrwt beam="2">  1       -2 0.42922850E-01 0.16322467E+04</pdfrwt>
<totfact> 0.19927820E+01</totfact>
</mgrwt>
</event>
<event>
12    1  0.1541840E-007  0.1792853E+04  0.7818608E-02  0.8710110E-01
          4   -1    0    0  501    0  0.00000000000E+00  0.00000000000E+00  0.80005696296E+03  0.80005696296E+03  0.00000000000E+00 0. -1.
         -4   -1    0    0    0  501 -0.00000000000E+00 -0.00000000000E+00 -0.10044035660E+04  0.10044035660E+04  0.00000000000E+00 0.  1.
         23    2    1    2    0    0  0.20857181444E+02 -0.70771215986E+02 -0.74941106949E+03  0.75861517287E+03  0.91850108347E+02 0.  0.
        254    2    1    2    0    0 -0.20857181444E+02  0.70771215986E+02  0.54506446644E+03  0.10458453561E+04  0.88952439498E+03 0.  0.
        -24    2    4    4    0    0  0.31754225961E+03  0.28578818055E+03  0.45086688937E+03  0.62632908396E+03  0.80617607934E+02 0.  0.
         24    2    4    4    0    0 -0.33839944106E+03 -0.21501696456E+03  0.94197577071E+02  0.41951627213E+03  0.79838852079E+02 0.  0.
         11    1    3    3    0    0 -0.26317896137E+02 -0.63078164718E+02 -0.50174802608E+03  0.50638184031E+03  0.00000000000E+00 0. -1.
        -11    1    3    3    0    0  0.47175077581E+02 -0.76930512687E+01 -0.24766304341E+03  0.25223333256E+03  0.00000000000E+00 0.  1.
          4    1    6    6  502    0 -0.49637493211E+02 -0.15400749404E+02 -0.10854110873E+02  0.53093083705E+02  0.00000000000E+00 0. -1.
          1    1    5    5  503    0  0.21809568328E+03  0.20502975957E+03  0.36527518663E+03  0.47225934755E+03  0.00000000000E+00 0. -1.
         -2    1    5    5    0  503  0.99446576328E+02  0.80758420973E+02  0.85591702737E+02  0.15406973641E+03  0.00000000000E+00 0.  1.
         -3    1    6    6    0  502 -0.28876194784E+03 -0.19961621516E+03  0.10505168794E+03  0.36642318843E+03  0.00000000000E+00 0.  1.
<mgrwt>
<rscale>  0 0.17928526E+04</rscale>
<asrwt>0</asrwt>
<pdfrwt beam="1">  1        4 0.12308569E+00 0.17928526E+04</pdfrwt>
<pdfrwt beam="2">  1       -4 0.15452363E+00 0.17928526E+04</pdfrwt>
<totfact> 0.25827352E-01</totfact>
</mgrwt>
</event>
<event>
12    1  0.1541840E-007  0.1272607E+04  0.7818608E-02  0.9051575E-01
          2   -1    0    0  501    0  0.00000000000E+00  0.00000000000E+00  0.15906525991E+04  0.15906525991E+04  0.00000000000E+00 0. -1.
         -2   -1    0    0    0  501 -0.00000000000E+00 -0.00000000000E+00 -0.25453840707E+03  0.25453840707E+03  0.00000000000E+00 0.  1.
         23    2    1    2    0    0  0.11709385981E+03  0.21147395615E+02 -0.73061849179E+02  0.16743253791E+03  0.92398249979E+02 0.  0.
        254    2    1    2    0    0 -0.11709385981E+03 -0.21147395615E+02  0.14091760412E+04  0.16777584683E+04  0.90273926377E+03 0.  0.
        -24    2    4    4    0    0 -0.48918713467E+03 -0.90081792194E+02  0.96927445796E+03  0.10923499012E+04  0.79476724838E+02 0.  0.
         24    2    4    4    0    0  0.37209327485E+03  0.68934396579E+02  0.43990158327E+03  0.58540856708E+03  0.77359105597E+02 0.  0.
         13    1    3    3    0    0  0.27452565017E+02  0.16039745799E+02  0.20442426029E+02  0.37799597263E+02  0.00000000000E+00 0. -1.
        -13    1    3    3    0    0  0.89641294795E+02  0.51076498160E+01 -0.93504275207E+02  0.12963294065E+03  0.00000000000E+00 0.  1.
          4    1    6    6  502    0  0.10962104546E+03  0.48288347669E+02  0.10409564801E+03  0.15869606820E+03  0.00000000000E+00 0. -1.
          1    1    5    5  503    0 -0.44178378878E+02 -0.75824466767E+01  0.46650724332E+02  0.64695538785E+02  0.00000000000E+00 0. -1.
         -2    1    5    5    0  503 -0.44500875579E+03 -0.82499345517E+02  0.92262373363E+03  0.10276543624E+04  0.00000000000E+00 0.  1.
         -3    1    6    6    0  502  0.26247222940E+03  0.20646048910E+02  0.33580593526E+03  0.42671249888E+03  0.00000000000E+00 0.  1.
<mgrwt>
<rscale>  0 0.12726071E+04</rscale>
<asrwt>0</asrwt>
<pdfrwt beam="1">  1        2 0.24471578E+00 0.12726071E+04</pdfrwt>
<pdfrwt beam="2">  1       -2 0.39159756E-01 0.12726071E+04</pdfrwt>
<totfact> 0.68310200E+01</totfact>
</mgrwt>
</event>
<event>
12    1  0.1541840E-007  0.1707465E+04  0.7818608E-02  0.8757118E-01
          2   -1    0    0  501    0  0.00000000000E+00  0.00000000000E+00  0.31025199025E+04  0.31025199025E+04  0.00000000000E+00 0. -1.
         -2   -1    0    0    0  501 -0.00000000000E+00 -0.00000000000E+00 -0.23492481320E+03  0.23492481320E+03  0.00000000000E+00 0.  1.
         23    2    1    2    0    0 -0.41446024744E+03  0.21274855735E+03  0.25838724563E+03  0.53963992412E+03  0.86069934563E+02 0.  0.
        254    2    1    2    0    0  0.41446024744E+03 -0.21274855735E+03  0.26092078437E+04  0.27978047916E+04  0.89593907993E+03 0.  0.
        -24    2    4    4    0    0  0.38374122277E+03 -0.14398032579E+03  0.37652202090E+03  0.56226564182E+03  0.79913449861E+02 0.  0.
         24    2    4    4    0    0  0.30719024663E+02 -0.68768231559E+02  0.22326858228E+04  0.22355391498E+04  0.84122403575E+02 0.  0.
         11    1    3    3    0    0 -0.12121025005E+03  0.29503466489E+02  0.41571364638E+02  0.13149356490E+03  0.00000000000E+00 0.  1.
        -11    1    3    3    0    0 -0.29324999739E+03  0.18324509086E+03  0.21681588099E+03  0.40814635922E+03  0.00000000000E+00 0. -1.
          4    1    6    6  502    0  0.94860991219E+01  0.10571163330E+02  0.10090966943E+04  0.10091966479E+04  0.00000000000E+00 0. -1.
          3    1    5    5  503    0  0.21713634255E+03 -0.12206267859E+03  0.23752359730E+03  0.34418737344E+03  0.00000000000E+00 0. -1.
         -4    1    5    5    0  503  0.16660488023E+03 -0.21917647204E+02  0.13899842360E+03  0.21807826838E+03  0.00000000000E+00 0.  1.
         -3    1    6    6    0  502  0.21232925541E+02 -0.79339394889E+02  0.12235891285E+04  0.12263425019E+04  0.00000000000E+00 0.  1.
<mgrwt>
<rscale>  0 0.17074647E+04</rscale>
<asrwt>0</asrwt>
<pdfrwt beam="1">  1        2 0.47731073E+00 0.17074647E+04</pdfrwt>
<pdfrwt beam="2">  1       -2 0.36142281E-01 0.17074647E+04</pdfrwt>
<totfact> 0.10327460E+01</totfact>
</mgrwt>
</event>
<event>
12    1  0.1541840E-007  0.1373541E+04  0.7818608E-02  0.8973197E-01
          1   -1    0    0  501    0  0.00000000000E+00  0.00000000000E+00  0.32345913348E+03  0.32345913348E+03  0.00000000000E+00 0. -1.
         -1   -1    0    0    0  501 -0.00000000000E+00 -0.00000000000E+00 -0.14581544579E+04  0.14581544579E+04  0.00000000000E+00 0.  1.
         23    2    1    2    0    0 -0.62463698131E+02 -0.17283645380E+03  0.14513627781E+03  0.25221796267E+03  0.93676081326E+02 0.  0.
        254    2    1    2    0    0  0.62463698131E+02  0.17283645380E+03 -0.12798316022E+04  0.15293956287E+04  0.81688916365E+03 0.  0.
        -24    2    4    4    0    0  0.34988629316E+03 -0.12070274274E+03 -0.84573315056E+03  0.92667162431E+03  0.80412480970E+02 0.  0.
         24    2    4    4    0    0 -0.28742259502E+03  0.29353919654E+03 -0.43409845168E+03  0.60272400441E+03  0.77831559819E+02 0.  0.
         13    1    3    3    0    0 -0.58002881656E+02 -0.14998164878E+03  0.15814816966E+03  0.22554306201E+03  0.00000000000E+00 0. -1.
        -13    1    3    3    0    0 -0.44608164751E+01 -0.22854805013E+02 -0.13011891853E+02  0.26674900663E+02  0.00000000000E+00 0.  1.
          4    1    6    6  502    0 -0.22366566221E+03  0.26453779853E+03 -0.33975117563E+03  0.48521895742E+03  0.00000000000E+00 0. -1.
          3    1    5    5  503    0  0.29708366467E+03 -0.91456371310E+02 -0.76600015500E+03  0.82666753240E+03  0.00000000000E+00 0. -1.
         -2    1    5    5    0  503  0.52802628486E+02 -0.29246371429E+02 -0.79732995561E+02  0.10000409191E+03  0.00000000000E+00 0.  1.
         -3    1    6    6    0  502 -0.63756932819E+02  0.29001398009E+02 -0.94347276052E+02  0.11750504699E+03  0.00000000000E+00 0.  1.
<mgrwt>
<rscale>  0 0.13735405E+04</rscale>
<asrwt>0</asrwt>
<pdfrwt beam="1">  1        1 0.49762942E-01 0.13735405E+04</pdfrwt>
<pdfrwt beam="2">  1       -1 0.22433146E+00 0.13735405E+04</pdfrwt>
<totfact> 0.79940063E+00</totfact>
</mgrwt>
</event>
<event>
12    1  0.1541840E-007  0.2124332E+04  0.7818608E-02  0.8550600E-01
          1   -1    0    0  501    0  0.00000000000E+00  0.00000000000E+00  0.19599854160E+04  0.19599854160E+04  0.00000000000E+00 0. -1.
         -1   -1    0    0    0  501 -0.00000000000E+00 -0.00000000000E+00 -0.57561501035E+03  0.57561501035E+03  0.00000000000E+00 0.  1.
         23    2    1    2    0    0  0.85056199281E+03 -0.17819301898E+03  0.60723561991E+03  0.10625427503E+04  0.71088272734E+02 0.  0.
        254    2    1    2    0    0 -0.85056199281E+03  0.17819301898E+03  0.77713478573E+03  0.14730576760E+04  0.90041767314E+03 0.  0.
        -24    2    4    4    0    0  0.83109497950E+02  0.28625536720E+03  0.18994060288E+03  0.36201942526E+03  0.78302667538E+02 0.  0.
         24    2    4    4    0    0 -0.93367149077E+03 -0.10806234822E+03  0.58719418285E+03  0.11110382508E+04  0.78670595125E+02 0.  0.
         13    1    3    3    0    0  0.17860360118E+03 -0.27655457540E+02  0.16051030509E+03  0.24171807695E+03  0.00000000000E+00 0. -1.
        -13    1    3    3    0    0  0.67195839164E+03 -0.15053756144E+03  0.44672531482E+03  0.82082467336E+03  0.00000000000E+00 0.  1.
          4    1    6    6  502    0 -0.18804658945E+03  0.31450513488E+01  0.14054194092E+03  0.23478383315E+03  0.00000000000E+00 0. -1.
          3    1    5    5  503    0 -0.71088184094E+00  0.74651110974E+02  0.18057896509E+02  0.76807430298E+02  0.00000000000E+00 0. -1.
         -4    1    5    5    0  503  0.83820379791E+02  0.21160425623E+03  0.17188270637E+03  0.28521199496E+03  0.00000000000E+00 0.  1.
         -3    1    6    6    0  502 -0.74562490131E+03 -0.11120739957E+03  0.44665224192E+03  0.87625441762E+03  0.00000000000E+00 0.  1.
<mgrwt>
<rscale>  0 0.21243324E+04</rscale>
<asrwt>0</asrwt>
<pdfrwt beam="1">  1        1 0.30153621E+00 0.21243324E+04</pdfrwt>
<pdfrwt beam="2">  1       -1 0.88556156E-01 0.21243324E+04</pdfrwt>
<totfact> 0.36439027E+00</totfact>
</mgrwt>
</event>
<event>
12    1  0.1541840E-007  0.3409256E+04  0.7818608E-02  0.8135638E-01
          1   -1    0    0  501    0  0.00000000000E+00  0.00000000000E+00  0.19485937508E+04  0.19485937508E+04  0.00000000000E+00 0. -1.
         -1   -1    0    0    0  501 -0.00000000000E+00 -0.00000000000E+00 -0.14912074189E+04  0.14912074189E+04  0.00000000000E+00 0.  1.
         23    2    1    2    0    0 -0.15530124890E+04  0.10421041233E+03 -0.92078837843E+02  0.15612681171E+04  0.79824934121E+02 0.  0.
        254    2    1    2    0    0  0.15530124890E+04 -0.10421041233E+03  0.54946516971E+03  0.18785330526E+04  0.89680926397E+03 0.  0.
        -24    2    4    4    0    0  0.19916930785E+03 -0.34532197453E+03  0.21885694452E+03  0.46192954374E+03  0.81023835586E+02 0.  0.
         24    2    4    4    0    0  0.13538431812E+04  0.24111156220E+03  0.33060822520E+03  0.14166035089E+04  0.80234395111E+02 0.  0.
         13    1    3    3    0    0 -0.15535858441E+04  0.10475894110E+03 -0.93193197607E+02  0.15599001195E+04  0.00000000000E+00 0.  1.
        -13    1    3    3    0    0  0.57335507845E+00 -0.54852876498E+00  0.11143597640E+01  0.13679976373E+01  0.00000000000E+00 0. -1.
          2    1    6    6  502    0  0.11414493360E+04  0.21798285230E+03  0.30491812046E+03  0.12014150701E+04  0.00000000000E+00 0. -1.
          3    1    5    5  503    0  0.11845458605E+03 -0.18022083514E+03  0.74268385557E+02  0.22809390932E+03  0.00000000000E+00 0. -1.
         -4    1    5    5    0  503  0.80714721800E+02 -0.16510113939E+03  0.14458855896E+03  0.23383563442E+03  0.00000000000E+00 0.  1.
         -1    1    6    6    0  502  0.21239384515E+03  0.23128709894E+02  0.25690104740E+02  0.21518843872E+03  0.00000000000E+00 0.  1.
<mgrwt>
<rscale>  0 0.34092565E+04</rscale>
<asrwt>0</asrwt>
<pdfrwt beam="1">  1        1 0.29978366E+00 0.34092565E+04</pdfrwt>
<pdfrwt beam="2">  1       -1 0.22941652E+00 0.34092565E+04</pdfrwt>
<totfact> 0.25284567E-01</totfact>
</mgrwt>
</event>
<event>
12    1  0.1541840E-007  0.1325373E+04  0.7818608E-02  0.9009683E-01
          2   -1    0    0  501    0  0.00000000000E+00  0.00000000000E+00  0.49438468278E+03  0.49438468278E+03  0.00000000000E+00 0. -1.
         -2   -1    0    0    0  501 -0.00000000000E+00 -0.00000000000E+00 -0.88828279836E+03  0.88828279836E+03  0.00000000000E+00 0.  1.
         23    2    1    2    0    0  0.19868853819E+03 -0.25059784149E+03 -0.24692514003E+03  0.41427655353E+03  0.91523902114E+02 0.  0.
        254    2    1    2    0    0 -0.19868853819E+03  0.25059784149E+03 -0.14697297555E+03  0.96839092762E+03  0.90216601564E+03 0.  0.
        -24    2    4    4    0    0  0.78666278097E+02 -0.27843672831E+03  0.10155996170E+03  0.31662243204E+03  0.78866619483E+02 0.  0.
         24    2    4    4    0    0 -0.27735481629E+03  0.52903456980E+03 -0.24853293725E+03  0.65176849557E+03  0.78932127542E+02 0.  0.
         13    1    3    3    0    0 -0.52036112154E+01 -0.20581859439E+02 -0.34963358798E+02  0.40903874708E+02  0.00000000000E+00 0. -1.
        -13    1    3    3    0    0  0.20389214940E+03 -0.23001598205E+03 -0.21196178124E+03  0.37337267882E+03  0.00000000000E+00 0.  1.
          4    1    6    6  502    0 -0.24325886609E+03  0.39231609003E+03 -0.19134954548E+03  0.49970134979E+03  0.00000000000E+00 0. -1.
          3    1    5    5  503    0  0.83012425368E+02 -0.15593743837E+03  0.49597653080E+02  0.18348698766E+03  0.00000000000E+00 0. -1.
         -4    1    5    5    0  503 -0.43461472717E+01 -0.12249928994E+03  0.51962308621E+02  0.13313544438E+03  0.00000000000E+00 0.  1.
         -3    1    6    6    0  502 -0.34095950194E+02  0.13671847978E+03 -0.57183391766E+02  0.15206714578E+03  0.00000000000E+00 0.  1.
<mgrwt>
<rscale>  0 0.13253730E+04</rscale>
<asrwt>0</asrwt>
<pdfrwt beam="1">  1        2 0.76059183E-01 0.13253730E+04</pdfrwt>
<pdfrwt beam="2">  1       -2 0.13665889E+00 0.13253730E+04</pdfrwt>
<totfact> 0.23327364E+01</totfact>
</mgrwt>
</event>
<event>
12    1  0.1541840E-007  0.1243406E+04  0.7818608E-02  0.9075689E-01
          1   -1    0    0  501    0  0.00000000000E+00  0.00000000000E+00  0.45126543765E+03  0.45126543765E+03  0.00000000000E+00 0. -1.
         -1   -1    0    0    0  501 -0.00000000000E+00 -0.00000000000E+00 -0.85651337672E+03  0.85651337672E+03  0.00000000000E+00 0.  1.
         23    2    1    2    0    0 -0.15853492792E+03  0.84199323351E+02 -0.32918118200E+03  0.38603940270E+03  0.91887542300E+02 0.  0.
        254    2    1    2    0    0  0.15853492792E+03 -0.84199323351E+02 -0.76066757066E+02  0.92173941167E+03  0.90088542117E+03 0.  0.
        -24    2    4    4    0    0  0.22472798170E+03 -0.46065433218E+03  0.22021618864E+02  0.51923086249E+03  0.80066580731E+02 0.  0.
         24    2    4    4    0    0 -0.66193053785E+02  0.37645500883E+03 -0.98088375930E+02  0.40250854918E+03  0.79321552121E+02 0.  0.
         13    1    3    3    0    0 -0.10074061539E+03  0.56253695611E+02 -0.11685265719E+03  0.16421843182E+03  0.00000000000E+00 0. -1.
        -13    1    3    3    0    0 -0.57794312528E+02  0.27945627740E+02 -0.21232852481E+03  0.22182097087E+03  0.00000000000E+00 0.  1.
          4    1    6    6  502    0 -0.39661531401E+00  0.37782667637E+02 -0.35554238359E+02  0.51882474331E+02  0.00000000000E+00 0. -1.
          1    1    5    5  503    0  0.97190805613E+02 -0.11644471088E+03  0.79510767487E+01  0.15188364958E+03  0.00000000000E+00 0. -1.
         -2    1    5    5    0  503  0.12753717609E+03 -0.34420962130E+03  0.14070542115E+02  0.36734721291E+03  0.00000000000E+00 0.  1.
         -3    1    6    6    0  502 -0.65796438471E+02  0.33867234119E+03 -0.62534137571E+02  0.35062607485E+03  0.00000000000E+00 0.  1.
<mgrwt>
<rscale>  0 0.12434064E+04</rscale>
<asrwt>0</asrwt>
<pdfrwt beam="1">  1        1 0.69425453E-01 0.12434064E+04</pdfrwt>
<pdfrwt beam="2">  1       -1 0.13177129E+00 0.12434064E+04</pdfrwt>
<totfact> 0.24668505E+01</totfact>
</mgrwt>
</event>
<event>
12    1  0.1541840E-007  0.3125906E+04  0.7818608E-02  0.8208664E-01
         -1   -1    0    0    0  501 -0.00000000000E+00  0.00000000000E+00  0.15924836360E+04  0.15924836360E+04  0.00000000000E+00 0.  1.
          1   -1    0    0  501    0  0.00000000000E+00 -0.00000000000E+00 -0.15339702238E+04  0.15339702238E+04  0.00000000000E+00 0. -1.
         23    2    1    2    0    0 -0.32888937791E+03  0.11903825692E+04  0.74625345956E+03  0.14461191399E+04  0.95851222435E+02 0.  0.
        254    2    1    2    0    0  0.32888937791E+03 -0.11903825692E+04 -0.68774004737E+03  0.16803347200E+04  0.90849299082E+03 0.  0.
        -24    2    4    4    0    0  0.40524210328E+02  0.20302551715E+02  0.14806522584E+03  0.17907924620E+03  0.89953655231E+02 0.  0.
         24    2    4    4    0    0  0.28836516758E+03 -0.12106851209E+04 -0.83580527321E+03  0.15012554738E+04  0.79275537657E+02 0.  0.
         11    1    3    3    0    0 -0.12818420321E+03  0.31396694134E+03  0.22220094472E+03  0.40543765247E+03  0.00000000000E+00 0. -1.
        -11    1    3    3    0    0 -0.20070517470E+03  0.87641562786E+03  0.52405251483E+03  0.10406814874E+04  0.00000000000E+00 0.  1.
          2    1    6    6  502    0  0.21363545090E+03 -0.73590477757E+03 -0.52542824216E+03  0.92912366518E+03  0.00000000000E+00 0. -1.
          1    1    5    5  503    0  0.57655002618E+02  0.25934005764E+02  0.14811921050E+03  0.16104649174E+03  0.00000000000E+00 0. -1.
         -2    1    5    5    0  503 -0.17130792290E+02 -0.56314540492E+01 -0.53984664936E-01  0.18032754463E+02  0.00000000000E+00 0.  1.
         -1    1    6    6    0  502  0.74729716680E+02 -0.47478034335E+03 -0.31037703104E+03  0.57213180857E+03  0.00000000000E+00 0.  1.
<mgrwt>
<rscale>  0 0.31259063E+04</rscale>
<asrwt>0</asrwt>
<pdfrwt beam="1">  1        1 0.23599542E+00 0.31259063E+04</pdfrwt>
<pdfrwt beam="2">  1       -1 0.24499748E+00 0.31259063E+04</pdfrwt>
<totfact> 0.39223119E-01</totfact>
</mgrwt>
</event>
<event>
12    1  0.1541840E-007  0.2007640E+04  0.7818608E-02  0.8603057E-01
          2   -1    0    0  501    0  0.00000000000E+00  0.00000000000E+00  0.32895954669E+04  0.32895954669E+04  0.00000000000E+00 0.  1.
         -2   -1    0    0    0  501 -0.00000000000E+00 -0.00000000000E+00 -0.30631566617E+03  0.30631566617E+03  0.00000000000E+00 0. -1.
         23    2    1    2    0    0  0.63023904005E+03 -0.21149582781E+03  0.19835430585E+04  0.20937956060E+04  0.87208037016E+02 0.  0.
        254    2    1    2    0    0 -0.63023904005E+03  0.21149582781E+03  0.99973674220E+03  0.15021155271E+04  0.90274346869E+03 0.  0.
        -24    2    4    4    0    0 -0.76512399219E+03  0.33907348765E+02  0.10037887450E+04  0.12651068827E+04  0.79618767543E+02 0.  0.
         24    2    4    4    0    0  0.13488495214E+03  0.17758847904E+03 -0.40520028359E+01  0.23700864445E+03  0.80156475806E+02 0.  0.
         13    1    3    3    0    0  0.59549281805E+03 -0.17655604562E+03  0.18462178960E+04  0.19478973929E+04  0.00000000000E+00 0.  1.
        -13    1    3    3    0    0  0.34746221999E+02 -0.34939782194E+02  0.13732516251E+03  0.14589821308E+03  0.00000000000E+00 0. -1.
          4    1    6    6  502    0  0.63754464295E+02  0.29968096839E+02 -0.17519650459E+02  0.72592401103E+02  0.00000000000E+00 0. -1.
          1    1    5    5  503    0 -0.63568106852E+03  0.55749041668E+02  0.81307205956E+03  0.10335785169E+04  0.00000000000E+00 0. -1.
         -2    1    5    5    0  503 -0.12944292367E+03 -0.21841692903E+02  0.19071668547E+03  0.23152836577E+03  0.00000000000E+00 0.  1.
         -3    1    6    6    0  502  0.71130487845E+02  0.14762038221E+03  0.13467647624E+02  0.16441624335E+03  0.00000000000E+00 0.  1.
<mgrwt>
<rscale>  0 0.20076400E+04</rscale>
<asrwt>0</asrwt>
<pdfrwt beam="1">  1        2 0.50609159E+00 0.20076400E+04</pdfrwt>
<pdfrwt beam="2">  1       -2 0.47125489E-01 0.20076400E+04</pdfrwt>
<totfact> 0.45031062E+00</totfact>
</mgrwt>
</event>
<event>
12    1  0.1541840E-007  0.1579283E+04  0.7818608E-02  0.8833377E-01
         -1   -1    0    0    0  501 -0.00000000000E+00  0.00000000000E+00  0.75678412332E+03  0.75678412332E+03  0.00000000000E+00 0.  1.
          1   -1    0    0  501    0  0.00000000000E+00 -0.00000000000E+00 -0.82392539171E+03  0.82392539171E+03  0.00000000000E+00 0. -1.
         23    2    1    2    0    0  0.52169720904E+02  0.48862789993E+03 -0.21281132017E+03  0.54392131916E+03  0.95303930003E+02 0.  0.
        254    2    1    2    0    0 -0.52169720904E+02 -0.48862789993E+03  0.14567005178E+03  0.10367881959E+04  0.90123864472E+03 0.  0.
        -24    2    4    4    0    0 -0.14067532260E+03  0.21692470293E+03  0.17262486593E+03  0.32119306564E+03  0.80745080016E+02 0.  0.
         24    2    4    4    0    0  0.88505601696E+02 -0.70555260286E+03 -0.26954814154E+02  0.71559513022E+03  0.75578511839E+02 0.  0.
         13    1    3    3    0    0  0.43795317087E+02  0.47538572528E+03 -0.22119328950E+03  0.52615215377E+03  0.00000000000E+00 0. -1.
        -13    1    3    3    0    0  0.83744038168E+01  0.13242174646E+02  0.83819693282E+01  0.17769165384E+02  0.00000000000E+00 0.  1.
          2    1    6    6  502    0  0.75590365672E+02 -0.69249891765E+03 -0.24252671948E+02  0.69703432227E+03  0.00000000000E+00 0. -1.
          1    1    5    5  503    0 -0.68669590054E+02  0.55804599218E+02  0.90405276672E+02  0.12650209462E+03  0.00000000000E+00 0. -1.
         -2    1    5    5    0  503 -0.72005732546E+02  0.16112010372E+03  0.82219589261E+02  0.19469097103E+03  0.00000000000E+00 0.  1.
         -1    1    6    6    0  502  0.12915236025E+02 -0.13053685212E+02 -0.27021422056E+01  0.18560807948E+02  0.00000000000E+00 0.  1.
<mgrwt>
<rscale>  0 0.15792829E+04</rscale>
<asrwt>0</asrwt>
<pdfrwt beam="1">  1        1 0.12675775E+00 0.15792829E+04</pdfrwt>
<pdfrwt beam="2">  1       -1 0.11642833E+00 0.15792829E+04</pdfrwt>
<totfact> 0.13503327E+01</totfact>
</mgrwt>
</event>
<event>
12    1  0.1541840E-007  0.1175801E+04  0.7818608E-02  0.9134306E-01
          1   -1    0    0  501    0  0.00000000000E+00  0.00000000000E+00  0.79880069817E+03  0.79880069817E+03  0.00000000000E+00 0. -1.
         -1   -1    0    0    0  501 -0.00000000000E+00 -0.00000000000E+00 -0.43268222038E+03  0.43268222038E+03  0.00000000000E+00 0.  1.
         23    2    1    2    0    0 -0.11667698622E+03  0.74721282670E+02  0.30230666689E+03  0.34546317001E+03  0.93587882740E+02 0.  0.
        254    2    1    2    0    0  0.11667698622E+03 -0.74721282670E+02  0.63811810904E+02  0.88601974854E+03  0.87278992798E+03 0.  0.
        -24    2    4    4    0    0 -0.35324427057E+03 -0.68472775181E+02 -0.99749386612E+02  0.38184957694E+03  0.79931993898E+02 0.  0.
         24    2    4    4    0    0  0.46992125679E+03 -0.62485074897E+01  0.16356119752E+03  0.50417017160E+03  0.81057172241E+02 0.  0.
         11    1    3    3    0    0 -0.38688303738E+02  0.15124276920E+02  0.19770344560E+03  0.20202024899E+03  0.00000000000E+00 0. -1.
        -11    1    3    3    0    0 -0.77988682480E+02  0.59597005750E+02  0.10460322128E+03  0.14344292103E+03  0.00000000000E+00 0.  1.
          2    1    6    6  502    0  0.13812968287E+03  0.29936575040E+02  0.28852022797E+02  0.14425133287E+03  0.00000000000E+00 0. -1.
          1    1    5    5  503    0 -0.12540154191E+02 -0.19539403408E+02  0.90228286337E+00  0.23234841662E+02  0.00000000000E+00 0. -1.
         -2    1    5    5    0  503 -0.34070411638E+03 -0.48933371772E+02 -0.10065166947E+03  0.35861473528E+03  0.00000000000E+00 0.  1.
         -1    1    6    6    0  502  0.33179157392E+03 -0.36185082530E+02  0.13470917472E+03  0.35991883873E+03  0.00000000000E+00 0.  1.
<mgrwt>
<rscale>  0 0.11758008E+04</rscale>
<asrwt>0</asrwt>
<pdfrwt beam="1">  1        1 0.12289242E+00 0.11758008E+04</pdfrwt>
<pdfrwt beam="2">  1       -1 0.66566495E-01 0.11758008E+04</pdfrwt>
<totfact> 0.50255887E+01</totfact>
</mgrwt>
</event>
<event>
12    1  0.1541840E-007  0.1596847E+04  0.7818608E-02  0.8822487E-01
          1   -1    0    0  501    0  0.00000000000E+00  0.00000000000E+00  0.10678673645E+04  0.10678673645E+04  0.00000000000E+00 0. -1.
         -1   -1    0    0    0  501 -0.00000000000E+00 -0.00000000000E+00 -0.59696580120E+03  0.59696580120E+03  0.00000000000E+00 0.  1.
         23    2    1    2    0    0 -0.24034824016E+03  0.48336644253E+03  0.16399544881E+03  0.57145015628E+03  0.90831600057E+02 0.  0.
        254    2    1    2    0    0  0.24034824016E+03 -0.48336644253E+03  0.30690611450E+03  0.10933830094E+04  0.89993591322E+03 0.  0.
        -24    2    4    4    0    0  0.18582961546E+03 -0.74265970042E+03  0.24279698790E+03  0.80722083619E+03  0.81111185628E+02 0.  0.
         24    2    4    4    0    0  0.54518624698E+02  0.25929325789E+03  0.64109126592E+02  0.28616217325E+03  0.87026060814E+02 0.  0.
         11    1    3    3    0    0 -0.43652094413E+02  0.70527396407E+02 -0.69667250695E+01  0.83235534772E+02  0.00000000000E+00 0.  1.
        -11    1    3    3    0    0 -0.19669614575E+03  0.41283904612E+03  0.17096217388E+03  0.48821462151E+03  0.00000000000E+00 0. -1.
          2    1    6    6  502    0  0.40245592779E+02  0.33969348847E+02  0.18544314821E+02  0.55834720483E+02  0.00000000000E+00 0. -1.
          3    1    5    5  503    0  0.45396568377E+02 -0.22275377911E+03  0.11001921072E+03  0.25255558053E+03  0.00000000000E+00 0. -1.
         -2    1    5    5    0  503  0.14043304709E+03 -0.51990592130E+03  0.13277777719E+03  0.55466525566E+03  0.00000000000E+00 0.  1.
         -1    1    6    6    0  502  0.14273031918E+02  0.22532390904E+03  0.45564811771E+02  0.23032745277E+03  0.00000000000E+00 0.  1.
<mgrwt>
<rscale>  0 0.15968473E+04</rscale>
<asrwt>0</asrwt>
<pdfrwt beam="1">  1        1 0.16428729E+00 0.15968473E+04</pdfrwt>
<pdfrwt beam="2">  1       -1 0.91840893E-01 0.15968473E+04</pdfrwt>
<totfact> 0.14867700E+01</totfact>
</mgrwt>
</event>
<event>
12    1  0.1541840E-007  0.1963489E+04  0.7818608E-02  0.8623883E-01
          4   -1    0    0  501    0  0.00000000000E+00  0.00000000000E+00  0.57540247590E+03  0.57540247590E+03  0.00000000000E+00 0. -1.
         -4   -1    0    0    0  501 -0.00000000000E+00 -0.00000000000E+00 -0.16750407017E+04  0.16750407017E+04  0.00000000000E+00 0.  1.
         23    2    1    2    0    0 -0.55059277611E+03 -0.46254117086E+03 -0.11254222329E+03  0.73357235541E+03  0.91465341846E+02 0.  0.
        254    2    1    2    0    0  0.55059277611E+03  0.46254117086E+03 -0.98709600247E+03  0.15168708221E+04  0.89968985387E+03 0.  0.
        -24    2    4    4    0    0 -0.10632359895E+03  0.70438442484E+02  0.10399133470E+03  0.18185646452E+03  0.77403450306E+02 0.  0.
         24    2    4    4    0    0  0.65691637506E+03  0.39210272838E+03 -0.10910873372E+04  0.13350143576E+04  0.80672698812E+02 0.  0.
         13    1    3    3    0    0 -0.90736783730E+02 -0.48768232240E+02  0.80268104829E+01  0.10332441185E+03  0.00000000000E+00 0. -1.
        -13    1    3    3    0    0 -0.45985599238E+03 -0.41377293862E+03 -0.12056903378E+03  0.63024794357E+03  0.00000000000E+00 0.  1.
          4    1    6    6  502    0  0.18718553629E+03  0.80703034252E+02 -0.33209481068E+03  0.38966443001E+03  0.00000000000E+00 0. -1.
          1    1    5    5  503    0 -0.34779322108E+02  0.68976295022E+02  0.60471594758E+02  0.98102723172E+02  0.00000000000E+00 0. -1.
         -2    1    5    5    0  503 -0.71544276843E+02  0.14621474624E+01  0.43519739944E+02  0.83753741343E+02  0.00000000000E+00 0.  1.
         -3    1    6    6    0  502  0.46973083878E+03  0.31139969412E+03 -0.75899252649E+03  0.94534992763E+03  0.00000000000E+00 0.  1.
<mgrwt>
<rscale>  0 0.19634893E+04</rscale>
<asrwt>0</asrwt>
<pdfrwt beam="1">  1        4 0.88523461E-01 0.19634893E+04</pdfrwt>
<pdfrwt beam="2">  1       -4 0.25769856E+00 0.19634893E+04</pdfrwt>
<totfact> 0.11602089E-01</totfact>
</mgrwt>
</event>
<event>
12    1  0.2258859E-007  0.1933918E+04  0.7818608E-02  0.8638155E-01
         -1   -1    0    0    0  501 -0.00000000000E+00  0.00000000000E+00  0.59246030247E+03  0.59246030247E+03  0.00000000000E+00 0. -1.
          1   -1    0    0  501    0  0.00000000000E+00 -0.00000000000E+00 -0.15781815999E+04  0.15781815999E+04  0.00000000000E+00 0.  1.
         23    2    1    2    0    0  0.14124192212E+03  0.99618885020E+02  0.42248104816E+03  0.46548746966E+03  0.91187419866E+02 0.  0.
        254    2    1    2    0    0 -0.14124192212E+03 -0.99618885020E+02 -0.14082023456E+04  0.17051544327E+04  0.94585653799E+03 0.  0.
        -24    2    4    4    0    0  0.26214149420E+03  0.26539873818E+03 -0.37203224287E+03  0.53227083953E+03  0.75826141046E+02 0.  0.
         24    2    4    4    0    0 -0.40338341632E+03 -0.36501762320E+03 -0.10361701027E+04  0.11728835932E+04  0.77790716622E+02 0.  0.
         13    1    3    3    0    0 -0.56538937632E+00  0.14034966959E+02  0.28248579682E+01  0.14327588256E+02  0.00000000000E+00 0.  1.
        -13    1    3    3    0    0  0.14180731149E+03  0.85583918060E+02  0.41965619019E+03  0.45115988140E+03  0.00000000000E+00 0. -1.
          4    1    6    6  502    0 -0.42826417060E+02 -0.42884700908E+02 -0.70762495985E+02  0.93169364107E+02  0.00000000000E+00 0. -1.
          3    1    5    5  503    0  0.14317535766E+02  0.28147849192E+02 -0.63252920966E+02  0.70698127664E+02  0.00000000000E+00 0. -1.
         -4    1    5    5    0  503  0.24782395844E+03  0.23725088899E+03 -0.30877932190E+03  0.46157271186E+03  0.00000000000E+00 0.  1.
         -3    1    6    6    0  502 -0.36055699926E+03 -0.32213292229E+03 -0.96540760671E+03  0.10797142291E+04  0.00000000000E+00 0.  1.
<mgrwt>
<rscale>  0 0.19339182E+04</rscale>
<asrwt>0</asrwt>
<pdfrwt beam="1">  1        1 0.24279717E+00 0.19339182E+04</pdfrwt>
<pdfrwt beam="2">  1       -1 0.91147740E-01 0.19339182E+04</pdfrwt>
<totfact> 0.63288267E+00</totfact>
</mgrwt>
</event>
<event>
12    1  0.1541840E-007  0.1514365E+04  0.7818608E-02  0.8874956E-01
         -2   -1    0    0    0  501 -0.00000000000E+00  0.00000000000E+00  0.47764695113E+03  0.47764695113E+03  0.00000000000E+00 0.  1.
          2   -1    0    0  501    0  0.00000000000E+00 -0.00000000000E+00 -0.12003114203E+04  0.12003114203E+04  0.00000000000E+00 0. -1.
         23    2    1    2    0    0 -0.25299030791E+03 -0.70207517102E+02  0.21046923636E+03  0.35381359549E+03  0.10933238106E+03 0.  0.
        254    2    1    2    0    0  0.25299030791E+03  0.70207517102E+02 -0.93313370548E+03  0.13241447759E+04  0.90204638676E+03 0.  0.
        -24    2    4    4    0    0  0.49928389301E+03 -0.18736993575E+02 -0.20461372708E+03  0.54580733624E+03  0.80021186159E+02 0.  0.
         24    2    4    4    0    0 -0.24629358510E+03  0.88944510676E+02 -0.72851997840E+03  0.77833743966E+03  0.80598728297E+02 0.  0.
         11    1    3    3    0    0 -0.92624576907E+02 -0.54217152775E+02  0.29128426629E+02  0.11120826022E+03  0.00000000000E+00 0. -1.
        -11    1    3    3    0    0 -0.16036573100E+03 -0.15990364326E+02  0.18134080973E+03  0.24260533527E+03  0.00000000000E+00 0.  1.
          4    1    6    6  502    0 -0.22586774644E+02  0.14310582940E+02 -0.16970850708E+03  0.17180201555E+03  0.00000000000E+00 0. -1.
          1    1    5    5  503    0  0.13761250081E+02  0.82390147995E+01  0.42270260939E+01  0.16586775403E+02  0.00000000000E+00 0. -1.
         -2    1    5    5    0  503  0.48552264293E+03 -0.26976008374E+02 -0.20884075318E+03  0.52922056084E+03  0.00000000000E+00 0.  1.
         -3    1    6    6    0  502 -0.22370681046E+03  0.74633927737E+02 -0.55881147132E+03  0.60653542411E+03  0.00000000000E+00 0.  1.
<mgrwt>
<rscale>  0 0.15143647E+04</rscale>
<asrwt>0</asrwt>
<pdfrwt beam="1">  1        2 0.18466330E+00 0.15143647E+04</pdfrwt>
<pdfrwt beam="2">  1       -2 0.73484146E-01 0.15143647E+04</pdfrwt>
<totfact> 0.30531346E+01</totfact>
</mgrwt>
</event>
<event>
12    1  0.1647384E-007  0.1663672E+04  0.7818608E-02  0.8782359E-01
         -2   -1    0    0    0  501 -0.00000000000E+00  0.00000000000E+00  0.35215459885E+03  0.35215459885E+03  0.00000000000E+00 0.  1.
          2   -1    0    0  501    0  0.00000000000E+00 -0.00000000000E+00 -0.19649078864E+04  0.19649078864E+04  0.00000000000E+00 0. -1.
         23    2    1    2    0    0 -0.42929196841E+03 -0.39079871855E+03 -0.70818697501E+03  0.92066022082E+03  0.95242942341E+02 0.  0.
        254    2    1    2    0    0  0.42929196841E+03  0.39079871855E+03 -0.90456631258E+03  0.13964022645E+04  0.89145041240E+03 0.  0.
        -24    2    4    4    0    0  0.25414739185E+03  0.67001050269E+03 -0.66859937653E+03  0.98327478159E+03  0.79367495320E+02 0.  0.
         24    2    4    4    0    0  0.17514457657E+03 -0.27921178414E+03 -0.23596693605E+03  0.41312748287E+03  0.79743834190E+02 0.  0.
         13    1    3    3    0    0 -0.40442649132E+03 -0.39183713302E+03 -0.67205712188E+03  0.87678840137E+03  0.00000000000E+00 0.  1.
        -13    1    3    3    0    0 -0.24865477090E+02  0.10384144663E+01 -0.36129853123E+02  0.43871819454E+02  0.00000000000E+00 0. -1.
          2    1    6    6  502    0  0.16469380372E+03 -0.26475934513E+03 -0.19324274467E+03  0.36683009444E+03  0.00000000000E+00 0. -1.
          3    1    5    5  503    0  0.21646370960E+03  0.62935377757E+03 -0.61703267189E+03  0.90756379010E+03  0.00000000000E+00 0. -1.
         -4    1    5    5    0  503  0.37683682245E+02  0.40656725118E+02 -0.51566704637E+02  0.75710991488E+02  0.00000000000E+00 0.  1.
         -1    1    6    6    0  502  0.10450772845E+02 -0.14452439008E+02 -0.42724191384E+02  0.46297388434E+02  0.00000000000E+00 0.  1.
<mgrwt>
<rscale>  0 0.16636723E+04</rscale>
<asrwt>0</asrwt>
<pdfrwt beam="1">  1        2 0.30229352E+00 0.16636723E+04</pdfrwt>
<pdfrwt beam="2">  1       -2 0.54177631E-01 0.16636723E+04</pdfrwt>
<totfact> 0.21394066E+01</totfact>
</mgrwt>
</event>
<event>
12    1  0.1541840E-007  0.1257710E+04  0.7818608E-02  0.9063790E-01
          2   -1    0    0  501    0  0.00000000000E+00  0.00000000000E+00  0.22641640138E+03  0.22641640138E+03  0.00000000000E+00 0. -1.
         -2   -1    0    0    0  501 -0.00000000000E+00 -0.00000000000E+00 -0.17465994081E+04  0.17465994081E+04  0.00000000000E+00 0.  1.
         23    2    1    2    0    0 -0.16817558113E+03  0.25995770644E+02 -0.73207172722E+03  0.75736900269E+03  0.93380866727E+02 0.  0.
        254    2    1    2    0    0  0.16817558113E+03 -0.25995770644E+02 -0.78811127948E+03  0.12156468068E+04  0.90979061535E+03 0.  0.
        -24    2    4    4    0    0  0.53175343470E+03  0.20025541450E+02 -0.56440181344E+03  0.77977356379E+03  0.79590615926E+02 0.  0.
         24    2    4    4    0    0 -0.36357785357E+03 -0.46021312094E+02 -0.22370946604E+03  0.43587324297E+03  0.75051595413E+02 0.  0.
         11    1    3    3    0    0 -0.23096861929E+02 -0.29804389159E+02 -0.11515486989E+03  0.12117099778E+03  0.00000000000E+00 0. -1.
        -11    1    3    3    0    0 -0.14507871921E+03  0.55800159803E+02 -0.61691685732E+03  0.63619800491E+03  0.00000000000E+00 0.  1.
          2    1    6    6  502    0 -0.30549869274E+03 -0.27046267403E+02 -0.15403225214E+03  0.34320094193E+03  0.00000000000E+00 0. -1.
          1    1    5    5  503    0  0.26100816266E+03  0.41269196762E+02 -0.31376408209E+03  0.41021495193E+03  0.00000000000E+00 0. -1.
         -2    1    5    5    0  503  0.27074527204E+03 -0.21243655312E+02 -0.25063773135E+03  0.36955861186E+03  0.00000000000E+00 0.  1.
         -1    1    6    6    0  502 -0.58079160830E+02 -0.18975044691E+02 -0.69677213895E+02  0.92672301039E+02  0.00000000000E+00 0.  1.
<mgrwt>
<rscale>  0 0.12577102E+04</rscale>
<asrwt>0</asrwt>
<pdfrwt beam="1">  1        2 0.34833291E-01 0.12577102E+04</pdfrwt>
<pdfrwt beam="2">  1       -2 0.26870761E+00 0.12577102E+04</pdfrwt>
<totfact> 0.73264484E+00</totfact>
</mgrwt>
</event>
<event>
12    1  0.1541840E-007  0.2953039E+04  0.7818608E-02  0.8257269E-01
          2   -1    0    0  501    0  0.00000000000E+00  0.00000000000E+00  0.19983751397E+04  0.19983751397E+04  0.00000000000E+00 0. -1.
         -2   -1    0    0    0  501 -0.00000000000E+00 -0.00000000000E+00 -0.10909415917E+04  0.10909415917E+04  0.00000000000E+00 0.  1.
         23    2    1    2    0    0  0.37282467735E+03 -0.12210138154E+04 -0.88599033501E+01  0.12803076820E+04  0.96105595195E+02 0.  0.
        254    2    1    2    0    0 -0.37282467735E+03  0.12210138154E+04  0.91629345138E+03  0.18090090494E+04  0.89612893849E+03 0.  0.
        -24    2    4    4    0    0  0.13734922998E+03  0.21156312717E+03 -0.10077425597E+03  0.28586089083E+03  0.89091135859E+02 0.  0.
         24    2    4    4    0    0 -0.51017390733E+03  0.10094506882E+04  0.10170677074E+04  0.15231481586E+04  0.79281044259E+02 0.  0.
         11    1    3    3    0    0  0.27021881974E+03 -0.82816793030E+03 -0.47616008249E+02  0.87243774309E+03  0.00000000000E+00 0.  1.
        -11    1    3    3    0    0  0.10260585761E+03 -0.39284588507E+03  0.38756104899E+02  0.40786993895E+03  0.00000000000E+00 0. -1.
          2    1    6    6  502    0 -0.61966166746E+01  0.26999654154E+02  0.12546581464E+02  0.30410460192E+02  0.00000000000E+00 0. -1.
          3    1    5    5  503    0  0.74664309047E+02  0.39988548596E+02 -0.27590832178E+02  0.89079161899E+02  0.00000000000E+00 0. -1.
         -4    1    5    5    0  503  0.62684920931E+02  0.17157457857E+03 -0.73183423791E+02  0.19678172893E+03  0.00000000000E+00 0.  1.
         -1    1    6    6    0  502 -0.50397729066E+03  0.98245103405E+03  0.10045211259E+04  0.14927376984E+04  0.00000000000E+00 0.  1.
<mgrwt>
<rscale>  0 0.29530395E+04</rscale>
<asrwt>0</asrwt>
<pdfrwt beam="1">  1        2 0.30744233E+00 0.29530395E+04</pdfrwt>
<pdfrwt beam="2">  1       -2 0.16783717E+00 0.29530395E+04</pdfrwt>
<totfact> 0.12707609E+00</totfact>
</mgrwt>
</event>
<event>
12    1  0.1541840E-007  0.1376292E+04  0.7818608E-02  0.8971161E-01
          2   -1    0    0  501    0  0.00000000000E+00  0.00000000000E+00  0.12883718057E+04  0.12883718057E+04  0.00000000000E+00 0. -1.
         -2   -1    0    0    0  501 -0.00000000000E+00 -0.00000000000E+00 -0.36755303467E+03  0.36755303467E+03  0.00000000000E+00 0.  1.
         23    2    1    2    0    0  0.32079366448E+03 -0.50625080278E+02  0.52092784844E+03  0.61985589336E+03  0.85930386500E+02 0.  0.
        254    2    1    2    0    0 -0.32079366448E+03  0.50625080278E+02  0.39989092258E+03  0.10360689470E+04  0.89891859422E+03 0.  0.
        -24    2    4    4    0    0 -0.16243559581E+03  0.14869134342E+03 -0.25754931049E+03  0.34811152608E+03  0.79721696298E+02 0.  0.
         24    2    4    4    0    0 -0.15835806867E+03 -0.98066263139E+02  0.65744023307E+03  0.68795742091E+03  0.79771442601E+02 0.  0.
         11    1    3    3    0    0  0.29842270805E+03 -0.63149297675E+02  0.50405087644E+03  0.58916146557E+03  0.00000000000E+00 0. -1.
        -11    1    3    3    0    0  0.22370956432E+02  0.12524217397E+02  0.16876972001E+02  0.30694427784E+02  0.00000000000E+00 0.  1.
          4    1    6    6  502    0 -0.78770245929E+02 -0.94392003193E+02  0.39509207780E+03  0.41377814328E+03  0.00000000000E+00 0. -1.
          3    1    5    5  503    0 -0.10195824952E+03  0.54618125916E+02 -0.17214617553E+03  0.20739558836E+03  0.00000000000E+00 0. -1.
         -4    1    5    5    0  503 -0.60477346289E+02  0.94073217501E+02 -0.85403134963E+02  0.14071593771E+03  0.00000000000E+00 0.  1.
         -3    1    6    6    0  502 -0.79587822741E+02 -0.36742599464E+01  0.26234815526E+03  0.27417927764E+03  0.00000000000E+00 0.  1.
<mgrwt>
<rscale>  0 0.13762921E+04</rscale>
<asrwt>0</asrwt>
<pdfrwt beam="1">  1        2 0.19821105E+00 0.13762921E+04</pdfrwt>
<pdfrwt beam="2">  1       -2 0.56546621E-01 0.13762921E+04</pdfrwt>
<totfact> 0.48031201E+01</totfact>
</mgrwt>
</event>
<event>
12    1  0.1541840E-007  0.1825504E+04  0.7818608E-02  0.8692853E-01
         -2   -1    0    0    0  501 -0.00000000000E+00  0.00000000000E+00  0.56866992798E+03  0.56866992798E+03  0.00000000000E+00 0.  1.
          2   -1    0    0  501    0  0.00000000000E+00 -0.00000000000E+00 -0.14650263370E+04  0.14650263370E+04  0.00000000000E+00 0. -1.
         23    2    1    2    0    0 -0.28458818745E+03 -0.33272935479E+03 -0.93625831059E+03  0.10374229701E+04  0.89261048620E+02 0.  0.
        254    2    1    2    0    0  0.28458818745E+03  0.33272935479E+03  0.39901901593E+02  0.99627329484E+03  0.89401848767E+03 0.  0.
        -24    2    4    4    0    0  0.25272754934E+03  0.27398797150E+03 -0.39527194619E+03  0.54905439047E+03  0.79247646795E+02 0.  0.
         24    2    4    4    0    0  0.31860638103E+02  0.58741383283E+02  0.43517384778E+03  0.44721890437E+03  0.78503632198E+02 0.  0.
         11    1    3    3    0    0 -0.18037485410E+03 -0.21033846651E+03 -0.48751365548E+03  0.56075567118E+03  0.00000000000E+00 0.  1.
        -11    1    3    3    0    0 -0.10421333335E+03 -0.12239088828E+03 -0.44874465511E+03  0.47666729893E+03  0.00000000000E+00 0. -1.
          4    1    6    6  502    0  0.15369625466E+01 -0.19288642906E+02  0.85967560761E+02  0.88118304014E+02  0.00000000000E+00 0. -1.
          1    1    5    5  503    0  0.16547988342E+03  0.21317885506E+03 -0.24187378218E+03  0.36239721656E+03  0.00000000000E+00 0. -1.
         -2    1    5    5    0  503  0.87247665920E+02  0.60809116443E+02 -0.15339816401E+03  0.18665717391E+03  0.00000000000E+00 0.  1.
         -3    1    6    6    0  502  0.30323675556E+02  0.78030026189E+02  0.34920628702E+03  0.35910060036E+03  0.00000000000E+00 0.  1.
<mgrwt>
<rscale>  0 0.18255042E+04</rscale>
<asrwt>0</asrwt>
<pdfrwt beam="1">  1        2 0.22538866E+00 0.18255042E+04</pdfrwt>
<pdfrwt beam="2">  1       -2 0.87487683E-01 0.18255042E+04</pdfrwt>
<totfact> 0.14120355E+01</totfact>
</mgrwt>
</event>
<event>
12    1  0.1541840E-007  0.1796300E+04  0.7818608E-02  0.8708269E-01
         -2   -1    0    0    0  501 -0.00000000000E+00  0.00000000000E+00  0.92389229187E+03  0.92389229187E+03  0.00000000000E+00 0.  1.
          2   -1    0    0  501    0  0.00000000000E+00 -0.00000000000E+00 -0.87312513939E+03  0.87312513939E+03  0.00000000000E+00 0. -1.
         23    2    1    2    0    0 -0.35501744202E+03 -0.47200416022E+03 -0.30094423231E+03  0.66889937822E+03  0.89630551814E+02 0.  0.
        254    2    1    2    0    0  0.35501744202E+03  0.47200416022E+03  0.35171138479E+03  0.11281180530E+04  0.89449658020E+03 0.  0.
        -24    2    4    4    0    0 -0.19754167571E+03  0.72558720840E+02  0.37978327076E+03  0.44139774616E+03  0.79430195462E+02 0.  0.
         24    2    4    4    0    0  0.55255911773E+03  0.39944543938E+03 -0.28071885970E+02  0.68672030688E+03  0.76931862539E+02 0.  0.
         13    1    3    3    0    0 -0.94176202288E+02 -0.17319159780E+03 -0.66006775772E+02  0.20789752541E+03  0.00000000000E+00 0.  1.
        -13    1    3    3    0    0 -0.26084123973E+03 -0.29881256242E+03 -0.23493745654E+03  0.46100185281E+03  0.00000000000E+00 0. -1.
          2    1    6    6  502    0 -0.16649809478E+01  0.14071504228E+01 -0.32595015455E+01  0.39212987892E+01  0.00000000000E+00 0. -1.
          1    1    5    5  503    0 -0.45357343909E+02 -0.16572763211E+02  0.72823380064E+02  0.87379573190E+02  0.00000000000E+00 0. -1.
         -2    1    5    5    0  503 -0.15218433180E+03  0.89131484051E+02  0.30695989070E+03  0.35401817297E+03  0.00000000000E+00 0.  1.
         -1    1    6    6    0  502  0.55422409867E+03  0.39803828895E+03 -0.24812384425E+02  0.68279900809E+03  0.00000000000E+00 0.  1.
<mgrwt>
<rscale>  0 0.17963002E+04</rscale>
<asrwt>0</asrwt>
<pdfrwt beam="1">  1        2 0.13432694E+00 0.17963002E+04</pdfrwt>
<pdfrwt beam="2">  1       -2 0.14213728E+00 0.17963002E+04</pdfrwt>
<totfact> 0.99705420E+00</totfact>
</mgrwt>
</event>
<event>
12    1  0.1541840E-007  0.2896434E+04  0.7818608E-02  0.8273939E-01
         -2   -1    0    0    0  501 -0.00000000000E+00  0.00000000000E+00  0.10250607597E+04  0.10250607597E+04  0.00000000000E+00 0.  1.
          2   -1    0    0  501    0  0.00000000000E+00 -0.00000000000E+00 -0.20460571157E+04  0.20460571157E+04  0.00000000000E+00 0. -1.
         23    2    1    2    0    0 -0.65770266662E+03  0.44443785101E+03 -0.15689387369E+04  0.17607382649E+04  0.92372487539E+02 0.  0.
        254    2    1    2    0    0  0.65770266662E+03 -0.44443785101E+03  0.54794238083E+03  0.13103796105E+04  0.88699271129E+03 0.  0.
        -24    2    4    4    0    0  0.15757604302E+03  0.14091079180E+03 -0.14729657512E+03  0.27002686634E+03  0.80821822081E+02 0.  0.
         24    2    4    4    0    0  0.50012662359E+03 -0.58534864281E+03  0.69523895595E+03  0.10403527442E+04  0.78847658128E+02 0.  0.
         11    1    3    3    0    0 -0.65109921539E+02  0.32993439033E+02 -0.20759521083E+03  0.22005372176E+03  0.00000000000E+00 0.  1.
        -11    1    3    3    0    0 -0.59259274508E+03  0.41144441198E+03 -0.13613435260E+04  0.15406845432E+04  0.00000000000E+00 0. -1.
          4    1    6    6  502    0  0.48390359079E+03 -0.54138430572E+03  0.64001229840E+03  0.96792323753E+03  0.00000000000E+00 0. -1.
          3    1    5    5  503    0  0.14118971718E+03  0.97147007686E+02 -0.14280333453E+03  0.22308041082E+03  0.00000000000E+00 0. -1.
         -4    1    5    5    0  503  0.16386325842E+02  0.43763784119E+02 -0.44932405861E+01  0.46946455521E+02  0.00000000000E+00 0.  1.
         -3    1    6    6    0  502  0.16223032808E+02 -0.43964337097E+02  0.55226657548E+02  0.72429506652E+02  0.00000000000E+00 0.  1.
<mgrwt>
<rscale>  0 0.28964343E+04</rscale>
<asrwt>0</asrwt>
<pdfrwt beam="1">  1        2 0.31477802E+00 0.28964343E+04</pdfrwt>
<pdfrwt beam="2">  1       -2 0.15770166E+00 0.28964343E+04</pdfrwt>
<totfact> 0.14245847E+00</totfact>
</mgrwt>
</event>
<event>
12    1  0.1541840E-007  0.3151777E+04  0.7818608E-02  0.8201670E-01
          2   -1    0    0  501    0  0.00000000000E+00  0.00000000000E+00  0.32834671623E+04  0.32834671623E+04  0.00000000000E+00 0. -1.
         -2   -1    0    0    0  501 -0.00000000000E+00 -0.00000000000E+00 -0.75634207603E+03  0.75634207603E+03  0.00000000000E+00 0.  1.
         23    2    1    2    0    0  0.56971193389E+03  0.10464375208E+04  0.11828483818E+03  0.12006823502E+04  0.89686290065E+02 0.  0.
        254    2    1    2    0    0 -0.56971193389E+03 -0.10464375208E+04  0.24088402480E+04  0.28391268881E+04  0.91571118460E+03 0.  0.
        -24    2    4    4    0    0 -0.48899343190E+03 -0.31214120089E+03  0.17523901181E+04  0.18477796674E+04  0.82896728917E+02 0.  0.
         24    2    4    4    0    0 -0.80718501996E+02 -0.73429631988E+03  0.65645012996E+03  0.99134722067E+03  0.78332476338E+02 0.  0.
         13    1    3    3    0    0  0.42393413169E+03  0.84042783950E+03  0.71469351203E+02  0.94400581014E+03  0.00000000000E+00 0.  1.
        -13    1    3    3    0    0  0.14577780220E+03  0.20600968127E+03  0.46815486974E+02  0.25667654005E+03  0.00000000000E+00 0. -1.
          2    1    6    6  502    0 -0.78378317661E+02 -0.42539559136E+03  0.41269974687E+03  0.59785086007E+03  0.00000000000E+00 0. -1.
          3    1    5    5  503    0 -0.23301277061E+02 -0.36150983167E+02  0.96491506014E+02  0.10564304913E+03  0.00000000000E+00 0. -1.
         -4    1    5    5    0  503 -0.46569215484E+03 -0.27599021772E+03  0.16558986121E+04  0.17421366183E+04  0.00000000000E+00 0.  1.
         -1    1    6    6    0  502 -0.23401843349E+01 -0.30890072852E+03  0.24375038309E+03  0.39349636059E+03  0.00000000000E+00 0.  1.
<mgrwt>
<rscale>  0 0.31517769E+04</rscale>
<asrwt>0</asrwt>
<pdfrwt beam="1">  1        2 0.50514879E+00 0.31517769E+04</pdfrwt>
<pdfrwt beam="2">  1       -2 0.11636032E+00 0.31517769E+04</pdfrwt>
<totfact> 0.55282438E-01</totfact>
</mgrwt>
</event>
<event>
12    1  0.1541840E-007  0.1621976E+04  0.7818608E-02  0.8807160E-01
          2   -1    0    0  501    0  0.00000000000E+00  0.00000000000E+00  0.92102210873E+03  0.92102210873E+03  0.00000000000E+00 0. -1.
         -2   -1    0    0    0  501 -0.00000000000E+00 -0.00000000000E+00 -0.71409945482E+03  0.71409945482E+03  0.00000000000E+00 0.  1.
         23    2    1    2    0    0 -0.37070815475E+03 -0.28796466670E+03  0.25380794208E+03  0.54156049958E+03  0.92309901785E+02 0.  0.
        254    2    1    2    0    0  0.37070815475E+03  0.28796466670E+03 -0.46885288178E+02  0.10935610640E+04  0.98657457150E+03 0.  0.
        -24    2    4    4    0    0  0.14414555269E+03  0.38264015311E+03 -0.45098388695E+03  0.61405522925E+03  0.80535278834E+02 0.  0.
         24    2    4    4    0    0  0.22656260206E+03 -0.94675486413E+02  0.40409859878E+03  0.47950583473E+03  0.79599671030E+02 0.  0.
         11    1    3    3    0    0 -0.44140346404E+02 -0.41255948046E+02  0.86584714531E+00  0.60424937908E+02  0.00000000000E+00 0.  1.
        -11    1    3    3    0    0 -0.32656780835E+03 -0.24670871865E+03  0.25294209494E+03  0.48113556167E+03  0.00000000000E+00 0. -1.
          2    1    6    6  502    0  0.15386912972E+02 -0.35790604999E+01  0.83294400991E+02  0.84779266341E+02  0.00000000000E+00 0. -1.
          1    1    5    5  503    0  0.14518639737E+03  0.29603310399E+03 -0.34579095381E+03  0.47779291788E+03  0.00000000000E+00 0. -1.
         -2    1    5    5    0  503 -0.10408446780E+01  0.86607049121E+02 -0.10519293314E+03  0.13626231136E+03  0.00000000000E+00 0.  1.
         -1    1    6    6    0  502  0.21117568909E+03 -0.91096425914E+02  0.32080419778E+03  0.39472656839E+03  0.00000000000E+00 0.  1.
<mgrwt>
<rscale>  0 0.16219758E+04</rscale>
<asrwt>0</asrwt>
<pdfrwt beam="1">  1        2 0.14169571E+00 0.16219758E+04</pdfrwt>
<pdfrwt beam="2">  1       -2 0.10986146E+00 0.16219758E+04</pdfrwt>
<totfact> 0.17907588E+01</totfact>
</mgrwt>
</event>
<event>
12    1  0.1541840E-007  0.2013221E+04  0.7818608E-02  0.8600464E-01
         -1   -1    0    0    0  501 -0.00000000000E+00  0.00000000000E+00  0.65901426373E+03  0.65901426373E+03  0.00000000000E+00 0.  1.
          1   -1    0    0  501    0  0.00000000000E+00 -0.00000000000E+00 -0.15375455668E+04  0.15375455668E+04  0.00000000000E+00 0. -1.
         23    2    1    2    0    0 -0.47140510536E+03 -0.19977095235E+02 -0.10505027898E+04  0.11551630870E+04  0.90685105838E+02 0.  0.
        254    2    1    2    0    0  0.47140510536E+03  0.19977095235E+02  0.17197148669E+03  0.10413967436E+04  0.91231087225E+03 0.  0.
        -24    2    4    4    0    0  0.70727263787E+03 -0.34459523269E+02  0.27811332222E+03  0.76493903618E+03  0.79766321517E+02 0.  0.
         24    2    4    4    0    0 -0.23586753251E+03  0.54436618504E+02 -0.10614183553E+03  0.27645770741E+03  0.81030465965E+02 0.  0.
         11    1    3    3    0    0 -0.29953037167E+03 -0.18786758025E+02 -0.76700844923E+03  0.82363423133E+03  0.00000000000E+00 0. -1.
        -11    1    3    3    0    0 -0.17187473370E+03 -0.11903372097E+01 -0.28349434057E+03  0.33152885564E+03  0.00000000000E+00 0.  1.
          2    1    6    6  502    0 -0.57200662390E+02  0.42338148285E+02 -0.63345753781E+01  0.71446213498E+02  0.00000000000E+00 0. -1.
          3    1    5    5  503    0  0.15726149972E+03  0.25518272414E+02  0.62188200199E+02  0.17102553542E+03  0.00000000000E+00 0. -1.
         -4    1    5    5    0  503  0.55001113815E+03 -0.59977795683E+02  0.21592512202E+03  0.59391350076E+03  0.00000000000E+00 0.  1.
         -1    1    6    6    0  502 -0.17866687012E+03  0.12098470219E+02 -0.99807260149E+02  0.20501149391E+03  0.00000000000E+00 0.  1.
<mgrwt>
<rscale>  0 0.20132208E+04</rscale>
<asrwt>0</asrwt>
<pdfrwt beam="1">  1        1 0.23654547E+00 0.20132208E+04</pdfrwt>
<pdfrwt beam="2">  1       -1 0.10138681E+00 0.20132208E+04</pdfrwt>
<totfact> 0.52716306E+00</totfact>
</mgrwt>
</event>
<event>
12    1  0.1541840E-007  0.1371359E+04  0.7818608E-02  0.8974816E-01
         -1   -1    0    0    0  501 -0.00000000000E+00  0.00000000000E+00  0.78483134409E+03  0.78483134409E+03  0.00000000000E+00 0.  1.
          1   -1    0    0  501    0  0.00000000000E+00 -0.00000000000E+00 -0.59905377551E+03  0.59905377551E+03  0.00000000000E+00 0. -1.
         23    2    1    2    0    0 -0.10487892316E+03  0.35768961745E+03 -0.53853019624E+02  0.39127306682E+03  0.10608022504E+03 0.  0.
        254    2    1    2    0    0  0.10487892316E+03 -0.35768961745E+03  0.23963058821E+03  0.99261205279E+03  0.88820854397E+03 0.  0.
        -24    2    4    4    0    0  0.46869699935E+03 -0.32433555156E+03  0.23082599749E+03  0.62019045215E+03  0.80530296293E+02 0.  0.
         24    2    4    4    0    0 -0.36381807618E+03 -0.33354065888E+02  0.88045907169E+01  0.37242160064E+03  0.71723368105E+02 0.  0.
         13    1    3    3    0    0 -0.68601825207E+02  0.96360202265E+02 -0.47196177843E+02  0.12735375222E+03  0.00000000000E+00 0.  1.
        -13    1    3    3    0    0 -0.36277097955E+02  0.26132941518E+03 -0.66568417819E+01  0.26391931460E+03  0.00000000000E+00 0. -1.
          2    1    6    6  502    0 -0.23540667389E+02  0.12362929074E+02 -0.10397748864E+02  0.28550275267E+02  0.00000000000E+00 0. -1.
          1    1    5    5  503    0  0.88874030140E+02 -0.84009563859E+02  0.20718878959E+02  0.12403818766E+03  0.00000000000E+00 0. -1.
         -2    1    5    5    0  503  0.37982296921E+03 -0.24032598770E+03  0.21010711853E+03  0.49615226449E+03  0.00000000000E+00 0.  1.
         -1    1    6    6    0  502 -0.34027740880E+03 -0.45716994961E+02  0.19202339581E+02  0.34387132537E+03  0.00000000000E+00 0.  1.
<mgrwt>
<rscale>  0 0.13713587E+04</rscale>
<asrwt>0</asrwt>
<pdfrwt beam="1">  1        1 0.92162119E-01 0.13713587E+04</pdfrwt>
<pdfrwt beam="2">  1       -1 0.12074328E+00 0.13713587E+04</pdfrwt>
<totfact> 0.20461810E+01</totfact>
</mgrwt>
</event>
<event>
12    1  0.1541840E-007  0.2055344E+04  0.7818608E-02  0.8581174E-01
         -2   -1    0    0    0  501 -0.00000000000E+00  0.00000000000E+00  0.11568393853E+04  0.11568393853E+04  0.00000000000E+00 0.  1.
          2   -1    0    0  501    0  0.00000000000E+00 -0.00000000000E+00 -0.91292685641E+03  0.91292685641E+03  0.00000000000E+00 0. -1.
         23    2    1    2    0    0  0.25403555100E+03 -0.18894758410E+03  0.83103080415E+03  0.89368172682E+03  0.88428392999E+02 0.  0.
        254    2    1    2    0    0 -0.25403555100E+03  0.18894758410E+03 -0.58711827530E+03  0.11760845149E+04  0.96862359366E+03 0.  0.
        -24    2    4    4    0    0 -0.44163292622E+03 -0.65205666628E+02 -0.69717474163E+03  0.83154566743E+03  0.78256987969E+02 0.  0.
         24    2    4    4    0    0  0.18759737522E+03  0.25415325073E+03  0.11005646633E+03  0.34453884743E+03  0.82510251257E+02 0.  0.
         13    1    3    3    0    0  0.21074549615E+03 -0.12786217993E+03  0.70773937232E+03  0.74943806972E+03  0.00000000000E+00 0.  1.
        -13    1    3    3    0    0  0.43290054842E+02 -0.61085404170E+02  0.12329143183E+03  0.14424365710E+03  0.00000000000E+00 0. -1.
          2    1    6    6  502    0  0.11476581944E+03  0.14093088776E+03  0.10482718737E+03  0.20981288723E+03  0.00000000000E+00 0. -1.
          1    1    5    5  503    0 -0.43722829127E+03 -0.73254157895E+02 -0.67518607364E+03  0.80771961990E+03  0.00000000000E+00 0. -1.
         -4    1    5    5    0  503 -0.44046349537E+01  0.80484912672E+01 -0.21988667995E+02  0.23826047531E+02  0.00000000000E+00 0.  1.
         -1    1    6    6    0  502  0.72831555782E+02  0.11322236297E+03  0.52292789624E+01  0.13472596020E+03  0.00000000000E+00 0.  1.
<mgrwt>
<rscale>  0 0.20553440E+04</rscale>
<asrwt>0</asrwt>
<pdfrwt beam="1">  1        2 0.14045028E+00 0.20553440E+04</pdfrwt>
<pdfrwt beam="2">  1       -2 0.17797529E+00 0.20553440E+04</pdfrwt>
<totfact> 0.49764783E+00</totfact>
</mgrwt>
</event>
<event>
12    1  0.1541840E-007  0.1337293E+04  0.7818608E-02  0.9000504E-01
          1   -1    0    0  501    0  0.00000000000E+00  0.00000000000E+00  0.12583170728E+04  0.12583170728E+04  0.00000000000E+00 0. -1.
         -1   -1    0    0    0  501 -0.00000000000E+00 -0.00000000000E+00 -0.35530621092E+03  0.35530621092E+03  0.00000000000E+00 0.  1.
         23    2    1    2    0    0  0.74280493972E+02  0.26186215144E+03 -0.29048920028E+02  0.28678118354E+03  0.85499879173E+02 0.  0.
        254    2    1    2    0    0 -0.74280493972E+02 -0.26186215144E+03  0.93205978194E+03  0.13268421002E+04  0.90425944486E+03 0.  0.
        -24    2    4    4    0    0 -0.18339416106E+03 -0.43682104483E+03  0.13424615720E+03  0.49918992747E+03  0.81990910771E+02 0.  0.
         24    2    4    4    0    0  0.10911366709E+03  0.17495889339E+03  0.79781362474E+03  0.82765217273E+03  0.77363638007E+02 0.  0.
         13    1    3    3    0    0  0.91418797707E+02  0.22450877150E+03 -0.13309697594E+02  0.24277300736E+03  0.00000000000E+00 0.  1.
        -13    1    3    3    0    0 -0.17138303735E+02  0.37353379942E+02 -0.15739222434E+02  0.44008176182E+02  0.00000000000E+00 0. -1.
          2    1    6    6  502    0  0.11029460863E+03  0.11248831458E+03  0.55462484763E+03  0.57656503815E+03  0.00000000000E+00 0. -1.
          1    1    5    5  503    0 -0.16217733552E+03 -0.28847351744E+03  0.93659486145E+02  0.34393394390E+03  0.00000000000E+00 0. -1.
         -2    1    5    5    0  503 -0.21216825547E+02 -0.14834752739E+03  0.40586671052E+02  0.15525598357E+03  0.00000000000E+00 0.  1.
         -1    1    6    6    0  502 -0.11809415398E+01  0.62470578810E+02  0.24318877711E+03  0.25108713458E+03  0.00000000000E+00 0.  1.
<mgrwt>
<rscale>  0 0.13372926E+04</rscale>
<asrwt>0</asrwt>
<pdfrwt beam="1">  1        1 0.19358724E+00 0.13372926E+04</pdfrwt>
<pdfrwt beam="2">  1       -1 0.54662494E-01 0.13372926E+04</pdfrwt>
<totfact> 0.32103466E+01</totfact>
</mgrwt>
</event>
<event>
12    1  0.1541840E-007  0.1387740E+04  0.7818608E-02  0.8962741E-01
         -1   -1    0    0    0  501 -0.00000000000E+00  0.00000000000E+00  0.24386238905E+03  0.24386238905E+03  0.00000000000E+00 0.  1.
          1   -1    0    0  501    0  0.00000000000E+00 -0.00000000000E+00 -0.19742908239E+04  0.19742908239E+04  0.00000000000E+00 0. -1.
         23    2    1    2    0    0  0.27499013118E+02  0.16465769157E+03  0.61548583810E+02  0.19921829221E+03  0.89617792135E+02 0.  0.
        254    2    1    2    0    0 -0.27499013118E+02 -0.16465769157E+03 -0.17919770187E+04  0.20189349208E+04  0.91490339801E+03 0.  0.
        -24    2    4    4    0    0  0.42522238387E+03 -0.34726823076E+02 -0.65764529458E+03  0.78795409489E+03  0.79713826812E+02 0.  0.
         24    2    4    4    0    0 -0.45272139699E+03 -0.12993086849E+03 -0.11343317241E+04  0.12309808259E+04  0.82259586015E+02 0.  0.
         13    1    3    3    0    0  0.58660715913E+02  0.10457403750E+03  0.25698504202E+02  0.12262635128E+03  0.00000000000E+00 0. -1.
        -13    1    3    3    0    0 -0.31161702795E+02  0.60083654064E+02  0.35850079608E+02  0.76591940925E+02  0.00000000000E+00 0.  1.
          4    1    6    6  502    0 -0.10479916473E+03 -0.32984353660E+02 -0.36326702563E+03  0.37951780515E+03  0.00000000000E+00 0. -1.
          3    1    5    5  503    0  0.42568043845E+01 -0.60081172801E+01 -0.10030142351E+01  0.74312781118E+01  0.00000000000E+00 0. -1.
         -4    1    5    5    0  503  0.42096557949E+03 -0.28718705796E+02 -0.65664228035E+03  0.78052281678E+03  0.00000000000E+00 0.  1.
         -3    1    6    6    0  502 -0.34792223226E+03 -0.96946514831E+02 -0.77106469848E+03  0.85146302074E+03  0.00000000000E+00 0.  1.
<mgrwt>
<rscale>  0 0.13877396E+04</rscale>
<asrwt>0</asrwt>
<pdfrwt beam="1">  1        1 0.30373706E+00 0.13877396E+04</pdfrwt>
<pdfrwt beam="2">  1       -1 0.37517290E-01 0.13877396E+04</pdfrwt>
<totfact> 0.20744851E+01</totfact>
</mgrwt>
</event>
<event>
12    1  0.1541840E-007  0.1484142E+04  0.7818608E-02  0.8895067E-01
          1   -1    0    0  501    0  0.00000000000E+00  0.00000000000E+00  0.20396405724E+04  0.20396405724E+04  0.00000000000E+00 0. -1.
         -1   -1    0    0    0  501 -0.00000000000E+00 -0.00000000000E+00 -0.26998359640E+03  0.26998359640E+03  0.00000000000E+00 0.  1.
         23    2    1    2    0    0 -0.12481794413E+03  0.38927417472E+03  0.90831116605E+03  0.10001538994E+04  0.90358982835E+02 0.  0.
        254    2    1    2    0    0  0.12481794413E+03 -0.38927417472E+03  0.86134580992E+03  0.13094702694E+04  0.89759783863E+03 0.  0.
        -24    2    4    4    0    0 -0.16877129771E+03 -0.51911238028E+03  0.23199242964E+03  0.59854931489E+03  0.80494600173E+02 0.  0.
         24    2    4    4    0    0  0.29358924184E+03  0.12983820557E+03  0.62935338028E+03  0.71092095451E+03  0.79185375826E+02 0.  0.
         13    1    3    3    0    0  0.11811560155E+02  0.23190777398E+02  0.37001383253E+02  0.45237456519E+02  0.00000000000E+00 0.  1.
        -13    1    3    3    0    0 -0.13662950429E+03  0.36608339732E+03  0.87130978280E+03  0.95491644286E+03  0.00000000000E+00 0. -1.
          4    1    6    6  502    0  0.19728646738E+03  0.83218884094E+02  0.33354950237E+03  0.39636170780E+03  0.00000000000E+00 0. -1.
          3    1    5    5  503    0 -0.14753342330E+03 -0.47047722810E+03  0.23327218882E+03  0.54546388260E+03  0.00000000000E+00 0. -1.
         -4    1    5    5    0  503 -0.21237874414E+02 -0.48635152189E+02 -0.12797591859E+01  0.53085432292E+02  0.00000000000E+00 0.  1.
         -3    1    6    6    0  502  0.96302774462E+02  0.46619321473E+02  0.29580387791E+03  0.31455924671E+03  0.00000000000E+00 0.  1.
<mgrwt>
<rscale>  0 0.14841422E+04</rscale>
<asrwt>0</asrwt>
<pdfrwt beam="1">  1        1 0.31379085E+00 0.14841422E+04</pdfrwt>
<pdfrwt beam="2">  1       -1 0.41535939E-01 0.14841422E+04</pdfrwt>
<totfact> 0.15429973E+01</totfact>
</mgrwt>
</event>
<event>
12    1  0.1541840E-007  0.1552222E+04  0.7818608E-02  0.8850449E-01
         -1   -1    0    0    0  501 -0.00000000000E+00  0.00000000000E+00  0.65098660326E+03  0.65098660326E+03  0.00000000000E+00 0.  1.
          1   -1    0    0  501    0  0.00000000000E+00 -0.00000000000E+00 -0.92528571439E+03  0.92528571439E+03  0.00000000000E+00 0. -1.
         23    2    1    2    0    0 -0.45800382248E+03 -0.21580046381E+03 -0.76665861001E+02  0.52103083403E+03  0.96219198584E+02 0.  0.
        254    2    1    2    0    0  0.45800382248E+03  0.21580046381E+03 -0.19763325013E+03  0.10552414836E+04  0.90451000306E+03 0.  0.
        -24    2    4    4    0    0  0.58815939951E+03  0.40509993738E+03  0.34731554807E+02  0.71922332827E+03  0.77707634963E+02 0.  0.
         24    2    4    4    0    0 -0.13015557703E+03 -0.18929947358E+03 -0.23236480493E+03  0.33601815536E+03  0.78358364134E+02 0.  0.
         13    1    3    3    0    0 -0.25266988100E+03 -0.13435928022E+03 -0.89280467121E+02  0.29977572743E+03  0.00000000000E+00 0. -1.
        -13    1    3    3    0    0 -0.20533394148E+03 -0.81441183590E+02  0.12614606120E+02  0.22125510660E+03  0.00000000000E+00 0.  1.
          4    1    6    6  502    0 -0.87176174919E+02 -0.11796773025E+03 -0.93044131977E+02  0.17370458068E+03  0.00000000000E+00 0. -1.
          1    1    5    5  503    0  0.51700246565E+03  0.33533050287E+03  0.50642344615E+02  0.61830635021E+03  0.00000000000E+00 0. -1.
         -4    1    5    5    0  503  0.71156933860E+02  0.69769434514E+02 -0.15910789807E+02  0.10091697806E+03  0.00000000000E+00 0.  1.
         -1    1    6    6    0  502 -0.42979402112E+02 -0.71331743329E+02 -0.13932067296E+03  0.16231357468E+03  0.00000000000E+00 0.  1.
<mgrwt>
<rscale>  0 0.15522224E+04</rscale>
<asrwt>0</asrwt>
<pdfrwt beam="1">  1        1 0.14235165E+00 0.15522224E+04</pdfrwt>
<pdfrwt beam="2">  1       -1 0.10015179E+00 0.15522224E+04</pdfrwt>
<totfact> 0.15880802E+01</totfact>
</mgrwt>
</event>
<event>
12    1  0.1541840E-007  0.1500954E+04  0.7818608E-02  0.8883818E-01
         -2   -1    0    0    0  501 -0.00000000000E+00  0.00000000000E+00  0.80985049944E+03  0.80985049944E+03  0.00000000000E+00 0.  1.
          2   -1    0    0  501    0  0.00000000000E+00 -0.00000000000E+00 -0.69545680718E+03  0.69545680718E+03  0.00000000000E+00 0. -1.
         23    2    1    2    0    0 -0.28956336063E+03 -0.37483568750E+03 -0.60747378721E+01  0.48215957409E+03  0.89956767369E+02 0.  0.
        254    2    1    2    0    0  0.28956336063E+03  0.37483568750E+03  0.12046843013E+03  0.10231477325E+04  0.89887146328E+03 0.  0.
        -24    2    4    4    0    0 -0.22348511504E+03  0.32567124467E+03  0.26456364669E+03  0.48200706945E+03  0.79558378556E+02 0.  0.
         24    2    4    4    0    0  0.51304847568E+03  0.49164442832E+02 -0.14409521656E+03  0.54114066309E+03  0.80211626205E+02 0.  0.
         11    1    3    3    0    0 -0.56624200206E+02 -0.42528579024E+02 -0.27031575977E+02  0.75800304634E+02  0.00000000000E+00 0. -1.
        -11    1    3    3    0    0 -0.23293916043E+03 -0.33230710848E+03  0.20956838105E+02  0.40635926945E+03  0.00000000000E+00 0.  1.
          2    1    6    6  502    0  0.38775173347E+03  0.12549485121E+02 -0.13305643228E+03  0.41013767269E+03  0.00000000000E+00 0. -1.
          3    1    5    5  503    0 -0.18433312302E+03  0.20477595429E+03  0.18980253729E+03  0.33456971599E+03  0.00000000000E+00 0. -1.
         -4    1    5    5    0  503 -0.39151992024E+02  0.12089529039E+03  0.74761109404E+02  0.14743735346E+03  0.00000000000E+00 0.  1.
         -1    1    6    6    0  502  0.12529674220E+03  0.36614957711E+02 -0.11038784283E+02  0.13100299040E+03  0.00000000000E+00 0.  1.
<mgrwt>
<rscale>  0 0.15009544E+04</rscale>
<asrwt>0</asrwt>
<pdfrwt beam="1">  1        2 0.10699335E+00 0.15009544E+04</pdfrwt>
<pdfrwt beam="2">  1       -2 0.12459238E+00 0.15009544E+04</pdfrwt>
<totfact> 0.19291135E+01</totfact>
</mgrwt>
</event>
<event>
12    1  0.1541840E-007  0.1240451E+04  0.7818608E-02  0.9078168E-01
          1   -1    0    0  501    0  0.00000000000E+00  0.00000000000E+00  0.20708468419E+03  0.20708468419E+03  0.00000000000E+00 0. -1.
         -1   -1    0    0    0  501 -0.00000000000E+00 -0.00000000000E+00 -0.18575965125E+04  0.18575965125E+04  0.00000000000E+00 0.  1.
         23    2    1    2    0    0  0.35234212805E+02  0.72634479426E+02  0.55805007988E+02  0.13455445766E+03  0.92051538857E+02 0.  0.
        254    2    1    2    0    0 -0.35234212805E+02 -0.72634479426E+02 -0.17063168363E+04  0.19301267390E+04  0.89852927917E+03 0.  0.
        -24    2    4    4    0    0  0.41679590960E+03  0.39615877235E+02 -0.70335835230E+03  0.82158298911E+03  0.70692207884E+02 0.  0.
         24    2    4    4    0    0 -0.45203012240E+03 -0.11225035666E+03 -0.10029584840E+04  0.11085437499E+04  0.77538059908E+02 0.  0.
         11    1    3    3    0    0  0.32051505282E+02  0.90560623183E+02  0.25819549531E+02  0.99474492208E+02  0.00000000000E+00 0. -1.
        -11    1    3    3    0    0  0.31827075226E+01 -0.17926143757E+02  0.29985458457E+02  0.35079965451E+02  0.00000000000E+00 0.  1.
          4    1    6    6  502    0 -0.26792458681E+03 -0.10544055234E+03 -0.60780536499E+03  0.67255383130E+03  0.00000000000E+00 0. -1.
          1    1    5    5  503    0  0.36559490020E+03  0.42023734473E+02 -0.65398013187E+03  0.75041031322E+03  0.00000000000E+00 0. -1.
         -2    1    5    5    0  503  0.51201009399E+02 -0.24078572385E+01 -0.49378220433E+02  0.71172675888E+02  0.00000000000E+00 0.  1.
         -3    1    6    6    0  502 -0.18410553559E+03 -0.68098043196E+01 -0.39515311898E+03  0.43598991859E+03  0.00000000000E+00 0.  1.
<mgrwt>
<rscale>  0 0.12404512E+04</rscale>
<asrwt>0</asrwt>
<pdfrwt beam="1">  1        1 0.31859182E-01 0.12404512E+04</pdfrwt>
<pdfrwt beam="2">  1       -1 0.28578408E+00 0.12404512E+04</pdfrwt>
<totfact> 0.57542184E+00</totfact>
</mgrwt>
</event>
<event>
12    1  0.1541840E-007  0.1913287E+04  0.7818608E-02  0.8648271E-01
         -1   -1    0    0    0  501 -0.00000000000E+00  0.00000000000E+00  0.67898354310E+03  0.67898354310E+03  0.00000000000E+00 0.  1.
          1   -1    0    0  501    0  0.00000000000E+00 -0.00000000000E+00 -0.13478480122E+04  0.13478480122E+04  0.00000000000E+00 0. -1.
         23    2    1    2    0    0  0.24277756080E+03 -0.69482648614E+03 -0.16025837348E+03  0.75807063611E+03  0.85226481742E+02 0.  0.
        254    2    1    2    0    0 -0.24277756080E+03  0.69482648614E+03 -0.50860609560E+03  0.12687609192E+04  0.89963843829E+03 0.  0.
        -24    2    4    4    0    0 -0.96129514768E+02 -0.16774374349E+02  0.20895182184E+03  0.24381862174E+03  0.79147919807E+02 0.  0.
         24    2    4    4    0    0 -0.14664804603E+03  0.71160086049E+03 -0.71755791745E+03  0.10249422974E+04  0.87954045472E+02 0.  0.
         11    1    3    3    0    0  0.16620368942E+02 -0.89596147975E+02  0.46830769520E+01  0.91244931944E+02  0.00000000000E+00 0.  1.
        -11    1    3    3    0    0  0.22615719186E+03 -0.60523033817E+03 -0.16494145043E+03  0.66682570417E+03  0.00000000000E+00 0. -1.
          2    1    6    6  502    0 -0.93129137792E+02  0.43107855886E+03 -0.37453977105E+03  0.57860331861E+03  0.00000000000E+00 0. -1.
          3    1    5    5  503    0 -0.84484143526E+02 -0.13351080695E+02  0.21416131273E+03  0.23060982141E+03  0.00000000000E+00 0. -1.
         -4    1    5    5    0  503 -0.11645371242E+02 -0.34232936548E+01 -0.52094908818E+01  0.13208800326E+02  0.00000000000E+00 0.  1.
         -1    1    6    6    0  502 -0.53518908238E+02  0.28052230163E+03 -0.34301814640E+03  0.44633897882E+03  0.00000000000E+00 0.  1.
<mgrwt>
<rscale>  0 0.19132868E+04</rscale>
<asrwt>0</asrwt>
<pdfrwt beam="1">  1        1 0.20736123E+00 0.19132868E+04</pdfrwt>
<pdfrwt beam="2">  1       -1 0.10445901E+00 0.19132868E+04</pdfrwt>
<totfact> 0.67346327E+00</totfact>
</mgrwt>
</event>
<event>
12    1  0.1541840E-007  0.1598951E+04  0.7818608E-02  0.8821192E-01
         -1   -1    0    0    0  501 -0.00000000000E+00  0.00000000000E+00  0.23896302143E+03  0.23896302143E+03  0.00000000000E+00 0.  1.
          1   -1    0    0  501    0  0.00000000000E+00 -0.00000000000E+00 -0.26747295472E+04  0.26747295472E+04  0.00000000000E+00 0. -1.
         23    2    1    2    0    0 -0.51003386148E+02  0.26753197032E+03  0.14414098457E+02  0.28961142020E+03  0.97428475986E+02 0.  0.
        254    2    1    2    0    0  0.51003386148E+02 -0.26753197032E+03 -0.24501806242E+04  0.26240811484E+04  0.89902284822E+03 0.  0.
        -24    2    4    4    0    0  0.27438125620E+03  0.25255660854E+02 -0.21843088407E+03  0.36072089954E+03  0.80526977434E+02 0.  0.
         24    2    4    4    0    0 -0.22337787005E+03 -0.29278763117E+03 -0.22317497402E+04  0.22633602489E+04  0.80439068293E+02 0.  0.
         13    1    3    3    0    0 -0.23615757046E+02  0.18979850609E+03 -0.33655239404E+02  0.19420054591E+03  0.00000000000E+00 0.  1.
        -13    1    3    3    0    0 -0.27387629103E+02  0.77733464235E+02  0.48069337860E+02  0.95410874287E+02  0.00000000000E+00 0. -1.
          2    1    6    6  502    0 -0.15849557631E+03 -0.14629546088E+03 -0.11964728093E+04  0.12157591838E+04  0.00000000000E+00 0. -1.
          3    1    5    5  503    0  0.18910628922E+03  0.21523546919E+02 -0.19437194586E+03  0.27203842565E+03  0.00000000000E+00 0. -1.
         -4    1    5    5    0  503  0.85274966978E+02  0.37321139351E+01 -0.24058938207E+02  0.88682473890E+02  0.00000000000E+00 0.  1.
         -3    1    6    6    0  502 -0.64882293738E+02 -0.14649217029E+03 -0.10352769309E+04  0.10476010651E+04  0.00000000000E+00 0.  1.
<mgrwt>
<rscale>  0 0.15989515E+04</rscale>
<asrwt>0</asrwt>
<pdfrwt beam="1">  1        1 0.41149682E+00 0.15989515E+04</pdfrwt>
<pdfrwt beam="2">  1       -1 0.36763545E-01 0.15989515E+04</pdfrwt>
<totfact> 0.69888823E+00</totfact>
</mgrwt>
</event>
<event>
12    1  0.1541840E-007  0.1502458E+04  0.7818608E-02  0.8882820E-01
          1   -1    0    0  501    0  0.00000000000E+00  0.00000000000E+00  0.14685461264E+04  0.14685461264E+04  0.00000000000E+00 0. -1.
         -1   -1    0    0    0  501 -0.00000000000E+00 -0.00000000000E+00 -0.38428798922E+03  0.38428798922E+03  0.00000000000E+00 0.  1.
         23    2    1    2    0    0  0.22105115692E+03  0.18434294892E+02 -0.17469860042E+03  0.29676003596E+03  0.91342655694E+02 0.  0.
        254    2    1    2    0    0 -0.22105115692E+03 -0.18434294892E+02  0.12589567376E+04  0.15560740797E+04  0.88723786948E+03 0.  0.
        -24    2    4    4    0    0 -0.18545320996E+03  0.29390796216E+03  0.11647209099E+04  0.12180092864E+04  0.78721283333E+02 0.  0.
         24    2    4    4    0    0 -0.35597946960E+02 -0.31234225705E+03  0.94235827661E+02  0.33806479324E+03  0.81132692835E+02 0.  0.
         13    1    3    3    0    0  0.35613342279E+02 -0.55928425119E+01  0.62118489238E+01  0.36581103082E+02  0.00000000000E+00 0. -1.
        -13    1    3    3    0    0  0.18543781464E+03  0.24027137404E+02 -0.18091044934E+03  0.26017893288E+03  0.00000000000E+00 0.  1.
          2    1    6    6  502    0 -0.23691431930E+02 -0.17378758988E+03  0.94006959254E+02  0.19899929330E+03  0.00000000000E+00 0. -1.
          3    1    5    5  503    0  0.12409397298E+01  0.11877061350E+00 -0.89056181472E+00  0.15320372768E+01  0.00000000000E+00 0. -1.
         -4    1    5    5    0  503 -0.18669414969E+03  0.29378919154E+03  0.11656114718E+04  0.12164772491E+04  0.00000000000E+00 0.  1.
         -1    1    6    6    0  502 -0.11906515029E+02 -0.13855466717E+03  0.22886840722E+00  0.13906549994E+03  0.00000000000E+00 0.  1.
<mgrwt>
<rscale>  0 0.15024575E+04</rscale>
<asrwt>0</asrwt>
<pdfrwt beam="1">  1        1 0.22593017E+00 0.15024575E+04</pdfrwt>
<pdfrwt beam="2">  1       -1 0.59121230E-01 0.15024575E+04</pdfrwt>
<totfact> 0.19294078E+01</totfact>
</mgrwt>
</event>
<event>
12    1  0.1541840E-007  0.1740352E+04  0.7818608E-02  0.8738679E-01
          2   -1    0    0  501    0  0.00000000000E+00  0.00000000000E+00  0.27093869332E+04  0.27093869332E+04  0.00000000000E+00 0.  1.
         -2   -1    0    0    0  501 -0.00000000000E+00 -0.00000000000E+00 -0.27947509701E+03  0.27947509701E+03  0.00000000000E+00 0. -1.
         23    2    1    2    0    0  0.18752693153E+02 -0.49956806131E+03  0.23553636121E+03  0.56013545206E+03  0.91402602923E+02 0.  0.
        254    2    1    2    0    0 -0.18752693153E+02  0.49956806131E+03  0.21943754750E+04  0.24287265781E+04  0.91296722548E+03 0.  0.
        -24    2    4    4    0    0  0.21441395777E+03  0.63461048585E+03  0.10329195541E+04  0.12337531007E+04  0.80747100395E+02 0.  0.
         24    2    4    4    0    0 -0.23316665093E+03 -0.13504242454E+03  0.11614559209E+04  0.11949734774E+04  0.79866213763E+02 0.  0.
         13    1    3    3    0    0  0.54220915263E+02 -0.26568577346E+03  0.11353013621E+03  0.29396926659E+03  0.00000000000E+00 0. -1.
        -13    1    3    3    0    0 -0.35468222109E+02 -0.23388228785E+03  0.12200622500E+03  0.26616618547E+03  0.00000000000E+00 0.  1.
          4    1    6    6  502    0 -0.67180008144E+02 -0.26722758117E+00  0.26880187860E+03  0.27706980140E+03  0.00000000000E+00 0. -1.
          3    1    5    5  503    0  0.24237742446E+02  0.59519329428E+02  0.61446645721E+02  0.88914054035E+02  0.00000000000E+00 0. -1.
         -4    1    5    5    0  503  0.19017621533E+03  0.57509115642E+03  0.97147290838E+03  0.11448390467E+04  0.00000000000E+00 0.  1.
         -3    1    6    6    0  502 -0.16598664278E+03 -0.13477519695E+03  0.89265404226E+03  0.91790367603E+03  0.00000000000E+00 0.  1.
<mgrwt>
<rscale>  0 0.17403519E+04</rscale>
<asrwt>0</asrwt>
<pdfrwt beam="1">  1        2 0.41682874E+00 0.17403519E+04</pdfrwt>
<pdfrwt beam="2">  1       -2 0.42996170E-01 0.17403519E+04</pdfrwt>
<totfact> 0.12784543E+01</totfact>
</mgrwt>
</event>
<event>
12    1  0.1541840E-007  0.2228449E+04  0.7818608E-02  0.8506680E-01
          2   -1    0    0  501    0  0.00000000000E+00  0.00000000000E+00  0.19330244214E+04  0.19330244214E+04  0.00000000000E+00 0. -1.
         -2   -1    0    0    0  501 -0.00000000000E+00 -0.00000000000E+00 -0.64225576569E+03  0.64225576569E+03  0.00000000000E+00 0.  1.
         23    2    1    2    0    0 -0.91227258749E+03 -0.12771140470E+03  0.67714005583E+03  0.11469767160E+04  0.92116529364E+02 0.  0.
        254    2    1    2    0    0  0.91227258749E+03  0.12771140470E+03  0.61362859987E+03  0.14283034711E+04  0.90275094584E+03 0.  0.
        -24    2    4    4    0    0  0.99586202761E+03  0.20375534126E+03  0.72439989286E+03  0.12505991684E+04  0.77367035547E+02 0.  0.
         24    2    4    4    0    0 -0.83589440111E+02 -0.76043936567E+02 -0.11077129299E+03  0.17770430268E+03  0.80862012418E+02 0.  0.
         13    1    3    3    0    0 -0.54081337237E+03 -0.75873533697E+02  0.45689749359E+03  0.71203315688E+03  0.00000000000E+00 0. -1.
        -13    1    3    3    0    0 -0.37145921512E+03 -0.51837870998E+02  0.22024256225E+03  0.43494355909E+03  0.00000000000E+00 0.  1.
          4    1    6    6  502    0 -0.28835636581E+02 -0.78794903108E+02 -0.61996394920E+02  0.10432489480E+03  0.00000000000E+00 0. -1.
          3    1    5    5  503    0  0.90202327579E+03  0.20493882539E+03  0.66950331519E+03  0.11418759133E+04  0.00000000000E+00 0. -1.
         -4    1    5    5    0  503  0.93838751811E+02 -0.11834841233E+01  0.54896577666E+02  0.10872325517E+03  0.00000000000E+00 0.  1.
         -1    1    6    6    0  502 -0.54753803530E+02  0.27509665410E+01 -0.48774898069E+02  0.73379407872E+02  0.00000000000E+00 0.  1.
<mgrwt>
<rscale>  0 0.22284489E+04</rscale>
<asrwt>0</asrwt>
<pdfrwt beam="1">  1        2 0.29738837E+00 0.22284489E+04</pdfrwt>
<pdfrwt beam="2">  1       -2 0.98808580E-01 0.22284489E+04</pdfrwt>
<totfact> 0.56406397E+00</totfact>
</mgrwt>
</event>
<event>
12    1  0.1541840E-007  0.1322534E+04  0.7818608E-02  0.9011884E-01
          2   -1    0    0  501    0  0.00000000000E+00  0.00000000000E+00  0.29535065403E+04  0.29535065403E+04  0.00000000000E+00 0. -1.
         -2   -1    0    0    0  501 -0.00000000000E+00 -0.00000000000E+00 -0.14805251302E+03  0.14805251302E+03  0.00000000000E+00 0.  1.
         23    2    1    2    0    0  0.26662211000E+03  0.14951162386E+03  0.13379889179E+04  0.13755049223E+04  0.91424129485E+02 0.  0.
        254    2    1    2    0    0 -0.26662211000E+03 -0.14951162386E+03  0.14674651094E+04  0.17260541311E+04  0.85578498524E+03 0.  0.
        -24    2    4    4    0    0 -0.26641333776E+03 -0.48348908986E+03  0.79606516845E+03  0.97211586454E+03  0.80942789169E+02 0.  0.
         24    2    4    4    0    0 -0.20877224586E+00  0.33397746600E+03  0.67139994094E+03  0.75393826655E+03  0.78128341156E+02 0.  0.
         11    1    3    3    0    0  0.22004423500E+03  0.15762626448E+03  0.10949545714E+04  0.11279144551E+04  0.00000000000E+00 0. -1.
        -11    1    3    3    0    0  0.46577875004E+02 -0.81146406209E+01  0.24303434658E+03  0.24759046721E+03  0.00000000000E+00 0.  1.
          2    1    6    6  502    0  0.21999232375E+02  0.17680139602E+03  0.28375659321E+03  0.33505298693E+03  0.00000000000E+00 0. -1.
          1    1    5    5  503    0 -0.24388921974E+03 -0.37911003999E+03  0.65716960109E+03  0.79691797478E+03  0.00000000000E+00 0. -1.
         -2    1    5    5    0  503 -0.22524118019E+02 -0.10437904987E+03  0.13889556736E+03  0.17519788976E+03  0.00000000000E+00 0.  1.
         -1    1    6    6    0  502 -0.22208004621E+02  0.15717606998E+03  0.38764334773E+03  0.41888527962E+03  0.00000000000E+00 0.  1.
<mgrwt>
<rscale>  0 0.13225340E+04</rscale>
<asrwt>0</asrwt>
<pdfrwt beam="1">  1        2 0.45438558E+00 0.13225340E+04</pdfrwt>
<pdfrwt beam="2">  1       -2 0.22777312E-01 0.13225340E+04</pdfrwt>
<totfact> 0.31230539E+01</totfact>
</mgrwt>
</event>
<event>
12    1  0.1541840E-007  0.1144797E+04  0.7818608E-02  0.9162597E-01
         -2   -1    0    0    0  501 -0.00000000000E+00  0.00000000000E+00  0.16446834080E+03  0.16446834080E+03  0.00000000000E+00 0.  1.
          2   -1    0    0  501    0  0.00000000000E+00 -0.00000000000E+00 -0.19921160802E+04  0.19921160802E+04  0.00000000000E+00 0. -1.
         23    2    1    2    0    0  0.14195813466E+03  0.10041767800E+03 -0.21881643047E+03  0.29410285090E+03  0.91542528963E+02 0.  0.
        254    2    1    2    0    0 -0.14195813466E+03 -0.10041767800E+03 -0.16088313089E+04  0.18624815701E+04  0.92209738982E+03 0.  0.
        -24    2    4    4    0    0 -0.17084231916E+03 -0.48581035930E+03 -0.11157912440E+04  0.12310536452E+04  0.72829758996E+02 0.  0.
         24    2    4    4    0    0  0.28884184504E+02  0.38539268130E+03 -0.49304006487E+03  0.63142792491E+03  0.79062657883E+02 0.  0.
         11    1    3    3    0    0  0.11136873243E+03  0.11033939726E+03 -0.14484211957E+03  0.21344089756E+03  0.00000000000E+00 0.  1.
        -11    1    3    3    0    0  0.30589402235E+02 -0.99217192622E+01 -0.73974310905E+02  0.80661953337E+02  0.00000000000E+00 0. -1.
          2    1    6    6  502    0 -0.18996329641E+02  0.46363219936E+02 -0.85993007172E+02  0.99524901332E+02  0.00000000000E+00 0. -1.
          3    1    5    5  503    0 -0.71371765355E+02 -0.13539009657E+03 -0.39066593647E+03  0.41957631136E+03  0.00000000000E+00 0. -1.
         -4    1    5    5    0  503 -0.99470553810E+02 -0.35042026273E+03 -0.72512530757E+03  0.81147733381E+03  0.00000000000E+00 0.  1.
         -1    1    6    6    0  502  0.47880514145E+02  0.33902946137E+03 -0.40704705769E+03  0.53190302357E+03  0.00000000000E+00 0.  1.
<mgrwt>
<rscale>  0 0.11447970E+04</rscale>
<asrwt>0</asrwt>
<pdfrwt beam="1">  1        2 0.30647941E+00 0.11447970E+04</pdfrwt>
<pdfrwt beam="2">  1       -2 0.25302820E-01 0.11447970E+04</pdfrwt>
<totfact> 0.93956725E+01</totfact>
</mgrwt>
</event>
<event>
12    1  0.1541840E-007  0.1729011E+04  0.7818608E-02  0.8744989E-01
         -2   -1    0    0    0  501 -0.00000000000E+00  0.00000000000E+00  0.91054432310E+03  0.91054432310E+03  0.00000000000E+00 0.  1.
          2   -1    0    0  501    0  0.00000000000E+00 -0.00000000000E+00 -0.82079437452E+03  0.82079437452E+03  0.00000000000E+00 0. -1.
         23    2    1    2    0    0 -0.16800286088E+03  0.40051479989E+02 -0.57065476852E+03  0.60310810959E+03  0.90903491173E+02 0.  0.
        254    2    1    2    0    0  0.16800286088E+03 -0.40051479989E+02  0.66040471710E+03  0.11282305880E+04  0.89829882950E+03 0.  0.
        -24    2    4    4    0    0 -0.21679100513E+03 -0.79290009827E+02 -0.10586519255E+03  0.26621431456E+03  0.79858479337E+02 0.  0.
         24    2    4    4    0    0  0.38479386601E+03  0.39238529838E+02  0.76626990965E+03  0.86201627347E+03  0.79350486757E+02 0.  0.
         11    1    3    3    0    0 -0.76624908480E+02 -0.14805567516E+02 -0.14910712508E+03  0.16829591849E+03  0.00000000000E+00 0.  1.
        -11    1    3    3    0    0 -0.91377952403E+02  0.54857047505E+02 -0.42154764344E+03  0.43481219110E+03  0.00000000000E+00 0. -1.
          4    1    6    6  502    0  0.15449931066E+03  0.54509751012E+02  0.33208162893E+03  0.37029658144E+03  0.00000000000E+00 0. -1.
          1    1    5    5  503    0 -0.50581074300E+02 -0.54230934427E+02 -0.17003722977E+02  0.76082625620E+02  0.00000000000E+00 0. -1.
         -2    1    5    5    0  503 -0.16620993083E+03 -0.25059075400E+02 -0.88861469572E+02  0.19013168894E+03  0.00000000000E+00 0.  1.
         -3    1    6    6    0  502  0.23029455534E+03 -0.15271221174E+02  0.43418828072E+03  0.49171969203E+03  0.00000000000E+00 0.  1.
<mgrwt>
<rscale>  0 0.17290109E+04</rscale>
<asrwt>0</asrwt>
<pdfrwt beam="1">  1        2 0.12627606E+00 0.17290109E+04</pdfrwt>
<pdfrwt beam="2">  1       -2 0.14008374E+00 0.17290109E+04</pdfrwt>
<totfact> 0.11327711E+01</totfact>
</mgrwt>
</event>
<event>
12    1  0.1541840E-007  0.2138767E+04  0.7818608E-02  0.8544356E-01
          1   -1    0    0  501    0  0.00000000000E+00  0.00000000000E+00  0.17838467417E+04  0.17838467417E+04  0.00000000000E+00 0. -1.
         -1   -1    0    0    0  501 -0.00000000000E+00 -0.00000000000E+00 -0.64107585690E+03  0.64107585690E+03  0.00000000000E+00 0.  1.
         23    2    1    2    0    0  0.71634631991E+03 -0.48424411704E+03  0.63407252302E+03  0.10761458482E+04  0.91637913968E+02 0.  0.
        254    2    1    2    0    0 -0.71634631991E+03  0.48424411704E+03  0.50869836174E+03  0.13487767503E+04  0.90154327908E+03 0.  0.
        -24    2    4    4    0    0 -0.15192244361E+03  0.28779469787E+03  0.64799199736E+03  0.72948706504E+03  0.79696502015E+02 0.  0.
         24    2    4    4    0    0 -0.56442387630E+03  0.19644941917E+03 -0.13929363561E+03  0.61928968529E+03  0.83368524929E+02 0.  0.
         11    1    3    3    0    0  0.40098740933E+03 -0.30379398710E+03  0.41259461056E+03  0.65062739083E+03  0.00000000000E+00 0. -1.
        -11    1    3    3    0    0  0.31535891058E+03 -0.18045012994E+03  0.22147791246E+03  0.42551845740E+03  0.00000000000E+00 0.  1.
          4    1    6    6  502    0 -0.47415888454E+03  0.16052378566E+03 -0.84267801876E+02  0.50763726812E+03  0.00000000000E+00 0. -1.
          3    1    5    5  503    0 -0.14501643164E+03  0.29193479239E+03  0.62146871851E+03  0.70176852063E+03  0.00000000000E+00 0. -1.
         -4    1    5    5    0  503 -0.69060119650E+01 -0.41400945197E+01  0.26523278844E+02  0.27718544416E+02  0.00000000000E+00 0.  1.
         -3    1    6    6    0  502 -0.90264991765E+02  0.35925633510E+02 -0.55025833739E+02  0.11165241717E+03  0.00000000000E+00 0.  1.
<mgrwt>
<rscale>  0 0.21387670E+04</rscale>
<asrwt>0</asrwt>
<pdfrwt beam="1">  1        1 0.27443796E+00 0.21387670E+04</pdfrwt>
<pdfrwt beam="2">  1       -1 0.98627056E-01 0.21387670E+04</pdfrwt>
<totfact> 0.37669840E+00</totfact>
</mgrwt>
</event>
<event>
12    1  0.1541840E-007  0.1572470E+04  0.7818608E-02  0.8837641E-01
          2   -1    0    0  501    0  0.00000000000E+00  0.00000000000E+00  0.48010425399E+04  0.48010425399E+04  0.00000000000E+00 0. -1.
         -2   -1    0    0    0  501 -0.00000000000E+00 -0.00000000000E+00 -0.12875654506E+03  0.12875654506E+03  0.00000000000E+00 0.  1.
         23    2    1    2    0    0  0.17902241858E+03 -0.46903183626E+01  0.32090498145E+04  0.32153284650E+04  0.90914246053E+02 0.  0.
        254    2    1    2    0    0 -0.17902241858E+03  0.46903183626E+01  0.14632361803E+04  0.17144706200E+04  0.87537327010E+03 0.  0.
        -24    2    4    4    0    0 -0.25754983964E+02 -0.23793644650E+01 -0.10726387386E+03  0.13447571382E+03  0.76871310638E+02 0.  0.
         24    2    4    4    0    0 -0.15326743462E+03  0.70696828275E+01  0.15705000542E+04  0.15799949062E+04  0.79828543940E+02 0.  0.
         11    1    3    3    0    0  0.74021909209E+02 -0.10453999395E+02  0.20931973668E+04  0.20945318679E+04  0.00000000000E+00 0.  1.
        -11    1    3    3    0    0  0.10500050938E+03  0.57636810323E+01  0.11158524477E+04  0.11207965971E+04  0.00000000000E+00 0. -1.
          4    1    6    6  502    0 -0.13115069189E+03  0.35638439662E+02  0.13022931198E+04  0.13093654846E+04  0.00000000000E+00 0. -1.
          3    1    5    5  503    0 -0.19127552528E+02  0.35945992583E+02 -0.41975122020E+02  0.58479812903E+02  0.00000000000E+00 0. -1.
         -4    1    5    5    0  503 -0.66274314359E+01 -0.38325357048E+02 -0.65288751838E+02  0.75995900922E+02  0.00000000000E+00 0.  1.
         -3    1    6    6    0  502 -0.22116742733E+02 -0.28568756834E+02  0.26820693436E+03  0.27062942156E+03  0.00000000000E+00 0.  1.
<mgrwt>
<rscale>  0 0.15724702E+04</rscale>
<asrwt>0</asrwt>
<pdfrwt beam="1">  1        2 0.73862179E+00 0.15724702E+04</pdfrwt>
<pdfrwt beam="2">  1       -2 0.19808703E-01 0.15724702E+04</pdfrwt>
<totfact> 0.12910716E+00</totfact>
</mgrwt>
</event>
<event>
12    1  0.1541840E-007  0.1680829E+04  0.7818608E-02  0.8772375E-01
         -2   -1    0    0    0  501 -0.00000000000E+00  0.00000000000E+00  0.31408956153E+03  0.31408956153E+03  0.00000000000E+00 0.  1.
          2   -1    0    0  501    0  0.00000000000E+00 -0.00000000000E+00 -0.22487095321E+04  0.22487095321E+04  0.00000000000E+00 0. -1.
         23    2    1    2    0    0  0.18546399181E+03 -0.31225373579E+03 -0.11807457589E+04  0.12386881323E+04  0.91040948111E+02 0.  0.
        254    2    1    2    0    0 -0.18546399181E+03  0.31225373579E+03 -0.75387421162E+03  0.13241109613E+04  0.10261794302E+04 0.  0.
        -24    2    4    4    0    0 -0.65263059222E+00 -0.23087733151E+03 -0.70037593131E+03  0.74180575544E+03  0.80278051278E+02 0.  0.
         24    2    4    4    0    0 -0.18481136122E+03  0.54313106729E+03 -0.53498280310E+02  0.58230520581E+03  0.84087402312E+02 0.  0.
         11    1    3    3    0    0  0.86860220288E+01  0.46546916873E+01 -0.16690996164E+02  0.19383046363E+02  0.00000000000E+00 0.  1.
        -11    1    3    3    0    0  0.17677796978E+03 -0.31690842747E+03 -0.11640547627E+04  0.12193050860E+04  0.00000000000E+00 0. -1.
          2    1    6    6  502    0 -0.19187455693E+03  0.48998498640E+03 -0.47332030426E+02  0.52833838929E+03  0.00000000000E+00 0. -1.
          3    1    5    5  503    0  0.14994351221E+02 -0.11302043332E+03 -0.45609792492E+03  0.47013164756E+03  0.00000000000E+00 0. -1.
         -4    1    5    5    0  503 -0.15646981813E+02 -0.11785689819E+03 -0.24427800639E+03  0.27167410788E+03  0.00000000000E+00 0.  1.
         -1    1    6    6    0  502  0.70631957126E+01  0.53146080890E+02 -0.61662498841E+01  0.53966816519E+02  0.00000000000E+00 0.  1.
<mgrwt>
<rscale>  0 0.16808286E+04</rscale>
<asrwt>0</asrwt>
<pdfrwt beam="1">  1        2 0.34595533E+00 0.16808286E+04</pdfrwt>
<pdfrwt beam="2">  1       -2 0.48321469E-01 0.16808286E+04</pdfrwt>
<totfact> 0.18752843E+01</totfact>
</mgrwt>
</event>
<event>
12    1  0.1541840E-007  0.1797748E+04  0.7818608E-02  0.8707498E-01
         -2   -1    0    0    0  501 -0.00000000000E+00  0.00000000000E+00  0.43267565212E+03  0.43267565212E+03  0.00000000000E+00 0. -1.
          2   -1    0    0  501    0  0.00000000000E+00 -0.00000000000E+00 -0.18673902269E+04  0.18673902269E+04  0.00000000000E+00 0.  1.
         23    2    1    2    0    0 -0.13800309822E+02 -0.63556740449E+03 -0.55927314786E+03  0.85163269299E+03  0.91407962740E+02 0.  0.
        254    2    1    2    0    0  0.13800309822E+02  0.63556740449E+03 -0.87544142691E+03  0.14484331860E+04  0.96302888232E+03 0.  0.
        -24    2    4    4    0    0  0.70472008720E+02  0.72763414595E+02  0.19593561831E+03  0.23438543289E+03  0.79277652021E+02 0.  0.
         24    2    4    4    0    0 -0.56671698897E+02  0.56280398990E+03 -0.10713770452E+04  0.12140477531E+04  0.78122732514E+02 0.  0.
         11    1    3    3    0    0  0.18743596457E+01 -0.43805216118E+01 -0.22254963649E+02  0.22759297017E+02  0.00000000000E+00 0. -1.
        -11    1    3    3    0    0 -0.15674669468E+02 -0.63118688288E+03 -0.53701818421E+03  0.82887339598E+03  0.00000000000E+00 0.  1.
          4    1    6    6  502    0 -0.30404766247E+02  0.49954851411E+03 -0.97312517403E+03  0.10942786538E+04  0.00000000000E+00 0. -1.
          1    1    5    5  503    0  0.29679499263E+02  0.58285498617E+02  0.17394165631E+03  0.18583264467E+03  0.00000000000E+00 0. -1.
         -2    1    5    5    0  503  0.40792509457E+02  0.14477915979E+02  0.21993961998E+02  0.48552788213E+02  0.00000000000E+00 0.  1.
         -3    1    6    6    0  502 -0.26266932651E+02  0.63255475784E+02 -0.98251871195E+02  0.11976909936E+03  0.00000000000E+00 0.  1.
<mgrwt>
<rscale>  0 0.17977478E+04</rscale>
<asrwt>0</asrwt>
<pdfrwt beam="1">  1        2 0.28729080E+00 0.17977478E+04</pdfrwt>
<pdfrwt beam="2">  1       -2 0.66565485E-01 0.17977478E+04</pdfrwt>
<totfact> 0.15501182E+01</totfact>
</mgrwt>
</event>
<event>
12    1  0.1541840E-007  0.3170400E+04  0.7818608E-02  0.8196679E-01
          2   -1    0    0  501    0  0.00000000000E+00  0.00000000000E+00  0.23851112447E+04  0.23851112447E+04  0.00000000000E+00 0. -1.
         -2   -1    0    0    0  501 -0.00000000000E+00 -0.00000000000E+00 -0.10535603959E+04  0.10535603959E+04  0.00000000000E+00 0.  1.
         23    2    1    2    0    0  0.67504979159E+03 -0.97341549393E+03 -0.30862921329E+03  0.12277503873E+04  0.94281902756E+02 0.  0.
        254    2    1    2    0    0 -0.67504979159E+03  0.97341549393E+03  0.16401800620E+04  0.22109212533E+04  0.89148875905E+03 0.  0.
        -24    2    4    4    0    0 -0.78260149749E+03  0.10618278570E+04  0.14384630119E+04  0.19533905969E+04  0.81335634903E+02 0.  0.
         24    2    4    4    0    0  0.10755170590E+03 -0.88412363064E+02  0.20171705010E+03  0.25753065644E+03  0.79045273851E+02 0.  0.
         11    1    3    3    0    0  0.82885500467E+02 -0.11619480284E+03 -0.69704096571E+02  0.15883922524E+03  0.00000000000E+00 0. -1.
        -11    1    3    3    0    0  0.59216429112E+03 -0.85722069108E+03 -0.23892511672E+03  0.10689111620E+04  0.00000000000E+00 0.  1.
          2    1    6    6  502    0  0.65485378194E+02 -0.53518158094E+01  0.99817987431E+02  0.11950149499E+03  0.00000000000E+00 0. -1.
          1    1    5    5  503    0 -0.36877975744E+02  0.65094125015E+02  0.58834664503E+02  0.95177455070E+02  0.00000000000E+00 0. -1.
         -2    1    5    5    0  503 -0.74572352175E+03  0.99673373197E+03  0.13796283474E+04  0.18582131418E+04  0.00000000000E+00 0.  1.
         -1    1    6    6    0  502  0.42066327707E+02 -0.83060547254E+02  0.10189906267E+03  0.13802916145E+03  0.00000000000E+00 0.  1.
<mgrwt>
<rscale>  0 0.31703998E+04</rscale>
<asrwt>0</asrwt>
<pdfrwt beam="1">  1        2 0.36694019E+00 0.31703998E+04</pdfrwt>
<pdfrwt beam="2">  1       -2 0.16208621E+00 0.31703998E+04</pdfrwt>
<totfact> 0.83199276E-01</totfact>
</mgrwt>
</event>
<event>
12    1  0.1541840E-007  0.2544141E+04  0.7818608E-02  0.8387427E-01
          2   -1    0    0  501    0  0.00000000000E+00  0.00000000000E+00  0.26372616114E+04  0.26372616114E+04  0.00000000000E+00 0. -1.
         -2   -1    0    0    0  501 -0.00000000000E+00 -0.00000000000E+00 -0.61357717559E+03  0.61357717559E+03  0.00000000000E+00 0.  1.
         23    2    1    2    0    0  0.17229933521E+03 -0.10516754849E+04  0.55677652884E+03  0.12057859499E+04  0.90616043672E+02 0.  0.
        254    2    1    2    0    0 -0.17229933521E+03  0.10516754849E+04  0.14669079070E+04  0.20450528371E+04  0.94589318242E+03 0.  0.
        -24    2    4    4    0    0 -0.13936064610E+03  0.83324789434E+03  0.37472068559E+03  0.92783368098E+03  0.82074991603E+02 0.  0.
         24    2    4    4    0    0 -0.32938689118E+02  0.21842759057E+03  0.10921872214E+04  0.11172191561E+04  0.80685480138E+02 0.  0.
         13    1    3    3    0    0  0.12812748030E+03 -0.85575019446E+03  0.48847890113E+03  0.99364816880E+03  0.00000000000E+00 0. -1.
        -13    1    3    3    0    0  0.44171854917E+02 -0.19592529046E+03  0.68297627709E+02  0.21213778108E+03  0.00000000000E+00 0.  1.
          4    1    6    6  502    0 -0.14389685559E+02  0.77424043644E+01  0.18425686716E+03  0.18498000155E+03  0.00000000000E+00 0. -1.
          1    1    5    5  503    0 -0.16638326502E+02  0.82897158529E+02  0.65860105479E+02  0.10717428001E+03  0.00000000000E+00 0. -1.
         -2    1    5    5    0  503 -0.12272231959E+03  0.75035073581E+03  0.30886058011E+03  0.82065940097E+03  0.00000000000E+00 0.  1.
         -3    1    6    6    0  502 -0.18549003559E+02  0.21068518621E+03  0.90793035422E+03  0.93223915459E+03  0.00000000000E+00 0.  1.
<mgrwt>
<rscale>  0 0.25441411E+04</rscale>
<asrwt>0</asrwt>
<pdfrwt beam="1">  1        2 0.40573255E+00 0.25441411E+04</pdfrwt>
<pdfrwt beam="2">  1       -2 0.94396490E-01 0.25441411E+04</pdfrwt>
<totfact> 0.24317424E+00</totfact>
</mgrwt>
</event>
<event>
12    1  0.1541840E-007  0.1925674E+04  0.7818608E-02  0.8642181E-01
          1   -1    0    0  501    0  0.00000000000E+00  0.00000000000E+00  0.16716059382E+04  0.16716059382E+04  0.00000000000E+00 0. -1.
         -1   -1    0    0    0  501 -0.00000000000E+00 -0.00000000000E+00 -0.55458942205E+03  0.55458942205E+03  0.00000000000E+00 0.  1.
         23    2    1    2    0    0 -0.30124825490E+03  0.43047103868E+03  0.10459329704E+04  0.11740539100E+04  0.91493053368E+02 0.  0.
        254    2    1    2    0    0  0.30124825490E+03 -0.43047103868E+03  0.71083545762E+02  0.10521414503E+04  0.90878651764E+03 0.  0.
        -24    2    4    4    0    0  0.58304360431E+03 -0.11128941227E+03  0.13603360317E+03  0.61377750544E+03  0.76762667915E+02 0.  0.
         24    2    4    4    0    0 -0.28179534941E+03 -0.31918162641E+03 -0.64950057410E+02  0.43836394481E+03  0.81602135817E+02 0.  0.
         11    1    3    3    0    0 -0.55073516225E+02  0.73687609997E+02  0.11595554376E+03  0.14801568898E+03  0.00000000000E+00 0.  1.
        -11    1    3    3    0    0 -0.24617473868E+03  0.35678342869E+03  0.92997742667E+03  0.10260382211E+04  0.00000000000E+00 0. -1.
          4    1    6    6  502    0 -0.38362321436E+02 -0.93226509898E+01 -0.56762177192E+01  0.39884821361E+02  0.00000000000E+00 0. -1.
          1    1    5    5  503    0  0.14974781894E+02  0.86149200417E+01 -0.76723488035E+00  0.17293050323E+02  0.00000000000E+00 0. -1.
         -2    1    5    5    0  503  0.56806882242E+03 -0.11990433231E+03  0.13680083805E+03  0.59648445512E+03  0.00000000000E+00 0.  1.
         -3    1    6    6    0  502 -0.24343302797E+03 -0.30985897542E+03 -0.59273839690E+02  0.39847912345E+03  0.00000000000E+00 0.  1.
<mgrwt>
<rscale>  0 0.19256739E+04</rscale>
<asrwt>0</asrwt>
<pdfrwt beam="1">  1        1 0.25717014E+00 0.19256739E+04</pdfrwt>
<pdfrwt beam="2">  1       -1 0.85321450E-01 0.19256739E+04</pdfrwt>
<totfact> 0.63173450E+00</totfact>
</mgrwt>
</event>
<event>
12    1  0.1541840E-007  0.1485457E+04  0.7818608E-02  0.8894182E-01
         -2   -1    0    0    0  501 -0.00000000000E+00  0.00000000000E+00  0.18073778003E+03  0.18073778003E+03  0.00000000000E+00 0. -1.
          2   -1    0    0  501    0  0.00000000000E+00 -0.00000000000E+00 -0.30521874000E+04  0.30521874000E+04  0.00000000000E+00 0.  1.
         23    2    1    2    0    0 -0.91836656800E+02  0.22631046949E+03 -0.18139550444E+04  0.18325576424E+04  0.90466620571E+02 0.  0.
        254    2    1    2    0    0  0.91836656800E+02 -0.22631046949E+03 -0.10574945755E+04  0.14003675376E+04  0.88492037097E+03 0.  0.
        -24    2    4    4    0    0 -0.11612895130E+02 -0.21294387119E+03 -0.11911550193E+04  0.12126777371E+04  0.79101595665E+02 0.  0.
         24    2    4    4    0    0  0.10344955193E+03 -0.13366598299E+02  0.13366044376E+03  0.18768980052E+03  0.80510069222E+02 0.  0.
         11    1    3    3    0    0 -0.72670435779E+02  0.20498800168E+03 -0.17346153812E+04  0.17481966691E+04  0.00000000000E+00 0.  1.
        -11    1    3    3    0    0 -0.19166221022E+02  0.21322467803E+02 -0.79339663196E+02  0.84360973308E+02  0.00000000000E+00 0. -1.
          2    1    6    6  502    0  0.29922563483E+02  0.46704651092E+01  0.10063465552E+03  0.10509284915E+03  0.00000000000E+00 0. -1.
          1    1    5    5  503    0  0.33047473546E+02 -0.11566497154E+03 -0.61032027985E+03  0.62206218752E+03  0.00000000000E+00 0. -1.
         -2    1    5    5    0  503 -0.44660368676E+02 -0.97278899646E+02 -0.58083473943E+03  0.59061554955E+03  0.00000000000E+00 0.  1.
         -1    1    6    6    0  502  0.73526988447E+02 -0.18037063408E+02  0.33025788241E+02  0.82596951369E+02  0.00000000000E+00 0.  1.
<mgrwt>
<rscale>  0 0.14854569E+04</rscale>
<asrwt>0</asrwt>
<pdfrwt beam="1">  1        2 0.46956727E+00 0.14854569E+04</pdfrwt>
<pdfrwt beam="2">  1       -2 0.27805814E-01 0.14854569E+04</pdfrwt>
<totfact> 0.18586740E+01</totfact>
</mgrwt>
</event>
<event>
12    1  0.1705747E-007  0.1224921E+04  0.7818608E-02  0.9091319E-01
         -1   -1    0    0    0  501 -0.00000000000E+00  0.00000000000E+00  0.25762058009E+03  0.25762058009E+03  0.00000000000E+00 0.  1.
          1   -1    0    0  501    0  0.00000000000E+00 -0.00000000000E+00 -0.14560475236E+04  0.14560475236E+04  0.00000000000E+00 0. -1.
         23    2    1    2    0    0 -0.20290855662E+03 -0.10079706798E+03 -0.47160638503E+03  0.53121098691E+03  0.91872732344E+02 0.  0.
        254    2    1    2    0    0  0.20290855662E+03  0.10079706798E+03 -0.72682055849E+03  0.11824571168E+04  0.90476780310E+03 0.  0.
        -24    2    4    4    0    0 -0.26372264998E+03  0.81288023859E+02 -0.63888511533E+03  0.70050427674E+03  0.79841544350E+02 0.  0.
         24    2    4    4    0    0  0.46663120660E+03  0.19509044125E+02 -0.87935443167E+02  0.48195284005E+03  0.80128722014E+02 0.  0.
         11    1    3    3    0    0 -0.36664252979E+01  0.74072259467E+01 -0.37608059841E+00  0.82735184357E+01  0.00000000000E+00 0.  1.
        -11    1    3    3    0    0 -0.19924213132E+03 -0.10820429393E+03 -0.47123030444E+03  0.52293746848E+03  0.00000000000E+00 0. -1.
          4    1    6    6  502    0  0.42671162479E+03 -0.23854978431E+01 -0.67407918074E+02  0.43200963965E+03  0.00000000000E+00 0. -1.
          1    1    5    5  503    0 -0.20418430128E+03  0.91313437923E+02 -0.54209651186E+03  0.58642817207E+03  0.00000000000E+00 0. -1.
         -2    1    5    5    0  503 -0.59538348705E+02 -0.10025414064E+02 -0.96788603470E+02  0.11407610466E+03  0.00000000000E+00 0.  1.
         -1    1    6    6    0  502  0.39919581813E+02  0.21894541968E+02 -0.20527525092E+02  0.49943200404E+02  0.00000000000E+00 0.  1.
<mgrwt>
<rscale>  0 0.12249209E+04</rscale>
<asrwt>0</asrwt>
<pdfrwt beam="1">  1        1 0.22400731E+00 0.12249209E+04</pdfrwt>
<pdfrwt beam="2">  1       -1 0.39633936E-01 0.12249209E+04</pdfrwt>
<totfact> 0.42942659E+01</totfact>
</mgrwt>
</event>
<event>
12    1  0.1541840E-007  0.1875399E+04  0.7818608E-02  0.8667200E-01
         -1   -1    0    0    0  501 -0.00000000000E+00  0.00000000000E+00  0.95401345687E+03  0.95401345687E+03  0.00000000000E+00 0.  1.
          1   -1    0    0  501    0  0.00000000000E+00 -0.00000000000E+00 -0.92166460022E+03  0.92166460022E+03  0.00000000000E+00 0. -1.
         23    2    1    2    0    0 -0.63474113879E+03  0.29230817941E+03  0.17961274814E+03  0.72722703951E+03  0.90873773312E+02 0.  0.
        254    2    1    2    0    0  0.63474113879E+03 -0.29230817941E+03 -0.14726389149E+03  0.11484510176E+04  0.89939574217E+03 0.  0.
        -24    2    4    4    0    0  0.52515138708E+03  0.22404447105E+03  0.50145854106E+02  0.57867276243E+03  0.79797587273E+02 0.  0.
         24    2    4    4    0    0  0.10958975170E+03 -0.51635265046E+03 -0.19740974559E+03  0.56977825515E+03  0.83944499922E+02 0.  0.
         11    1    3    3    0    0 -0.42382809935E+03  0.24106611490E+03  0.11990770585E+03  0.50211650787E+03  0.00000000000E+00 0.  1.
        -11    1    3    3    0    0 -0.21091303943E+03  0.51242064511E+02  0.59705042292E+02  0.22511053163E+03  0.00000000000E+00 0. -1.
          4    1    6    6  502    0  0.25024663133E+01 -0.62285387794E+02 -0.51827371697E+02  0.81066690615E+02  0.00000000000E+00 0. -1.
          1    1    5    5  503    0  0.23841260793E+03  0.10283859961E+03 -0.17026946102E+02  0.26020427760E+03  0.00000000000E+00 0. -1.
         -2    1    5    5    0  503  0.28673877915E+03  0.12120587144E+03  0.67172800208E+02  0.31846848483E+03  0.00000000000E+00 0.  1.
         -3    1    6    6    0  502  0.10708728539E+03 -0.45406726267E+03 -0.14558237390E+03  0.48871156453E+03  0.00000000000E+00 0.  1.
<mgrwt>
<rscale>  0 0.18753991E+04</rscale>
<asrwt>0</asrwt>
<pdfrwt beam="1">  1        1 0.14179455E+00 0.18753991E+04</pdfrwt>
<pdfrwt beam="2">  1       -1 0.14677130E+00 0.18753991E+04</pdfrwt>
<totfact> 0.60594937E+00</totfact>
</mgrwt>
</event>
<event>
12    1  0.1541840E-007  0.1061242E+04  0.7818608E-02  0.9243814E-01
         -2   -1    0    0    0  501 -0.00000000000E+00  0.00000000000E+00  0.47518178481E+03  0.47518178481E+03  0.00000000000E+00 0.  1.
          2   -1    0    0  501    0  0.00000000000E+00 -0.00000000000E+00 -0.59252851636E+03  0.59252851636E+03  0.00000000000E+00 0. -1.
         23    2    1    2    0    0  0.98771654883E+02  0.73605826014E+02 -0.11284967774E+02  0.15410814978E+03  0.91914709913E+02 0.  0.
        254    2    1    2    0    0 -0.98771654883E+02 -0.73605826014E+02 -0.10606176378E+03  0.91360215140E+03  0.89902510303E+03 0.  0.
        -24    2    4    4    0    0 -0.26491988436E+03  0.15612709687E+03 -0.38985483993E+03  0.50284093875E+03  0.79397720122E+02 0.  0.
         24    2    4    4    0    0  0.16614822948E+03 -0.22973292288E+03  0.28379307615E+03  0.41076121265E+03  0.88339197027E+02 0.  0.
         13    1    3    3    0    0  0.23135571406E+02  0.24800814188E+02 -0.46410117739E+02  0.57482467564E+02  0.00000000000E+00 0. -1.
        -13    1    3    3    0    0  0.75636083477E+02  0.48805011827E+02  0.35125149965E+02  0.96625682213E+02  0.00000000000E+00 0.  1.
          2    1    6    6  502    0  0.47817093537E+02 -0.24896074836E+02  0.22853244704E+02  0.58553904823E+02  0.00000000000E+00 0. -1.
          3    1    5    5  503    0 -0.29502256281E+02  0.26543410464E+01 -0.75937793164E+02  0.81510594910E+02  0.00000000000E+00 0. -1.
         -4    1    5    5    0  503 -0.23541762808E+03  0.15347275582E+03 -0.31391704677E+03  0.42133034384E+03  0.00000000000E+00 0.  1.
         -1    1    6    6    0  502  0.11833113594E+03 -0.20483684804E+03  0.26093983145E+03  0.35220730783E+03  0.00000000000E+00 0.  1.
<mgrwt>
<rscale>  0 0.10612422E+04</rscale>
<asrwt>0</asrwt>
<pdfrwt beam="1">  1        2 0.91158233E-01 0.10612422E+04</pdfrwt>
<pdfrwt beam="2">  1       -2 0.73104890E-01 0.10612422E+04</pdfrwt>
<totfact> 0.84733396E+01</totfact>
</mgrwt>
</event>
<event>
12    1  0.1541840E-007  0.1617756E+04  0.7818608E-02  0.8809713E-01
         -2   -1    0    0    0  501 -0.00000000000E+00  0.00000000000E+00  0.14762745393E+03  0.14762745393E+03  0.00000000000E+00 0.  1.
          2   -1    0    0  501    0  0.00000000000E+00 -0.00000000000E+00 -0.44319938775E+04  0.44319938775E+04  0.00000000000E+00 0. -1.
         23    2    1    2    0    0 -0.10507220567E+03 -0.34634583157E+03 -0.30063483198E+03  0.47940331209E+03  0.91927308174E+02 0.  0.
        254    2    1    2    0    0  0.10507220567E+03  0.34634583157E+03 -0.39837315916E+04  0.41002180193E+04  0.90037481574E+03 0.  0.
        -24    2    4    4    0    0  0.15046254741E+03  0.58901399292E+03 -0.34796540153E+04  0.35331978140E+04  0.76930260597E+02 0.  0.
         24    2    4    4    0    0 -0.45390341738E+02 -0.24266816135E+03 -0.50407757632E+03  0.56702020532E+03  0.80433765511E+02 0.  0.
         11    1    3    3    0    0 -0.82967089589E+02 -0.24508121225E+03 -0.15829477239E+03  0.30332420530E+03  0.00000000000E+00 0.  1.
        -11    1    3    3    0    0 -0.22105116085E+02 -0.10126461932E+03 -0.14234005959E+03  0.17607910679E+03  0.00000000000E+00 0. -1.
          4    1    6    6  502    0 -0.59244798959E+02 -0.16895161702E+03 -0.29716382123E+03  0.34693073048E+03  0.00000000000E+00 0. -1.
          3    1    5    5  503    0  0.27866581619E+02  0.26287211586E+03 -0.14918241034E+04  0.15150635139E+04  0.00000000000E+00 0. -1.
         -4    1    5    5    0  503  0.12259596579E+03  0.32614187706E+03 -0.19878299119E+04  0.20181343001E+04  0.00000000000E+00 0.  1.
         -3    1    6    6    0  502  0.13854457221E+02 -0.73716544326E+02 -0.20691375509E+03  0.22008947484E+03  0.00000000000E+00 0.  1.
<mgrwt>
<rscale>  0 0.16177564E+04</rscale>
<asrwt>0</asrwt>
<pdfrwt beam="1">  1        2 0.68184502E+00 0.16177564E+04</pdfrwt>
<pdfrwt beam="2">  1       -2 0.22711923E-01 0.16177564E+04</pdfrwt>
<totfact> 0.24055488E+00</totfact>
</mgrwt>
</event>
<event>
12    1  0.1541840E-007  0.1544311E+04  0.7818608E-02  0.8855510E-01
         -1   -1    0    0    0  501 -0.00000000000E+00  0.00000000000E+00  0.26363209113E+03  0.26363209113E+03  0.00000000000E+00 0.  1.
          1   -1    0    0  501    0  0.00000000000E+00 -0.00000000000E+00 -0.22615771329E+04  0.22615771329E+04  0.00000000000E+00 0. -1.
         23    2    1    2    0    0  0.69037024852E+02  0.43241263240E+03 -0.10623519616E+04  0.11531403211E+04  0.96923239437E+02 0.  0.
        254    2    1    2    0    0 -0.69037024852E+02 -0.43241263240E+03 -0.93559308016E+03  0.13720689029E+04  0.90304588328E+03 0.  0.
        -24    2    4    4    0    0 -0.11616525166E+03  0.15640283839E+03 -0.69996733836E+03  0.73102262051E+03  0.80520701542E+02 0.  0.
         24    2    4    4    0    0  0.47128226811E+02 -0.58881547079E+03 -0.23562574180E+03  0.64104628243E+03  0.80598496351E+02 0.  0.
         11    1    3    3    0    0  0.43301829102E+02  0.33819055113E+03 -0.71195056891E+03  0.78938045951E+03  0.00000000000E+00 0. -1.
        -11    1    3    3    0    0  0.25735195750E+02  0.94222081268E+02 -0.35040139269E+03  0.36375986158E+03  0.00000000000E+00 0.  1.
          2    1    6    6  502    0  0.46489134137E+02 -0.17296706891E+03 -0.89912711775E+02  0.20040744063E+03  0.00000000000E+00 0. -1.
          1    1    5    5  503    0  0.12344465730E+01 -0.60216478066E+01 -0.56109031422E+01  0.83226398888E+01  0.00000000000E+00 0. -1.
         -2    1    5    5    0  503 -0.11739969824E+03  0.16242448619E+03 -0.69435643522E+03  0.72269998062E+03  0.00000000000E+00 0.  1.
         -1    1    6    6    0  502  0.63909267341E+00 -0.41584840188E+03 -0.14571303002E+03  0.44063884180E+03  0.00000000000E+00 0.  1.
<mgrwt>
<rscale>  0 0.15443112E+04</rscale>
<asrwt>0</asrwt>
<pdfrwt beam="1">  1        1 0.34793494E+00 0.15443112E+04</pdfrwt>
<pdfrwt beam="2">  1       -1 0.40558783E-01 0.15443112E+04</pdfrwt>
<totfact> 0.11332201E+01</totfact>
</mgrwt>
</event>
<event>
12    1  0.1541840E-007  0.1778828E+04  0.7818608E-02  0.8717640E-01
          2   -1    0    0  501    0  0.00000000000E+00  0.00000000000E+00  0.25635563788E+04  0.25635563788E+04  0.00000000000E+00 0. -1.
         -2   -1    0    0    0  501 -0.00000000000E+00 -0.00000000000E+00 -0.30857807913E+03  0.30857807913E+03  0.00000000000E+00 0.  1.
         23    2    1    2    0    0 -0.20772301351E+03  0.41241628189E+03  0.16227376942E+04  0.16895066220E+04  0.88988546703E+02 0.  0.
        254    2    1    2    0    0  0.20772301351E+03 -0.41241628189E+03  0.63224060545E+03  0.11826278360E+04  0.88636582480E+03 0.  0.
        -24    2    4    4    0    0 -0.23713120889E+03 -0.48018856217E+03  0.37885490760E+03  0.66029441974E+03  0.75135971852E+02 0.  0.
         24    2    4    4    0    0  0.44485422240E+03  0.67772280281E+02  0.25338569785E+03  0.52233341624E+03  0.78355119098E+02 0.  0.
         11    1    3    3    0    0 -0.19990910656E+03  0.36742948116E+03  0.15298336637E+04  0.15859883711E+04  0.00000000000E+00 0. -1.
        -11    1    3    3    0    0 -0.78139069473E+01  0.44986800725E+02  0.92904030501E+02  0.10351825088E+03  0.00000000000E+00 0.  1.
          4    1    6    6  502    0  0.35612597304E+03  0.52965597398E+02  0.23659994769E+03  0.43082548489E+03  0.00000000000E+00 0. -1.
          3    1    5    5  503    0 -0.14622153745E+03 -0.37004197029E+03  0.28412313820E+03  0.48891487546E+03  0.00000000000E+00 0. -1.
         -4    1    5    5    0  503 -0.90909671443E+02 -0.11014659188E+03  0.94731769401E+02  0.17137954429E+03  0.00000000000E+00 0.  1.
         -3    1    6    6    0  502  0.88728249361E+02  0.14806682883E+02  0.16785750156E+02  0.91507931355E+02  0.00000000000E+00 0.  1.
<mgrwt>
<rscale>  0 0.17788280E+04</rscale>
<asrwt>0</asrwt>
<pdfrwt beam="1">  1        2 0.39439327E+00 0.17788280E+04</pdfrwt>
<pdfrwt beam="2">  1       -2 0.47473552E-01 0.17788280E+04</pdfrwt>
<totfact> 0.12731066E+01</totfact>
</mgrwt>
</event>
<event>
12    1  0.1541840E-007  0.1128553E+04  0.7818608E-02  0.9177801E-01
         -2   -1    0    0    0  501 -0.00000000000E+00  0.00000000000E+00  0.13097539715E+04  0.13097539715E+04  0.00000000000E+00 0.  1.
          2   -1    0    0  501    0  0.00000000000E+00 -0.00000000000E+00 -0.24310503203E+03  0.24310503203E+03  0.00000000000E+00 0. -1.
         23    2    1    2    0    0  0.68701093638E+02 -0.42577127783E+02  0.39330277817E+03  0.41331311035E+03  0.98020404994E+02 0.  0.
        254    2    1    2    0    0 -0.68701093638E+02  0.42577127783E+02  0.67334616127E+03  0.11395458931E+04  0.91577133479E+03 0.  0.
        -24    2    4    4    0    0  0.90332449742E+02  0.30742255639E+03  0.74297476883E+03  0.81305514586E+03  0.79866034306E+02 0.  0.
         24    2    4    4    0    0 -0.15903354338E+03 -0.26484542860E+03 -0.69628607564E+02  0.32649074729E+03  0.79456252759E+02 0.  0.
         13    1    3    3    0    0  0.52611339812E+02 -0.44496247523E+02  0.39090666564E+03  0.39693310565E+03  0.00000000000E+00 0.  1.
        -13    1    3    3    0    0  0.16089753826E+02  0.19191197396E+01  0.23961125308E+01  0.16380004701E+02  0.00000000000E+00 0. -1.
          2    1    6    6  502    0  0.19178562368E+00 -0.11427318705E+02  0.11693292773E+02  0.16350947691E+02  0.00000000000E+00 0. -1.
          3    1    5    5  503    0  0.28692056280E+02  0.21419489456E+03  0.53398739502E+03  0.57606008800E+03  0.00000000000E+00 0. -1.
         -4    1    5    5    0  503  0.61640393462E+02  0.93227661827E+02  0.20898737381E+03  0.23699505786E+03  0.00000000000E+00 0.  1.
         -1    1    6    6    0  502 -0.15922532900E+03 -0.25341810990E+03 -0.81321900337E+02  0.31013979960E+03  0.00000000000E+00 0.  1.
<mgrwt>
<rscale>  0 0.11285527E+04</rscale>
<asrwt>0</asrwt>
<pdfrwt beam="1">  1        2 0.37400775E-01 0.11285527E+04</pdfrwt>
<pdfrwt beam="2">  1       -2 0.20150061E+00 0.11285527E+04</pdfrwt>
<totfact> 0.17894970E+01</totfact>
</mgrwt>
</event>
<event>
12    1  0.1541840E-007  0.1678654E+04  0.7818608E-02  0.8773633E-01
         -1   -1    0    0    0  501 -0.00000000000E+00  0.00000000000E+00  0.13983673332E+04  0.13983673332E+04  0.00000000000E+00 0.  1.
          1   -1    0    0  501    0  0.00000000000E+00 -0.00000000000E+00 -0.50378036253E+03  0.50378036253E+03  0.00000000000E+00 0. -1.
         23    2    1    2    0    0  0.51476674261E+03  0.24789599495E+03  0.16132364775E+03  0.60068005181E+03  0.91400118713E+02 0.  0.
        254    2    1    2    0    0 -0.51476674261E+03 -0.24789599495E+03  0.73326332291E+03  0.13014676439E+04  0.91088182758E+03 0.  0.
        -24    2    4    4    0    0 -0.31459091271E+03 -0.48943858377E+03  0.77735510978E+03  0.97465325173E+03  0.84560184329E+02 0.  0.
         24    2    4    4    0    0 -0.20017582991E+03  0.24154258882E+03 -0.44091786868E+02  0.32681439218E+03  0.80314233968E+02 0.  0.
         13    1    3    3    0    0  0.78585240089E+02  0.20708278428E+02 -0.52442117998E+01  0.81436935801E+02  0.00000000000E+00 0. -1.
        -13    1    3    3    0    0  0.43618150253E+03  0.22718771652E+03  0.16656785955E+03  0.51924311600E+03  0.00000000000E+00 0.  1.
          4    1    6    6  502    0 -0.43064499074E+02  0.88915819733E+02  0.15036292145E+02  0.99933298558E+02  0.00000000000E+00 0. -1.
          1    1    5    5  503    0 -0.16348673321E+02 -0.69872163146E+02  0.74339127584E+02  0.10332329937E+03  0.00000000000E+00 0. -1.
         -2    1    5    5    0  503 -0.29824223939E+03 -0.41956642062E+03  0.70301598219E+03  0.87132995236E+03  0.00000000000E+00 0.  1.
         -1    1    6    6    0  502 -0.15711133083E+03  0.15262676909E+03 -0.59128079013E+02  0.22688109363E+03  0.00000000000E+00 0.  1.
<mgrwt>
<rscale>  0 0.16786542E+04</rscale>
<asrwt>0</asrwt>
<pdfrwt beam="1">  1        1 0.77504672E-01 0.16786542E+04</pdfrwt>
<pdfrwt beam="2">  1       -1 0.21513343E+00 0.16786542E+04</pdfrwt>
<totfact> 0.49612676E+00</totfact>
</mgrwt>
</event>
<event>
12    1  0.1541840E-007  0.1244291E+04  0.7818608E-02  0.9074948E-01
         -1   -1    0    0    0  501 -0.00000000000E+00  0.00000000000E+00  0.48711672618E+03  0.48711672618E+03  0.00000000000E+00 0.  1.
          1   -1    0    0  501    0  0.00000000000E+00 -0.00000000000E+00 -0.79460475203E+03  0.79460475203E+03  0.00000000000E+00 0. -1.
         23    2    1    2    0    0 -0.24406279574E+03 -0.89721910114E+02 -0.20841455451E+03  0.34590105016E+03  0.92705126886E+02 0.  0.
        254    2    1    2    0    0  0.24406279574E+03  0.89721910114E+02 -0.99073471344E+02  0.93582042806E+03  0.89349183064E+03 0.  0.
        -24    2    4    4    0    0  0.47563354388E+03  0.75572107996E+02 -0.33652216048E+03  0.59432753101E+03  0.89664028774E+02 0.  0.
         24    2    4    4    0    0 -0.23157074813E+03  0.14149802118E+02  0.23744868914E+03  0.34149289705E+03  0.80064289602E+02 0.  0.
         11    1    3    3    0    0 -0.11101883147E+02 -0.34840899361E+02 -0.23736697376E+02  0.43595537386E+02  0.00000000000E+00 0.  1.
        -11    1    3    3    0    0 -0.23296091260E+03 -0.54881010753E+02 -0.18467785713E+03  0.30230551277E+03  0.00000000000E+00 0. -1.
          4    1    6    6  502    0 -0.22740215201E+03  0.18325828169E+02  0.19942678297E+03  0.30301586837E+03  0.00000000000E+00 0. -1.
          3    1    5    5  503    0  0.47324026839E+03  0.66029922044E+02 -0.31993759303E+03  0.57504466406E+03  0.00000000000E+00 0. -1.
         -4    1    5    5    0  503  0.23932754866E+01  0.95421859522E+01 -0.16584567451E+02  0.19282866951E+02  0.00000000000E+00 0.  1.
         -3    1    6    6    0  502 -0.41685961191E+01 -0.41760260514E+01  0.38021906166E+02  0.38477028676E+02  0.00000000000E+00 0.  1.
<mgrwt>
<rscale>  0 0.12442914E+04</rscale>
<asrwt>0</asrwt>
<pdfrwt beam="1">  1        1 0.12224688E+00 0.12442914E+04</pdfrwt>
<pdfrwt beam="2">  1       -1 0.74941035E-01 0.12442914E+04</pdfrwt>
<totfact> 0.39504751E+01</totfact>
</mgrwt>
</event>
<event>
12    1  0.1541840E-007  0.1011722E+04  0.7818608E-02  0.9295781E-01
         -2   -1    0    0    0  501 -0.00000000000E+00  0.00000000000E+00  0.32925539381E+03  0.32925539381E+03  0.00000000000E+00 0.  1.
          2   -1    0    0  501    0  0.00000000000E+00 -0.00000000000E+00 -0.77719351541E+03  0.77719351541E+03  0.00000000000E+00 0. -1.
         23    2    1    2    0    0  0.55714435656E+02 -0.55503459231E+02 -0.24865724048E+03  0.27570274475E+03  0.89425096522E+02 0.  0.
        254    2    1    2    0    0 -0.55714435656E+02  0.55503459231E+02 -0.19928088112E+03  0.83074616448E+03  0.80264661457E+03 0.  0.
        -24    2    4    4    0    0  0.32461449230E+03 -0.14777492241E+03 -0.12160292211E+03  0.38536251797E+03  0.80653600574E+02 0.  0.
         24    2    4    4    0    0 -0.38032892796E+03  0.20327838164E+03 -0.77677959014E+02  0.44538364651E+03  0.79752952156E+02 0.  0.
         13    1    3    3    0    0 -0.19377969681E+02 -0.58323593856E+01 -0.99028125881E+02  0.10107468447E+03  0.00000000000E+00 0.  1.
        -13    1    3    3    0    0  0.75092405337E+02 -0.49671099845E+02 -0.14962911460E+03  0.17462806028E+03  0.00000000000E+00 0. -1.
          2    1    6    6  502    0 -0.35421899901E+03  0.16198459621E+03 -0.73246853555E+02  0.39632715050E+03  0.00000000000E+00 0. -1.
          3    1    5    5  503    0  0.27498655549E+03 -0.12029387886E+03 -0.68950922876E+02  0.30796501872E+03  0.00000000000E+00 0. -1.
         -4    1    5    5    0  503  0.49627936813E+02 -0.27481043554E+02 -0.52651999231E+02  0.77397499250E+02  0.00000000000E+00 0.  1.
         -1    1    6    6    0  502 -0.26109928947E+02  0.41293785434E+02 -0.44311054591E+01  0.49056496009E+02  0.00000000000E+00 0.  1.
<mgrwt>
<rscale>  0 0.10117216E+04</rscale>
<asrwt>0</asrwt>
<pdfrwt beam="1">  1        2 0.11956823E+00 0.10117216E+04</pdfrwt>
<pdfrwt beam="2">  1       -2 0.50654677E-01 0.10117216E+04</pdfrwt>
<totfact> 0.13160359E+02</totfact>
</mgrwt>
</event>
<event>
12    1  0.1541840E-007  0.2016239E+04  0.7818608E-02  0.8599066E-01
          3   -1    0    0  501    0  0.00000000000E+00  0.00000000000E+00  0.75977615815E+03  0.75977615815E+03  0.00000000000E+00 0. -1.
         -3   -1    0    0    0  501 -0.00000000000E+00 -0.00000000000E+00 -0.13376369455E+04  0.13376369455E+04  0.00000000000E+00 0.  1.
         23    2    1    2    0    0  0.56098115213E+03  0.46477947563E+03  0.12778562982E+03  0.74526396863E+03  0.91484434401E+02 0.  0.
        254    2    1    2    0    0 -0.56098115213E+03 -0.46477947563E+03 -0.70564641720E+03  0.13521491350E+04  0.89423185096E+03 0.  0.
        -24    2    4    4    0    0 -0.37016600567E+03 -0.61175086428E+03 -0.14291184006E+03  0.73356970963E+03  0.80241717052E+02 0.  0.
         24    2    4    4    0    0 -0.19081514646E+03  0.14697138866E+03 -0.56273457714E+03  0.61857942541E+03  0.89214864380E+02 0.  0.
         13    1    3    3    0    0  0.36715979758E+01 -0.16626470211E+01 -0.50654690980E+01  0.64733302090E+01  0.00000000000E+00 0.  1.
        -13    1    3    3    0    0  0.55730955416E+03  0.46644212265E+03  0.13285109892E+03  0.73879063842E+03  0.00000000000E+00 0. -1.
          2    1    6    6  502    0 -0.12735728744E+03  0.14462110218E+03 -0.40368388931E+03  0.44732071755E+03  0.00000000000E+00 0. -1.
          1    1    5    5  503    0 -0.21123644548E+03 -0.34362945357E+03 -0.12097248806E+03  0.42111326282E+03  0.00000000000E+00 0. -1.
         -2    1    5    5    0  503 -0.15892956019E+03 -0.26812141072E+03 -0.21939352000E+02  0.31245644681E+03  0.00000000000E+00 0.  1.
         -1    1    6    6    0  502 -0.63457859021E+02  0.23502864738E+01 -0.15905068783E+03  0.17125870786E+03  0.00000000000E+00 0.  1.
<mgrwt>
<rscale>  0 0.20162387E+04</rscale>
<asrwt>0</asrwt>
<pdfrwt beam="1">  1        3 0.11688864E+00 0.20162387E+04</pdfrwt>
<pdfrwt beam="2">  1       -3 0.20579030E+00 0.20162387E+04</pdfrwt>
<totfact> 0.19706097E-01</totfact>
</mgrwt>
</event>
<event>
12    1  0.1541840E-007  0.2121150E+04  0.7818608E-02  0.8551983E-01
          1   -1    0    0  501    0  0.00000000000E+00  0.00000000000E+00  0.21428737801E+04  0.21428737801E+04  0.00000000000E+00 0. -1.
         -1   -1    0    0    0  501 -0.00000000000E+00 -0.00000000000E+00 -0.52491163998E+03  0.52491163998E+03  0.00000000000E+00 0.  1.
         23    2    1    2    0    0  0.56873223995E+03  0.78587502119E+02  0.14826925902E+04  0.15924670273E+04  0.89115429249E+02 0.  0.
        254    2    1    2    0    0 -0.56873223995E+03 -0.78587502119E+02  0.13526954989E+03  0.10753183928E+04  0.89909923725E+03 0.  0.
        -24    2    4    4    0    0 -0.64999346747E+03  0.23745070974E+03 -0.37366088401E+02  0.69764177757E+03  0.80208964165E+02 0.  0.
         24    2    4    4    0    0  0.81261227520E+02 -0.31603821186E+03  0.17263563830E+03  0.37767661519E+03  0.79705856759E+02 0.  0.
         11    1    3    3    0    0  0.10958957790E+03  0.42983317058E+02  0.24330253520E+03  0.27028422959E+03  0.00000000000E+00 0.  1.
        -11    1    3    3    0    0  0.45914266205E+03  0.35604185061E+02  0.12393900550E+04  0.13221827977E+04  0.00000000000E+00 0. -1.
          2    1    6    6  502    0  0.92617534124E+02 -0.22627065244E+03  0.13830431871E+03  0.28089944883E+03  0.00000000000E+00 0. -1.
          1    1    5    5  503    0 -0.26873876816E+03  0.66352652679E+02 -0.40413146195E+02  0.27974349397E+03  0.00000000000E+00 0. -1.
         -2    1    5    5    0  503 -0.38125469931E+03  0.17109805706E+03  0.30470577940E+01  0.41789828360E+03  0.00000000000E+00 0.  1.
         -1    1    6    6    0  502 -0.11356306604E+02 -0.89767559420E+02  0.34331319587E+02  0.96777166359E+02  0.00000000000E+00 0.  1.
<mgrwt>
<rscale>  0 0.21211501E+04</rscale>
<asrwt>0</asrwt>
<pdfrwt beam="1">  1        1 0.32967288E+00 0.21211501E+04</pdfrwt>
<pdfrwt beam="2">  1       -1 0.80755638E-01 0.21211501E+04</pdfrwt>
<totfact> 0.33440479E+00</totfact>
</mgrwt>
</event>
<event>
12    1  0.1541840E-007  0.2093472E+04  0.7818608E-02  0.8564124E-01
         -2   -1    0    0    0  501 -0.00000000000E+00  0.00000000000E+00  0.29667091311E+04  0.29667091311E+04  0.00000000000E+00 0.  1.
          2   -1    0    0  501    0  0.00000000000E+00 -0.00000000000E+00 -0.36931712731E+03  0.36931712731E+03  0.00000000000E+00 0. -1.
         23    2    1    2    0    0  0.61691080497E+02  0.74940394841E+03  0.16890117025E+04  0.18510721512E+04  0.91079692025E+02 0.  0.
        254    2    1    2    0    0 -0.61691080497E+02 -0.74940394841E+03  0.90838030125E+03  0.14849541072E+04  0.90250864903E+03 0.  0.
        -24    2    4    4    0    0  0.15749117471E+03  0.97640516028E+02 -0.23783884201E+02  0.20402001613E+03  0.81983860327E+02 0.  0.
         24    2    4    4    0    0 -0.21918225521E+03 -0.84704446443E+03  0.93216418545E+03  0.12809340911E+04  0.79604593842E+02 0.  0.
         13    1    3    3    0    0  0.66267999032E+02  0.74506726375E+03  0.16850821242E+04  0.18436427095E+04  0.00000000000E+00 0.  1.
        -13    1    3    3    0    0 -0.45769185354E+01  0.43366846591E+01  0.39295783471E+01  0.74294416411E+01  0.00000000000E+00 0. -1.
          4    1    6    6  502    0 -0.19369616538E+03 -0.63618264737E+03  0.67788220578E+03  0.94961615941E+03  0.00000000000E+00 0. -1.
          1    1    5    5  503    0 -0.68597310270E+00  0.14824408715E+02  0.15226799674E+02  0.21262386535E+02  0.00000000000E+00 0. -1.
         -2    1    5    5    0  503  0.15817714781E+03  0.82816107313E+02 -0.39010683874E+02  0.18275762960E+03  0.00000000000E+00 0.  1.
         -3    1    6    6    0  502 -0.25486089830E+02 -0.21086181706E+03  0.25428197967E+03  0.33131793168E+03  0.00000000000E+00 0.  1.
<mgrwt>
<rscale>  0 0.20934722E+04</rscale>
<asrwt>0</asrwt>
<pdfrwt beam="1">  1        2 0.56818022E-01 0.20934722E+04</pdfrwt>
<pdfrwt beam="2">  1       -2 0.45641677E+00 0.20934722E+04</pdfrwt>
<totfact> 0.25267900E-01</totfact>
</mgrwt>
</event>
<event>
12    1  0.1541840E-007  0.2719039E+04  0.7818608E-02  0.8328854E-01
         -1   -1    0    0    0  501 -0.00000000000E+00  0.00000000000E+00  0.17100991476E+04  0.17100991476E+04  0.00000000000E+00 0.  1.
          1   -1    0    0  501    0  0.00000000000E+00 -0.00000000000E+00 -0.10808106774E+04  0.10808106774E+04  0.00000000000E+00 0. -1.
         23    2    1    2    0    0  0.66556157585E+02  0.87792374205E+03  0.11317643001E+04  0.14369377511E+04  0.93380139629E+02 0.  0.
        254    2    1    2    0    0 -0.66556157585E+02 -0.87792374205E+03 -0.50247582991E+03  0.13539720739E+04  0.89754030455E+03 0.  0.
        -24    2    4    4    0    0 -0.30410936775E+03 -0.36463678273E+03  0.13294684455E+03  0.49947130568E+03  0.79713429555E+02 0.  0.
         24    2    4    4    0    0  0.23755321016E+03 -0.51328695932E+03 -0.63542267446E+03  0.85450076822E+03  0.80712808182E+02 0.  0.
         11    1    3    3    0    0  0.15983320897E+02  0.45386340951E+03  0.51348340341E+03  0.68550176267E+03  0.00000000000E+00 0. -1.
        -11    1    3    3    0    0  0.50572836688E+02  0.42406033254E+03  0.61828089671E+03  0.75143598841E+03  0.00000000000E+00 0.  1.
          2    1    6    6  502    0  0.23475471949E+02 -0.87917389494E+02 -0.14288397362E+03  0.16940010353E+03  0.00000000000E+00 0. -1.
          3    1    5    5  503    0  0.20332295380E+01 -0.15796562860E+01 -0.44062653115E+01  0.51033822443E+01  0.00000000000E+00 0. -1.
         -4    1    5    5    0  503 -0.30614259728E+03 -0.36305712645E+03  0.13735310986E+03  0.49436792344E+03  0.00000000000E+00 0.  1.
         -1    1    6    6    0  502  0.21407773821E+03 -0.42536956983E+03 -0.49253870084E+03  0.68510066469E+03  0.00000000000E+00 0.  1.
<mgrwt>
<rscale>  0 0.27190391E+04</rscale>
<asrwt>0</asrwt>
<pdfrwt beam="1">  1        1 0.16627857E+00 0.27190391E+04</pdfrwt>
<pdfrwt beam="2">  1       -1 0.26309218E+00 0.27190391E+04</pdfrwt>
<totfact> 0.65467518E-01</totfact>
</mgrwt>
</event>
<event>
12    1  0.1541840E-007  0.2717535E+04  0.7818608E-02  0.8329338E-01
          1   -1    0    0  501    0  0.00000000000E+00  0.00000000000E+00  0.14366307049E+04  0.14366307049E+04  0.00000000000E+00 0. -1.
         -1   -1    0    0    0  501 -0.00000000000E+00 -0.00000000000E+00 -0.12851239312E+04  0.12851239312E+04  0.00000000000E+00 0.  1.
         23    2    1    2    0    0 -0.11580554481E+03  0.52064937507E+03 -0.10130355400E+04  0.11484310735E+04  0.90367191304E+02 0.  0.
        254    2    1    2    0    0  0.11580554481E+03 -0.52064937507E+03  0.11645423137E+04  0.15733235627E+04  0.91362001757E+03 0.  0.
        -24    2    4    4    0    0  0.47486792739E+03 -0.13523572806E+03  0.39594173461E+03  0.63800597445E+03  0.80582352994E+02 0.  0.
         24    2    4    4    0    0 -0.35906238258E+03 -0.38541364701E+03  0.76860057911E+03  0.93531758825E+03  0.81256795324E+02 0.  0.
         13    1    3    3    0    0 -0.14962401849E+02  0.10642511651E+02 -0.17706378540E+02  0.25507888277E+02  0.00000000000E+00 0. -1.
        -13    1    3    3    0    0 -0.10084314296E+03  0.51000686342E+03 -0.99532916148E+03  0.11229231852E+04  0.00000000000E+00 0.  1.
          2    1    6    6  502    0 -0.22748528261E+03 -0.21471140278E+03  0.39325056929E+03  0.50249034870E+03  0.00000000000E+00 0. -1.
          3    1    5    5  503    0  0.42756703903E+03 -0.12290552927E+03  0.38400103916E+03  0.58768711068E+03  0.00000000000E+00 0. -1.
         -4    1    5    5    0  503  0.47300888369E+02 -0.12330198789E+02  0.11940695446E+02  0.50318863763E+02  0.00000000000E+00 0.  1.
         -1    1    6    6    0  502 -0.13157709997E+03 -0.17070224423E+03  0.37535000982E+03  0.43282723955E+03  0.00000000000E+00 0.  1.
<mgrwt>
<rscale>  0 0.27175345E+04</rscale>
<asrwt>0</asrwt>
<pdfrwt beam="1">  1        1 0.22102011E+00 0.27175345E+04</pdfrwt>
<pdfrwt beam="2">  1       -1 0.19771137E+00 0.27175345E+04</pdfrwt>
<totfact> 0.98555245E-01</totfact>
</mgrwt>
</event>
<event>
12    1  0.1541840E-007  0.1093719E+04  0.7818608E-02  0.9211336E-01
         -2   -1    0    0    0  501 -0.00000000000E+00  0.00000000000E+00  0.11778059788E+03  0.11778059788E+03  0.00000000000E+00 0.  1.
          2   -1    0    0  501    0  0.00000000000E+00 -0.00000000000E+00 -0.25390866554E+04  0.25390866554E+04  0.00000000000E+00 0. -1.
         23    2    1    2    0    0  0.14214184663E+03  0.69906402450E+02 -0.16418252877E+03  0.24566239581E+03  0.91120251853E+02 0.  0.
        254    2    1    2    0    0 -0.14214184663E+03 -0.69906402450E+02 -0.22571235287E+04  0.24112048575E+04  0.83319327346E+03 0.  0.
        -24    2    4    4    0    0  0.15209961790E+03  0.21935216937E+03 -0.29962524839E+03  0.40908332586E+03  0.79524902063E+02 0.  0.
         24    2    4    4    0    0 -0.29424146452E+03 -0.28925857182E+03 -0.19574982804E+04  0.20021215316E+04  0.80265490056E+02 0.  0.
         11    1    3    3    0    0 -0.12344204608E+02  0.13186538984E+02 -0.18844323124E+02  0.26103116898E+02  0.00000000000E+00 0. -1.
        -11    1    3    3    0    0  0.15448605124E+03  0.56719863466E+02 -0.14533820565E+03  0.21955927892E+03  0.00000000000E+00 0.  1.
          2    1    6    6  502    0 -0.17918407758E+03 -0.22803744783E+03 -0.13481866442E+04  0.13790269173E+04  0.00000000000E+00 0. -1.
          3    1    5    5  503    0  0.65503650422E+02  0.15091086534E+03 -0.21084056604E+03  0.26742954546E+03  0.00000000000E+00 0. -1.
         -4    1    5    5    0  503  0.86595967475E+02  0.68441304027E+02 -0.88784682346E+02  0.14165378039E+03  0.00000000000E+00 0.  1.
         -1    1    6    6    0  502 -0.11505738695E+03 -0.61221123993E+02 -0.60931163620E+03  0.62309461426E+03  0.00000000000E+00 0.  1.
<mgrwt>
<rscale>  0 0.10937187E+04</rscale>
<asrwt>0</asrwt>
<pdfrwt beam="1">  1        2 0.39062874E+00 0.10937187E+04</pdfrwt>
<pdfrwt beam="2">  1       -2 0.18120091E-01 0.10937187E+04</pdfrwt>
<totfact> 0.84145832E+01</totfact>
</mgrwt>
</event>
<event>
12    1  0.1541840E-007  0.1224116E+04  0.7818608E-02  0.9092006E-01
          1   -1    0    0  501    0  0.00000000000E+00  0.00000000000E+00  0.18269600252E+04  0.18269600252E+04  0.00000000000E+00 0. -1.
         -1   -1    0    0    0  501 -0.00000000000E+00 -0.00000000000E+00 -0.20504821705E+03  0.20504821705E+03  0.00000000000E+00 0.  1.
         23    2    1    2    0    0  0.21516224103E+03 -0.45377113537E+02  0.63400042307E+03  0.67726738194E+03  0.91546151095E+02 0.  0.
        254    2    1    2    0    0 -0.21516224103E+03  0.45377113537E+02  0.98791138504E+03  0.13547408603E+04  0.90055539607E+03 0.  0.
        -24    2    4    4    0    0  0.81030384824E+02  0.35306766221E+03  0.12943253021E+03  0.39282360461E+03  0.79592129631E+02 0.  0.
         24    2    4    4    0    0 -0.29619262586E+03 -0.30769054867E+03  0.85847885484E+03  0.96191725566E+03  0.76780968877E+02 0.  0.
         11    1    3    3    0    0  0.18764548218E+02 -0.13376240492E+02  0.18136746465E+03  0.18282557073E+03  0.00000000000E+00 0.  1.
        -11    1    3    3    0    0  0.19639769281E+03 -0.32000873045E+02  0.45263295843E+03  0.49444181121E+03  0.00000000000E+00 0. -1.
          4    1    6    6  502    0 -0.48507280405E+02 -0.81336573547E+02  0.24514720680E+03  0.26280362906E+03  0.00000000000E+00 0. -1.
          1    1    5    5  503    0 -0.11649665428E+02  0.11068829946E+03  0.34821075027E+02  0.11661955929E+03  0.00000000000E+00 0. -1.
         -2    1    5    5    0  503  0.92680050252E+02  0.24237936275E+03  0.94611455179E+02  0.27620404532E+03  0.00000000000E+00 0.  1.
         -3    1    6    6    0  502 -0.24768534545E+03 -0.22635397513E+03  0.61333164804E+03  0.69911362660E+03  0.00000000000E+00 0.  1.
<mgrwt>
<rscale>  0 0.12241158E+04</rscale>
<asrwt>0</asrwt>
<pdfrwt beam="1">  1        1 0.28107076E+00 0.12241158E+04</pdfrwt>
<pdfrwt beam="2">  1       -1 0.31545881E-01 0.12241158E+04</pdfrwt>
<totfact> 0.36064687E+01</totfact>
</mgrwt>
</event>
<event>
12    1  0.1541840E-007  0.2258655E+04  0.7818608E-02  0.8494403E-01
         -1   -1    0    0    0  501 -0.00000000000E+00  0.00000000000E+00  0.48176196947E+03  0.48176196947E+03  0.00000000000E+00 0.  1.
          1   -1    0    0  501    0  0.00000000000E+00 -0.00000000000E+00 -0.26473259993E+04  0.26473259993E+04  0.00000000000E+00 0. -1.
         23    2    1    2    0    0 -0.39879425005E+03  0.68981390146E+03 -0.22504410902E+03  0.83301802522E+03  0.91619358378E+02 0.  0.
        254    2    1    2    0    0  0.39879425005E+03 -0.68981390146E+03 -0.19405199208E+04  0.22960699436E+04  0.93350926623E+03 0.  0.
        -24    2    4    4    0    0  0.19804217604E+03  0.20866304987E+03 -0.53430261834E+03  0.61316997920E+03  0.87961148003E+02 0.  0.
         24    2    4    4    0    0  0.20075207401E+03 -0.89847695132E+03 -0.14062173025E+04  0.16828999644E+04  0.84516039835E+02 0.  0.
         13    1    3    3    0    0 -0.30926191306E+03  0.57781917367E+03 -0.21304016338E+03  0.68913281706E+03  0.00000000000E+00 0. -1.
        -13    1    3    3    0    0 -0.89532336994E+02  0.11199472778E+03 -0.12003945642E+02  0.14388520817E+03  0.00000000000E+00 0.  1.
          4    1    6    6  502    0  0.14027174417E+02 -0.23018480429E+03 -0.35258247458E+03  0.42130298732E+03  0.00000000000E+00 0. -1.
          3    1    5    5  503    0  0.44236824027E+02  0.44885833149E+01 -0.95418675311E+02  0.10526997472E+03  0.00000000000E+00 0. -1.
         -4    1    5    5    0  503  0.15380535201E+03  0.20417446655E+03 -0.43888394303E+03  0.50790000448E+03  0.00000000000E+00 0.  1.
         -3    1    6    6    0  502  0.18672489959E+03 -0.66829214704E+03 -0.10536348279E+04  0.12615969771E+04  0.00000000000E+00 0.  1.
<mgrwt>
<rscale>  0 0.22586553E+04</rscale>
<asrwt>0</asrwt>
<pdfrwt beam="1">  1        1 0.40728091E+00 0.22586553E+04</pdfrwt>
<pdfrwt beam="2">  1       -1 0.74117228E-01 0.22586553E+04</pdfrwt>
<totfact> 0.17772560E+00</totfact>
</mgrwt>
</event>
<event>
12    1  0.1541840E-007  0.1621944E+04  0.7818608E-02  0.8807179E-01
          2   -1    0    0  501    0  0.00000000000E+00  0.00000000000E+00  0.24114070584E+04  0.24114070584E+04  0.00000000000E+00 0. -1.
         -2   -1    0    0    0  501 -0.00000000000E+00 -0.00000000000E+00 -0.27273508072E+03  0.27273508072E+03  0.00000000000E+00 0.  1.
         23    2    1    2    0    0  0.73375500975E+01  0.22785483290E+03  0.15628223514E+04  0.15819294399E+04  0.90085439756E+02 0.  0.
        254    2    1    2    0    0 -0.73375500975E+01 -0.22785483290E+03  0.57584962635E+03  0.11022126992E+04  0.91175565677E+03 0.  0.
        -24    2    4    4    0    0 -0.10562283402E+03 -0.25243489268E+03 -0.17869859218E+03  0.33665695444E+03  0.80778462566E+02 0.  0.
         24    2    4    4    0    0  0.98285283926E+02  0.24580059782E+02  0.75454821853E+03  0.76555574479E+03  0.80426413056E+02 0.  0.
         11    1    3    3    0    0 -0.31468364513E+02  0.30012363821E+02  0.28663094805E+03  0.28991084893E+03  0.00000000000E+00 0.  1.
        -11    1    3    3    0    0  0.38805914611E+02  0.19784246908E+03  0.12761914033E+04  0.12920185910E+04  0.00000000000E+00 0. -1.
          2    1    6    6  502    0  0.80474073208E+01  0.30849527674E+02  0.10482622156E+03  0.10956728914E+03  0.00000000000E+00 0. -1.
          3    1    5    5  503    0 -0.34940038708E+02 -0.17798689610E+03 -0.12916381937E+03  0.22267337902E+03  0.00000000000E+00 0. -1.
         -4    1    5    5    0  503 -0.70682795316E+02 -0.74447996583E+02 -0.49534772805E+02  0.11398357542E+03  0.00000000000E+00 0.  1.
         -1    1    6    6    0  502  0.90237876605E+02 -0.62694678917E+01  0.64972199696E+03  0.65598845565E+03  0.00000000000E+00 0.  1.
<mgrwt>
<rscale>  0 0.16219436E+04</rscale>
<asrwt>0</asrwt>
<pdfrwt beam="1">  1        2 0.37098569E+00 0.16219436E+04</pdfrwt>
<pdfrwt beam="2">  1       -2 0.41959245E-01 0.16219436E+04</pdfrwt>
<totfact> 0.20211411E+01</totfact>
</mgrwt>
</event>
<event>
12    1  0.1541840E-007  0.2896303E+04  0.7818608E-02  0.8273978E-01
          2   -1    0    0  501    0  0.00000000000E+00  0.00000000000E+00  0.84007036262E+03  0.84007036262E+03  0.00000000000E+00 0. -1.
         -2   -1    0    0    0  501 -0.00000000000E+00 -0.00000000000E+00 -0.24963898692E+04  0.24963898692E+04  0.00000000000E+00 0.  1.
         23    2    1    2    0    0  0.24269084847E+03  0.77421976700E+03 -0.19246768796E+04  0.20907644082E+04  0.92734158304E+02 0.  0.
        254    2    1    2    0    0 -0.24269084847E+03 -0.77421976700E+03  0.26835737304E+03  0.12456958236E+04  0.90632627115E+03 0.  0.
        -24    2    4    4    0    0 -0.49411163984E+03 -0.76803848416E+03  0.33116526423E+03  0.97445908203E+03  0.76620131368E+02 0.  0.
         24    2    4    4    0    0  0.25142079137E+03 -0.61812828388E+01 -0.62807891195E+02  0.27123674159E+03  0.79836809818E+02 0.  0.
         11    1    3    3    0    0  0.23947543480E+03  0.75446543834E+03 -0.19040120747E+04  0.20619962565E+04  0.00000000000E+00 0.  1.
        -11    1    3    3    0    0  0.32154136661E+01  0.19754328665E+02 -0.20664804941E+02  0.28768151649E+02  0.00000000000E+00 0. -1.
          4    1    6    6  502    0  0.96645242504E+02 -0.40753902053E+02 -0.32222237150E+02  0.10972445488E+03  0.00000000000E+00 0. -1.
          3    1    5    5  503    0 -0.15500479993E+03 -0.21922960993E+03  0.13271538096E+03  0.29950205712E+03  0.00000000000E+00 0. -1.
         -4    1    5    5    0  503 -0.33910683991E+03 -0.54880887423E+03  0.19844988327E+03  0.67495702491E+03  0.00000000000E+00 0.  1.
         -3    1    6    6    0  502  0.15477554887E+03  0.34572619214E+02 -0.30585654044E+02  0.16151228672E+03  0.00000000000E+00 0.  1.
<mgrwt>
<rscale>  0 0.28963033E+04</rscale>
<asrwt>0</asrwt>
<pdfrwt beam="1">  1        2 0.12924159E+00 0.28963033E+04</pdfrwt>
<pdfrwt beam="2">  1       -2 0.38405998E+00 0.28963033E+04</pdfrwt>
<totfact> 0.26232468E-01</totfact>
</mgrwt>
</event>
<event>
12    1  0.1541840E-007  0.2713359E+04  0.7818608E-02  0.8330683E-01
          1   -1    0    0  501    0  0.00000000000E+00  0.00000000000E+00  0.12464233750E+04  0.12464233750E+04  0.00000000000E+00 0. -1.
         -1   -1    0    0    0  501 -0.00000000000E+00 -0.00000000000E+00 -0.14766888051E+04  0.14766888051E+04  0.00000000000E+00 0.  1.
         23    2    1    2    0    0 -0.79547016963E+03 -0.35222718035E+03 -0.94537246528E+03  0.12885337616E+04  0.98759198100E+02 0.  0.
        254    2    1    2    0    0  0.79547016963E+03  0.35222718035E+03  0.71510703521E+03  0.14345784186E+04  0.88870714517E+03 0.  0.
        -24    2    4    4    0    0  0.59595094396E+03  0.32616719418E+03  0.91397248643E+03  0.11416268189E+04  0.80146874472E+02 0.  0.
         24    2    4    4    0    0  0.19951922566E+03  0.26059986163E+02 -0.19886545123E+03  0.29295159967E+03  0.76066600895E+02 0.  0.
         13    1    3    3    0    0 -0.98750095864E+02 -0.13676680954E+02 -0.13065470608E+03  0.16434501895E+03  0.00000000000E+00 0. -1.
        -13    1    3    3    0    0 -0.69672007376E+03 -0.33855049939E+03 -0.81471775921E+03  0.11241887426E+04  0.00000000000E+00 0.  1.
          4    1    6    6  502    0  0.35117866337E+02  0.30025080936E+02 -0.21122959735E+02  0.50803045669E+02  0.00000000000E+00 0. -1.
          1    1    5    5  503    0  0.36892116369E+01  0.11968252555E+02  0.92772438861E+01  0.15585782170E+02  0.00000000000E+00 0. -1.
         -2    1    5    5    0  503  0.59226173233E+03  0.31419894163E+03  0.90469524255E+03  0.11260410367E+04  0.00000000000E+00 0.  1.
         -3    1    6    6    0  502  0.16440135933E+03 -0.39650947732E+01 -0.17774249149E+03  0.24214855401E+03  0.00000000000E+00 0.  1.
<mgrwt>
<rscale>  0 0.27133591E+04</rscale>
<asrwt>0</asrwt>
<pdfrwt beam="1">  1        1 0.19175744E+00 0.27133591E+04</pdfrwt>
<pdfrwt beam="2">  1       -1 0.22718289E+00 0.27133591E+04</pdfrwt>
<totfact> 0.84965803E-01</totfact>
</mgrwt>
</event>
<event>
12    1  0.1541840E-007  0.1695420E+04  0.7818608E-02  0.8763981E-01
         -2   -1    0    0    0  501 -0.00000000000E+00  0.00000000000E+00  0.98869524419E+03  0.98869524419E+03  0.00000000000E+00 0.  1.
          2   -1    0    0  501    0  0.00000000000E+00 -0.00000000000E+00 -0.72682886692E+03  0.72682886692E+03  0.00000000000E+00 0. -1.
         23    2    1    2    0    0  0.50640444883E+03  0.68855308273E+02 -0.22750482625E+03  0.56796085866E+03  0.98155854272E+02 0.  0.
        254    2    1    2    0    0 -0.50640444883E+03 -0.68855308273E+02  0.48937120352E+03  0.11475632525E+04  0.90345488225E+03 0.  0.
        -24    2    4    4    0    0 -0.67314498297E+03 -0.90822116354E+02  0.61745124693E+03  0.92147425156E+03  0.80597326447E+02 0.  0.
         24    2    4    4    0    0  0.16674053414E+03  0.21966808080E+02 -0.12808004341E+03  0.22608900089E+03  0.80167277766E+02 0.  0.
         11    1    3    3    0    0  0.28012998263E+03  0.86807144627E+01 -0.80884962808E+02  0.29170282683E+03  0.00000000000E+00 0. -1.
        -11    1    3    3    0    0  0.22627446620E+03  0.60174593810E+02 -0.14661986344E+03  0.27625803183E+03  0.00000000000E+00 0.  1.
          2    1    6    6  502    0  0.90557603965E+02 -0.85871026657E+01 -0.10872050958E+03  0.14175530738E+03  0.00000000000E+00 0. -1.
          3    1    5    5  503    0 -0.10733934746E+03 -0.32951445230E+02  0.13552513387E+03  0.17599600895E+03  0.00000000000E+00 0. -1.
         -4    1    5    5    0  503 -0.56580563551E+03 -0.57870671124E+02  0.48192611307E+03  0.74547824261E+03  0.00000000000E+00 0.  1.
         -1    1    6    6    0  502  0.76182930172E+02  0.30553910746E+02 -0.19359533832E+02  0.84333693514E+02  0.00000000000E+00 0.  1.
<mgrwt>
<rscale>  0 0.16954200E+04</rscale>
<asrwt>0</asrwt>
<pdfrwt beam="1">  1        2 0.11181983E+00 0.16954200E+04</pdfrwt>
<pdfrwt beam="2">  1       -2 0.15210696E+00 0.16954200E+04</pdfrwt>
<totfact> 0.10726444E+01</totfact>
</mgrwt>
</event>
<event>
12    1  0.1541840E-007  0.1273974E+04  0.7818608E-02  0.9050462E-01
         -1   -1    0    0    0  501 -0.00000000000E+00  0.00000000000E+00  0.41331026734E+03  0.41331026734E+03  0.00000000000E+00 0.  1.
          1   -1    0    0  501    0  0.00000000000E+00 -0.00000000000E+00 -0.98171439080E+03  0.98171439080E+03  0.00000000000E+00 0. -1.
         23    2    1    2    0    0 -0.13523326419E+03  0.12715885186E+03 -0.41620466498E+03  0.46506339116E+03  0.92737399659E+02 0.  0.
        254    2    1    2    0    0  0.13523326419E+03 -0.12715885186E+03 -0.15219945848E+03  0.92996126699E+03  0.89844636656E+03 0.  0.
        -24    2    4    4    0    0  0.38016170967E+02 -0.35618949891E+03  0.25463134912E+03  0.44642329540E+03  0.78361000076E+02 0.  0.
         24    2    4    4    0    0  0.97217093218E+02  0.22903064705E+03 -0.40683080760E+03  0.48353797159E+03  0.79946628797E+02 0.  0.
         11    1    3    3    0    0 -0.19904410297E+02  0.35110307467E+02 -0.26304560811E+02  0.48175192362E+02  0.00000000000E+00 0.  1.
        -11    1    3    3    0    0 -0.11532885389E+03  0.92048544394E+02 -0.38990010417E+03  0.41688819879E+03  0.00000000000E+00 0. -1.
          4    1    6    6  502    0  0.33107409248E+02  0.29443689384E+02 -0.12262456789E+03  0.13038334265E+03  0.00000000000E+00 0. -1.
          1    1    5    5  503    0 -0.83435559448E+01 -0.15434398471E+03  0.14572873683E+03  0.21243480242E+03  0.00000000000E+00 0. -1.
         -2    1    5    5    0  503  0.46359726912E+02 -0.20184551420E+03  0.10890261228E+03  0.23398849298E+03  0.00000000000E+00 0.  1.
         -3    1    6    6    0  502  0.64109683970E+02  0.19958695767E+03 -0.28420623971E+03  0.35315462894E+03  0.00000000000E+00 0.  1.
<mgrwt>
<rscale>  0 0.12739743E+04</rscale>
<asrwt>0</asrwt>
<pdfrwt beam="1">  1        1 0.15103298E+00 0.12739743E+04</pdfrwt>
<pdfrwt beam="2">  1       -1 0.63586195E-01 0.12739743E+04</pdfrwt>
<totfact> 0.38623682E+01</totfact>
</mgrwt>
</event>
<event>
12    1  0.1541840E-007  0.1265612E+04  0.7818608E-02  0.9057288E-01
          1   -1    0    0  501    0  0.00000000000E+00  0.00000000000E+00  0.10326025435E+04  0.10326025435E+04  0.00000000000E+00 0. -1.
         -1   -1    0    0    0  501 -0.00000000000E+00 -0.00000000000E+00 -0.38780041286E+03  0.38780041286E+03  0.00000000000E+00 0.  1.
         23    2    1    2    0    0  0.64855863511E+02  0.25101977536E+03 -0.10623613691E+02  0.27507097729E+03  0.91290583990E+02 0.  0.
        254    2    1    2    0    0 -0.64855863511E+02 -0.25101977536E+03  0.65542574434E+03  0.11453319791E+04  0.90276532127E+03 0.  0.
        -24    2    4    4    0    0  0.33624096213E+03  0.12430510816E+03  0.36909442255E+03  0.52065916606E+03  0.79658834522E+02 0.  0.
         24    2    4    4    0    0 -0.40109682564E+03 -0.37532488352E+03  0.28633132180E+03  0.62467281302E+03  0.80517487223E+02 0.  0.
         13    1    3    3    0    0  0.29154757692E+02  0.23309833392E+03 -0.96296844803E+01  0.23511181169E+03  0.00000000000E+00 0.  1.
        -13    1    3    3    0    0  0.35701105819E+02  0.17921441435E+02 -0.99392921063E+00  0.39959165595E+02  0.00000000000E+00 0. -1.
          4    1    6    6  502    0 -0.21405260800E+03 -0.17783917728E+03  0.10340661332E+03  0.29688081725E+03  0.00000000000E+00 0. -1.
          3    1    5    5  503    0  0.33875988611E+03  0.12488439644E+03  0.37081818632E+03  0.51755241302E+03  0.00000000000E+00 0. -1.
         -4    1    5    5    0  503 -0.25189239787E+01 -0.57928827669E+00 -0.17237637766E+01  0.31067530439E+01  0.00000000000E+00 0.  1.
         -3    1    6    6    0  502 -0.18704421764E+03 -0.19748570624E+03  0.18292470847E+03  0.32779199577E+03  0.00000000000E+00 0.  1.
<mgrwt>
<rscale>  0 0.12656124E+04</rscale>
<asrwt>0</asrwt>
<pdfrwt beam="1">  1        1 0.15886193E+00 0.12656124E+04</pdfrwt>
<pdfrwt beam="2">  1       -1 0.59661602E-01 0.12656124E+04</pdfrwt>
<totfact> 0.40043583E+01</totfact>
</mgrwt>
</event>
<event>
12    1  0.1541840E-007  0.1689117E+04  0.7818608E-02  0.8767596E-01
          1   -1    0    0  501    0  0.00000000000E+00  0.00000000000E+00  0.10184297659E+04  0.10184297659E+04  0.00000000000E+00 0. -1.
         -1   -1    0    0    0  501 -0.00000000000E+00 -0.00000000000E+00 -0.70037173797E+03  0.70037173797E+03  0.00000000000E+00 0.  1.
         23    2    1    2    0    0 -0.69433613574E+02 -0.19448921080E+03 -0.46133168844E+03  0.51447750732E+03  0.95984889291E+02 0.  0.
        254    2    1    2    0    0  0.69433613574E+02  0.19448921080E+03  0.77938971631E+03  0.12043239965E+04  0.89459537158E+03 0.  0.
        -24    2    4    4    0    0 -0.19300599895E+02  0.53275548871E+03  0.34123001502E+03  0.63818031896E+03  0.81457181672E+02 0.  0.
         24    2    4    4    0    0  0.88734213469E+02 -0.33826627792E+03  0.43815970129E+03  0.56614367755E+03  0.78974074052E+02 0.  0.
         13    1    3    3    0    0 -0.49267426736E+02 -0.17159020775E+03 -0.29071220367E+03  0.34115108690E+03  0.00000000000E+00 0.  1.
        -13    1    3    3    0    0 -0.20166186838E+02 -0.22899003045E+02 -0.17061948477E+03  0.17332642042E+03  0.00000000000E+00 0. -1.
          4    1    6    6  502    0  0.27955587581E+02 -0.19918066740E+03  0.19940605905E+03  0.28322646333E+03  0.00000000000E+00 0. -1.
          1    1    5    5  503    0  0.14577699895E+02  0.66441018339E+02  0.19936685113E+02  0.70882929295E+02  0.00000000000E+00 0. -1.
         -2    1    5    5    0  503 -0.33878299790E+02  0.46631447037E+03  0.32129332991E+03  0.56729738966E+03  0.00000000000E+00 0.  1.
         -3    1    6    6    0  502  0.60778625888E+02 -0.13908561052E+03  0.23875364224E+03  0.28291721422E+03  0.00000000000E+00 0.  1.
<mgrwt>
<rscale>  0 0.16891174E+04</rscale>
<asrwt>0</asrwt>
<pdfrwt beam="1">  1        1 0.15668150E+00 0.16891174E+04</pdfrwt>
<pdfrwt beam="2">  1       -1 0.10774950E+00 0.16891174E+04</pdfrwt>
<totfact> 0.11175147E+01</totfact>
</mgrwt>
</event>
<event>
12    1  0.1541840E-007  0.2106924E+04  0.7818608E-02  0.8558199E-01
          2   -1    0    0  501    0  0.00000000000E+00  0.00000000000E+00  0.80404139474E+03  0.80404139474E+03  0.00000000000E+00 0. -1.
         -2   -1    0    0    0  501 -0.00000000000E+00 -0.00000000000E+00 -0.13802550450E+04  0.13802550450E+04  0.00000000000E+00 0.  1.
         23    2    1    2    0    0  0.38951168642E+03  0.76567483473E+03 -0.27371143103E+03  0.90548917738E+03  0.83757963608E+02 0.  0.
        254    2    1    2    0    0 -0.38951168642E+03 -0.76567483473E+03 -0.30250221926E+03  0.12788072624E+04  0.89769878872E+03 0.  0.
        -24    2    4    4    0    0  0.13605195240E+03 -0.31972111977E+03  0.21153975147E+03  0.41453939686E+03  0.79762879324E+02 0.  0.
         24    2    4    4    0    0 -0.52556363882E+03 -0.44595371496E+03 -0.51404197073E+03  0.86426786552E+03  0.87338086593E+02 0.  0.
         11    1    3    3    0    0  0.36551510980E+03  0.74521535947E+03 -0.25288071713E+03  0.86769573272E+03  0.00000000000E+00 0. -1.
        -11    1    3    3    0    0  0.23996576625E+02  0.20459475265E+02 -0.20830713897E+02  0.37793444660E+02  0.00000000000E+00 0.  1.
          2    1    6    6  502    0 -0.51539700743E+03 -0.44921221144E+03 -0.50211123925E+03  0.84825785157E+03  0.00000000000E+00 0. -1.
          3    1    5    5  503    0  0.11358671037E+03 -0.26098788079E+03  0.13369599323E+03  0.31446976532E+03  0.00000000000E+00 0. -1.
         -4    1    5    5    0  503  0.22465242027E+02 -0.58733238981E+02  0.77843758237E+02  0.10006963154E+03  0.00000000000E+00 0.  1.
         -1    1    6    6    0  502 -0.10166631397E+02  0.32584964772E+01 -0.11930731479E+02  0.16010013956E+02  0.00000000000E+00 0.  1.
<mgrwt>
<rscale>  0 0.21069240E+04</rscale>
<asrwt>0</asrwt>
<pdfrwt beam="1">  1        2 0.12369868E+00 0.21069240E+04</pdfrwt>
<pdfrwt beam="2">  1       -2 0.21234693E+00 0.21069240E+04</pdfrwt>
<totfact> 0.34836720E+00</totfact>
</mgrwt>
</event>
<event>
12    1  0.1541840E-007  0.1367729E+04  0.7818608E-02  0.8977515E-01
          1   -1    0    0  501    0  0.00000000000E+00  0.00000000000E+00  0.26706472735E+04  0.26706472735E+04  0.00000000000E+00 0. -1.
         -1   -1    0    0    0  501 -0.00000000000E+00 -0.00000000000E+00 -0.17511498459E+03  0.17511498459E+03  0.00000000000E+00 0.  1.
         23    2    1    2    0    0  0.21729661185E+02 -0.55963533537E+02  0.14911182463E+04  0.14951269527E+04  0.91470678657E+02 0.  0.
        254    2    1    2    0    0 -0.21729661185E+02  0.55963533537E+02  0.10044140426E+04  0.13506353054E+04  0.90097950245E+03 0.  0.
        -24    2    4    4    0    0  0.41734985927E+03 -0.86316622431E+02  0.51302880997E+03  0.67180951648E+03  0.80610186875E+02 0.  0.
         24    2    4    4    0    0 -0.43907952045E+03  0.14228015597E+03  0.49138523266E+03  0.67882578890E+03  0.79438886844E+02 0.  0.
         13    1    3    3    0    0 -0.20882625999E+02  0.14968161316E+02  0.27540643155E+03  0.27660230018E+03  0.00000000000E+00 0.  1.
        -13    1    3    3    0    0  0.42612287185E+02 -0.70931694854E+02  0.12157118148E+04  0.12185246526E+04  0.00000000000E+00 0. -1.
          4    1    6    6  502    0 -0.58124753485E+02  0.30014055597E+02  0.11131358957E+03  0.12911253124E+03  0.00000000000E+00 0. -1.
          3    1    5    5  503    0  0.39220767878E+02 -0.28556806498E+02  0.84130399798E+02  0.97116857447E+02  0.00000000000E+00 0. -1.
         -4    1    5    5    0  503  0.37812909139E+03 -0.57759815933E+02  0.42889841017E+03  0.57469265903E+03  0.00000000000E+00 0.  1.
         -3    1    6    6    0  502 -0.38095476697E+03  0.11226610037E+03  0.38007164309E+03  0.54971325766E+03  0.00000000000E+00 0.  1.
<mgrwt>
<rscale>  0 0.13677286E+04</rscale>
<asrwt>0</asrwt>
<pdfrwt beam="1">  1        1 0.41086878E+00 0.13677286E+04</pdfrwt>
<pdfrwt beam="2">  1       -1 0.26940769E-01 0.13677286E+04</pdfrwt>
<totfact> 0.12452372E+01</totfact>
</mgrwt>
</event>
<event>
12    1  0.1541840E-007  0.1820334E+04  0.7818608E-02  0.8695560E-01
         -1   -1    0    0    0  501 -0.00000000000E+00  0.00000000000E+00  0.24049360563E+04  0.24049360563E+04  0.00000000000E+00 0.  1.
          1   -1    0    0  501    0  0.00000000000E+00 -0.00000000000E+00 -0.34445995057E+03  0.34445995057E+03  0.00000000000E+00 0. -1.
         23    2    1    2    0    0  0.47561643077E+03  0.10156963228E+03  0.14956081890E+04  0.15753544263E+04  0.91489529515E+02 0.  0.
        254    2    1    2    0    0 -0.47561643077E+03 -0.10156963228E+03  0.56486791679E+03  0.11740415806E+04  0.90706697118E+03 0.  0.
        -24    2    4    4    0    0 -0.47728854789E+03 -0.44204080010E+03  0.24832768978E+03  0.70079184041E+03  0.78981866122E+02 0.  0.
         24    2    4    4    0    0  0.16721171198E+01  0.34047116782E+03  0.31654022701E+03  0.47324974022E+03  0.88567427453E+02 0.  0.
         11    1    3    3    0    0  0.32988985923E+03  0.53492403286E+02  0.11417459578E+04  0.11896522974E+04  0.00000000000E+00 0.  1.
        -11    1    3    3    0    0  0.14572657154E+03  0.48077228991E+02  0.35386223116E+03  0.38570212890E+03  0.00000000000E+00 0. -1.
          2    1    6    6  502    0 -0.38481448726E+02  0.22170434063E+03  0.22326022127E+03  0.31698385283E+03  0.00000000000E+00 0. -1.
          3    1    5    5  503    0 -0.45160375370E+03 -0.39311352488E+03  0.21448991614E+03  0.63599537571E+03  0.00000000000E+00 0. -1.
         -4    1    5    5    0  503 -0.25684794194E+02 -0.48927275222E+02  0.33837773636E+02  0.64796464704E+02  0.00000000000E+00 0.  1.
         -1    1    6    6    0  502  0.40153565845E+02  0.11876682719E+03  0.93280005735E+02  0.15626588738E+03  0.00000000000E+00 0.  1.
<mgrwt>
<rscale>  0 0.18203342E+04</rscale>
<asrwt>0</asrwt>
<pdfrwt beam="1">  1        1 0.52993840E-01 0.18203342E+04</pdfrwt>
<pdfrwt beam="2">  1       -1 0.36999015E+00 0.18203342E+04</pdfrwt>
<totfact> 0.78951027E-01</totfact>
</mgrwt>
</event>
<event>
12    1  0.1541840E-007  0.1222545E+04  0.7818608E-02  0.9093349E-01
          2   -1    0    0  501    0  0.00000000000E+00  0.00000000000E+00  0.19727833766E+04  0.19727833766E+04  0.00000000000E+00 0. -1.
         -2   -1    0    0    0  501 -0.00000000000E+00 -0.00000000000E+00 -0.18940456283E+03  0.18940456283E+03  0.00000000000E+00 0.  1.
         23    2    1    2    0    0 -0.96211925870E+02 -0.12479785832E+03  0.48712990213E+02  0.19085511723E+03  0.96028538660E+02 0.  0.
        254    2    1    2    0    0  0.96211925870E+02  0.12479785832E+03  0.17346658236E+04  0.19713328222E+04  0.92317730494E+03 0.  0.
        -24    2    4    4    0    0 -0.32756327860E+02 -0.14205243118E+03  0.16427749756E+04  0.16512570721E+04  0.81782806337E+02 0.  0.
         24    2    4    4    0    0  0.12896825373E+03  0.26685028950E+03  0.91890847953E+02  0.32007575012E+03  0.78502677648E+02 0.  0.
         13    1    3    3    0    0 -0.45901997676E+01 -0.28665992120E+02  0.50264495304E+02  0.58045917395E+02  0.00000000000E+00 0. -1.
        -13    1    3    3    0    0 -0.91621726103E+02 -0.96131866199E+02 -0.15515050908E+01  0.13280919984E+03  0.00000000000E+00 0.  1.
          4    1    6    6  502    0  0.12038742635E+03  0.23702023306E+03  0.10572397168E+03  0.28609313429E+03  0.00000000000E+00 0. -1.
          1    1    5    5  503    0 -0.57246076185E+01 -0.13446658887E+03  0.14772062758E+04  0.14833247843E+04  0.00000000000E+00 0. -1.
         -2    1    5    5    0  503 -0.27031720241E+02 -0.75858423156E+01  0.16556869985E+03  0.16793228776E+03  0.00000000000E+00 0.  1.
         -3    1    6    6    0  502  0.85808273832E+01  0.29830056446E+02 -0.13833123731E+02  0.33982615825E+02  0.00000000000E+00 0.  1.
<mgrwt>
<rscale>  0 0.12225452E+04</rscale>
<asrwt>0</asrwt>
<pdfrwt beam="1">  1        2 0.30350512E+00 0.12225452E+04</pdfrwt>
<pdfrwt beam="2">  1       -2 0.29139165E-01 0.12225452E+04</pdfrwt>
<totfact> 0.73876294E+01</totfact>
</mgrwt>
</event>
<event>
12    1  0.1541840E-007  0.1497485E+04  0.7818608E-02  0.8886127E-01
         -2   -1    0    0    0  501 -0.00000000000E+00  0.00000000000E+00  0.14184190099E+04  0.14184190099E+04  0.00000000000E+00 0.  1.
          2   -1    0    0  501    0  0.00000000000E+00 -0.00000000000E+00 -0.39523934203E+03  0.39523934203E+03  0.00000000000E+00 0. -1.
         23    2    1    2    0    0 -0.26548566744E+02  0.69210400945E+02 -0.23288910267E+03  0.26099678095E+03  0.91580999822E+02 0.  0.
        254    2    1    2    0    0  0.26548566744E+02 -0.69210400945E+02  0.12560687705E+04  0.15526615710E+04  0.90970011085E+03 0.  0.
        -24    2    4    4    0    0  0.15858718999E+03 -0.21578058842E+03  0.10864624777E+01  0.27965761243E+03  0.80598018746E+02 0.  0.
         24    2    4    4    0    0 -0.13203862324E+03  0.14657018747E+03  0.12549823081E+04  0.12730039585E+04  0.81495196476E+02 0.  0.
         11    1    3    3    0    0  0.24019337378E+01  0.83799016376E+02 -0.18568523689E+03  0.20373279468E+03  0.00000000000E+00 0. -1.
        -11    1    3    3    0    0 -0.28950500481E+02 -0.14588615431E+02 -0.47203865781E+02  0.57263986265E+02  0.00000000000E+00 0.  1.
          4    1    6    6  502    0  0.11157082637E+02  0.15956413056E+02  0.12941387976E+03  0.13087031706E+03  0.00000000000E+00 0. -1.
          1    1    5    5  503    0  0.89921261683E+02 -0.75685585678E+02  0.29248715395E+02  0.12111824195E+03  0.00000000000E+00 0. -1.
         -2    1    5    5    0  503  0.68665928303E+02 -0.14009500274E+03 -0.28162252917E+02  0.15853937048E+03  0.00000000000E+00 0.  1.
         -1    1    6    6    0  502 -0.14319570588E+03  0.13061377442E+03  0.11255684283E+04  0.11421336415E+04  0.00000000000E+00 0.  1.
<mgrwt>
<rscale>  0 0.14974846E+04</rscale>
<asrwt>0</asrwt>
<pdfrwt beam="1">  1        2 0.60806053E-01 0.14974846E+04</pdfrwt>
<pdfrwt beam="2">  1       -2 0.21821831E+00 0.14974846E+04</pdfrwt>
<totfact> 0.78965697E+00</totfact>
</mgrwt>
</event>
<event>
12    1  0.1541840E-007  0.1148167E+04  0.7818608E-02  0.9159477E-01
          2   -1    0    0  501    0  0.00000000000E+00  0.00000000000E+00  0.37645570191E+04  0.37645570191E+04  0.00000000000E+00 0.  1.
         -2   -1    0    0    0  501 -0.00000000000E+00 -0.00000000000E+00 -0.87545925945E+02  0.87545925945E+02  0.00000000000E+00 0. -1.
         23    2    1    2    0    0  0.72186562257E+02  0.16332981883E+03  0.10304648201E+04  0.10514515760E+04  0.10865146902E+03 0.  0.
        254    2    1    2    0    0 -0.72186562257E+02 -0.16332981883E+03  0.26465462731E+04  0.28006513691E+04  0.89863974207E+03 0.  0.
        -24    2    4    4    0    0 -0.21962054997E+03 -0.28726330179E+01  0.11781580482E+03  0.26128181392E+03  0.78397604737E+02 0.  0.
         24    2    4    4    0    0  0.14743398772E+03 -0.16045718581E+03  0.25287304682E+04  0.25393695551E+04  0.80228843353E+02 0.  0.
         13    1    3    3    0    0  0.75465349155E+02  0.14226399536E+03  0.10068064390E+04  0.10196044669E+04  0.00000000000E+00 0.  1.
        -13    1    3    3    0    0 -0.32787868976E+01  0.21065823469E+02  0.23658381087E+02  0.31847109093E+02  0.00000000000E+00 0. -1.
          2    1    6    6  502    0  0.14423626044E+03 -0.14870982429E+03  0.20410081437E+04  0.20514952969E+04  0.00000000000E+00 0. -1.
          1    1    5    5  503    0 -0.21696752736E+03  0.98196783720E+01  0.99640220149E+02  0.23895503234E+03  0.00000000000E+00 0. -1.
         -2    1    5    5    0  503 -0.26530226159E+01 -0.12692311390E+02  0.18175584670E+02  0.22326781575E+02  0.00000000000E+00 0.  1.
         -1    1    6    6    0  502  0.31977272736E+01 -0.11747361527E+02  0.48772232454E+03  0.48787425820E+03  0.00000000000E+00 0.  1.
<mgrwt>
<rscale>  0 0.11481666E+04</rscale>
<asrwt>0</asrwt>
<pdfrwt beam="1">  1        2 0.57916249E+00 0.11481666E+04</pdfrwt>
<pdfrwt beam="2">  1       -2 0.13468607E-01 0.11481666E+04</pdfrwt>
<totfact> 0.22582264E+01</totfact>
</mgrwt>
</event>
<event>
12    1  0.1541840E-007  0.1602431E+04  0.7818608E-02  0.8819056E-01
         -1   -1    0    0    0  501 -0.00000000000E+00  0.00000000000E+00  0.93573891709E+03  0.93573891709E+03  0.00000000000E+00 0.  1.
          1   -1    0    0  501    0  0.00000000000E+00 -0.00000000000E+00 -0.68603124107E+03  0.68603124107E+03  0.00000000000E+00 0. -1.
         23    2    1    2    0    0  0.41701883920E+02  0.54864529824E+03  0.85398730839E+02  0.56406485224E+03  0.90141576975E+02 0.  0.
        254    2    1    2    0    0 -0.41701883920E+02 -0.54864529824E+03  0.16430894519E+03  0.10577053059E+04  0.88825242713E+03 0.  0.
        -24    2    4    4    0    0 -0.43875859858E+03 -0.13717141662E+03  0.42723354586E+02  0.46847614102E+03  0.79495310025E+02 0.  0.
         24    2    4    4    0    0  0.39705671466E+03 -0.41147388162E+03  0.12158559060E+03  0.58922916490E+03  0.73777794922E+02 0.  0.
         11    1    3    3    0    0 -0.15185769779E+02  0.13817796049E+03 -0.81408082448E+01  0.13924808483E+03  0.00000000000E+00 0. -1.
        -11    1    3    3    0    0  0.56887653699E+02  0.41046733774E+03  0.93539539084E+02  0.42481676741E+03  0.00000000000E+00 0.  1.
          2    1    6    6  502    0  0.33050958178E+03 -0.34731849517E+03  0.12900215788E+03  0.49649599946E+03  0.00000000000E+00 0. -1.
          1    1    5    5  503    0 -0.43736932058E+03 -0.13392084692E+03  0.33546029172E+02  0.45864152875E+03  0.00000000000E+00 0. -1.
         -2    1    5    5    0  503 -0.13892779989E+01 -0.32505697044E+01  0.91773254134E+01  0.98346122701E+01  0.00000000000E+00 0.  1.
         -1    1    6    6    0  502  0.66547132873E+02 -0.64155386444E+02 -0.74165672767E+01  0.92733165446E+02  0.00000000000E+00 0.  1.
<mgrwt>
<rscale>  0 0.16024308E+04</rscale>
<asrwt>0</asrwt>
<pdfrwt beam="1">  1        1 0.10554327E+00 0.16024308E+04</pdfrwt>
<pdfrwt beam="2">  1       -1 0.14395983E+00 0.16024308E+04</pdfrwt>
<totfact> 0.10496521E+01</totfact>
</mgrwt>
</event>
<event>
12    1  0.1541840E-007  0.1531973E+04  0.7818608E-02  0.8863465E-01
         -2   -1    0    0    0  501 -0.00000000000E+00  0.00000000000E+00  0.22249983411E+03  0.22249983411E+03  0.00000000000E+00 0.  1.
          2   -1    0    0  501    0  0.00000000000E+00 -0.00000000000E+00 -0.26370149909E+04  0.26370149909E+04  0.00000000000E+00 0. -1.
         23    2    1    2    0    0  0.20006659517E+03  0.44174841672E+03 -0.10141056869E+04  0.11276499075E+04  0.89530238206E+02 0.  0.
        254    2    1    2    0    0 -0.20006659517E+03 -0.44174841672E+03 -0.14004094699E+04  0.17318649175E+04  0.89612560666E+03 0.  0.
        -24    2    4    4    0    0 -0.52532250423E+03 -0.11206443080E+03 -0.64717580374E+03  0.84393787414E+03  0.69802896502E+02 0.  0.
         24    2    4    4    0    0  0.32525590906E+03 -0.32968398591E+03 -0.75323366615E+03  0.88792704335E+03  0.81058877056E+02 0.  0.
         11    1    3    3    0    0  0.16178795253E+03  0.39469769236E+03 -0.93713672662E+03  0.10296537546E+04  0.00000000000E+00 0. -1.
        -11    1    3    3    0    0  0.38278642640E+02  0.47050724353E+02 -0.76968960281E+02  0.97996152941E+02  0.00000000000E+00 0.  1.
          2    1    6    6  502    0  0.19247322489E+03 -0.15569751128E+03 -0.34368863663E+03  0.42356762891E+03  0.00000000000E+00 0. -1.
          1    1    5    5  503    0 -0.42018226287E+03 -0.10637673206E+03 -0.55341361576E+03  0.70294791646E+03  0.00000000000E+00 0. -1.
         -2    1    5    5    0  503 -0.10514024136E+03 -0.56876987400E+01 -0.93762187979E+02  0.14098995767E+03  0.00000000000E+00 0.  1.
         -1    1    6    6    0  502  0.13278268417E+03 -0.17398647463E+03 -0.40954502952E+03  0.46435941444E+03  0.00000000000E+00 0.  1.
<mgrwt>
<rscale>  0 0.15319731E+04</rscale>
<asrwt>0</asrwt>
<pdfrwt beam="1">  1        2 0.40569461E+00 0.15319731E+04</pdfrwt>
<pdfrwt beam="2">  1       -2 0.34230744E-01 0.15319731E+04</pdfrwt>
<totfact> 0.22377324E+01</totfact>
</mgrwt>
</event>
<event>
12    1  0.1541840E-007  0.2209247E+04  0.7818608E-02  0.8514589E-01
          2   -1    0    0  501    0  0.00000000000E+00  0.00000000000E+00  0.18649704246E+04  0.18649704246E+04  0.00000000000E+00 0. -1.
         -2   -1    0    0    0  501 -0.00000000000E+00 -0.00000000000E+00 -0.65426943512E+03  0.65426943512E+03  0.00000000000E+00 0.  1.
         23    2    1    2    0    0 -0.61386103680E+03  0.42333475622E+02  0.12833799306E+04  0.14261921540E+04  0.91337386768E+02 0.  0.
        254    2    1    2    0    0  0.61386103680E+03 -0.42333475622E+02 -0.72678941060E+02  0.10930477058E+04  0.90047407678E+03 0.  0.
        -24    2    4    4    0    0  0.32439342894E+03  0.15533095940E+03  0.36961519209E+03  0.52296171679E+03  0.86687734516E+02 0.  0.
         24    2    4    4    0    0  0.28946760786E+03 -0.19766443502E+03 -0.44229413315E+03  0.57008598898E+03  0.80692067328E+02 0.  0.
         11    1    3    3    0    0 -0.53748832369E+03  0.32640512279E+02  0.10432429274E+04  0.11740165700E+04  0.00000000000E+00 0. -1.
        -11    1    3    3    0    0 -0.76372713112E+02  0.96929633431E+01  0.24013700319E+03  0.25217558396E+03  0.00000000000E+00 0.  1.
          2    1    6    6  502    0  0.37425082440E+02 -0.19531528158E+01 -0.26241356833E+02  0.45749977158E+02  0.00000000000E+00 0. -1.
          3    1    5    5  503    0  0.10609485115E+03  0.93944111223E+02  0.16529998986E+03  0.21772850094E+03  0.00000000000E+00 0. -1.
         -4    1    5    5    0  503  0.21829857779E+03  0.61386848177E+02  0.20431520223E+03  0.30523321585E+03  0.00000000000E+00 0.  1.
         -1    1    6    6    0  502  0.25204252542E+03 -0.19571128221E+03 -0.41605277632E+03  0.52433601182E+03  0.00000000000E+00 0.  1.
<mgrwt>
<rscale>  0 0.22092471E+04</rscale>
<asrwt>0</asrwt>
<pdfrwt beam="1">  1        2 0.28691853E+00 0.22092471E+04</pdfrwt>
<pdfrwt beam="2">  1       -2 0.10065684E+00 0.22092471E+04</pdfrwt>
<totfact> 0.58984548E+00</totfact>
</mgrwt>
</event>
<event>
12    1  0.1541840E-007  0.1736564E+04  0.7818608E-02  0.8740781E-01
         -2   -1    0    0    0  501 -0.00000000000E+00  0.00000000000E+00  0.26798709919E+03  0.26798709919E+03  0.00000000000E+00 0.  1.
          2   -1    0    0  501    0  0.00000000000E+00 -0.00000000000E+00 -0.28132464023E+04  0.28132464023E+04  0.00000000000E+00 0. -1.
         23    2    1    2    0    0 -0.14747699633E+03  0.19825807337E+03  0.95362289189E+02  0.28063116009E+03  0.92758577551E+02 0.  0.
        254    2    1    2    0    0  0.14747699633E+03 -0.19825807337E+03 -0.26406215923E+04  0.28006023414E+04  0.89968625246E+03 0.  0.
        -24    2    4    4    0    0 -0.13582005053E+03  0.29048669799E+03 -0.13418884851E+04  0.13820056632E+04  0.80282867011E+02 0.  0.
         24    2    4    4    0    0  0.28329704686E+03 -0.48874477137E+03 -0.12987331071E+04  0.14185966782E+04  0.81118330153E+02 0.  0.
         13    1    3    3    0    0 -0.13105963991E+02 -0.16788590900E+01 -0.11102751384E+02  0.17258503651E+02  0.00000000000E+00 0. -1.
        -13    1    3    3    0    0 -0.13437103234E+03  0.19993693246E+03  0.10646504057E+03  0.26337265644E+03  0.00000000000E+00 0.  1.
          2    1    6    6  502    0  0.19140992900E+03 -0.31892150868E+03 -0.75616762886E+03  0.84269696366E+03  0.00000000000E+00 0. -1.
          1    1    5    5  503    0 -0.13067792559E+03  0.28998858327E+03 -0.13386251075E+04  0.13758950821E+04  0.00000000000E+00 0. -1.
         -2    1    5    5    0  503 -0.51421249422E+01  0.49811471605E+00 -0.32633776524E+01  0.61105810603E+01  0.00000000000E+00 0.  1.
         -1    1    6    6    0  502  0.91887117855E+02 -0.16982326269E+03 -0.54256547826E+03  0.57589971452E+03  0.00000000000E+00 0.  1.
<mgrwt>
<rscale>  0 0.17365641E+04</rscale>
<asrwt>0</asrwt>
<pdfrwt beam="1">  1        2 0.43280712E+00 0.17365641E+04</pdfrwt>
<pdfrwt beam="2">  1       -2 0.41228786E-01 0.17365641E+04</pdfrwt>
<totfact> 0.12040830E+01</totfact>
</mgrwt>
</event>
<event>
12    1  0.1541840E-007  0.1675786E+04  0.7818608E-02  0.8775296E-01
         -2   -1    0    0    0  501 -0.00000000000E+00  0.00000000000E+00  0.18467219173E+03  0.18467219173E+03  0.00000000000E+00 0. -1.
          2   -1    0    0  501    0  0.00000000000E+00 -0.00000000000E+00 -0.38016790583E+04  0.38016790583E+04  0.00000000000E+00 0.  1.
         23    2    1    2    0    0 -0.37392580630E+03 -0.28945747070E+03 -0.21196797260E+04  0.21736424678E+04  0.89851551109E+02 0.  0.
        254    2    1    2    0    0  0.37392580630E+03  0.28945747070E+03 -0.14973271406E+04  0.18127087823E+04  0.90571431876E+03 0.  0.
        -24    2    4    4    0    0  0.13329988405E+03  0.39219063267E+02 -0.14437469281E+04  0.14526242827E+04  0.80031994740E+02 0.  0.
         24    2    4    4    0    0  0.24062592225E+03  0.25023840743E+03 -0.53580212546E+02  0.36008449960E+03  0.79182780065E+02 0.  0.
         13    1    3    3    0    0 -0.83232797772E+02 -0.10373286721E+03 -0.71176080221E+03  0.72407986156E+03  0.00000000000E+00 0.  1.
        -13    1    3    3    0    0 -0.29069300853E+03 -0.18572460349E+03 -0.14079189237E+04  0.14495626062E+04  0.00000000000E+00 0. -1.
          2    1    6    6  502    0  0.17713814089E+03  0.13329714052E+03 -0.18415245464E+02  0.22245262393E+03  0.00000000000E+00 0. -1.
          3    1    5    5  503    0  0.12613748455E+02  0.37431744339E+02 -0.32952100560E+03  0.33188000131E+03  0.00000000000E+00 0. -1.
         -4    1    5    5    0  503  0.12068613559E+03  0.17873189281E+01 -0.11142259225E+04  0.11207442814E+04  0.00000000000E+00 0.  1.
         -1    1    6    6    0  502  0.63487781364E+02  0.11694126691E+03 -0.35164967083E+02  0.13763187566E+03  0.00000000000E+00 0.  1.
<mgrwt>
<rscale>  0 0.16757857E+04</rscale>
<asrwt>0</asrwt>
<pdfrwt beam="1">  1        2 0.58487369E+00 0.16757857E+04</pdfrwt>
<pdfrwt beam="2">  1       -2 0.28411107E-01 0.16757857E+04</pdfrwt>
<totfact> 0.53753816E+00</totfact>
</mgrwt>
</event>
<event>
12    1  0.1541840E-007  0.1902119E+04  0.7818608E-02  0.8653802E-01
          2   -1    0    0  501    0  0.00000000000E+00  0.00000000000E+00  0.11182406365E+04  0.11182406365E+04  0.00000000000E+00 0. -1.
         -2   -1    0    0    0  501 -0.00000000000E+00 -0.00000000000E+00 -0.80887239238E+03  0.80887239238E+03  0.00000000000E+00 0.  1.
         23    2    1    2    0    0 -0.17254199506E+03  0.24818100528E+03 -0.55584390832E+03  0.63932232954E+03  0.91684454480E+02 0.  0.
        254    2    1    2    0    0  0.17254199506E+03 -0.24818100528E+03  0.86521215240E+03  0.12877906993E+04  0.90468130581E+03 0.  0.
        -24    2    4    4    0    0  0.28138497176E+03 -0.40359975180E+03  0.94460644228E+03  0.10680836245E+04  0.80318341984E+02 0.  0.
         24    2    4    4    0    0 -0.10884297670E+03  0.15541874653E+03 -0.79394289887E+02  0.21970707482E+03  0.77239660232E+02 0.  0.
         11    1    3    3    0    0  0.37030658435E+01  0.26020300392E+02 -0.19858782034E+02  0.32941462521E+02  0.00000000000E+00 0. -1.
        -11    1    3    3    0    0 -0.17624506090E+03  0.22216070489E+03 -0.53598512629E+03  0.60638086702E+03  0.00000000000E+00 0.  1.
          4    1    6    6  502    0 -0.75879839983E+02  0.15375934685E+03 -0.61469144775E+02  0.18214868273E+03  0.00000000000E+00 0. -1.
          3    1    5    5  503    0  0.18593942992E+03 -0.22923150498E+03  0.49194971349E+03  0.57370295020E+03  0.00000000000E+00 0. -1.
         -4    1    5    5    0  503  0.95445541841E+02 -0.17436824683E+03  0.45265672879E+03  0.49438067426E+03  0.00000000000E+00 0.  1.
         -3    1    6    6    0  502 -0.32963136716E+02  0.16593996716E+01 -0.17925145112E+02  0.37558392094E+02  0.00000000000E+00 0.  1.
<mgrwt>
<rscale>  0 0.19021188E+04</rscale>
<asrwt>0</asrwt>
<pdfrwt beam="1">  1        2 0.17203702E+00 0.19021188E+04</pdfrwt>
<pdfrwt beam="2">  1       -2 0.12444191E+00 0.19021188E+04</pdfrwt>
<totfact> 0.96407204E+00</totfact>
</mgrwt>
</event>
<event>
12    1  0.1541840E-007  0.1695564E+04  0.7818608E-02  0.8763898E-01
          2   -1    0    0  501    0  0.00000000000E+00  0.00000000000E+00  0.17579883308E+04  0.17579883308E+04  0.00000000000E+00 0.  1.
         -2   -1    0    0    0  501 -0.00000000000E+00 -0.00000000000E+00 -0.40883923181E+03  0.40883923181E+03  0.00000000000E+00 0. -1.
         23    2    1    2    0    0 -0.10322193183E+03 -0.52675324327E+03  0.84490158499E+03  0.10053005776E+04  0.92988260211E+02 0.  0.
        254    2    1    2    0    0  0.10322193183E+03  0.52675324327E+03  0.50424751402E+03  0.11615269850E+04  0.89819576654E+03 0.  0.
        -24    2    4    4    0    0 -0.19579683070E+03  0.13994460512E+03  0.60515979730E+03  0.65612297431E+03  0.79737605523E+02 0.  0.
         24    2    4    4    0    0  0.29901876253E+03  0.38680863814E+03 -0.10091228328E+03  0.50540401071E+03  0.78846574060E+02 0.  0.
         13    1    3    3    0    0  0.62624152470E+01 -0.95290919105E+02  0.10597820675E+03  0.14265678187E+03  0.00000000000E+00 0. -1.
        -13    1    3    3    0    0 -0.10948434708E+03 -0.43146232416E+03  0.73892337824E+03  0.86264379575E+03  0.00000000000E+00 0.  1.
          4    1    6    6  502    0  0.15764184211E+03  0.23544046465E+03 -0.92689538084E+02  0.29811828735E+03  0.00000000000E+00 0. -1.
          3    1    5    5  503    0 -0.87695843735E+01  0.38566966407E+02  0.73187240055E+02  0.83190676249E+02  0.00000000000E+00 0. -1.
         -4    1    5    5    0  503 -0.18702724633E+03  0.10137763872E+03  0.53197255724E+03  0.57293229806E+03  0.00000000000E+00 0.  1.
         -3    1    6    6    0  502  0.14137692042E+03  0.15136817349E+03 -0.82227451933E+01  0.20728572336E+03  0.00000000000E+00 0.  1.
<mgrwt>
<rscale>  0 0.16955643E+04</rscale>
<asrwt>0</asrwt>
<pdfrwt beam="1">  1        2 0.27045974E+00 0.16955643E+04</pdfrwt>
<pdfrwt beam="2">  1       -2 0.62898344E-01 0.16955643E+04</pdfrwt>
<totfact> 0.20301348E+01</totfact>
</mgrwt>
</event>
<event>
12    1  0.1541840E-007  0.1801069E+04  0.7818608E-02  0.8705731E-01
          1   -1    0    0  501    0  0.00000000000E+00  0.00000000000E+00  0.41441221224E+03  0.41441221224E+03  0.00000000000E+00 0. -1.
         -1   -1    0    0    0  501 -0.00000000000E+00 -0.00000000000E+00 -0.19568970588E+04  0.19568970588E+04  0.00000000000E+00 0.  1.
         23    2    1    2    0    0 -0.10957108559E+03 -0.58603385129E+03 -0.18511018640E+03  0.63076031065E+03  0.90284498812E+02 0.  0.
        254    2    1    2    0    0  0.10957108559E+03  0.58603385129E+03 -0.13573746602E+04  0.17405489604E+04  0.91192281353E+03 0.  0.
        -24    2    4    4    0    0 -0.18307824622E+03 -0.17664116315E+03 -0.38103424428E+03  0.46503307648E+03  0.79680123930E+02 0.  0.
         24    2    4    4    0    0  0.29264933181E+03  0.76267501443E+03 -0.97634041590E+03  0.12755158839E+04  0.79895890962E+02 0.  0.
         13    1    3    3    0    0 -0.77890049542E+02 -0.38681283389E+03 -0.16620122304E+03  0.42815169603E+03  0.00000000000E+00 0.  1.
        -13    1    3    3    0    0 -0.31681036051E+02 -0.19922101740E+03 -0.18908963355E+02  0.20260861461E+03  0.00000000000E+00 0. -1.
          4    1    6    6  502    0  0.20626608270E+03  0.52266713036E+03 -0.72678040299E+03  0.91866010047E+03  0.00000000000E+00 0. -1.
          1    1    5    5  503    0 -0.78351670712E+02 -0.10016035146E+03 -0.12650785686E+03  0.17937479800E+03  0.00000000000E+00 0. -1.
         -2    1    5    5    0  503 -0.10472657551E+03 -0.76480811681E+02 -0.25452638742E+03  0.28565827848E+03  0.00000000000E+00 0.  1.
         -3    1    6    6    0  502  0.86383249111E+02  0.24000788407E+03 -0.24956001291E+03  0.35685578346E+03  0.00000000000E+00 0.  1.
<mgrwt>
<rscale>  0 0.18010686E+04</rscale>
<asrwt>0</asrwt>
<pdfrwt beam="1">  1        1 0.63755725E-01 0.18010686E+04</pdfrwt>
<pdfrwt beam="2">  1       -1 0.30106109E+00 0.18010686E+04</pdfrwt>
<totfact> 0.17570646E+00</totfact>
</mgrwt>
</event>
<event>
12    1  0.1541840E-007  0.1202669E+04  0.7818608E-02  0.9110524E-01
         -2   -1    0    0    0  501 -0.00000000000E+00  0.00000000000E+00  0.75420704831E+03  0.75420704831E+03  0.00000000000E+00 0.  1.
          2   -1    0    0  501    0  0.00000000000E+00 -0.00000000000E+00 -0.47944789729E+03  0.47944789729E+03  0.00000000000E+00 0. -1.
         23    2    1    2    0    0 -0.70984129024E+02  0.17981835663E+03  0.21417974276E+03  0.30940828759E+03  0.11174586463E+03 0.  0.
        254    2    1    2    0    0  0.70984129024E+02 -0.17981835663E+03  0.60579408252E+02  0.92424665802E+03  0.90176972238E+03 0.  0.
        -24    2    4    4    0    0 -0.14024509504E+03 -0.35612207423E+03 -0.27876666832E+03  0.48032503981E+03  0.80682526387E+02 0.  0.
         24    2    4    4    0    0  0.21122922407E+03  0.17630371760E+03  0.33934607658E+03  0.44392161821E+03  0.78802648953E+02 0.  0.
         11    1    3    3    0    0 -0.74917561888E+02  0.12259783847E+03  0.82257382071E+02  0.16555708376E+03  0.00000000000E+00 0.  1.
        -11    1    3    3    0    0  0.39334328634E+01  0.57220518159E+02  0.13192236069E+03  0.14385120383E+03  0.00000000000E+00 0. -1.
          2    1    6    6  502    0  0.10985158446E+03  0.12583411979E+03  0.24500388177E+03  0.29652739906E+03  0.00000000000E+00 0. -1.
          3    1    5    5  503    0 -0.95116418123E+02 -0.27308775401E+03 -0.24794352605E+03  0.38092000013E+03  0.00000000000E+00 0. -1.
         -4    1    5    5    0  503 -0.45128676920E+02 -0.83034320219E+02 -0.30823142272E+02  0.99405039683E+02  0.00000000000E+00 0.  1.
         -1    1    6    6    0  502  0.10137763961E+03  0.50469597814E+02  0.94342194803E+02  0.14739421914E+03  0.00000000000E+00 0.  1.
<mgrwt>
<rscale>  0 0.12026687E+04</rscale>
<asrwt>0</asrwt>
<pdfrwt beam="1">  1        2 0.73761215E-01 0.12026687E+04</pdfrwt>
<pdfrwt beam="2">  1       -2 0.11603185E+00 0.12026687E+04</pdfrwt>
<totfact> 0.36790873E+01</totfact>
</mgrwt>
</event>
<event>
12    1  0.1541840E-007  0.1521013E+04  0.7818608E-02  0.8870599E-01
          1   -1    0    0  501    0  0.00000000000E+00  0.00000000000E+00  0.12855393584E+04  0.12855393584E+04  0.00000000000E+00 0. -1.
         -1   -1    0    0    0  501 -0.00000000000E+00 -0.00000000000E+00 -0.44990443839E+03  0.44990443839E+03  0.00000000000E+00 0.  1.
         23    2    1    2    0    0  0.10702153811E+03 -0.46810939752E+03  0.17284829303E+03  0.51961560188E+03  0.97692495311E+02 0.  0.
        254    2    1    2    0    0 -0.10702153811E+03  0.46810939752E+03  0.66278662702E+03  0.12158281950E+04  0.89909513903E+03 0.  0.
        -24    2    4    4    0    0 -0.25329970405E+02  0.65220722533E+03  0.17218410861E+03  0.67959356706E+03  0.78639538135E+02 0.  0.
         24    2    4    4    0    0 -0.81691567702E+02 -0.18409782781E+03  0.49060251841E+03  0.53623462789E+03  0.79317227939E+02 0.  0.
         13    1    3    3    0    0  0.15634020695E+02 -0.75065606883E+02  0.68490390467E+02  0.10281148538E+03  0.00000000000E+00 0. -1.
        -13    1    3    3    0    0  0.91387517412E+02 -0.39304379064E+03  0.10435790257E+03  0.41680411650E+03  0.00000000000E+00 0.  1.
          4    1    6    6  502    0 -0.71796573530E+01 -0.87773094525E+02  0.14327821188E+03  0.16817939708E+03  0.00000000000E+00 0. -1.
          3    1    5    5  503    0 -0.33466164902E+01  0.13267481457E+03  0.29476732797E+01  0.13274974592E+03  0.00000000000E+00 0. -1.
         -4    1    5    5    0  503 -0.21983353914E+02  0.51953241076E+03  0.16923643533E+03  0.54684382115E+03  0.00000000000E+00 0.  1.
         -3    1    6    6    0  502 -0.74511910349E+02 -0.96324733284E+02  0.34732430653E+03  0.36805523082E+03  0.00000000000E+00 0.  1.
<mgrwt>
<rscale>  0 0.15210126E+04</rscale>
<asrwt>0</asrwt>
<pdfrwt beam="1">  1        1 0.19777528E+00 0.15210126E+04</pdfrwt>
<pdfrwt beam="2">  1       -1 0.69216068E-01 0.15210126E+04</pdfrwt>
<totfact> 0.18890690E+01</totfact>
</mgrwt>
</event>
<event>
12    1  0.1541840E-007  0.1289842E+04  0.7818608E-02  0.9037660E-01
          1   -1    0    0  501    0  0.00000000000E+00  0.00000000000E+00  0.44859319319E+03  0.44859319319E+03  0.00000000000E+00 0. -1.
         -1   -1    0    0    0  501 -0.00000000000E+00 -0.00000000000E+00 -0.92717160147E+03  0.92717160147E+03  0.00000000000E+00 0.  1.
         23    2    1    2    0    0 -0.22357057078E+03 -0.12638896274E+03  0.48650509906E+02  0.27695779533E+03  0.91546590638E+02 0.  0.
        254    2    1    2    0    0  0.22357057078E+03  0.12638896274E+03 -0.52722891819E+03  0.10988069993E+04  0.92921930650E+03 0.  0.
        -24    2    4    4    0    0  0.50993345269E+03 -0.27755845390E+01 -0.57366180805E+03  0.77150767555E+03  0.78079404258E+02 0.  0.
         24    2    4    4    0    0 -0.28636288191E+03  0.12916454728E+03  0.46432889860E+02  0.32729932378E+03  0.79256884108E+02 0.  0.
         11    1    3    3    0    0 -0.21049853328E+03 -0.87007849941E+02  0.56624026876E+02  0.23470466311E+03  0.00000000000E+00 0. -1.
        -11    1    3    3    0    0 -0.13072037502E+02 -0.39381112800E+02 -0.79735169697E+01  0.42253132224E+02  0.00000000000E+00 0.  1.
          4    1    6    6  502    0 -0.78968323860E+02 -0.12575248026E+01  0.99295891061E+01  0.79600089709E+02  0.00000000000E+00 0. -1.
          3    1    5    5  503    0  0.34321174768E+03  0.33298620210E+02 -0.39929211788E+03  0.52757681645E+03  0.00000000000E+00 0. -1.
         -4    1    5    5    0  503  0.16672170501E+03 -0.36074204749E+02 -0.17436969017E+03  0.24393085910E+03  0.00000000000E+00 0.  1.
         -3    1    6    6    0  502 -0.20739455805E+03  0.13042207208E+03  0.36503300754E+02  0.24769923407E+03  0.00000000000E+00 0.  1.
<mgrwt>
<rscale>  0 0.12898416E+04</rscale>
<asrwt>0</asrwt>
<pdfrwt beam="1">  1        1 0.69014339E-01 0.12898416E+04</pdfrwt>
<pdfrwt beam="2">  1       -1 0.14264178E+00 0.12898416E+04</pdfrwt>
<totfact> 0.20179525E+01</totfact>
</mgrwt>
</event>
<event>
12    1  0.1541840E-007  0.1481464E+04  0.7818608E-02  0.8896873E-01
          2   -1    0    0  501    0  0.00000000000E+00  0.00000000000E+00  0.19340750324E+04  0.19340750324E+04  0.00000000000E+00 0.  1.
         -2   -1    0    0    0  501 -0.00000000000E+00 -0.00000000000E+00 -0.28369335973E+03  0.28369335973E+03  0.00000000000E+00 0. -1.
         23    2    1    2    0    0 -0.71315294712E+02  0.39501230874E+02 -0.15313842668E+03  0.19913132460E+03  0.97753200504E+02 0.  0.
        254    2    1    2    0    0  0.71315294712E+02 -0.39501230874E+02  0.18035200993E+04  0.20186370675E+04  0.90308617701E+03 0.  0.
        -24    2    4    4    0    0  0.43500851405E+03  0.78068622430E+02  0.57503813250E+03  0.72974859290E+03  0.80851950529E+02 0.  0.
         24    2    4    4    0    0 -0.36369321934E+03 -0.11756985330E+03  0.12284819668E+04  0.12888884746E+04  0.77266609422E+02 0.  0.
         13    1    3    3    0    0 -0.12762506317E+02 -0.24496225529E+01  0.12795838656E+02  0.18237754934E+02  0.00000000000E+00 0.  1.
        -13    1    3    3    0    0 -0.58552788395E+02  0.41950853427E+02 -0.16593426534E+03  0.18089356966E+03  0.00000000000E+00 0. -1.
          2    1    6    6  502    0 -0.63929628703E+02 -0.85882340072E+01  0.13136778936E+03  0.14634975665E+03  0.00000000000E+00 0. -1.
          3    1    5    5  503    0  0.30104534932E+02  0.21114673524E+02  0.25365590421E+02  0.44671306662E+02  0.00000000000E+00 0. -1.
         -4    1    5    5    0  503  0.40490397912E+03  0.56953948906E+02  0.54967254208E+03  0.68507728624E+03  0.00000000000E+00 0.  1.
         -1    1    6    6    0  502 -0.29976359064E+03 -0.10898161930E+03  0.10971141775E+04  0.11425387180E+04  0.00000000000E+00 0.  1.
<mgrwt>
<rscale>  0 0.14814645E+04</rscale>
<asrwt>0</asrwt>
<pdfrwt beam="1">  1        2 0.29755000E+00 0.14814645E+04</pdfrwt>
<pdfrwt beam="2">  1       -2 0.43645133E-01 0.14814645E+04</pdfrwt>
<totfact> 0.35021997E+01</totfact>
</mgrwt>
</event>
<event>
12    1  0.1541840E-007  0.1416202E+04  0.7818608E-02  0.8942174E-01
         -1   -1    0    0    0  501 -0.00000000000E+00  0.00000000000E+00  0.72325522703E+03  0.72325522703E+03  0.00000000000E+00 0.  1.
          1   -1    0    0  501    0  0.00000000000E+00 -0.00000000000E+00 -0.69326417561E+03  0.69326417561E+03  0.00000000000E+00 0. -1.
         23    2    1    2    0    0  0.29755948178E+03 -0.28441598226E+03 -0.10536536859E+02  0.42218266845E+03  0.93236745813E+02 0.  0.
        254    2    1    2    0    0 -0.29755948178E+03  0.28441598226E+03  0.40527588281E+02  0.99433673419E+03  0.90422837789E+03 0.  0.
        -24    2    4    4    0    0  0.24211744921E+03  0.33269720427E+03  0.13086332119E+03  0.43920302846E+03  0.80410213517E+02 0.  0.
         24    2    4    4    0    0 -0.53967693099E+03 -0.48281222008E+02 -0.90335732908E+02  0.55513370573E+03  0.80191148864E+02 0.  0.
         13    1    3    3    0    0  0.17323484600E+03 -0.16719787857E+03  0.39855093325E+02  0.24403661802E+03  0.00000000000E+00 0.  1.
        -13    1    3    3    0    0  0.12432463578E+03 -0.11721810369E+03 -0.50391630184E+02  0.17814605044E+03  0.00000000000E+00 0. -1.
          4    1    6    6  502    0 -0.22971453705E+03 -0.56901205778E+02 -0.55697066648E+02  0.24312276526E+03  0.00000000000E+00 0. -1.
          1    1    5    5  503    0  0.26654763098E+02  0.85002505873E+02  0.45311180871E+02  0.99945012444E+02  0.00000000000E+00 0. -1.
         -2    1    5    5    0  503  0.21546268611E+03  0.24769469840E+03  0.85552140318E+02  0.33925801602E+03  0.00000000000E+00 0.  1.
         -3    1    6    6    0  502 -0.30996239393E+03  0.86199837695E+01 -0.34638666260E+02  0.31201094047E+03  0.00000000000E+00 0.  1.
<mgrwt>
<rscale>  0 0.14162019E+04</rscale>
<asrwt>0</asrwt>
<pdfrwt beam="1">  1        1 0.10665603E+00 0.14162019E+04</pdfrwt>
<pdfrwt beam="2">  1       -1 0.11127004E+00 0.14162019E+04</pdfrwt>
<totfact> 0.20003983E+01</totfact>
</mgrwt>
</event>
<event>
12    1  0.1541840E-007  0.2606319E+04  0.7818608E-02  0.8366058E-01
         -1   -1    0    0    0  501 -0.00000000000E+00  0.00000000000E+00  0.87874834387E+03  0.87874834387E+03  0.00000000000E+00 0.  1.
          1   -1    0    0  501    0  0.00000000000E+00 -0.00000000000E+00 -0.19325501118E+04  0.19325501118E+04  0.00000000000E+00 0. -1.
         23    2    1    2    0    0  0.95466044446E+03  0.49153521072E+03 -0.90919798341E+03  0.14098956147E+04  0.90450227491E+02 0.  0.
        254    2    1    2    0    0 -0.95466044446E+03 -0.49153521072E+03 -0.14460378456E+03  0.14014028410E+04  0.88883982852E+03 0.  0.
        -24    2    4    4    0    0 -0.79939170694E+02 -0.48783785713E+03  0.45083922750E+02  0.50278634476E+03  0.79909339431E+02 0.  0.
         24    2    4    4    0    0 -0.87472127376E+03 -0.36973535911E+01 -0.18968770731E+03  0.89861649628E+03  0.79869918482E+02 0.  0.
         11    1    3    3    0    0  0.63138743501E+03  0.35236469357E+03 -0.65637341519E+03  0.97654340945E+03  0.00000000000E+00 0. -1.
        -11    1    3    3    0    0  0.32327300945E+03  0.13917051714E+03 -0.25282456822E+03  0.43335220522E+03  0.00000000000E+00 0.  1.
          4    1    6    6  502    0 -0.76156308564E+03  0.22874973736E+02 -0.15764758796E+03  0.77804521708E+03  0.00000000000E+00 0. -1.
          1    1    5    5  503    0 -0.87235579386E+02 -0.29167130779E+03  0.29671399822E+02  0.30588002561E+03  0.00000000000E+00 0. -1.
         -2    1    5    5    0  503  0.72964086923E+01 -0.19616654934E+03  0.15412522928E+02  0.19690631915E+03  0.00000000000E+00 0.  1.
         -3    1    6    6    0  502 -0.11315818812E+03 -0.26572327327E+02 -0.32040119350E+02  0.12057127920E+03  0.00000000000E+00 0.  1.
<mgrwt>
<rscale>  0 0.26063194E+04</rscale>
<asrwt>0</asrwt>
<pdfrwt beam="1">  1        1 0.29731540E+00 0.26063194E+04</pdfrwt>
<pdfrwt beam="2">  1       -1 0.13519205E+00 0.26063194E+04</pdfrwt>
<totfact> 0.13376277E+00</totfact>
</mgrwt>
</event>
<event>
12    1  0.1541840E-007  0.2092508E+04  0.7818608E-02  0.8564551E-01
          1   -1    0    0  501    0  0.00000000000E+00  0.00000000000E+00  0.95052305102E+03  0.95052305102E+03  0.00000000000E+00 0. -1.
         -1   -1    0    0    0  501 -0.00000000000E+00 -0.00000000000E+00 -0.11516269255E+04  0.11516269255E+04  0.00000000000E+00 0.  1.
         23    2    1    2    0    0  0.39749803546E+03 -0.65434576011E+03 -0.44664644132E+03  0.89094273562E+03  0.90071375253E+02 0.  0.
        254    2    1    2    0    0 -0.39749803546E+03  0.65434576011E+03  0.24554256679E+03  0.12112072409E+04  0.90584698842E+03 0.  0.
        -24    2    4    4    0    0 -0.18941515995E+03  0.41808913458E+03 -0.31569868831E+03  0.56279127720E+03  0.79948312182E+02 0.  0.
         24    2    4    4    0    0 -0.20808287551E+03  0.23625662553E+03  0.56124125510E+03  0.64841596374E+03  0.79597986299E+02 0.  0.
         11    1    3    3    0    0  0.18062023757E+03 -0.24135502218E+03 -0.21386225105E+03  0.36961193078E+03  0.00000000000E+00 0.  1.
        -11    1    3    3    0    0  0.21687779789E+03 -0.41299073794E+03 -0.23278419027E+03  0.52133080485E+03  0.00000000000E+00 0. -1.
          2    1    6    6  502    0 -0.15507313432E+03  0.15245937310E+03  0.31324888555E+03  0.38133502557E+03  0.00000000000E+00 0. -1.
          1    1    5    5  503    0 -0.12469451737E+03  0.34989913369E+03 -0.26155645228E+03  0.45430155640E+03  0.00000000000E+00 0. -1.
         -2    1    5    5    0  503 -0.64720642576E+02  0.68190000891E+02 -0.54142236030E+02  0.10848972080E+03  0.00000000000E+00 0.  1.
         -1    1    6    6    0  502 -0.53009741189E+02  0.83797252428E+02  0.24799236955E+03  0.26708093817E+03  0.00000000000E+00 0.  1.
<mgrwt>
<rscale>  0 0.20925085E+04</rscale>
<asrwt>0</asrwt>
<pdfrwt beam="1">  1        1 0.14623432E+00 0.20925085E+04</pdfrwt>
<pdfrwt beam="2">  1       -1 0.17717337E+00 0.20925085E+04</pdfrwt>
<totfact> 0.33238056E+00</totfact>
</mgrwt>
</event>
<event>
12    1  0.1541840E-007  0.1926102E+04  0.7818608E-02  0.8641972E-01
         -1   -1    0    0    0  501 -0.00000000000E+00  0.00000000000E+00  0.70092560400E+03  0.70092560400E+03  0.00000000000E+00 0.  1.
          1   -1    0    0  501    0  0.00000000000E+00 -0.00000000000E+00 -0.13232040795E+04  0.13232040795E+04  0.00000000000E+00 0. -1.
         23    2    1    2    0    0  0.10432024757E+03  0.72412934102E+03 -0.42238762995E+03  0.84970505063E+03  0.91330972553E+02 0.  0.
        254    2    1    2    0    0 -0.10432024757E+03 -0.72412934102E+03 -0.19989084554E+03  0.11744246329E+04  0.89669997859E+03 0.  0.
        -24    2    4    4    0    0 -0.43393565158E+03 -0.59328000230E+03 -0.29979467405E+03  0.79775112727E+03  0.79048742139E+02 0.  0.
         24    2    4    4    0    0  0.32961540402E+03 -0.13084933872E+03  0.99903828502E+02  0.37667350561E+03  0.78321713914E+02 0.  0.
         13    1    3    3    0    0  0.75091183503E+02  0.65429345499E+03 -0.40088706017E+03  0.77100521795E+03  0.00000000000E+00 0.  1.
        -13    1    3    3    0    0  0.29229064066E+02  0.69835886024E+02 -0.21500569780E+02  0.78699832680E+02  0.00000000000E+00 0. -1.
          2    1    6    6  502    0  0.71323808893E+02 -0.52813166695E+02 -0.57247889772E+00  0.88750459286E+02  0.00000000000E+00 0. -1.
          1    1    5    5  503    0 -0.18872246629E+01 -0.22958214228E+02 -0.15909501264E+02  0.27995596938E+02  0.00000000000E+00 0. -1.
         -2    1    5    5    0  503 -0.43204842692E+03 -0.57032178807E+03 -0.28388517278E+03  0.76975553033E+03  0.00000000000E+00 0.  1.
         -1    1    6    6    0  502  0.25829159512E+03 -0.78036172027E+02  0.10047630740E+03  0.28792304632E+03  0.00000000000E+00 0.  1.
<mgrwt>
<rscale>  0 0.19261024E+04</rscale>
<asrwt>0</asrwt>
<pdfrwt beam="1">  1        1 0.20356986E+00 0.19261024E+04</pdfrwt>
<pdfrwt beam="2">  1       -1 0.10783471E+00 0.19261024E+04</pdfrwt>
<totfact> 0.65017259E+00</totfact>
</mgrwt>
</event>
<event>
12    1  0.1541840E-007  0.1961211E+04  0.7818608E-02  0.8624973E-01
         -2   -1    0    0    0  501 -0.00000000000E+00  0.00000000000E+00  0.42401907620E+03  0.42401907620E+03  0.00000000000E+00 0.  1.
          2   -1    0    0  501    0  0.00000000000E+00 -0.00000000000E+00 -0.22677930445E+04  0.22677930445E+04  0.00000000000E+00 0. -1.
         23    2    1    2    0    0 -0.44375342764E+03 -0.58151585877E+03 -0.39890176714E+03  0.83816891555E+03  0.91250822622E+02 0.  0.
        254    2    1    2    0    0  0.44375342764E+03  0.58151585877E+03 -0.14448722011E+04  0.18536432051E+04  0.90180910160E+03 0.  0.
        -24    2    4    4    0    0  0.69302941880E+03  0.57103196371E+03 -0.11351775989E+04  0.14495753332E+04  0.79203451235E+02 0.  0.
         24    2    4    4    0    0 -0.24927599117E+03  0.10483895056E+02 -0.30969460224E+03  0.40406787191E+03  0.71495920358E+02 0.  0.
         11    1    3    3    0    0 -0.41397303743E+03 -0.51850717824E+03 -0.38500032269E+03  0.76710404645E+03  0.00000000000E+00 0. -1.
        -11    1    3    3    0    0 -0.29780390207E+02 -0.63008680528E+02 -0.13901444450E+02  0.71064869102E+02  0.00000000000E+00 0.  1.
          2    1    6    6  502    0 -0.23308500920E+03  0.27003731493E+02 -0.29380782693E+03  0.37600646563E+03  0.00000000000E+00 0. -1.
          1    1    5    5  503    0  0.53112078150E+03  0.47696661687E+03 -0.88234715604E+03  0.11349550396E+04  0.00000000000E+00 0. -1.
         -2    1    5    5    0  503  0.16190863731E+03  0.94065346844E+02 -0.25283044285E+03  0.31462029360E+03  0.00000000000E+00 0.  1.
         -1    1    6    6    0  502 -0.16190981966E+02 -0.16519836437E+02 -0.15886775309E+02  0.28061406284E+02  0.00000000000E+00 0.  1.
<mgrwt>
<rscale>  0 0.19612114E+04</rscale>
<asrwt>0</asrwt>
<pdfrwt beam="1">  1        2 0.34889125E+00 0.19612114E+04</pdfrwt>
<pdfrwt beam="2">  1       -2 0.65233702E-01 0.19612114E+04</pdfrwt>
<totfact> 0.95477777E+00</totfact>
</mgrwt>
</event>
<event>
12    1  0.1541840E-007  0.1614924E+04  0.7818608E-02  0.8811432E-01
          2   -1    0    0  501    0  0.00000000000E+00  0.00000000000E+00  0.94862234738E+03  0.94862234738E+03  0.00000000000E+00 0. -1.
         -2   -1    0    0    0  501 -0.00000000000E+00 -0.00000000000E+00 -0.68730740596E+03  0.68730740596E+03  0.00000000000E+00 0.  1.
         23    2    1    2    0    0 -0.11117732616E+03 -0.15425680859E+03 -0.43660982836E+03  0.48510974514E+03  0.92454106244E+02 0.  0.
        254    2    1    2    0    0  0.11117732616E+03  0.15425680859E+03  0.69792476978E+03  0.11508200082E+04  0.89505985619E+03 0.  0.
        -24    2    4    4    0    0  0.48235970180E+02 -0.10366091214E+03 -0.17963703862E+03  0.23055922890E+03  0.88407006855E+02 0.  0.
         24    2    4    4    0    0  0.62941355983E+02  0.25791772073E+03  0.87756180840E+03  0.92026077930E+03  0.79259128108E+02 0.  0.
         11    1    3    3    0    0  0.16464405277E+02 -0.23448978358E+02 -0.57244183861E+02  0.64014278197E+02  0.00000000000E+00 0. -1.
        -11    1    3    3    0    0 -0.12764173144E+03 -0.13080783023E+03 -0.37936564450E+03  0.42109546694E+03  0.00000000000E+00 0.  1.
          2    1    6    6  502    0  0.12298090882E+02  0.10813938883E+03  0.24233899544E+03  0.26565684476E+03  0.00000000000E+00 0. -1.
          3    1    5    5  503    0 -0.21558530721E+02 -0.15208699745E+02 -0.63427858952E+02  0.68696201395E+02  0.00000000000E+00 0. -1.
         -4    1    5    5    0  503  0.69794500901E+02 -0.88452212396E+02 -0.11620917967E+03  0.16186302751E+03  0.00000000000E+00 0.  1.
         -1    1    6    6    0  502  0.50643265101E+02  0.14977833189E+03  0.63522281296E+03  0.65460393454E+03  0.00000000000E+00 0.  1.
<mgrwt>
<rscale>  0 0.16149244E+04</rscale>
<asrwt>0</asrwt>
<pdfrwt beam="1">  1        2 0.14594190E+00 0.16149244E+04</pdfrwt>
<pdfrwt beam="2">  1       -2 0.10573960E+00 0.16149244E+04</pdfrwt>
<totfact> 0.18838441E+01</totfact>
</mgrwt>
</event>
<event>
12    1  0.1541840E-007  0.2695472E+04  0.7818608E-02  0.8336476E-01
         -2   -1    0    0    0  501 -0.00000000000E+00  0.00000000000E+00  0.12570458933E+04  0.12570458933E+04  0.00000000000E+00 0.  1.
          2   -1    0    0  501    0  0.00000000000E+00 -0.00000000000E+00 -0.14449684845E+04  0.14449684845E+04  0.00000000000E+00 0. -1.
         23    2    1    2    0    0  0.80383322001E+03  0.66707871261E+03 -0.65403311925E+03  0.12359332611E+04  0.92896988230E+02 0.  0.
        254    2    1    2    0    0 -0.80383322001E+03 -0.66707871261E+03  0.46611052803E+03  0.14660811167E+04  0.91705668413E+03 0.  0.
        -24    2    4    4    0    0 -0.43708690161E+02 -0.61567375949E+03  0.24136473033E+03  0.66754291121E+03  0.79949843879E+02 0.  0.
         24    2    4    4    0    0 -0.76012452985E+03 -0.51404953127E+02  0.22474579770E+03  0.79853820547E+03  0.81980619173E+02 0.  0.
         11    1    3    3    0    0  0.16129811210E+03  0.11246920854E+03 -0.16249593397E+03  0.25509083166E+03  0.00000000000E+00 0.  1.
        -11    1    3    3    0    0  0.64253510791E+03  0.55460950407E+03 -0.49153718528E+03  0.98084242946E+03  0.00000000000E+00 0. -1.
          4    1    6    6  502    0 -0.52499519556E+03 -0.71538052878E+02  0.14320318876E+03  0.54885772441E+03  0.00000000000E+00 0. -1.
          1    1    5    5  503    0  0.23000794936E+02 -0.15112769879E+03  0.66635337914E+02  0.16675996573E+03  0.00000000000E+00 0. -1.
         -2    1    5    5    0  503 -0.66709485097E+02 -0.46454606069E+03  0.17472939242E+03  0.50078294548E+03  0.00000000000E+00 0.  1.
         -3    1    6    6    0  502 -0.23512933429E+03  0.20133099751E+02  0.81542608935E+02  0.24968048106E+03  0.00000000000E+00 0.  1.
<mgrwt>
<rscale>  0 0.26954715E+04</rscale>
<asrwt>0</asrwt>
<pdfrwt beam="1">  1        2 0.22230284E+00 0.26954715E+04</pdfrwt>
<pdfrwt beam="2">  1       -2 0.19339168E+00 0.26954715E+04</pdfrwt>
<totfact> 0.17611059E+00</totfact>
</mgrwt>
</event>
<event>
12    1  0.1541840E-007  0.2677266E+04  0.7818608E-02  0.8342419E-01
         -1   -1    0    0    0  501 -0.00000000000E+00  0.00000000000E+00  0.97632610162E+03  0.97632610162E+03  0.00000000000E+00 0. -1.
          1   -1    0    0  501    0  0.00000000000E+00 -0.00000000000E+00 -0.18353885937E+04  0.18353885937E+04  0.00000000000E+00 0.  1.
         23    2    1    2    0    0  0.55971657532E+03 -0.89458675901E+03 -0.95133576664E+03  0.14238517883E+04  0.93520371971E+02 0.  0.
        254    2    1    2    0    0 -0.55971657532E+03  0.89458675901E+03  0.92273274594E+02  0.13878629070E+04  0.89670562472E+03 0.  0.
        -24    2    4    4    0    0 -0.64343138604E+03  0.85787043788E+03 -0.18011940816E+03  0.10903988786E+04  0.81123835118E+02 0.  0.
         24    2    4    4    0    0  0.83714810715E+02  0.36716321131E+02  0.27239268275E+03  0.29746402838E+03  0.77011796456E+02 0.  0.
         13    1    3    3    0    0  0.64373401437E+01 -0.18404573206E+02 -0.41428816219E+01  0.19933166612E+02  0.00000000000E+00 0. -1.
        -13    1    3    3    0    0  0.55327923518E+03 -0.87618218581E+03 -0.94719288501E+03  0.14039186217E+04  0.00000000000E+00 0.  1.
          4    1    6    6  502    0  0.93969033924E+02  0.29979100046E+02  0.26585240561E+03  0.28356027109E+03  0.00000000000E+00 0. -1.
          3    1    5    5  503    0 -0.28316538897E+03  0.43445872843E+03 -0.64795049365E+02  0.52262359557E+03  0.00000000000E+00 0. -1.
         -4    1    5    5    0  503 -0.36026599707E+03  0.42341170945E+03 -0.11532435879E+03  0.56777528308E+03  0.00000000000E+00 0.  1.
         -3    1    6    6    0  502 -0.10254223208E+02  0.67372210851E+01  0.65402771450E+01  0.13903757287E+02  0.00000000000E+00 0.  1.
<mgrwt>
<rscale>  0 0.26772656E+04</rscale>
<asrwt>0</asrwt>
<pdfrwt beam="1">  1        1 0.28236747E+00 0.26772656E+04</pdfrwt>
<pdfrwt beam="2">  1       -1 0.15020402E+00 0.26772656E+04</pdfrwt>
<totfact> 0.11721790E+00</totfact>
</mgrwt>
</event>
<event>
12    1  0.1541840E-007  0.1521433E+04  0.7818608E-02  0.8870324E-01
          2   -1    0    0  501    0  0.00000000000E+00  0.00000000000E+00  0.54468977571E+03  0.54468977571E+03  0.00000000000E+00 0.  1.
         -2   -1    0    0    0  501 -0.00000000000E+00 -0.00000000000E+00 -0.10624202202E+04  0.10624202202E+04  0.00000000000E+00 0. -1.
         23    2    1    2    0    0 -0.33348111298E+03  0.22789590583E+03  0.11208729206E+03  0.42903739058E+03  0.91451215807E+02 0.  0.
        254    2    1    2    0    0  0.33348111298E+03 -0.22789590583E+03 -0.62981773659E+03  0.11780726054E+04  0.90996620023E+03 0.  0.
        -24    2    4    4    0    0 -0.30722338015E+03 -0.62651513878E+02 -0.14552637483E+03  0.35462857307E+03  0.79196474412E+02 0.  0.
         24    2    4    4    0    0  0.64070449313E+03 -0.16524439195E+03 -0.48429136175E+03  0.82344403229E+03  0.75590969366E+02 0.  0.
         11    1    3    3    0    0 -0.29033313973E+03  0.21362831408E+03  0.70196625057E+02  0.36723011147E+03  0.00000000000E+00 0.  1.
        -11    1    3    3    0    0 -0.43147973252E+02  0.14267591752E+02  0.41890667002E+02  0.61807279119E+02  0.00000000000E+00 0. -1.
          4    1    6    6  502    0  0.18182062785E+03 -0.16979675935E+02 -0.15471248767E+03  0.23933868042E+03  0.00000000000E+00 0. -1.
          3    1    5    5  503    0 -0.15310341172E+03 -0.64928781486E+02 -0.51577753878E+02  0.17411681722E+03  0.00000000000E+00 0. -1.
         -4    1    5    5    0  503 -0.15411996844E+03  0.22772676078E+01 -0.93948620956E+02  0.18051175585E+03  0.00000000000E+00 0.  1.
         -3    1    6    6    0  502  0.45888386529E+03 -0.14826471602E+03 -0.32957887408E+03  0.58410535186E+03  0.00000000000E+00 0.  1.
<mgrwt>
<rscale>  0 0.15214328E+04</rscale>
<asrwt>0</asrwt>
<pdfrwt beam="1">  1        2 0.83798428E-01 0.15214328E+04</pdfrwt>
<pdfrwt beam="2">  1       -2 0.16344926E+00 0.15214328E+04</pdfrwt>
<totfact> 0.12752280E+01</totfact>
</mgrwt>
</event>
<event>
12    1  0.1541840E-007  0.1433130E+04  0.7818608E-02  0.8930180E-01
          1   -1    0    0  501    0  0.00000000000E+00  0.00000000000E+00  0.17736347509E+04  0.17736347509E+04  0.00000000000E+00 0. -1.
         -1   -1    0    0    0  501 -0.00000000000E+00 -0.00000000000E+00 -0.28949894360E+03  0.28949894360E+03  0.00000000000E+00 0.  1.
         23    2    1    2    0    0 -0.41259960995E+03  0.63631243992E+02  0.32456414483E+03  0.53678257984E+03  0.92229499452E+02 0.  0.
        254    2    1    2    0    0  0.41259960995E+03 -0.63631243992E+02  0.11595716625E+04  0.15263511147E+04  0.90047427030E+03 0.  0.
        -24    2    4    4    0    0  0.60349596589E+03  0.20558995576E+03  0.64858448466E+03  0.91282918401E+03  0.78234740825E+02 0.  0.
         24    2    4    4    0    0 -0.19089635594E+03 -0.26922119976E+03  0.51098717780E+03  0.61352193065E+03  0.79873590132E+02 0.  0.
         11    1    3    3    0    0 -0.15768722999E+03  0.66077306620E+02  0.10745873429E+03  0.20193774419E+03  0.00000000000E+00 0.  1.
        -11    1    3    3    0    0 -0.25491237996E+03 -0.24460626279E+01  0.21710541053E+03  0.33484483565E+03  0.00000000000E+00 0. -1.
          2    1    6    6  502    0 -0.19256110286E+03 -0.23434719470E+03  0.47329167369E+03  0.56214179206E+03  0.00000000000E+00 0. -1.
          3    1    5    5  503    0  0.50584425964E+03  0.20179597669E+03  0.54952307251E+03  0.77367670150E+03  0.00000000000E+00 0. -1.
         -4    1    5    5    0  503  0.97651706255E+02  0.37939790752E+01  0.99061412152E+02  0.13915248251E+03  0.00000000000E+00 0.  1.
         -1    1    6    6    0  502  0.16647469236E+01 -0.34874005052E+02  0.37695504109E+02  0.51380138582E+02  0.00000000000E+00 0.  1.
<mgrwt>
<rscale>  0 0.14331300E+04</rscale>
<asrwt>0</asrwt>
<pdfrwt beam="1">  1        1 0.27286688E+00 0.14331300E+04</pdfrwt>
<pdfrwt beam="2">  1       -1 0.44538300E-01 0.14331300E+04</pdfrwt>
<totfact> 0.20620777E+01</totfact>
</mgrwt>
</event>
<event>
12    1  0.1541840E-007  0.1591988E+04  0.7818608E-02  0.8825485E-01
          1   -1    0    0  501    0  0.00000000000E+00  0.00000000000E+00  0.10265740586E+04  0.10265740586E+04  0.00000000000E+00 0.  1.
         -1   -1    0    0    0  501 -0.00000000000E+00 -0.00000000000E+00 -0.61720509440E+03  0.61720509440E+03  0.00000000000E+00 0. -1.
         23    2    1    2    0    0  0.29456893759E+03 -0.45849458553E+03  0.56969085956E+02  0.55552127945E+03  0.91489186289E+02 0.  0.
        254    2    1    2    0    0 -0.29456893759E+03  0.45849458553E+03  0.35239987824E+03  0.10882578736E+04  0.87357391286E+03 0.  0.
        -24    2    4    4    0    0 -0.95629702091E+02 -0.17072277569E+03 -0.14667432238E+03  0.25721620636E+03  0.79721477088E+02 0.  0.
         24    2    4    4    0    0 -0.19893923550E+03  0.62921736122E+03  0.49907420062E+03  0.83104166719E+03  0.77870968952E+02 0.  0.
         13    1    3    3    0    0  0.19734261605E+03 -0.36909367065E+03  0.23144542371E+02  0.41917766599E+03  0.00000000000E+00 0.  1.
        -13    1    3    3    0    0  0.97226321537E+02 -0.89400914885E+02  0.33824543585E+02  0.13634361346E+03  0.00000000000E+00 0. -1.
          4    1    6    6  502    0 -0.43744618290E+02  0.76198499516E+02  0.90731760607E+02  0.12630144631E+03  0.00000000000E+00 0. -1.
          3    1    5    5  503    0  0.14280494940E+02 -0.18319199776E+02 -0.13010938368E+02  0.26623488378E+02  0.00000000000E+00 0. -1.
         -4    1    5    5    0  503 -0.10991019703E+03 -0.15240357592E+03 -0.13366338401E+03  0.23059271799E+03  0.00000000000E+00 0.  1.
         -3    1    6    6    0  502 -0.15519461721E+03  0.55301886171E+03  0.40834244001E+03  0.70474022088E+03  0.00000000000E+00 0.  1.
<mgrwt>
<rscale>  0 0.15919884E+04</rscale>
<asrwt>0</asrwt>
<pdfrwt beam="1">  1        1 0.15793447E+00 0.15919884E+04</pdfrwt>
<pdfrwt beam="2">  1       -1 0.94954630E-01 0.15919884E+04</pdfrwt>
<totfact> 0.14851595E+01</totfact>
</mgrwt>
</event>
<event>
12    1  0.1541840E-007  0.1133834E+04  0.7818608E-02  0.9172828E-01
         -2   -1    0    0    0  501 -0.00000000000E+00  0.00000000000E+00  0.33350146292E+03  0.33350146292E+03  0.00000000000E+00 0.  1.
          2   -1    0    0  501    0  0.00000000000E+00 -0.00000000000E+00 -0.96369866515E+03  0.96369866515E+03  0.00000000000E+00 0. -1.
         23    2    1    2    0    0  0.15177155187E+03  0.39984657836E+02 -0.23450201489E+03  0.29646158071E+03  0.90911479085E+02 0.  0.
        254    2    1    2    0    0 -0.15177155187E+03 -0.39984657836E+02 -0.39569518734E+03  0.10007385474E+04  0.90568735337E+03 0.  0.
        -24    2    4    4    0    0 -0.42405624321E+03 -0.30790600618E+03 -0.24316700525E+03  0.58214408377E+03  0.71636134654E+02 0.  0.
         24    2    4    4    0    0  0.27228469134E+03  0.26792134834E+03 -0.15252818209E+03  0.41859446358E+03  0.77689616930E+02 0.  0.
         13    1    3    3    0    0  0.86951344880E+02  0.58601627536E+02 -0.18554907891E+03  0.21312706963E+03  0.00000000000E+00 0. -1.
        -13    1    3    3    0    0  0.64820206991E+02 -0.18616969700E+02 -0.48952935982E+02  0.83334511077E+02  0.00000000000E+00 0.  1.
          2    1    6    6  502    0  0.46110932382E+02  0.65659930065E+02 -0.63678203145E+02  0.10243221201E+03  0.00000000000E+00 0. -1.
          1    1    5    5  503    0 -0.73653943965E+02 -0.56623215084E+02 -0.74705791006E+02  0.11921429091E+03  0.00000000000E+00 0. -1.
         -2    1    5    5    0  503 -0.35040229924E+03 -0.25128279109E+03 -0.16846121424E+03  0.46292979286E+03  0.00000000000E+00 0.  1.
         -1    1    6    6    0  502  0.22617375895E+03  0.20226141827E+03 -0.88849978945E+02  0.31616225157E+03  0.00000000000E+00 0.  1.
<mgrwt>
<rscale>  0 0.11338341E+04</rscale>
<asrwt>0</asrwt>
<pdfrwt beam="1">  1        2 0.14826133E+00 0.11338341E+04</pdfrwt>
<pdfrwt beam="2">  1       -2 0.51307919E-01 0.11338341E+04</pdfrwt>
<totfact> 0.94566563E+01</totfact>
</mgrwt>
</event>
<event>
12    1  0.1541840E-007  0.3731089E+04  0.7818608E-02  0.8061107E-01
          1   -1    0    0  501    0  0.00000000000E+00  0.00000000000E+00  0.25903703282E+04  0.25903703282E+04  0.00000000000E+00 0. -1.
         -1   -1    0    0    0  501 -0.00000000000E+00 -0.00000000000E+00 -0.13435360309E+04  0.13435360309E+04  0.00000000000E+00 0.  1.
         23    2    1    2    0    0 -0.90022141827E+03 -0.32663753132E+03  0.21351839178E+04  0.23419128561E+04  0.91949898237E+02 0.  0.
        254    2    1    2    0    0  0.90022141827E+03  0.32663753132E+03 -0.88834962058E+03  0.15919935030E+04  0.91004812314E+03 0.  0.
        -24    2    4    4    0    0  0.25672112310E+03 -0.12725756953E+03 -0.72469464163E+03  0.78356380971E+03  0.81790563292E+02 0.  0.
         24    2    4    4    0    0  0.64350029518E+03  0.45389510085E+03 -0.16365497895E+03  0.80842969329E+03  0.81622450243E+02 0.  0.
         13    1    3    3    0    0 -0.38592191602E+03 -0.17041330673E+03  0.85297730333E+03  0.95160217547E+03  0.00000000000E+00 0.  1.
        -13    1    3    3    0    0 -0.51429950225E+03 -0.15622422459E+03  0.12822066145E+04  0.13903106806E+04  0.00000000000E+00 0. -1.
          2    1    6    6  502    0  0.38998708303E+03  0.22979740447E+03 -0.77122777419E+02  0.45917828219E+03  0.00000000000E+00 0. -1.
          3    1    5    5  503    0  0.16169244385E+03 -0.12144018541E+03 -0.46999555196E+03  0.51165220990E+03  0.00000000000E+00 0. -1.
         -4    1    5    5    0  503  0.95028679248E+02 -0.58173841203E+01 -0.25469908967E+03  0.27191159982E+03  0.00000000000E+00 0.  1.
         -1    1    6    6    0  502  0.25351321214E+03  0.22409769638E+03 -0.86532201535E+02  0.34925141110E+03  0.00000000000E+00 0.  1.
<mgrwt>
<rscale>  0 0.37310888E+04</rscale>
<asrwt>0</asrwt>
<pdfrwt beam="1">  1        1 0.39851851E+00 0.37310888E+04</pdfrwt>
<pdfrwt beam="2">  1       -1 0.20669785E+00 0.37310888E+04</pdfrwt>
<totfact> 0.12694941E-01</totfact>
</mgrwt>
</event>
<event>
12    1  0.1541840E-007  0.2009914E+04  0.7818608E-02  0.8601999E-01
          2   -1    0    0  501    0  0.00000000000E+00  0.00000000000E+00  0.82994641552E+03  0.82994641552E+03  0.00000000000E+00 0. -1.
         -2   -1    0    0    0  501 -0.00000000000E+00 -0.00000000000E+00 -0.12168725474E+04  0.12168725474E+04  0.00000000000E+00 0.  1.
         23    2    1    2    0    0  0.28802917394E+03 -0.52786908867E+03  0.37569254020E+03  0.71519130181E+03  0.93526111924E+02 0.  0.
        254    2    1    2    0    0 -0.28802917394E+03  0.52786908867E+03 -0.76261867211E+03  0.13316276612E+04  0.91106443739E+03 0.  0.
        -24    2    4    4    0    0 -0.46541910749E+03  0.13129025889E+03 -0.74219238348E+03  0.88926670280E+03  0.78061878793E+02 0.  0.
         24    2    4    4    0    0  0.17738993355E+03  0.39657882978E+03 -0.20426288630E+02  0.44236095835E+03  0.80771451981E+02 0.  0.
         11    1    3    3    0    0  0.19536725401E+03 -0.43744622225E+03  0.29710590539E+03  0.56373706665E+03  0.00000000000E+00 0. -1.
        -11    1    3    3    0    0  0.92661919931E+02 -0.90422866416E+02  0.78586634811E+02  0.15145423516E+03  0.00000000000E+00 0.  1.
          4    1    6    6  502    0  0.17738556624E+03  0.39993361786E+03 -0.17416177009E+02  0.43785369820E+03  0.00000000000E+00 0. -1.
          3    1    5    5  503    0 -0.75763521752E+02  0.28324504964E+02 -0.18194674817E+03  0.19911556438E+03  0.00000000000E+00 0. -1.
         -4    1    5    5    0  503 -0.38965558573E+03  0.10296575393E+03 -0.56024563531E+03  0.69015113842E+03  0.00000000000E+00 0.  1.
         -3    1    6    6    0  502  0.43673072984E-02 -0.33547880797E+01 -0.30101116219E+01  0.45072601555E+01  0.00000000000E+00 0.  1.
<mgrwt>
<rscale>  0 0.20099144E+04</rscale>
<asrwt>0</asrwt>
<pdfrwt beam="1">  1        2 0.12768406E+00 0.20099144E+04</pdfrwt>
<pdfrwt beam="2">  1       -2 0.18721116E+00 0.20099144E+04</pdfrwt>
<totfact> 0.49240932E+00</totfact>
</mgrwt>
</event>
<event>
12    1  0.1541840E-007  0.1592868E+04  0.7818608E-02  0.8824941E-01
          2   -1    0    0  501    0  0.00000000000E+00  0.00000000000E+00  0.97965955661E+03  0.97965955661E+03  0.00000000000E+00 0. -1.
         -2   -1    0    0    0  501 -0.00000000000E+00 -0.00000000000E+00 -0.64747745367E+03  0.64747745367E+03  0.00000000000E+00 0.  1.
         23    2    1    2    0    0  0.90652901264E+02  0.98868421009E+02 -0.41933214065E+03  0.44962912114E+03  0.91290685225E+02 0.  0.
        254    2    1    2    0    0 -0.90652901264E+02 -0.98868421009E+02  0.75151424359E+03  0.11775078891E+04  0.89652565914E+03 0.  0.
        -24    2    4    4    0    0 -0.43184902433E+03 -0.35428850906E+02  0.68728881273E+03  0.81637426573E+03  0.79700980866E+02 0.  0.
         24    2    4    4    0    0  0.34119612306E+03 -0.63439570103E+02  0.64225430864E+02  0.36113362342E+03  0.76506303940E+02 0.  0.
         11    1    3    3    0    0  0.67943178186E+02  0.10749904296E+03 -0.39610196185E+03  0.41601572552E+03  0.00000000000E+00 0.  1.
        -11    1    3    3    0    0  0.22709723078E+02 -0.86306219521E+01 -0.23230178803E+02  0.33613395616E+02  0.00000000000E+00 0. -1.
          2    1    6    6  502    0  0.34291152881E+03 -0.58047889596E+02  0.57779709833E+02  0.35255690171E+03  0.00000000000E+00 0. -1.
          3    1    5    5  503    0 -0.18834865871E+03  0.19359899777E+02  0.26197164904E+03  0.32323237439E+03  0.00000000000E+00 0. -1.
         -4    1    5    5    0  503 -0.24350036562E+03 -0.54788750682E+02  0.42531716369E+03  0.49314189133E+03  0.00000000000E+00 0.  1.
         -1    1    6    6    0  502 -0.17154057451E+01 -0.53916805071E+01  0.64457210307E+01  0.85767217027E+01  0.00000000000E+00 0.  1.
<mgrwt>
<rscale>  0 0.15928685E+04</rscale>
<asrwt>0</asrwt>
<pdfrwt beam="1">  1        2 0.15071685E+00 0.15928685E+04</pdfrwt>
<pdfrwt beam="2">  1       -2 0.99611916E-01 0.15928685E+04</pdfrwt>
<totfact> 0.20770696E+01</totfact>
</mgrwt>
</event>
<event>
12    1  0.1541840E-007  0.1480602E+04  0.7818608E-02  0.8897456E-01
         -2   -1    0    0    0  501 -0.00000000000E+00  0.00000000000E+00  0.19370220009E+03  0.19370220009E+03  0.00000000000E+00 0.  1.
          2   -1    0    0  501    0  0.00000000000E+00 -0.00000000000E+00 -0.28293217135E+04  0.28293217135E+04  0.00000000000E+00 0. -1.
         23    2    1    2    0    0  0.38104188799E+03  0.55525410214E+02 -0.13707733103E+04  0.14266888082E+04  0.90252400075E+02 0.  0.
        254    2    1    2    0    0 -0.38104188799E+03 -0.55525410214E+02 -0.12648462031E+04  0.15963351054E+04  0.89452437616E+03 0.  0.
        -24    2    4    4    0    0 -0.96556007709E+02  0.37290196572E+02  0.12026913986E+03  0.17717248420E+03  0.78814984423E+02 0.  0.
         24    2    4    4    0    0 -0.28448588028E+03 -0.92815606785E+02 -0.13851153430E+04  0.14191626212E+04  0.77013499214E+02 0.  0.
         13    1    3    3    0    0  0.31881329161E+03  0.74839323620E+02 -0.10725441661E+04  0.11214249095E+04  0.00000000000E+00 0. -1.
        -13    1    3    3    0    0  0.62228596380E+02 -0.19313913406E+02 -0.29822914414E+03  0.30526389874E+03  0.00000000000E+00 0.  1.
          2    1    6    6  502    0 -0.83830451685E+00  0.47012796412E+01 -0.74954697856E+02  0.75106667583E+02  0.00000000000E+00 0. -1.
          3    1    5    5  503    0 -0.84579039768E+02 -0.23230871883E+01  0.10030197513E+03  0.13122308074E+03  0.00000000000E+00 0. -1.
         -4    1    5    5    0  503 -0.11976967940E+02  0.39613283760E+02  0.19967164723E+02  0.45949403460E+02  0.00000000000E+00 0.  1.
         -1    1    6    6    0  502 -0.28364757576E+03 -0.97516886426E+02 -0.13101606451E+04  0.13440559536E+04  0.00000000000E+00 0.  1.
<mgrwt>
<rscale>  0 0.14806024E+04</rscale>
<asrwt>0</asrwt>
<pdfrwt beam="1">  1        2 0.43528026E+00 0.14806024E+04</pdfrwt>
<pdfrwt beam="2">  1       -2 0.29800339E-01 0.14806024E+04</pdfrwt>
<totfact> 0.22428831E+01</totfact>
</mgrwt>
</event>
<event>
12    1  0.1541840E-007  0.1468275E+04  0.7818608E-02  0.8905828E-01
          2   -1    0    0  501    0  0.00000000000E+00  0.00000000000E+00  0.27228943465E+03  0.27228943465E+03  0.00000000000E+00 0.  1.
         -2   -1    0    0    0  501 -0.00000000000E+00 -0.00000000000E+00 -0.19793562416E+04  0.19793562416E+04  0.00000000000E+00 0. -1.
         23    2    1    2    0    0  0.27717098435E+02 -0.15622080462E+03  0.88617552495E+02  0.20176333627E+03  0.87648136945E+02 0.  0.
        254    2    1    2    0    0 -0.27717098435E+02  0.15622080462E+03 -0.17956843594E+04  0.20498823399E+04  0.97589041988E+03 0.  0.
        -24    2    4    4    0    0  0.34720001851E+03  0.16100131610E+03 -0.26548338864E+03  0.47231693787E+03  0.78310813503E+02 0.  0.
         24    2    4    4    0    0 -0.37491711695E+03 -0.47805114825E+01 -0.15302009708E+04  0.15775654021E+04  0.81313522866E+02 0.  0.
         13    1    3    3    0    0 -0.42227680362E+01  0.81241061346E+01 -0.44871089014E+01  0.10196421758E+02  0.00000000000E+00 0. -1.
        -13    1    3    3    0    0  0.31939866471E+02 -0.16434491075E+03  0.93104661396E+02  0.19156691451E+03  0.00000000000E+00 0.  1.
          4    1    6    6  502    0 -0.12185377154E+03 -0.38439634870E+02 -0.55273211040E+03  0.56730832272E+03  0.00000000000E+00 0. -1.
          3    1    5    5  503    0  0.22647390566E+03  0.13397042984E+03 -0.21033331534E+03  0.33686586285E+03  0.00000000000E+00 0. -1.
         -4    1    5    5    0  503  0.12072611285E+03  0.27030886262E+02 -0.55150073299E+02  0.13545107501E+03  0.00000000000E+00 0.  1.
         -3    1    6    6    0  502 -0.25306334541E+03  0.33659123387E+02 -0.97746886037E+03  0.10102570793E+04  0.00000000000E+00 0.  1.
<mgrwt>
<rscale>  0 0.14682749E+04</rscale>
<asrwt>0</asrwt>
<pdfrwt beam="1">  1        2 0.41890681E-01 0.14682749E+04</pdfrwt>
<pdfrwt beam="2">  1       -2 0.30451636E+00 0.14682749E+04</pdfrwt>
<totfact> 0.35486319E+00</totfact>
</mgrwt>
</event>
<event>
12    1  0.1541840E-007  0.2382103E+04  0.7818608E-02  0.8446235E-01
          1   -1    0    0  501    0  0.00000000000E+00  0.00000000000E+00  0.24032728674E+04  0.24032728674E+04  0.00000000000E+00 0. -1.
         -1   -1    0    0    0  501 -0.00000000000E+00 -0.00000000000E+00 -0.59027977854E+03  0.59027977854E+03  0.00000000000E+00 0.  1.
         23    2    1    2    0    0 -0.15118178989E+03  0.91812267453E+03  0.12766480541E+04  0.15822356611E+04  0.88511321108E+02 0.  0.
        254    2    1    2    0    0  0.15118178989E+03 -0.91812267453E+03  0.53634503468E+03  0.14113169848E+04  0.91561152042E+03 0.  0.
        -24    2    4    4    0    0  0.38926949952E+03 -0.66845213487E+03  0.10457863427E+02  0.77735084939E+03  0.76196957010E+02 0.  0.
         24    2    4    4    0    0 -0.23808770963E+03 -0.24967053966E+03  0.52588717125E+03  0.63396613543E+03  0.79590251527E+02 0.  0.
         11    1    3    3    0    0 -0.70228934226E+02  0.61676267944E+03  0.89624541291E+03  0.10902220628E+04  0.00000000000E+00 0.  1.
        -11    1    3    3    0    0 -0.80952855666E+02  0.30135999509E+03  0.38040264124E+03  0.49201359833E+03  0.00000000000E+00 0. -1.
          4    1    6    6  502    0 -0.20520959875E+03 -0.22943684327E+03  0.50108468241E+03  0.58808001447E+03  0.00000000000E+00 0. -1.
          1    1    5    5  503    0  0.25634491517E+03 -0.37023574521E+03 -0.71652904290E+01  0.45037602506E+03  0.00000000000E+00 0. -1.
         -2    1    5    5    0  503  0.13292458436E+03 -0.29821638966E+03  0.17623153856E+02  0.32697482433E+03  0.00000000000E+00 0.  1.
         -3    1    6    6    0  502 -0.32878110881E+02 -0.20233696385E+02  0.24802488841E+02  0.45886120965E+02  0.00000000000E+00 0.  1.
<mgrwt>
<rscale>  0 0.23821027E+04</rscale>
<asrwt>0</asrwt>
<pdfrwt beam="1">  1        1 0.36973428E+00 0.23821027E+04</pdfrwt>
<pdfrwt beam="2">  1       -1 0.90812275E-01 0.23821027E+04</pdfrwt>
<totfact> 0.16793031E+00</totfact>
</mgrwt>
</event>
<event>
12    1  0.1541840E-007  0.1899533E+04  0.7818608E-02  0.8655089E-01
         -1   -1    0    0    0  501 -0.00000000000E+00  0.00000000000E+00  0.10106070203E+04  0.10106070203E+04  0.00000000000E+00 0.  1.
          1   -1    0    0  501    0  0.00000000000E+00 -0.00000000000E+00 -0.89258904319E+03  0.89258904319E+03  0.00000000000E+00 0. -1.
         23    2    1    2    0    0 -0.16034346558E+03 -0.40624016130E+03 -0.54283473798E+03  0.70234807546E+03  0.88781590136E+02 0.  0.
        254    2    1    2    0    0  0.16034346558E+03  0.40624016130E+03  0.66085271506E+03  0.12008479880E+04  0.90253447783E+03 0.  0.
        -24    2    4    4    0    0 -0.19362690150E+03  0.12698338177E+03 -0.13700977579E+03  0.28092947925E+03  0.80830300142E+02 0.  0.
         24    2    4    4    0    0  0.35397036708E+03  0.27925677953E+03  0.79786249085E+03  0.91991850874E+03  0.79913320172E+02 0.  0.
         11    1    3    3    0    0 -0.13229619463E+03 -0.39256573322E+03 -0.51010021242E+03  0.65712431451E+03  0.00000000000E+00 0. -1.
        -11    1    3    3    0    0 -0.28047270956E+02 -0.13674428081E+02 -0.32734525554E+02  0.45223760952E+02  0.00000000000E+00 0.  1.
          2    1    6    6  502    0  0.16828798112E+03  0.12925568103E+03  0.29624534644E+03  0.36440249856E+03  0.00000000000E+00 0. -1.
          1    1    5    5  503    0 -0.26124593523E+02 -0.10451233938E+02 -0.10511699506E+02  0.30036952310E+02  0.00000000000E+00 0. -1.
         -2    1    5    5    0  503 -0.16750230798E+03  0.13743461571E+03 -0.12649807628E+03  0.25089252694E+03  0.00000000000E+00 0.  1.
         -1    1    6    6    0  502  0.18568238596E+03  0.15000109850E+03  0.50161714441E+03  0.55551601019E+03  0.00000000000E+00 0.  1.
<mgrwt>
<rscale>  0 0.18995334E+04</rscale>
<asrwt>0</asrwt>
<pdfrwt beam="1">  1        1 0.13732139E+00 0.18995334E+04</pdfrwt>
<pdfrwt beam="2">  1       -1 0.15547800E+00 0.18995334E+04</pdfrwt>
<totfact> 0.54640563E+00</totfact>
</mgrwt>
</event>
<event>
12    1  0.1541840E-007  0.1988105E+04  0.7818608E-02  0.8612202E-01
          2   -1    0    0  501    0  0.00000000000E+00  0.00000000000E+00  0.21924251844E+04  0.21924251844E+04  0.00000000000E+00 0. -1.
         -2   -1    0    0    0  501 -0.00000000000E+00 -0.00000000000E+00 -0.45070657352E+03  0.45070657352E+03  0.00000000000E+00 0.  1.
         23    2    1    2    0    0  0.34568578773E+03 -0.32076915858E+03 -0.14317943471E+03  0.50102183438E+03  0.90172119126E+02 0.  0.
        254    2    1    2    0    0 -0.34568578773E+03  0.32076915858E+03  0.18848980456E+04  0.21421099236E+04  0.90188844393E+03 0.  0.
        -24    2    4    4    0    0  0.25434262603E+03  0.16761073597E+03  0.10709585970E+04  0.11163316146E+04  0.80376782152E+02 0.  0.
         24    2    4    4    0    0 -0.60002841376E+03  0.15315842261E+03  0.81393944868E+03  0.10257783090E+04  0.78943735200E+02 0.  0.
         13    1    3    3    0    0  0.12332683839E+03 -0.61262703890E+02 -0.53287643504E+02  0.14765568362E+03  0.00000000000E+00 0. -1.
        -13    1    3    3    0    0  0.22235894934E+03 -0.25950645469E+03 -0.89891791211E+02  0.35336615076E+03  0.00000000000E+00 0.  1.
          2    1    6    6  502    0 -0.22915881052E+03  0.77304118221E+02  0.37415044021E+03  0.44550896629E+03  0.00000000000E+00 0. -1.
          1    1    5    5  503    0  0.24275361412E+03  0.17525046494E+03  0.10429138340E+04  0.10850397725E+04  0.00000000000E+00 0. -1.
         -2    1    5    5    0  503  0.11589011909E+02 -0.76397289663E+01  0.28044762936E+02  0.31291842129E+02  0.00000000000E+00 0.  1.
         -1    1    6    6    0  502 -0.37086960324E+03  0.75854304384E+02  0.43978900847E+03  0.58026934269E+03  0.00000000000E+00 0.  1.
<mgrwt>
<rscale>  0 0.19881051E+04</rscale>
<asrwt>0</asrwt>
<pdfrwt beam="1">  1        2 0.33729618E+00 0.19881051E+04</pdfrwt>
<pdfrwt beam="2">  1       -2 0.69339474E-01 0.19881051E+04</pdfrwt>
<totfact> 0.92037292E+00</totfact>
</mgrwt>
</event>
<event>
12    1  0.1541840E-007  0.1684042E+04  0.7818608E-02  0.8770518E-01
          1   -1    0    0  501    0  0.00000000000E+00  0.00000000000E+00  0.15477334064E+04  0.15477334064E+04  0.00000000000E+00 0. -1.
         -1   -1    0    0    0  501 -0.00000000000E+00 -0.00000000000E+00 -0.45808888925E+03  0.45808888925E+03  0.00000000000E+00 0.  1.
         23    2    1    2    0    0  0.28927722475E+03  0.20757857969E+03  0.96012982228E+03  0.10280871790E+04  0.91344362004E+02 0.  0.
        254    2    1    2    0    0 -0.28927722475E+03 -0.20757857969E+03  0.12951469491E+03  0.97773511671E+03  0.90134439741E+03 0.  0.
        -24    2    4    4    0    0  0.69917023984E+01 -0.76285084955E+02 -0.36465311415E+03  0.38116355469E+03  0.80283645118E+02 0.  0.
         24    2    4    4    0    0 -0.29626892715E+03 -0.13129349473E+03  0.49416780906E+03  0.59657156202E+03  0.81746841794E+02 0.  0.
         11    1    3    3    0    0  0.40150724064E+02  0.12804677700E+02  0.20724777532E+03  0.21148919781E+03  0.00000000000E+00 0.  1.
        -11    1    3    3    0    0  0.24912650069E+03  0.19477390199E+03  0.75288204696E+03  0.81659798119E+03  0.00000000000E+00 0. -1.
          4    1    6    6  502    0 -0.18309734875E+03 -0.41462759122E+02  0.24666806234E+03  0.30998214867E+03  0.00000000000E+00 0. -1.
          3    1    5    5  503    0  0.20487835285E+02 -0.54073488085E+02 -0.34148433621E+03  0.34634555776E+03  0.00000000000E+00 0. -1.
         -4    1    5    5    0  503 -0.13496132887E+02 -0.22211596869E+02 -0.23168777945E+02  0.34817996925E+02  0.00000000000E+00 0.  1.
         -1    1    6    6    0  502 -0.11317157840E+03 -0.89830735609E+02  0.24749974673E+03  0.28658941335E+03  0.00000000000E+00 0.  1.
<mgrwt>
<rscale>  0 0.16840421E+04</rscale>
<asrwt>0</asrwt>
<pdfrwt beam="1">  1        1 0.23811283E+00 0.16840421E+04</pdfrwt>
<pdfrwt beam="2">  1       -1 0.70475215E-01 0.16840421E+04</pdfrwt>
<totfact> 0.11753429E+01</totfact>
</mgrwt>
</event>
<event>
12    1  0.1541840E-007  0.1852334E+04  0.7818608E-02  0.8678953E-01
          2   -1    0    0  501    0  0.00000000000E+00  0.00000000000E+00  0.14681369999E+04  0.14681369999E+04  0.00000000000E+00 0. -1.
         -2   -1    0    0    0  501 -0.00000000000E+00 -0.00000000000E+00 -0.58426791908E+03  0.58426791908E+03  0.00000000000E+00 0.  1.
         23    2    1    2    0    0 -0.99055360896E+01  0.36621813351E+03 -0.32671184510E+03  0.49913607404E+03  0.90456341514E+02 0.  0.
        254    2    1    2    0    0  0.99055360896E+01 -0.36621813351E+03  0.12105809260E+04  0.15532688450E+04  0.90162302848E+03 0.  0.
        -24    2    4    4    0    0 -0.29905481169E+03  0.16416697840E+03  0.37216713411E+03  0.51105978446E+03  0.79304163709E+02 0.  0.
         24    2    4    4    0    0  0.30896034778E+03 -0.53038511191E+03  0.83841379184E+03  0.10422090605E+04  0.80605061961E+02 0.  0.
         11    1    3    3    0    0  0.27472113082E+02  0.22916288406E+03 -0.23862294311E+03  0.33198080277E+03  0.00000000000E+00 0.  1.
        -11    1    3    3    0    0 -0.37377649172E+02  0.13705524945E+03 -0.88088901990E+02  0.16715527127E+03  0.00000000000E+00 0. -1.
          2    1    6    6  502    0  0.14274182264E+03 -0.20438137768E+03  0.39774416156E+03  0.46941175265E+03  0.00000000000E+00 0. -1.
          3    1    5    5  503    0 -0.24055919249E+03  0.13222947219E+03  0.24708231862E+03  0.36932780911E+03  0.00000000000E+00 0. -1.
         -4    1    5    5    0  503 -0.58495619201E+02  0.31937506215E+02  0.12508481550E+03  0.14173197535E+03  0.00000000000E+00 0.  1.
         -1    1    6    6    0  502  0.16621852514E+03 -0.32600373423E+03  0.44066963029E+03  0.57279730786E+03  0.00000000000E+00 0.  1.
<mgrwt>
<rscale>  0 0.18523340E+04</rscale>
<asrwt>0</asrwt>
<pdfrwt beam="1">  1        2 0.22586723E+00 0.18523340E+04</pdfrwt>
<pdfrwt beam="2">  1       -2 0.89887372E-01 0.18523340E+04</pdfrwt>
<totfact> 0.13185778E+01</totfact>
</mgrwt>
</event>
<event>
12    1  0.1541840E-007  0.1780594E+04  0.7818608E-02  0.8716688E-01
         -2   -1    0    0    0  501 -0.00000000000E+00  0.00000000000E+00  0.18970606120E+04  0.18970606120E+04  0.00000000000E+00 0.  1.
          2   -1    0    0  501    0  0.00000000000E+00 -0.00000000000E+00 -0.41781958349E+03  0.41781958349E+03  0.00000000000E+00 0. -1.
         23    2    1    2    0    0  0.20476342829E+03 -0.34768642894E+03 -0.12491538240E+03  0.43223806859E+03  0.91716850906E+02 0.  0.
        254    2    1    2    0    0 -0.20476342829E+03  0.34768642894E+03  0.16041564109E+04  0.18826421269E+04  0.89900482360E+03 0.  0.
        -24    2    4    4    0    0  0.47102089096E+02 -0.35532851670E+02  0.13475749524E+04  0.13511975397E+04  0.79343233318E+02 0.  0.
         24    2    4    4    0    0 -0.25186551739E+03  0.38321928061E+03  0.25658145848E+03  0.53144458714E+03  0.79410632087E+02 0.  0.
         13    1    3    3    0    0  0.15973854808E+03 -0.29806774168E+03 -0.69388712363E+02  0.34521815679E+03  0.00000000000E+00 0. -1.
        -13    1    3    3    0    0  0.45024880217E+02 -0.49618687256E+02 -0.55526670039E+02  0.87019911797E+02  0.00000000000E+00 0.  1.
          4    1    6    6  502    0 -0.37223163681E+02  0.99087104368E+02  0.87094068792E+02  0.13707368451E+03  0.00000000000E+00 0. -1.
          3    1    5    5  503    0 -0.20983360871E+01 -0.19952782938E+01  0.66349661580E+00  0.29705853907E+01  0.00000000000E+00 0. -1.
         -4    1    5    5    0  503  0.49200425183E+02 -0.33537573376E+02  0.13469114558E+04  0.13482269543E+04  0.00000000000E+00 0.  1.
         -1    1    6    6    0  502 -0.21464235371E+03  0.28413217624E+03  0.16948738969E+03  0.39437090263E+03  0.00000000000E+00 0.  1.
<mgrwt>
<rscale>  0 0.17805944E+04</rscale>
<asrwt>0</asrwt>
<pdfrwt beam="1">  1        2 0.64279937E-01 0.17805944E+04</pdfrwt>
<pdfrwt beam="2">  1       -2 0.29185547E+00 0.17805944E+04</pdfrwt>
<totfact> 0.25548389E+00</totfact>
</mgrwt>
</event>
<event>
12    1  0.1541840E-007  0.1306623E+04  0.7818608E-02  0.9024329E-01
          2   -1    0    0  501    0  0.00000000000E+00  0.00000000000E+00  0.20735370718E+04  0.20735370718E+04  0.00000000000E+00 0. -1.
         -2   -1    0    0    0  501 -0.00000000000E+00 -0.00000000000E+00 -0.20583961138E+03  0.20583961138E+03  0.00000000000E+00 0.  1.
         23    2    1    2    0    0  0.93572289900E+01 -0.21435972360E+03  0.93611675081E+03  0.96476488084E+03  0.91755410354E+02 0.  0.
        254    2    1    2    0    0 -0.93572289900E+01  0.21435972360E+03  0.93158070958E+03  0.13146118023E+04  0.90239898240E+03 0.  0.
        -24    2    4    4    0    0 -0.32699731494E+03  0.24640392916E+03  0.88966503499E+03  0.98268212945E+03  0.80735077666E+02 0.  0.
         24    2    4    4    0    0  0.31764008595E+03 -0.32044205551E+02  0.41915674584E+02  0.33192967285E+03  0.80612211407E+02 0.  0.
         13    1    3    3    0    0  0.22759985356E+02 -0.12676948529E+02  0.56406632807E+02  0.62132360184E+02  0.00000000000E+00 0.  1.
        -13    1    3    3    0    0 -0.13402756366E+02 -0.20168277508E+03  0.87971011800E+03  0.90263252066E+03  0.00000000000E+00 0. -1.
          2    1    6    6  502    0  0.31248172720E+03 -0.43466490565E+02  0.34510078301E+02  0.31737219655E+03  0.00000000000E+00 0. -1.
          1    1    5    5  503    0 -0.32265965215E+03  0.22764980113E+03  0.86858891969E+03  0.95413856147E+03  0.00000000000E+00 0. -1.
         -2    1    5    5    0  503 -0.43376627941E+01  0.18754128029E+02  0.21076115303E+02  0.28543567978E+02  0.00000000000E+00 0.  1.
         -1    1    6    6    0  502  0.51583587506E+01  0.11422285014E+02  0.74055962833E+01  0.14557476301E+02  0.00000000000E+00 0.  1.
<mgrwt>
<rscale>  0 0.13066232E+04</rscale>
<asrwt>0</asrwt>
<pdfrwt beam="1">  1        2 0.31900569E+00 0.13066232E+04</pdfrwt>
<pdfrwt beam="2">  1       -2 0.31667634E-01 0.13066232E+04</pdfrwt>
<totfact> 0.55251651E+01</totfact>
</mgrwt>
</event>
<event>
12    1  0.1541840E-007  0.2115421E+04  0.7818608E-02  0.8554480E-01
          2   -1    0    0  501    0  0.00000000000E+00  0.00000000000E+00  0.64438505518E+03  0.64438505518E+03  0.00000000000E+00 0. -1.
         -2   -1    0    0    0  501 -0.00000000000E+00 -0.00000000000E+00 -0.17361544457E+04  0.17361544457E+04  0.00000000000E+00 0.  1.
         23    2    1    2    0    0  0.15079579031E+03 -0.83194975517E+03 -0.21845398909E+03  0.88035587021E+03  0.11146545364E+03 0.  0.
        254    2    1    2    0    0 -0.15079579031E+03  0.83194975517E+03 -0.87331540143E+03  0.15001836307E+04  0.87919927768E+03 0.  0.
        -24    2    4    4    0    0 -0.11395256489E+03  0.50073314940E+03 -0.10063570931E+04  0.11327109745E+04  0.80998017689E+02 0.  0.
         24    2    4    4    0    0 -0.36843225426E+02  0.33121660577E+03  0.13304169168E+03  0.36747265621E+03  0.79209836146E+02 0.  0.
         11    1    3    3    0    0  0.14874571369E+03 -0.83393531204E+03 -0.21188621412E+03  0.87319480057E+03  0.00000000000E+00 0. -1.
        -11    1    3    3    0    0  0.20500766184E+01  0.19855568749E+01 -0.65677749671E+01  0.71610696312E+01  0.00000000000E+00 0.  1.
          2    1    6    6  502    0  0.19388313867E+02  0.17067707161E+03  0.55392673545E+02  0.18048522868E+03  0.00000000000E+00 0. -1.
          1    1    5    5  503    0 -0.98419679604E+02  0.46568132200E+03 -0.87754021227E+03  0.99830974709E+03  0.00000000000E+00 0. -1.
         -2    1    5    5    0  503 -0.15532885282E+02  0.35051827397E+02 -0.12881688084E+03  0.13440122737E+03  0.00000000000E+00 0.  1.
         -1    1    6    6    0  502 -0.56231539293E+02  0.16053953415E+03  0.77649018137E+02  0.18698742753E+03  0.00000000000E+00 0.  1.
<mgrwt>
<rscale>  0 0.21154215E+04</rscale>
<asrwt>0</asrwt>
<pdfrwt beam="1">  1        2 0.99136164E-01 0.21154215E+04</pdfrwt>
<pdfrwt beam="2">  1       -2 0.26710068E+00 0.21154215E+04</pdfrwt>
<totfact> 0.21119050E+00</totfact>
</mgrwt>
</event>
<event>
12    1  0.1541840E-007  0.1781709E+04  0.7818608E-02  0.8716087E-01
         -2   -1    0    0    0  501 -0.00000000000E+00  0.00000000000E+00  0.10345982888E+04  0.10345982888E+04  0.00000000000E+00 0. -1.
          2   -1    0    0  501    0  0.00000000000E+00 -0.00000000000E+00 -0.76708233690E+03  0.76708233690E+03  0.00000000000E+00 0.  1.
         23    2    1    2    0    0  0.36909741977E+03 -0.15008837463E+02  0.62881764026E+03  0.73492615273E+03  0.90811093853E+02 0.  0.
        254    2    1    2    0    0 -0.36909741977E+03  0.15008837463E+02 -0.36130168836E+03  0.10667544730E+04  0.93325667699E+03 0.  0.
        -24    2    4    4    0    0 -0.52531238362E+02 -0.21479961996E+03 -0.57079023511E+03  0.61607723190E+03  0.69650954314E+02 0.  0.
         24    2    4    4    0    0 -0.31656618141E+03  0.22980845742E+03  0.20948854675E+03  0.45067724109E+03  0.78730236231E+02 0.  0.
         13    1    3    3    0    0  0.14252363632E+03  0.94004342676E+01  0.32619666071E+03  0.35609776260E+03  0.00000000000E+00 0. -1.
        -13    1    3    3    0    0  0.22657378345E+03 -0.24409271730E+02  0.30262097956E+03  0.37882839012E+03  0.00000000000E+00 0.  1.
          2    1    6    6  502    0 -0.67522025326E+02  0.56980394938E+02  0.12684747024E+02  0.89257448532E+02  0.00000000000E+00 0. -1.
          3    1    5    5  503    0  0.15309407886E+02 -0.52512716024E+02 -0.10982565334E+03  0.12269326569E+03  0.00000000000E+00 0. -1.
         -4    1    5    5    0  503 -0.67840646248E+02 -0.16228690393E+03 -0.46096458177E+03  0.49338396622E+03  0.00000000000E+00 0.  1.
         -1    1    6    6    0  502 -0.24904415609E+03  0.17282806248E+03  0.19680379973E+03  0.36141979255E+03  0.00000000000E+00 0.  1.
<mgrwt>
<rscale>  0 0.17817094E+04</rscale>
<asrwt>0</asrwt>
<pdfrwt beam="1">  1        2 0.11801267E+00 0.17817094E+04</pdfrwt>
<pdfrwt beam="2">  1       -2 0.15916897E+00 0.17817094E+04</pdfrwt>
<totfact> 0.87912746E+00</totfact>
</mgrwt>
</event>
<event>
12    1  0.1541840E-007  0.1380155E+04  0.7818608E-02  0.8968310E-01
         -2   -1    0    0    0  501 -0.00000000000E+00  0.00000000000E+00  0.19411023262E+03  0.19411023262E+03  0.00000000000E+00 0. -1.
          2   -1    0    0  501    0  0.00000000000E+00 -0.00000000000E+00 -0.24532810648E+04  0.24532810648E+04  0.00000000000E+00 0.  1.
         23    2    1    2    0    0  0.88190190700E+01  0.36515359439E+03 -0.82706581236E+03  0.90893799423E+03  0.93356825076E+02 0.  0.
        254    2    1    2    0    0 -0.88190190700E+01 -0.36515359439E+03 -0.14321050198E+04  0.17384533032E+04  0.91535795017E+03 0.  0.
        -24    2    4    4    0    0  0.36963098417E+03 -0.18566048913E+03 -0.26701204314E+03  0.49836515435E+03  0.77301450197E+02 0.  0.
         24    2    4    4    0    0 -0.37845000324E+03 -0.17949310526E+03 -0.11650929767E+04  0.12400881488E+04  0.70248080165E+02 0.  0.
         11    1    3    3    0    0 -0.90667887366E+01  0.33347796075E+02 -0.31476023074E+02  0.46744220922E+02  0.00000000000E+00 0. -1.
        -11    1    3    3    0    0  0.17885807807E+02  0.33180579831E+03 -0.79558978928E+03  0.86219377331E+03  0.00000000000E+00 0.  1.
          2    1    6    6  502    0 -0.31639717155E+03 -0.12122833295E+03 -0.90014456426E+03  0.96180232659E+03  0.00000000000E+00 0. -1.
          3    1    5    5  503    0  0.11310575370E+03 -0.34009802944E+02 -0.43520529559E+02  0.12587142134E+03  0.00000000000E+00 0. -1.
         -4    1    5    5    0  503  0.25652523047E+03 -0.15165068619E+03 -0.22349151358E+03  0.37249373301E+03  0.00000000000E+00 0.  1.
         -1    1    6    6    0  502 -0.62052831692E+02 -0.58264772305E+02 -0.26494841241E+03  0.27828582223E+03  0.00000000000E+00 0.  1.
<mgrwt>
<rscale>  0 0.13801550E+04</rscale>
<asrwt>0</asrwt>
<pdfrwt beam="1">  1        2 0.37742789E+00 0.13801550E+04</pdfrwt>
<pdfrwt beam="2">  1       -2 0.29863110E-01 0.13801550E+04</pdfrwt>
<totfact> 0.37474974E+01</totfact>
</mgrwt>
</event>
<event>
12    1  0.1541840E-007  0.1278094E+04  0.7818608E-02  0.9047119E-01
          2   -1    0    0  501    0  0.00000000000E+00  0.00000000000E+00  0.64654629204E+03  0.64654629204E+03  0.00000000000E+00 0. -1.
         -2   -1    0    0    0  501 -0.00000000000E+00 -0.00000000000E+00 -0.63163507607E+03  0.63163507607E+03  0.00000000000E+00 0.  1.
         23    2    1    2    0    0  0.12557139457E+03  0.10098154930E+03  0.26834800251E+03  0.32536764451E+03  0.88814442559E+02 0.  0.
        254    2    1    2    0    0 -0.12557139457E+03 -0.10098154930E+03 -0.25343678653E+03  0.95281372360E+03  0.90424462325E+03 0.  0.
        -24    2    4    4    0    0 -0.10651242200E+03  0.39476457797E+03 -0.10102420007E+03  0.42852104728E+03  0.78996398054E+02 0.  0.
         24    2    4    4    0    0 -0.19058972576E+02 -0.49574612727E+03 -0.15241258646E+03  0.52429267632E+03  0.74335367031E+02 0.  0.
         11    1    3    3    0    0  0.12650049376E+03  0.10702971835E+03  0.21389182388E+03  0.27056874885E+03  0.00000000000E+00 0. -1.
        -11    1    3    3    0    0 -0.92909918796E+00 -0.60481690524E+01  0.54456178626E+02  0.54798895653E+02  0.00000000000E+00 0.  1.
          2    1    6    6  502    0  0.13473497330E+02 -0.18454627860E+03 -0.26124835611E+02  0.18687260663E+03  0.00000000000E+00 0. -1.
          1    1    5    5  503    0 -0.48082925524E+02  0.12924887955E+03 -0.70689275038E+02  0.15496520318E+03  0.00000000000E+00 0. -1.
         -2    1    5    5    0  503 -0.58429496474E+02  0.26551569842E+03 -0.30334925037E+02  0.27355584410E+03  0.00000000000E+00 0.  1.
         -1    1    6    6    0  502 -0.32532469906E+02 -0.31119984867E+03 -0.12628775085E+03  0.33742006968E+03  0.00000000000E+00 0.  1.
<mgrwt>
<rscale>  0 0.12780944E+04</rscale>
<asrwt>0</asrwt>
<pdfrwt beam="1">  1        2 0.99468660E-01 0.12780944E+04</pdfrwt>
<pdfrwt beam="2">  1       -2 0.97174627E-01 0.12780944E+04</pdfrwt>
<totfact> 0.39279121E+01</totfact>
</mgrwt>
</event>
<event>
12    1  0.1541840E-007  0.1826079E+04  0.7818608E-02  0.8692553E-01
          1   -1    0    0  501    0  0.00000000000E+00  0.00000000000E+00  0.11636863378E+04  0.11636863378E+04  0.00000000000E+00 0.  1.
         -1   -1    0    0    0  501 -0.00000000000E+00 -0.00000000000E+00 -0.71637949558E+03  0.71637949558E+03  0.00000000000E+00 0. -1.
         23    2    1    2    0    0  0.53894139001E+03  0.28319226164E+03  0.49513451442E+03  0.79015040319E+03  0.92324392078E+02 0.  0.
        254    2    1    2    0    0 -0.53894139001E+03 -0.28319226164E+03 -0.47827672200E+02  0.10899154302E+04  0.90275826211E+03 0.  0.
        -24    2    4    4    0    0 -0.67389771072E+03  0.70169532845E+02 -0.13067233834E+03  0.69467969542E+03  0.80266626813E+02 0.  0.
         24    2    4    4    0    0  0.13495632071E+03 -0.35336179449E+03  0.82844666135E+02  0.39523573476E+03  0.79185106079E+02 0.  0.
         11    1    3    3    0    0  0.27825723504E+03  0.10779603847E+03  0.20122581630E+03  0.35991513431E+03  0.00000000000E+00 0. -1.
        -11    1    3    3    0    0  0.26068415497E+03  0.17539622317E+03  0.29390869812E+03  0.43023526888E+03  0.00000000000E+00 0.  1.
          4    1    6    6  502    0  0.96187982962E+02 -0.31958740677E+03  0.60566084433E+02  0.33919977774E+03  0.00000000000E+00 0. -1.
          1    1    5    5  503    0 -0.63668491560E+03  0.84763282040E+02 -0.12243115914E+03  0.65386687059E+03  0.00000000000E+00 0. -1.
         -2    1    5    5    0  503 -0.37212795121E+02 -0.14593749195E+02 -0.82411791988E+01  0.40812824833E+02  0.00000000000E+00 0.  1.
         -3    1    6    6    0  502  0.38768337745E+02 -0.33774387713E+02  0.22278581702E+02  0.56035957024E+02  0.00000000000E+00 0.  1.
<mgrwt>
<rscale>  0 0.18260789E+04</rscale>
<asrwt>0</asrwt>
<pdfrwt beam="1">  1        1 0.17902867E+00 0.18260789E+04</pdfrwt>
<pdfrwt beam="2">  1       -1 0.11021223E+00 0.18260789E+04</pdfrwt>
<totfact> 0.81291964E+00</totfact>
</mgrwt>
</event>
<event>
12    1  0.1541840E-007  0.1347042E+04  0.7818608E-02  0.8993070E-01
          2   -1    0    0  501    0  0.00000000000E+00  0.00000000000E+00  0.10225066839E+04  0.10225066839E+04  0.00000000000E+00 0. -1.
         -2   -1    0    0    0  501 -0.00000000000E+00 -0.00000000000E+00 -0.44364554764E+03  0.44364554764E+03  0.00000000000E+00 0.  1.
         23    2    1    2    0    0  0.16443062315E+03 -0.23319605279E+03  0.43128130245E+03  0.52545743135E+03  0.93188633660E+02 0.  0.
        254    2    1    2    0    0 -0.16443062315E+03  0.23319605279E+03  0.14757983378E+03  0.94069480017E+03  0.88414312804E+03 0.  0.
        -24    2    4    4    0    0  0.25586671526E+03 -0.15922805516E+03  0.17983942602E+03  0.35918036146E+03  0.76465439135E+02 0.  0.
         24    2    4    4    0    0 -0.42029733841E+03  0.39242410794E+03 -0.32259592238E+02  0.58151443871E+03  0.80447672209E+02 0.  0.
         11    1    3    3    0    0  0.16991162484E+03 -0.18323680389E+03  0.35680926606E+03  0.43561283143E+03  0.00000000000E+00 0. -1.
        -11    1    3    3    0    0 -0.54810016914E+01 -0.49959248895E+02  0.74472036392E+02  0.89844599916E+02  0.00000000000E+00 0.  1.
          2    1    6    6  502    0 -0.22334876933E+03  0.25992618917E+03 -0.31436131408E+02  0.34414317796E+03  0.00000000000E+00 0. -1.
          3    1    5    5  503    0  0.10327798525E+03 -0.10859365923E+03  0.79129125362E+02  0.16947077489E+03  0.00000000000E+00 0. -1.
         -4    1    5    5    0  503  0.15258873001E+03 -0.50634395922E+02  0.10071030066E+03  0.18970958657E+03  0.00000000000E+00 0.  1.
         -1    1    6    6    0  502 -0.19694856908E+03  0.13249791878E+03 -0.82346083073E+00  0.23737126075E+03  0.00000000000E+00 0.  1.
<mgrwt>
<rscale>  0 0.13470420E+04</rscale>
<asrwt>0</asrwt>
<pdfrwt beam="1">  1        2 0.15730872E+00 0.13470420E+04</pdfrwt>
<pdfrwt beam="2">  1       -2 0.68253162E-01 0.13470420E+04</pdfrwt>
<totfact> 0.46769018E+01</totfact>
</mgrwt>
</event>
<event>
12    1  0.1541840E-007  0.2322323E+04  0.7818608E-02  0.8469171E-01
         -2   -1    0    0    0  501 -0.00000000000E+00  0.00000000000E+00  0.43572901595E+03  0.43572901595E+03  0.00000000000E+00 0.  1.
          2   -1    0    0  501    0  0.00000000000E+00 -0.00000000000E+00 -0.30943442795E+04  0.30943442795E+04  0.00000000000E+00 0. -1.
         23    2    1    2    0    0 -0.23780461960E+03  0.92480076897E+03 -0.76226313186E+03  0.12254299330E+04  0.93946469428E+02 0.  0.
        254    2    1    2    0    0  0.23780461960E+03 -0.92480076897E+03 -0.18963521317E+04  0.23046433625E+04  0.89633817353E+03 0.  0.
        -24    2    4    4    0    0  0.12067537118E+03  0.11929532968E+03 -0.78074160663E+02  0.20314107257E+03  0.79854867785E+02 0.  0.
         24    2    4    4    0    0  0.11712924842E+03 -0.10440960987E+04 -0.18182779710E+04  0.21015022899E+04  0.79505788370E+02 0.  0.
         13    1    3    3    0    0 -0.65074747287E+02  0.12182240439E+03 -0.10600687749E+03  0.17410594195E+03  0.00000000000E+00 0. -1.
        -13    1    3    3    0    0 -0.17272987231E+03  0.80297836459E+03 -0.65625625437E+03  0.10513239911E+04  0.00000000000E+00 0.  1.
          4    1    6    6  502    0  0.19031768123E+01 -0.16529359194E+03 -0.33562922842E+03  0.37412908546E+03  0.00000000000E+00 0. -1.
          1    1    5    5  503    0  0.29884134301E+02  0.29141875617E+02 -0.61208336448E+02  0.74086239263E+02  0.00000000000E+00 0. -1.
         -2    1    5    5    0  503  0.90791236880E+02  0.90153454063E+02 -0.16865824215E+02  0.12905483331E+03  0.00000000000E+00 0.  1.
         -3    1    6    6    0  502  0.11522607161E+03 -0.87880250672E+03 -0.14826487426E+04  0.17273732044E+04  0.00000000000E+00 0.  1.
<mgrwt>
<rscale>  0 0.23223226E+04</rscale>
<asrwt>0</asrwt>
<pdfrwt beam="1">  1        2 0.47605296E+00 0.23223226E+04</pdfrwt>
<pdfrwt beam="2">  1       -2 0.67035234E-01 0.23223226E+04</pdfrwt>
<totfact> 0.28076043E+00</totfact>
</mgrwt>
</event>
<event>
12    1  0.1541840E-007  0.3311816E+04  0.7818608E-02  0.8159895E-01
         -1   -1    0    0    0  501 -0.00000000000E+00  0.00000000000E+00  0.11443777928E+04  0.11443777928E+04  0.00000000000E+00 0.  1.
          1   -1    0    0  501    0  0.00000000000E+00 -0.00000000000E+00 -0.23960895465E+04  0.23960895465E+04  0.00000000000E+00 0. -1.
         23    2    1    2    0    0  0.34729527453E+03 -0.96601737671E+03 -0.18048756423E+04  0.20783488462E+04  0.90300955495E+02 0.  0.
        254    2    1    2    0    0 -0.34729527453E+03  0.96601737671E+03  0.55316388867E+03  0.14621184931E+04  0.88204116702E+03 0.  0.
        -24    2    4    4    0    0  0.17920648677E+03 -0.10757474770E+02  0.23253921714E+03  0.30452805613E+03  0.80200756207E+02 0.  0.
         24    2    4    4    0    0 -0.52650176130E+03  0.97677485148E+03  0.32062467152E+03  0.11575904370E+04  0.76955991572E+02 0.  0.
         13    1    3    3    0    0  0.31409215535E+03 -0.92118565415E+03 -0.16795265894E+04  0.19411456555E+04  0.00000000000E+00 0. -1.
        -13    1    3    3    0    0  0.33203119181E+02 -0.44831722556E+02 -0.12534905292E+03  0.13720319070E+03  0.00000000000E+00 0.  1.
          2    1    6    6  502    0 -0.36625882679E+03  0.70668591087E+03  0.19612881009E+03  0.81976643928E+03  0.00000000000E+00 0. -1.
          3    1    5    5  503    0  0.10991927375E+03 -0.27083283742E+02  0.19122707808E+03  0.22222409048E+03  0.00000000000E+00 0. -1.
         -4    1    5    5    0  503  0.69287213024E+02  0.16325808972E+02  0.41312139059E+02  0.82303965644E+02  0.00000000000E+00 0.  1.
         -1    1    6    6    0  502 -0.16024293451E+03  0.27008894060E+03  0.12449586143E+03  0.33782399768E+03  0.00000000000E+00 0.  1.
<mgrwt>
<rscale>  0 0.33118162E+04</rscale>
<asrwt>0</asrwt>
<pdfrwt beam="1">  1        1 0.36862916E+00 0.33118162E+04</pdfrwt>
<pdfrwt beam="2">  1       -1 0.17605812E+00 0.33118162E+04</pdfrwt>
<totfact> 0.29436655E-01</totfact>
</mgrwt>
</event>
<event>
12    1  0.1541840E-007  0.3799305E+04  0.7818608E-02  0.8046304E-01
          2   -1    0    0  501    0  0.00000000000E+00  0.00000000000E+00  0.17402483102E+04  0.17402483102E+04  0.00000000000E+00 0. -1.
         -2   -1    0    0    0  501 -0.00000000000E+00 -0.00000000000E+00 -0.20736583836E+04  0.20736583836E+04  0.00000000000E+00 0.  1.
         23    2    1    2    0    0  0.11291910263E+04 -0.13861055106E+04 -0.40713907069E+02  0.17907740426E+04  0.94091386215E+02 0.  0.
        254    2    1    2    0    0 -0.11291910263E+04  0.13861055106E+04 -0.29269616637E+03  0.20231326513E+04  0.90057416049E+03 0.  0.
        -24    2    4    4    0    0 -0.87262592349E+03  0.14599764840E+04 -0.35047171825E+03  0.17382156521E+04  0.74537853999E+02 0.  0.
         24    2    4    4    0    0 -0.25656510282E+03 -0.73870973413E+02  0.57775551879E+02  0.28491699922E+03  0.80975980069E+02 0.  0.
         11    1    3    3    0    0  0.59241402406E+02 -0.69584566636E+02 -0.22880564824E+02  0.94207621346E+02  0.00000000000E+00 0.  1.
        -11    1    3    3    0    0  0.10699496239E+04 -0.13165209439E+04 -0.17833342245E+02  0.16965664212E+04  0.00000000000E+00 0. -1.
          2    1    6    6  502    0 -0.23146515326E+03 -0.41587760036E+02  0.63579483998E+02  0.24361446949E+03  0.00000000000E+00 0. -1.
          1    1    5    5  503    0 -0.71689124966E+03  0.12426595342E+04 -0.27942285132E+03  0.14615789105E+04  0.00000000000E+00 0. -1.
         -2    1    5    5    0  503 -0.15573467383E+03  0.21731694982E+03 -0.71048866932E+02  0.27663674160E+03  0.00000000000E+00 0.  1.
         -1    1    6    6    0  502 -0.25099949565E+02 -0.32283213377E+02 -0.58039321192E+01  0.41302529730E+02  0.00000000000E+00 0.  1.
<mgrwt>
<rscale>  0 0.37993055E+04</rscale>
<asrwt>0</asrwt>
<pdfrwt beam="1">  1        2 0.26773051E+00 0.37993055E+04</pdfrwt>
<pdfrwt beam="2">  1       -2 0.31902437E+00 0.37993055E+04</pdfrwt>
<totfact> 0.18130632E-01</totfact>
</mgrwt>
</event>
<event>
12    1  0.1541840E-007  0.1191805E+04  0.7818608E-02  0.9120060E-01
          2   -1    0    0  501    0  0.00000000000E+00  0.00000000000E+00  0.95118528658E+03  0.95118528658E+03  0.00000000000E+00 0.  1.
         -2   -1    0    0    0  501 -0.00000000000E+00 -0.00000000000E+00 -0.37332338811E+03  0.37332338811E+03  0.00000000000E+00 0. -1.
         23    2    1    2    0    0 -0.80310676556E+01 -0.79292950559E+02 -0.12975071755E+03  0.17833101089E+03  0.92816112213E+02 0.  0.
        254    2    1    2    0    0  0.80310676556E+01  0.79292950559E+02  0.70761261602E+03  0.11461776638E+04  0.89814016310E+03 0.  0.
        -24    2    4    4    0    0 -0.32650126504E+03  0.28193944298E+03  0.58015776621E+03  0.72751967360E+03  0.81295240940E+02 0.  0.
         24    2    4    4    0    0  0.33453233270E+03 -0.20264649243E+03  0.12745484981E+03  0.41865799019E+03  0.77796474859E+02 0.  0.
         11    1    3    3    0    0 -0.27288185062E+02  0.97186642971E+01 -0.47389073949E+02  0.55541172201E+02  0.00000000000E+00 0. -1.
        -11    1    3    3    0    0  0.19257117406E+02 -0.89011614856E+02 -0.82361643597E+02  0.12278983869E+03  0.00000000000E+00 0.  1.
          4    1    6    6  502    0  0.18784703388E+03 -0.10041674458E+03  0.30225144388E+02  0.21513621285E+03  0.00000000000E+00 0. -1.
          1    1    5    5  503    0 -0.29445375596E+03  0.24726294469E+03  0.55143601349E+03  0.67225267213E+03  0.00000000000E+00 0. -1.
         -2    1    5    5    0  503 -0.32047509085E+02  0.34676498291E+02  0.28721752725E+02  0.55267001474E+02  0.00000000000E+00 0.  1.
         -3    1    6    6    0  502  0.14668529882E+03 -0.10222974785E+03  0.97229705419E+02  0.20352177734E+03  0.00000000000E+00 0.  1.
<mgrwt>
<rscale>  0 0.11918049E+04</rscale>
<asrwt>0</asrwt>
<pdfrwt beam="1">  1        2 0.14633620E+00 0.11918049E+04</pdfrwt>
<pdfrwt beam="2">  1       -2 0.57434368E-01 0.11918049E+04</pdfrwt>
<totfact> 0.75990878E+01</totfact>
</mgrwt>
</event>
<event>
12    1  0.1541840E-007  0.1735555E+04  0.7818608E-02  0.8741342E-01
         -1   -1    0    0    0  501 -0.00000000000E+00  0.00000000000E+00  0.18289926105E+04  0.18289926105E+04  0.00000000000E+00 0.  1.
          1   -1    0    0  501    0  0.00000000000E+00 -0.00000000000E+00 -0.41172278832E+03  0.41172278832E+03  0.00000000000E+00 0. -1.
         23    2    1    2    0    0  0.12284058659E+03  0.60666461409E+03  0.55957255612E+03  0.83938087811E+03  0.91143015422E+02 0.  0.
        254    2    1    2    0    0 -0.12284058659E+03 -0.60666461409E+03  0.85769726609E+03  0.14013345208E+04  0.91921818688E+03 0.  0.
        -24    2    4    4    0    0  0.97061181059E+02 -0.46569252041E+03 -0.19304624376E+02  0.48280438120E+03  0.80230951345E+02 0.  0.
         24    2    4    4    0    0 -0.21990176765E+03 -0.14097209368E+03  0.87700189047E+03  0.91853013955E+03  0.79595117688E+02 0.  0.
         11    1    3    3    0    0  0.88848589798E+02  0.34936992626E+03  0.37996781367E+03  0.52376421862E+03  0.00000000000E+00 0. -1.
        -11    1    3    3    0    0  0.33991996794E+02  0.25729468783E+03  0.17960474245E+03  0.31561665948E+03  0.00000000000E+00 0.  1.
          2    1    6    6  502    0 -0.66084916992E+02 -0.25721009539E+02  0.36087852128E+03  0.36777995283E+03  0.00000000000E+00 0. -1.
          3    1    5    5  503    0  0.27615290288E+02 -0.18136883493E+03  0.30312725558E+02  0.18594655112E+03  0.00000000000E+00 0. -1.
         -4    1    5    5    0  503  0.69445890771E+02 -0.28432368548E+03 -0.49617349934E+02  0.29685783008E+03  0.00000000000E+00 0.  1.
         -1    1    6    6    0  502 -0.15381685066E+03 -0.11525108414E+03  0.51612336919E+03  0.55075018672E+03  0.00000000000E+00 0.  1.
<mgrwt>
<rscale>  0 0.17355552E+04</rscale>
<asrwt>0</asrwt>
<pdfrwt beam="1">  1        1 0.63341969E-01 0.17355552E+04</pdfrwt>
<pdfrwt beam="2">  1       -1 0.28138347E+00 0.17355552E+04</pdfrwt>
<totfact> 0.23897792E+00</totfact>
</mgrwt>
</event>
<event>
12    1  0.1541840E-007  0.1700852E+04  0.7818608E-02  0.8760879E-01
          2   -1    0    0  501    0  0.00000000000E+00  0.00000000000E+00  0.13377807624E+04  0.13377807624E+04  0.00000000000E+00 0. -1.
         -2   -1    0    0    0  501 -0.00000000000E+00 -0.00000000000E+00 -0.54061483755E+03  0.54061483755E+03  0.00000000000E+00 0.  1.
         23    2    1    2    0    0  0.17318671189E+02  0.61301783402E+03  0.27722297119E+03  0.67928776362E+03  0.92132995389E+02 0.  0.
        254    2    1    2    0    0 -0.17318671189E+02 -0.61301783402E+03  0.51994295361E+03  0.11991078363E+04  0.88962246309E+03 0.  0.
        -24    2    4    4    0    0 -0.10889528483E+03 -0.46890516532E+03  0.75424094829E+03  0.89838851849E+03  0.80574716644E+02 0.  0.
         24    2    4    4    0    0  0.91576613640E+02 -0.14411266871E+03 -0.23429799468E+03  0.30071931780E+03  0.79886296323E+02 0.  0.
         11    1    3    3    0    0 -0.23090428316E+02  0.26297609812E+03  0.15608961024E+03  0.30668153267E+03  0.00000000000E+00 0. -1.
        -11    1    3    3    0    0  0.40409099505E+02  0.35004173591E+03  0.12113336096E+03  0.37260623094E+03  0.00000000000E+00 0.  1.
          2    1    6    6  502    0  0.34958819544E+02 -0.95177838701E+02 -0.79726801272E+02  0.12898566930E+03  0.00000000000E+00 0. -1.
          1    1    5    5  503    0 -0.79382162575E+01 -0.86696860847E+02  0.19481380307E+03  0.21338176779E+03  0.00000000000E+00 0. -1.
         -2    1    5    5    0  503 -0.10095706857E+03 -0.38220830447E+03  0.55942714522E+03  0.68500675070E+03  0.00000000000E+00 0.  1.
         -1    1    6    6    0  502  0.56617794095E+02 -0.48934830004E+02 -0.15457119341E+03  0.17173364850E+03  0.00000000000E+00 0.  1.
<mgrwt>
<rscale>  0 0.17008517E+04</rscale>
<asrwt>0</asrwt>
<pdfrwt beam="1">  1        2 0.20581242E+00 0.17008517E+04</pdfrwt>
<pdfrwt beam="2">  1       -2 0.83171514E-01 0.17008517E+04</pdfrwt>
<totfact> 0.18932196E+01</totfact>
</mgrwt>
</event>
<event>
12    1  0.1541840E-007  0.1515748E+04  0.7818608E-02  0.8874048E-01
         -2   -1    0    0    0  501 -0.00000000000E+00  0.00000000000E+00  0.36836067590E+03  0.36836067590E+03  0.00000000000E+00 0.  1.
          2   -1    0    0  501    0  0.00000000000E+00 -0.00000000000E+00 -0.15592674042E+04  0.15592674042E+04  0.00000000000E+00 0. -1.
         23    2    1    2    0    0  0.36458900906E+03  0.31704329733E+03 -0.44657106668E+03  0.66300999865E+03  0.81944754584E+02 0.  0.
        254    2    1    2    0    0 -0.36458900906E+03 -0.31704329733E+03 -0.74433566160E+03  0.12646180814E+04  0.90098929895E+03 0.  0.
        -24    2    4    4    0    0  0.43593148274E+02 -0.54143927494E+03 -0.37524696417E+03  0.66497934071E+03  0.79563738141E+02 0.  0.
         24    2    4    4    0    0 -0.40818215733E+03  0.22439597761E+03 -0.36908869743E+03  0.59963874071E+03  0.79836861564E+02 0.  0.
         13    1    3    3    0    0  0.65074305502E+02  0.23106952342E+02 -0.81169122583E+02  0.10656933398E+03  0.00000000000E+00 0.  1.
        -13    1    3    3    0    0  0.29951470355E+03  0.29393634499E+03 -0.36540194410E+03  0.55644066467E+03  0.00000000000E+00 0. -1.
          4    1    6    6  502    0 -0.34154774101E+02  0.34283324648E+02 -0.15118978683E+02  0.50699886185E+02  0.00000000000E+00 0. -1.
          3    1    5    5  503    0  0.26664254769E+02 -0.45755648164E+02 -0.39056128960E+02  0.65802302624E+02  0.00000000000E+00 0. -1.
         -2    1    5    5    0  503  0.16928893505E+02 -0.49568362678E+03 -0.33619083521E+03  0.59917703809E+03  0.00000000000E+00 0.  1.
         -3    1    6    6    0  502 -0.37402738323E+03  0.19011265296E+03 -0.35396971875E+03  0.54893885453E+03  0.00000000000E+00 0.  1.
<mgrwt>
<rscale>  0 0.15157477E+04</rscale>
<asrwt>0</asrwt>
<pdfrwt beam="1">  1        2 0.23988729E+00 0.15157477E+04</pdfrwt>
<pdfrwt beam="2">  1       -2 0.56670874E-01 0.15157477E+04</pdfrwt>
<totfact> 0.33125282E+01</totfact>
</mgrwt>
</event>
<event>
12    1  0.1541840E-007  0.1919188E+04  0.7818608E-02  0.8645364E-01
         -1   -1    0    0    0  501 -0.00000000000E+00  0.00000000000E+00  0.30454334170E+04  0.30454334170E+04  0.00000000000E+00 0.  1.
          1   -1    0    0  501    0  0.00000000000E+00 -0.00000000000E+00 -0.30236127064E+03  0.30236127064E+03  0.00000000000E+00 0. -1.
         23    2    1    2    0    0  0.67488013016E+03  0.31765334453E+03  0.10598083532E+04  0.12993228469E+04  0.93162639732E+02 0.  0.
        254    2    1    2    0    0 -0.67488013016E+03 -0.31765334453E+03  0.16832637931E+04  0.20484718407E+04  0.89804957981E+03 0.  0.
        -24    2    4    4    0    0  0.10761910134E+03 -0.34885408397E+03  0.64454037030E+03  0.74515561738E+03  0.80892288259E+02 0.  0.
         24    2    4    4    0    0 -0.78249923150E+03  0.31200739437E+02  0.10387234228E+04  0.13033162234E+04  0.80051830532E+02 0.  0.
         11    1    3    3    0    0  0.53614401328E+03  0.25205819468E+03  0.77161418264E+03  0.97281662369E+03  0.00000000000E+00 0. -1.
        -11    1    3    3    0    0  0.13873611687E+03  0.65595149852E+02  0.28819417057E+03  0.32650622316E+03  0.00000000000E+00 0.  1.
          2    1    6    6  502    0 -0.37455379691E+03 -0.47108045367E+01  0.43872438327E+03  0.57688111681E+03  0.00000000000E+00 0. -1.
          1    1    5    5  503    0  0.10944253553E+03 -0.27785945483E+03  0.56077859735E+03  0.63533942146E+03  0.00000000000E+00 0. -1.
         -2    1    5    5    0  503 -0.18234341906E+01 -0.70994629137E+02  0.83761772950E+02  0.10981619592E+03  0.00000000000E+00 0.  1.
         -1    1    6    6    0  502 -0.40794543459E+03  0.35911543974E+02  0.59999903954E+03  0.72643510656E+03  0.00000000000E+00 0.  1.
<mgrwt>
<rscale>  0 0.19191885E+04</rscale>
<asrwt>0</asrwt>
<pdfrwt beam="1">  1        1 0.46517121E-01 0.19191885E+04</pdfrwt>
<pdfrwt beam="2">  1       -1 0.46852820E+00 0.19191885E+04</pdfrwt>
<totfact> 0.19572662E-01</totfact>
</mgrwt>
</event>
<event>
12    1  0.1541840E-007  0.1066700E+04  0.7818608E-02  0.9238270E-01
         -1   -1    0    0    0  501 -0.00000000000E+00  0.00000000000E+00  0.10803937321E+03  0.10803937321E+03  0.00000000000E+00 0.  1.
          1   -1    0    0  501    0  0.00000000000E+00 -0.00000000000E+00 -0.26329518612E+04  0.26329518612E+04  0.00000000000E+00 0. -1.
         23    2    1    2    0    0 -0.29246474892E+02  0.93612977096E+01 -0.80586846680E+03  0.81173732233E+03  0.92468938015E+02 0.  0.
        254    2    1    2    0    0  0.29246474892E+02 -0.93612977096E+01 -0.17190440212E+04  0.19292539121E+04  0.87519444714E+03 0.  0.
        -24    2    4    4    0    0 -0.28289684239E+03 -0.25247104071E+03 -0.12539247794E+04  0.13123075447E+04  0.77791320972E+02 0.  0.
         24    2    4    4    0    0  0.31214331728E+03  0.24310974300E+03 -0.46511924176E+03  0.61694636737E+03  0.88040408236E+02 0.  0.
         11    1    3    3    0    0  0.28240142297E+02  0.19955166780E+02 -0.19173369157E+03  0.19482690471E+03  0.00000000000E+00 0.  1.
        -11    1    3    3    0    0 -0.57486617189E+02 -0.10593869071E+02 -0.61413477524E+03  0.61691041762E+03  0.00000000000E+00 0. -1.
          2    1    6    6  502    0  0.23785362274E+02  0.55118425436E+02 -0.53984441118E+02  0.80734776670E+02  0.00000000000E+00 0. -1.
          3    1    5    5  503    0 -0.25383135207E+02 -0.60067946451E+02 -0.23487802619E+03  0.24376248466E+03  0.00000000000E+00 0. -1.
         -4    1    5    5    0  503 -0.25751370719E+03 -0.19240309426E+03 -0.10190467532E+04  0.10685450600E+04  0.00000000000E+00 0.  1.
         -1    1    6    6    0  502  0.28835795501E+03  0.18799131757E+03 -0.41113480064E+03  0.53621159070E+03  0.00000000000E+00 0.  1.
<mgrwt>
<rscale>  0 0.10667005E+04</rscale>
<asrwt>0</asrwt>
<pdfrwt beam="1">  1        1 0.40506952E+00 0.10667005E+04</pdfrwt>
<pdfrwt beam="2">  1       -1 0.16621442E-01 0.10667005E+04</pdfrwt>
<totfact> 0.30756948E+01</totfact>
</mgrwt>
</event>
<event>
12    1  0.1541840E-007  0.3760048E+04  0.7818608E-02  0.8054783E-01
          2   -1    0    0  501    0  0.00000000000E+00  0.00000000000E+00  0.14012701918E+04  0.14012701918E+04  0.00000000000E+00 0. -1.
         -2   -1    0    0    0  501 -0.00000000000E+00 -0.00000000000E+00 -0.25223479181E+04  0.25223479181E+04  0.00000000000E+00 0.  1.
         23    2    1    2    0    0  0.29538779171E+03  0.12043246536E+04 -0.18514245994E+04  0.22301972317E+04  0.91404739974E+02 0.  0.
        254    2    1    2    0    0 -0.29538779171E+03 -0.12043246536E+04  0.73034687306E+03  0.16934208781E+04  0.89253341485E+03 0.  0.
        -24    2    4    4    0    0 -0.52415991693E+03 -0.54150290776E+03  0.62014499564E+03  0.97927756386E+03  0.80222900913E+02 0.  0.
         24    2    4    4    0    0  0.22877212522E+03 -0.66282174589E+03  0.11020187742E+03  0.71414331427E+03  0.78656642668E+02 0.  0.
         13    1    3    3    0    0  0.16831134218E+01  0.45230608401E+01 -0.36276585104E+00  0.48396848261E+01  0.00000000000E+00 0. -1.
        -13    1    3    3    0    0  0.29370467829E+03  0.11998015928E+04 -0.18510618335E+04  0.22253575469E+04  0.00000000000E+00 0.  1.
          2    1    6    6  502    0  0.45428232921E+02 -0.58522509805E+02  0.12298454987E+02  0.75099004622E+02  0.00000000000E+00 0. -1.
          3    1    5    5  503    0 -0.92478892609E+02 -0.14117878239E+03  0.15140746999E+03  0.22673335914E+03  0.00000000000E+00 0. -1.
         -4    1    5    5    0  503 -0.43168102432E+03 -0.40032412537E+03  0.46873752565E+03  0.75254420472E+03  0.00000000000E+00 0.  1.
         -1    1    6    6    0  502  0.18334389229E+03 -0.60429923608E+03  0.97903422434E+02  0.63904430965E+03  0.00000000000E+00 0.  1.
<mgrwt>
<rscale>  0 0.37600484E+04</rscale>
<asrwt>0</asrwt>
<pdfrwt beam="1">  1        2 0.21558003E+00 0.37600484E+04</pdfrwt>
<pdfrwt beam="2">  1       -2 0.38805352E+00 0.37600484E+04</pdfrwt>
<totfact> 0.10312719E-01</totfact>
</mgrwt>
</event>
<event>
12    1  0.1541840E-007  0.2583721E+04  0.7818608E-02  0.8373752E-01
         -1   -1    0    0    0  501 -0.00000000000E+00  0.00000000000E+00  0.74438396615E+03  0.74438396615E+03  0.00000000000E+00 0.  1.
          1   -1    0    0  501    0  0.00000000000E+00 -0.00000000000E+00 -0.22419936065E+04  0.22419936065E+04  0.00000000000E+00 0. -1.
         23    2    1    2    0    0  0.98798577001E+02 -0.81926959977E+03 -0.15548265971E+04  0.17626108201E+04  0.91363669203E+02 0.  0.
        254    2    1    2    0    0 -0.98798577001E+02  0.81926959977E+03  0.57216956826E+02  0.12237667525E+04  0.90186886434E+03 0.  0.
        -24    2    4    4    0    0  0.63626291462E+02  0.28096281092E+03 -0.39690327889E+03  0.49675280569E+03  0.79010955457E+02 0.  0.
         24    2    4    4    0    0 -0.16242486846E+03  0.53830678885E+03  0.45412023572E+03  0.72701394681E+03  0.78536956590E+02 0.  0.
         13    1    3    3    0    0 -0.30712115317E+01 -0.39546797932E+02 -0.12067000509E+03  0.12702217010E+03  0.00000000000E+00 0.  1.
        -13    1    3    3    0    0  0.10186978853E+03 -0.77972280184E+03 -0.14341565921E+04  0.16355886500E+04  0.00000000000E+00 0. -1.
          4    1    6    6  502    0 -0.85047278690E+02  0.15605629965E+03  0.14058489807E+03  0.22660697659E+03  0.00000000000E+00 0. -1.
          1    1    5    5  503    0  0.12518145467E+02  0.11259984285E+03 -0.97472782834E+02  0.14945357797E+03  0.00000000000E+00 0. -1.
         -2    1    5    5    0  503  0.51108145995E+02  0.16836296807E+03 -0.29943049606E+03  0.34729922772E+03  0.00000000000E+00 0.  1.
         -3    1    6    6    0  502 -0.77377589772E+02  0.38225048920E+03  0.31353533765E+03  0.50040697022E+03  0.00000000000E+00 0.  1.
<mgrwt>
<rscale>  0 0.25837214E+04</rscale>
<asrwt>0</asrwt>
<pdfrwt beam="1">  1        1 0.34492209E+00 0.25837214E+04</pdfrwt>
<pdfrwt beam="2">  1       -1 0.11452061E+00 0.25837214E+04</pdfrwt>
<totfact> 0.12466825E+00</totfact>
</mgrwt>
</event>
<event>
12    1  0.1541840E-007  0.1176934E+04  0.7818608E-02  0.9133289E-01
         -2   -1    0    0    0  501 -0.00000000000E+00  0.00000000000E+00  0.35460701003E+03  0.35460701003E+03  0.00000000000E+00 0.  1.
          2   -1    0    0  501    0  0.00000000000E+00 -0.00000000000E+00 -0.97655605709E+03  0.97655605709E+03  0.00000000000E+00 0. -1.
         23    2    1    2    0    0  0.12483807047E+03  0.64579576423E+02  0.74255283708E+02  0.18224926223E+03  0.89139670709E+02 0.  0.
        254    2    1    2    0    0 -0.12483807047E+03 -0.64579576423E+02 -0.69620433076E+03  0.11489138049E+04  0.90307662762E+03 0.  0.
        -24    2    4    4    0    0  0.10419719905E+03  0.37467151944E+03 -0.40956785805E+03  0.57005345954E+03  0.77326015175E+02 0.  0.
         24    2    4    4    0    0 -0.22903526953E+03 -0.43925109586E+03 -0.28663647272E+03  0.57886034534E+03  0.86718810063E+02 0.  0.
         13    1    3    3    0    0  0.54432892922E+02  0.16245659524E+02  0.78321784669E+02  0.96753104544E+02  0.00000000000E+00 0. -1.
        -13    1    3    3    0    0  0.70405177552E+02  0.48333916900E+02 -0.40665009602E+01  0.85496157686E+02  0.00000000000E+00 0.  1.
          2    1    6    6  502    0 -0.85441910994E+01 -0.17984456496E+02 -0.36551067344E+02  0.41622402634E+02  0.00000000000E+00 0. -1.
          3    1    5    5  503    0  0.21014142169E+02  0.21594376053E+03 -0.23595145231E+03  0.32054077702E+03  0.00000000000E+00 0. -1.
         -4    1    5    5    0  503  0.83183056883E+02  0.15872775891E+03 -0.17361640573E+03  0.24951268253E+03  0.00000000000E+00 0.  1.
         -1    1    6    6    0  502 -0.22049107843E+03 -0.42126663937E+03 -0.25008540537E+03  0.53723794271E+03  0.00000000000E+00 0.  1.
<mgrwt>
<rscale>  0 0.11769344E+04</rscale>
<asrwt>0</asrwt>
<pdfrwt beam="1">  1        2 0.15023939E+00 0.11769344E+04</pdfrwt>
<pdfrwt beam="2">  1       -2 0.54554926E-01 0.11769344E+04</pdfrwt>
<totfact> 0.81503324E+01</totfact>
</mgrwt>
</event>
<event>
12    1  0.1541840E-007  0.1445289E+04  0.7818608E-02  0.8921673E-01
         -1   -1    0    0    0  501 -0.00000000000E+00  0.00000000000E+00  0.73839856188E+03  0.73839856188E+03  0.00000000000E+00 0.  1.
          1   -1    0    0  501    0  0.00000000000E+00 -0.00000000000E+00 -0.70722662134E+03  0.70722662134E+03  0.00000000000E+00 0. -1.
         23    2    1    2    0    0  0.40689897010E+03 -0.12282549286E+03 -0.99891076349E+02  0.44612776563E+03  0.91645417600E+02 0.  0.
        254    2    1    2    0    0 -0.40689897010E+03  0.12282549286E+03  0.13106301689E+03  0.99949741759E+03  0.89507804118E+03 0.  0.
        -24    2    4    4    0    0 -0.38331913841E+03  0.42117071720E+03  0.29765206722E+03  0.64771841340E+03  0.81388297967E+02 0.  0.
         24    2    4    4    0    0 -0.23579831692E+02 -0.29834522433E+03 -0.16658905032E+03  0.35177900419E+03  0.80191488046E+02 0.  0.
         11    1    3    3    0    0  0.22493633106E+03 -0.59962245241E+02 -0.83106567247E+01  0.23293967223E+03  0.00000000000E+00 0.  1.
        -11    1    3    3    0    0  0.18196263904E+03 -0.62863247620E+02 -0.91580419624E+02  0.21318809340E+03  0.00000000000E+00 0. -1.
          4    1    6    6  502    0 -0.34238485498E+02 -0.17606545498E+03 -0.59759703950E+02  0.18905697697E+03  0.00000000000E+00 0. -1.
          1    1    5    5  503    0 -0.19647175382E+03  0.18367596352E+03  0.17898176621E+03  0.32306730298E+03  0.00000000000E+00 0. -1.
         -2    1    5    5    0  503 -0.18684738459E+03  0.23749475368E+03  0.11867030101E+03  0.32465111042E+03  0.00000000000E+00 0.  1.
         -3    1    6    6    0  502  0.10658653806E+02 -0.12227976935E+03 -0.10682934637E+03  0.16272202722E+03  0.00000000000E+00 0.  1.
<mgrwt>
<rscale>  0 0.14452891E+04</rscale>
<asrwt>0</asrwt>
<pdfrwt beam="1">  1        1 0.10880410E+00 0.14452891E+04</pdfrwt>
<pdfrwt beam="2">  1       -1 0.11359978E+00 0.14452891E+04</pdfrwt>
<totfact> 0.18426840E+01</totfact>
</mgrwt>
</event>
<event>
12    1  0.1541840E-007  0.1697858E+04  0.7818608E-02  0.8762587E-01
          2   -1    0    0  501    0  0.00000000000E+00  0.00000000000E+00  0.36146705554E+03  0.36146705554E+03  0.00000000000E+00 0. -1.
         -2   -1    0    0    0  501 -0.00000000000E+00 -0.00000000000E+00 -0.19937653682E+04  0.19937653682E+04  0.00000000000E+00 0.  1.
         23    2    1    2    0    0  0.19358124399E+03 -0.49125733327E+03 -0.10096944060E+04  0.11451632240E+04  0.11449257874E+03 0.  0.
        254    2    1    2    0    0 -0.19358124399E+03  0.49125733327E+03 -0.62260390675E+03  0.12100691998E+04  0.89321015340E+03 0.  0.
        -24    2    4    4    0    0 -0.45820866448E+03  0.26166764335E+03 -0.52380802122E+02  0.53613313098E+03  0.79182383899E+02 0.  0.
         24    2    4    4    0    0  0.26462742050E+03  0.22958968992E+03 -0.57022310462E+03  0.67393606884E+03  0.79349470306E+02 0.  0.
         11    1    3    3    0    0  0.74982743906E+02 -0.84076758617E+02 -0.16229813287E+03  0.19756517192E+03  0.00000000000E+00 0. -1.
        -11    1    3    3    0    0  0.11859850008E+03 -0.40718057465E+03 -0.84739627308E+03  0.94759805204E+03  0.00000000000E+00 0.  1.
          2    1    6    6  502    0  0.98367962309E+02  0.81959944280E+02 -0.14043756888E+03  0.19004315096E+03  0.00000000000E+00 0. -1.
          1    1    5    5  503    0 -0.33053701656E+03  0.15470722671E+03 -0.57749390095E+02  0.36949159310E+03  0.00000000000E+00 0. -1.
         -2    1    5    5    0  503 -0.12767164792E+03  0.10696041664E+03  0.53685879729E+01  0.16664153788E+03  0.00000000000E+00 0.  1.
         -1    1    6    6    0  502  0.16625945819E+03  0.14762974564E+03 -0.42978553574E+03  0.48389291787E+03  0.00000000000E+00 0.  1.
<mgrwt>
<rscale>  0 0.16978581E+04</rscale>
<asrwt>0</asrwt>
<pdfrwt beam="1">  1        2 0.55610316E-01 0.16978581E+04</pdfrwt>
<pdfrwt beam="2">  1       -2 0.30673314E+00 0.16978581E+04</pdfrwt>
<totfact> 0.24578100E+00</totfact>
</mgrwt>
</event>
<event>
12    1  0.1541840E-007  0.2059321E+04  0.7818608E-02  0.8579378E-01
         -2   -1    0    0    0  501 -0.00000000000E+00  0.00000000000E+00  0.44793574488E+03  0.44793574488E+03  0.00000000000E+00 0. -1.
          2   -1    0    0  501    0  0.00000000000E+00 -0.00000000000E+00 -0.23668591576E+04  0.23668591576E+04  0.00000000000E+00 0.  1.
         23    2    1    2    0    0  0.25092748826E+03 -0.18995442772E+03 -0.18075267751E+04  0.18374838899E+04  0.10073089966E+03 0.  0.
        254    2    1    2    0    0 -0.25092748826E+03  0.18995442772E+03 -0.11139663761E+03  0.97731101252E+03  0.91852072124E+03 0.  0.
        -24    2    4    4    0    0  0.32417317089E+03  0.20085056443E+03 -0.65546020758E+02  0.39504346934E+03  0.79585600926E+02 0.  0.
         24    2    4    4    0    0 -0.57510065914E+03 -0.10896136713E+02 -0.45850616853E+02  0.58226754318E+03  0.77934067199E+02 0.  0.
         13    1    3    3    0    0  0.94733151843E+02 -0.49820720847E+02 -0.38650523037E+03  0.40105207566E+03  0.00000000000E+00 0. -1.
        -13    1    3    3    0    0  0.15619433641E+03 -0.14013370687E+03 -0.14210215447E+04  0.14364318143E+04  0.00000000000E+00 0.  1.
          4    1    6    6  502    0 -0.20361196127E+03  0.18578760289E+02  0.13552552147E+02  0.20490649764E+03  0.00000000000E+00 0. -1.
          1    1    5    5  503    0  0.28163259729E+03  0.13816105637E+03 -0.56513961607E+02  0.31874633364E+03  0.00000000000E+00 0. -1.
         -2    1    5    5    0  503  0.42540573597E+02  0.62689508065E+02 -0.90320591511E+01  0.76297135699E+02  0.00000000000E+00 0.  1.
         -3    1    6    6    0  502 -0.37148869787E+03 -0.29474897002E+02 -0.59403169000E+02  0.37736104554E+03  0.00000000000E+00 0.  1.
<mgrwt>
<rscale>  0 0.20593211E+04</rscale>
<asrwt>0</asrwt>
<pdfrwt beam="1">  1        2 0.36413219E+00 0.20593211E+04</pdfrwt>
<pdfrwt beam="2">  1       -2 0.68913190E-01 0.20593211E+04</pdfrwt>
<totfact> 0.73872804E+00</totfact>
</mgrwt>
</event>
<event>
12    1  0.1541840E-007  0.1385060E+04  0.7818608E-02  0.8964705E-01
         -2   -1    0    0    0  501 -0.00000000000E+00  0.00000000000E+00  0.11364521883E+03  0.11364521883E+03  0.00000000000E+00 0.  1.
          2   -1    0    0  501    0  0.00000000000E+00 -0.00000000000E+00 -0.42201293780E+04  0.42201293780E+04  0.00000000000E+00 0. -1.
         23    2    1    2    0    0  0.29571558004E+02 -0.56342400315E+02 -0.23441093857E+04  0.23467380445E+04  0.91003813600E+02 0.  0.
        254    2    1    2    0    0 -0.29571558004E+02  0.56342400315E+02 -0.17623747735E+04  0.19870365524E+04  0.91558750273E+03 0.  0.
        -24    2    4    4    0    0 -0.42367806034E+02  0.36164808022E+03 -0.15780058911E+04  0.16213494862E+04  0.78020503321E+02 0.  0.
         24    2    4    4    0    0  0.12796248029E+02 -0.30530567991E+03 -0.18436888236E+03  0.36568706621E+03  0.79748626740E+02 0.  0.
         13    1    3    3    0    0  0.22522701831E+02 -0.25533416480E+02 -0.21333904793E+04  0.21336621486E+04  0.00000000000E+00 0. -1.
        -13    1    3    3    0    0  0.70488561735E+01 -0.30808983835E+02 -0.21071890641E+03  0.21307589581E+03  0.00000000000E+00 0.  1.
          4    1    6    6  502    0  0.25537308072E+02 -0.45198685229E+02 -0.11673531974E+02  0.53210399348E+02  0.00000000000E+00 0. -1.
          3    1    5    5  503    0  0.19934486616E+02  0.42729485506E+02 -0.17962638215E+03  0.18571168475E+03  0.00000000000E+00 0. -1.
         -4    1    5    5    0  503 -0.62302292650E+02  0.31891859472E+03 -0.13983795090E+04  0.14356378014E+04  0.00000000000E+00 0.  1.
         -3    1    6    6    0  502 -0.12741060043E+02 -0.26010699468E+03 -0.17269535038E+03  0.31247666687E+03  0.00000000000E+00 0.  1.
<mgrwt>
<rscale>  0 0.13850596E+04</rscale>
<asrwt>0</asrwt>
<pdfrwt beam="1">  1        2 0.64925075E+00 0.13850596E+04</pdfrwt>
<pdfrwt beam="2">  1       -2 0.17483878E-01 0.13850596E+04</pdfrwt>
<totfact> 0.60869836E+00</totfact>
</mgrwt>
</event>
<event>
12    1  0.1541840E-007  0.1469574E+04  0.7818608E-02  0.8904942E-01
          2   -1    0    0  501    0  0.00000000000E+00  0.00000000000E+00  0.10969213863E+04  0.10969213863E+04  0.00000000000E+00 0. -1.
         -2   -1    0    0    0  501 -0.00000000000E+00 -0.00000000000E+00 -0.49220665429E+03  0.49220665429E+03  0.00000000000E+00 0.  1.
         23    2    1    2    0    0 -0.24038625142E+03 -0.28644227004E+02 -0.21619892680E+03  0.33653307687E+03  0.88918469747E+02 0.  0.
        254    2    1    2    0    0  0.24038625142E+03  0.28644227004E+02  0.82091365877E+03  0.12525949637E+04  0.91459765268E+03 0.  0.
        -24    2    4    4    0    0  0.44284863095E+01  0.11101518844E+03 -0.17415542917E+03  0.22339140286E+03  0.85027182741E+02 0.  0.
         24    2    4    4    0    0  0.23595776511E+03 -0.82370961438E+02  0.99506908794E+03  0.10292035608E+04  0.81464333651E+02 0.  0.
         11    1    3    3    0    0 -0.22279703157E+03 -0.50585658936E+02 -0.18097629180E+03  0.29146156583E+03  0.00000000000E+00 0.  1.
        -11    1    3    3    0    0 -0.17589219855E+02  0.21941431931E+02 -0.35222635001E+02  0.45071511032E+02  0.00000000000E+00 0. -1.
          4    1    6    6  502    0  0.65552323124E+02 -0.42518458170E+02  0.44989793227E+03  0.45663232016E+03  0.00000000000E+00 0. -1.
          1    1    5    5  503    0  0.31400550911E+02  0.28633945362E+02 -0.10237777374E+03  0.11084721909E+03  0.00000000000E+00 0. -1.
         -2    1    5    5    0  503 -0.26972064602E+02  0.82381243081E+02 -0.71777655433E+02  0.11254418377E+03  0.00000000000E+00 0.  1.
         -3    1    6    6    0  502  0.17040544199E+03 -0.39852503268E+02  0.54517115567E+03  0.57257124068E+03  0.00000000000E+00 0.  1.
<mgrwt>
<rscale>  0 0.14695741E+04</rscale>
<asrwt>0</asrwt>
<pdfrwt beam="1">  1        2 0.16875714E+00 0.14695741E+04</pdfrwt>
<pdfrwt beam="2">  1       -2 0.75724101E-01 0.14695741E+04</pdfrwt>
<totfact> 0.33127728E+01</totfact>
</mgrwt>
</event>
<event>
12    1  0.1541840E-007  0.3605684E+04  0.7818608E-02  0.8089191E-01
         -2   -1    0    0    0  501 -0.00000000000E+00  0.00000000000E+00  0.11461639302E+04  0.11461639302E+04  0.00000000000E+00 0. -1.
          2   -1    0    0  501    0  0.00000000000E+00 -0.00000000000E+00 -0.28357550463E+04  0.28357550463E+04  0.00000000000E+00 0.  1.
         23    2    1    2    0    0  0.41737918161E+03 -0.80676436965E+03  0.78058874394E+03  0.12012304141E+04  0.92528866389E+02 0.  0.
        254    2    1    2    0    0 -0.41737918161E+03  0.80676436965E+03 -0.24701798600E+04  0.27806885625E+04  0.89742198056E+03 0.  0.
        -24    2    4    4    0    0  0.11836481674E+03  0.61275025858E+03 -0.17441705028E+04  0.18541928326E+04  0.80169872587E+02 0.  0.
         24    2    4    4    0    0 -0.53574399836E+03  0.19401411107E+03 -0.72600935727E+03  0.92649572989E+03  0.81496279600E+02 0.  0.
         11    1    3    3    0    0  0.26521582917E+03 -0.58467890629E+03  0.58379231846E+03  0.86775706888E+03  0.00000000000E+00 0. -1.
        -11    1    3    3    0    0  0.15216335244E+03 -0.22208546336E+03  0.19679642548E+03  0.33347334518E+03  0.00000000000E+00 0.  1.
          2    1    6    6  502    0 -0.30316753215E+03  0.80016385653E+02 -0.44446957518E+03  0.54393600522E+03  0.00000000000E+00 0. -1.
          3    1    5    5  503    0  0.18108251804E+02  0.13867706763E+03 -0.30240852707E+03  0.33318186492E+03  0.00000000000E+00 0. -1.
         -4    1    5    5    0  503  0.10025656494E+03  0.47407319095E+03 -0.14417619757E+04  0.15210109677E+04  0.00000000000E+00 0.  1.
         -1    1    6    6    0  502 -0.23257646621E+03  0.11399772541E+03 -0.28153978209E+03  0.38255972466E+03  0.00000000000E+00 0.  1.
<mgrwt>
<rscale>  0 0.36056845E+04</rscale>
<asrwt>0</asrwt>
<pdfrwt beam="1">  1        2 0.43627001E+00 0.36056845E+04</pdfrwt>
<pdfrwt beam="2">  1       -2 0.17633291E+00 0.36056845E+04</pdfrwt>
<totfact> 0.34442938E-01</totfact>
</mgrwt>
</event>
<event>
12    1  0.1541840E-007  0.1899992E+04  0.7818608E-02  0.8654860E-01
         -1   -1    0    0    0  501 -0.00000000000E+00  0.00000000000E+00  0.87121417956E+03  0.87121417956E+03  0.00000000000E+00 0.  1.
          1   -1    0    0  501    0  0.00000000000E+00 -0.00000000000E+00 -0.10359022907E+04  0.10359022907E+04  0.00000000000E+00 0. -1.
         23    2    1    2    0    0 -0.61850600744E+03 -0.39604238236E+03 -0.51482684031E+02  0.74186984932E+03  0.91220374412E+02 0.  0.
        254    2    1    2    0    0  0.61850600744E+03  0.39604238236E+03 -0.11320542716E+03  0.11652466210E+04  0.89754385360E+03 0.  0.
        -24    2    4    4    0    0 -0.18197228812E+03  0.40616087785E+02 -0.19629717570E+03  0.28193031234E+03  0.78667271428E+02 0.  0.
         24    2    4    4    0    0  0.80047829556E+03  0.35542629457E+03  0.83091748541E+02  0.88331630865E+03  0.79057636681E+02 0.  0.
         11    1    3    3    0    0 -0.52876270545E+03 -0.36614608680E+03 -0.25015850076E+02  0.64364489302E+03  0.00000000000E+00 0.  1.
        -11    1    3    3    0    0 -0.89743301985E+02 -0.29896295553E+02 -0.26466833955E+02  0.98224956292E+02  0.00000000000E+00 0. -1.
          4    1    6    6  502    0  0.55576046115E+03  0.28008577689E+03  0.77956712950E+02  0.62721207075E+03  0.00000000000E+00 0. -1.
          1    1    5    5  503    0 -0.69089431498E+02 -0.16559120146E+02 -0.42571263569E+02  0.82824310963E+02  0.00000000000E+00 0. -1.
         -2    1    5    5    0  503 -0.11288285663E+03  0.57175207931E+02 -0.15372591213E+03  0.19910600137E+03  0.00000000000E+00 0.  1.
         -3    1    6    6    0  502  0.24471783441E+03  0.75340517680E+02  0.51350355907E+01  0.25610423791E+03  0.00000000000E+00 0.  1.
<mgrwt>
<rscale>  0 0.18999924E+04</rscale>
<asrwt>0</asrwt>
<pdfrwt beam="1">  1        1 0.15936958E+00 0.18999924E+04</pdfrwt>
<pdfrwt beam="2">  1       -1 0.13403295E+00 0.18999924E+04</pdfrwt>
<totfact> 0.62299162E+00</totfact>
</mgrwt>
</event>
<event>
12    1  0.1541840E-007  0.1054410E+04  0.7818608E-02  0.9250803E-01
         -2   -1    0    0    0  501 -0.00000000000E+00  0.00000000000E+00  0.24235369697E+03  0.24235369697E+03  0.00000000000E+00 0.  1.
          2   -1    0    0  501    0  0.00000000000E+00 -0.00000000000E+00 -0.11468569376E+04  0.11468569376E+04  0.00000000000E+00 0. -1.
         23    2    1    2    0    0 -0.17745091638E+02 -0.80850379863E+02 -0.52001272440E+02  0.14912379285E+03  0.11261483498E+03 0.  0.
        254    2    1    2    0    0  0.17745091638E+02  0.80850379863E+02 -0.85250196823E+03  0.12400868418E+04  0.89677427319E+03 0.  0.
        -24    2    4    4    0    0  0.20837092530E+03  0.23279170265E+03 -0.91995577452E+03  0.97495958944E+03  0.81345895040E+02 0.  0.
         24    2    4    4    0    0 -0.19062583366E+03 -0.15194132279E+03  0.67453806293E+02  0.26512725231E+03  0.79486287549E+02 0.  0.
         11    1    3    3    0    0 -0.42098110692E+02 -0.52552290698E+02 -0.78439189589E+02  0.10337649948E+03  0.00000000000E+00 0. -1.
        -11    1    3    3    0    0  0.24353019054E+02 -0.28298089166E+02  0.26437917149E+02  0.45747293369E+02  0.00000000000E+00 0.  1.
          2    1    6    6  502    0 -0.34243036988E+02 -0.40637940969E+02 -0.16468776646E+02  0.55634956930E+02  0.00000000000E+00 0. -1.
          3    1    5    5  503    0  0.22177579175E+02  0.70333668131E+02 -0.16890279275E+03  0.18430090420E+03  0.00000000000E+00 0. -1.
         -4    1    5    5    0  503  0.18619334612E+03  0.16245803452E+03 -0.75105298177E+03  0.79065868524E+03  0.00000000000E+00 0.  1.
         -1    1    6    6    0  502 -0.15638279667E+03 -0.11130338182E+03  0.83922582939E+02  0.20949229538E+03  0.00000000000E+00 0.  1.
<mgrwt>
<rscale>  0 0.10544098E+04</rscale>
<asrwt>0</asrwt>
<pdfrwt beam="1">  1        2 0.17643953E+00 0.10544098E+04</pdfrwt>
<pdfrwt beam="2">  1       -2 0.37285184E-01 0.10544098E+04</pdfrwt>
<totfact> 0.13753505E+02</totfact>
</mgrwt>
</event>
<event>
12    1  0.1541840E-007  0.1531506E+04  0.7818608E-02  0.8863768E-01
          1   -1    0    0  501    0  0.00000000000E+00  0.00000000000E+00  0.40705562080E+03  0.40705562080E+03  0.00000000000E+00 0. -1.
         -1   -1    0    0    0  501 -0.00000000000E+00 -0.00000000000E+00 -0.14405348176E+04  0.14405348176E+04  0.00000000000E+00 0.  1.
         23    2    1    2    0    0  0.24625030301E+03 -0.15931479664E+03  0.13992586582E+03  0.33715718754E+03  0.89862700950E+02 0.  0.
        254    2    1    2    0    0 -0.24625030301E+03  0.15931479664E+03 -0.11734050626E+04  0.15104332509E+04  0.90471473303E+03 0.  0.
        -24    2    4    4    0    0 -0.50911619627E+03 -0.13945772116E+03 -0.78426642734E+03  0.94862160951E+03  0.78494405404E+02 0.  0.
         24    2    4    4    0    0  0.26286589326E+03  0.29877251780E+03 -0.38913863528E+03  0.56181164134E+03  0.76419550181E+02 0.  0.
         11    1    3    3    0    0  0.69490354237E+02 -0.80938909980E+02  0.84279471099E+02  0.13595236566E+03  0.00000000000E+00 0.  1.
        -11    1    3    3    0    0  0.17675994877E+03 -0.78375886662E+02  0.55646394717E+02  0.20120482187E+03  0.00000000000E+00 0. -1.
          4    1    6    6  502    0  0.16149094815E+03  0.20527414459E+03 -0.20650426284E+03  0.33295767199E+03  0.00000000000E+00 0. -1.
          1    1    5    5  503    0 -0.42984900707E+03 -0.13844265470E+03 -0.69908012328E+03  0.83225570366E+03  0.00000000000E+00 0. -1.
         -2    1    5    5    0  503 -0.79267189201E+02 -0.10150664631E+01 -0.85186304067E+02  0.11636590585E+03  0.00000000000E+00 0.  1.
         -3    1    6    6    0  502  0.10137494511E+03  0.93498373217E+02 -0.18263437244E+03  0.22885396935E+03  0.00000000000E+00 0.  1.
<mgrwt>
<rscale>  0 0.15315062E+04</rscale>
<asrwt>0</asrwt>
<pdfrwt beam="1">  1        1 0.62623942E-01 0.15315062E+04</pdfrwt>
<pdfrwt beam="2">  1       -1 0.22162074E+00 0.15315062E+04</pdfrwt>
<totfact> 0.60699836E+00</totfact>
</mgrwt>
</event>
<event>
12    1  0.1541840E-007  0.1392586E+04  0.7818608E-02  0.8959203E-01
         -2   -1    0    0    0  501 -0.00000000000E+00  0.00000000000E+00  0.29359607000E+03  0.29359607000E+03  0.00000000000E+00 0.  1.
          2   -1    0    0  501    0  0.00000000000E+00 -0.00000000000E+00 -0.16513286271E+04  0.16513286271E+04  0.00000000000E+00 0. -1.
         23    2    1    2    0    0 -0.20837432497E+03 -0.30767693092E+01  0.70162742010E+02  0.23792350822E+03  0.90859559662E+02 0.  0.
        254    2    1    2    0    0  0.20837432497E+03  0.30767693092E+01 -0.14278952991E+04  0.17070011888E+04  0.91188746442E+03 0.  0.
        -24    2    4    4    0    0 -0.15709652700E+03 -0.48908615472E+02  0.40497894136E+02  0.19102232173E+03  0.88193403987E+02 0.  0.
         24    2    4    4    0    0  0.36547085197E+03  0.51985384781E+02 -0.14683931932E+04  0.15159788671E+04  0.75775535624E+02 0.  0.
         11    1    3    3    0    0 -0.29748504007E+02 -0.31042393948E+02  0.30793366907E+02  0.52885112822E+02  0.00000000000E+00 0.  1.
        -11    1    3    3    0    0 -0.17862582096E+03  0.27965624639E+02  0.39369375102E+02  0.18503839540E+03  0.00000000000E+00 0. -1.
          2    1    6    6  502    0  0.43196894975E+02  0.30532167249E+02 -0.17159764330E+03  0.17956596603E+03  0.00000000000E+00 0. -1.
          1    1    5    5  503    0 -0.79787472151E+02 -0.23627124391E+02 -0.24676405666E+02  0.86794047698E+02  0.00000000000E+00 0. -1.
         -2    1    5    5    0  503 -0.77309054845E+02 -0.25281491081E+02  0.65174299802E+02  0.10422827403E+03  0.00000000000E+00 0.  1.
         -1    1    6    6    0  502  0.32227395699E+03  0.21453217532E+02 -0.12967955499E+04  0.13364129011E+04  0.00000000000E+00 0.  1.
<mgrwt>
<rscale>  0 0.13925855E+04</rscale>
<asrwt>0</asrwt>
<pdfrwt beam="1">  1        2 0.25405055E+00 0.13925855E+04</pdfrwt>
<pdfrwt beam="2">  1       -2 0.45168628E-01 0.13925855E+04</pdfrwt>
<totfact> 0.47244173E+01</totfact>
</mgrwt>
</event>
<event>
12    1  0.1541840E-007  0.2328710E+04  0.7818608E-02  0.8466686E-01
         -1   -1    0    0    0  501 -0.00000000000E+00  0.00000000000E+00  0.73820237152E+03  0.73820237152E+03  0.00000000000E+00 0.  1.
          1   -1    0    0  501    0  0.00000000000E+00 -0.00000000000E+00 -0.18365190050E+04  0.18365190050E+04  0.00000000000E+00 0. -1.
         23    2    1    2    0    0  0.75508300973E+02 -0.53815892604E+03 -0.13792739361E+04  0.14852036473E+04  0.90093007179E+02 0.  0.
        254    2    1    2    0    0 -0.75508300973E+02  0.53815892604E+03  0.28095730264E+03  0.10895177292E+04  0.90155163090E+03 0.  0.
        -24    2    4    4    0    0  0.14382237418E+03  0.53308700156E+03  0.51467935252E+03  0.75900399103E+03  0.79533615213E+02 0.  0.
         24    2    4    4    0    0 -0.21933067516E+03  0.50719244767E+01 -0.23372204987E+03  0.33051373818E+03  0.80508788631E+02 0.  0.
         11    1    3    3    0    0  0.46358396122E+02 -0.50171061770E+03 -0.12759709702E+04  0.13718471349E+04  0.00000000000E+00 0. -1.
        -11    1    3    3    0    0  0.29149904851E+02 -0.36448308336E+02 -0.10330296596E+03  0.11335651243E+03  0.00000000000E+00 0.  1.
          2    1    6    6  502    0 -0.40547226004E+02  0.19914890443E+02 -0.89789422374E+02  0.10051278908E+03  0.00000000000E+00 0. -1.
          1    1    5    5  503    0  0.32998150590E+02  0.14715072880E+03  0.19033920087E+03  0.24283991912E+03  0.00000000000E+00 0. -1.
         -2    1    5    5    0  503  0.11082422359E+03  0.38593627276E+03  0.32434015165E+03  0.51616407192E+03  0.00000000000E+00 0.  1.
         -1    1    6    6    0  502 -0.17878344915E+03 -0.14842965967E+02 -0.14393262750E+03  0.23000094910E+03  0.00000000000E+00 0.  1.
<mgrwt>
<rscale>  0 0.23287101E+04</rscale>
<asrwt>0</asrwt>
<pdfrwt beam="1">  1        1 0.28254138E+00 0.23287101E+04</pdfrwt>
<pdfrwt beam="2">  1       -1 0.11356960E+00 0.23287101E+04</pdfrwt>
<totfact> 0.24535540E+00</totfact>
</mgrwt>
</event>
<event>
12    1  0.1541840E-007  0.1246621E+04  0.7818608E-02  0.9073000E-01
          2   -1    0    0  501    0  0.00000000000E+00  0.00000000000E+00  0.16908128414E+04  0.16908128414E+04  0.00000000000E+00 0. -1.
         -2   -1    0    0    0  501 -0.00000000000E+00 -0.00000000000E+00 -0.22978060035E+03  0.22978060035E+03  0.00000000000E+00 0.  1.
         23    2    1    2    0    0  0.18222535147E+03 -0.56532608876E+02  0.63339067731E+03  0.66795626691E+03  0.92627262810E+02 0.  0.
        254    2    1    2    0    0 -0.18222535147E+03  0.56532608876E+02  0.82764156372E+03  0.12526371748E+04  0.92071022540E+03 0.  0.
        -24    2    4    4    0    0 -0.42474272252E+03  0.13120644717E+03  0.79340107194E+02  0.45837480962E+03  0.78683552114E+02 0.  0.
         24    2    4    4    0    0  0.24251737105E+03 -0.74673838290E+02  0.74830145652E+03  0.79426236520E+03  0.80664599097E+02 0.  0.
         13    1    3    3    0    0  0.82866259984E+02 -0.59785809546E+02  0.42437562879E+03  0.43650410580E+03  0.00000000000E+00 0. -1.
        -13    1    3    3    0    0  0.99359091489E+02  0.32532006699E+01  0.20901504852E+03  0.23145216111E+03  0.00000000000E+00 0.  1.
          4    1    6    6  502    0  0.17599893369E+03 -0.43285994514E+02  0.62441154837E+03  0.65018388454E+03  0.00000000000E+00 0. -1.
          1    1    5    5  503    0 -0.30551213886E+03  0.56596754639E+02  0.58975577960E+02  0.31625777211E+03  0.00000000000E+00 0. -1.
         -2    1    5    5    0  503 -0.11923058366E+03  0.74609692528E+02  0.20364529235E+02  0.14211703751E+03  0.00000000000E+00 0.  1.
         -3    1    6    6    0  502  0.66518437356E+02 -0.31387843776E+02  0.12388990816E+03  0.14407848066E+03  0.00000000000E+00 0.  1.
<mgrwt>
<rscale>  0 0.12466210E+04</rscale>
<asrwt>0</asrwt>
<pdfrwt beam="1">  1        2 0.26012505E+00 0.12466210E+04</pdfrwt>
<pdfrwt beam="2">  1       -2 0.35350863E-01 0.12466210E+04</pdfrwt>
<totfact> 0.73351008E+01</totfact>
</mgrwt>
</event>
<event>
12    1  0.1541840E-007  0.3399267E+04  0.7818608E-02  0.8138086E-01
          2   -1    0    0  501    0  0.00000000000E+00  0.00000000000E+00  0.44257359410E+04  0.44257359410E+04  0.00000000000E+00 0. -1.
         -2   -1    0    0    0  501 -0.00000000000E+00 -0.00000000000E+00 -0.65271739625E+03  0.65271739625E+03  0.00000000000E+00 0.  1.
         23    2    1    2    0    0 -0.13276764634E+04  0.55044821722E+03  0.26671999102E+04  0.30311442082E+04  0.90342783001E+02 0.  0.
        254    2    1    2    0    0  0.13276764634E+04 -0.55044821722E+03  0.11058186345E+04  0.20473091291E+04  0.95022196675E+03 0.  0.
        -24    2    4    4    0    0  0.35755872581E+02 -0.40041106327E+03  0.18420701204E+03  0.45122203799E+03  0.89786425878E+02 0.  0.
         24    2    4    4    0    0  0.12919205908E+04 -0.15003715395E+03  0.92161162251E+03  0.15960870911E+04  0.80969493991E+02 0.  0.
         11    1    3    3    0    0 -0.11367146687E+04  0.45514456654E+03  0.22084416239E+04  0.25251715231E+04  0.00000000000E+00 0. -1.
        -11    1    3    3    0    0 -0.19096179467E+03  0.95303650682E+02  0.45875828628E+03  0.50597268512E+03  0.00000000000E+00 0.  1.
          2    1    6    6  502    0  0.12806713032E+04 -0.14210376590E+03  0.91719044842E+03  0.15816291556E+04  0.00000000000E+00 0. -1.
          1    1    5    5  503    0  0.42709823912E+02 -0.36844586560E+03  0.14050683864E+03  0.39663415970E+03  0.00000000000E+00 0. -1.
         -2    1    5    5    0  503 -0.69539513310E+01 -0.31965197667E+02  0.43700173398E+02  0.54587878288E+02  0.00000000000E+00 0.  1.
         -1    1    6    6    0  502  0.11249287664E+02 -0.79333880576E+01  0.44211740973E+01  0.14457935517E+02  0.00000000000E+00 0.  1.
<mgrwt>
<rscale>  0 0.33992675E+04</rscale>
<asrwt>0</asrwt>
<pdfrwt beam="1">  1        2 0.68088243E+00 0.33992675E+04</pdfrwt>
<pdfrwt beam="2">  1       -2 0.10041806E+00 0.33992675E+04</pdfrwt>
<totfact> 0.97959915E-02</totfact>
</mgrwt>
</event>
<event>
12    1  0.1541840E-007  0.1138882E+04  0.7818608E-02  0.9168102E-01
          2   -1    0    0  501    0  0.00000000000E+00  0.00000000000E+00  0.96081192981E+03  0.96081192981E+03  0.00000000000E+00 0. -1.
         -2   -1    0    0    0  501 -0.00000000000E+00 -0.00000000000E+00 -0.33748857157E+03  0.33748857157E+03  0.00000000000E+00 0.  1.
         23    2    1    2    0    0  0.13036671463E+03  0.39419490418E+02  0.28238244734E+03  0.32670435266E+03  0.91904901776E+02 0.  0.
        254    2    1    2    0    0 -0.13036671463E+03 -0.39419490418E+02  0.34094091090E+03  0.97159614873E+03  0.89956044543E+03 0.  0.
        -24    2    4    4    0    0 -0.18390934139E+03  0.22731144548E+03 -0.19847628598E+03  0.36225012018E+03  0.79618932274E+02 0.  0.
         24    2    4    4    0    0  0.53542626767E+02 -0.26673093590E+03  0.53941719687E+03  0.60934602855E+03  0.79495063846E+02 0.  0.
         11    1    3    3    0    0  0.10978517361E+03  0.65703808026E+02  0.24628921585E+03  0.27753946130E+03  0.00000000000E+00 0. -1.
        -11    1    3    3    0    0  0.20581541015E+02 -0.26284317608E+02  0.36093231491E+02  0.49164891357E+02  0.00000000000E+00 0.  1.
          4    1    6    6  502    0  0.23012700543E+02 -0.52669308786E+02  0.18936845459E+03  0.19789909567E+03  0.00000000000E+00 0. -1.
          1    1    5    5  503    0 -0.95896711583E+02  0.13127803753E+03 -0.15579720113E+03  0.22517297864E+03  0.00000000000E+00 0. -1.
         -4    1    5    5    0  503 -0.88012629811E+02  0.96033407952E+02 -0.42679084847E+02  0.13707714154E+03  0.00000000000E+00 0.  1.
         -1    1    6    6    0  502  0.30529926224E+02 -0.21406162711E+03  0.35004874229E+03  0.41144693288E+03  0.00000000000E+00 0.  1.
<mgrwt>
<rscale>  0 0.11388820E+04</rscale>
<asrwt>0</asrwt>
<pdfrwt beam="1">  1        2 0.14781722E+00 0.11388820E+04</pdfrwt>
<pdfrwt beam="2">  1       -2 0.51921319E-01 0.11388820E+04</pdfrwt>
<totfact> 0.92660970E+01</totfact>
</mgrwt>
</event>
<event>
12    1  0.1541840E-007  0.1250693E+04  0.7818608E-02  0.9069606E-01
          2   -1    0    0  501    0  0.00000000000E+00  0.00000000000E+00  0.67587890538E+03  0.67587890538E+03  0.00000000000E+00 0. -1.
         -2   -1    0    0    0  501 -0.00000000000E+00 -0.00000000000E+00 -0.57859250655E+03  0.57859250655E+03  0.00000000000E+00 0.  1.
         23    2    1    2    0    0 -0.21208115072E+03 -0.18351521513E+03  0.94425594380E+02  0.30973849218E+03  0.91463063516E+02 0.  0.
        254    2    1    2    0    0  0.21208115072E+03  0.18351521513E+03  0.28608044512E+01  0.94473291975E+03  0.90213959938E+03 0.  0.
        -24    2    4    4    0    0  0.35845519511E+03 -0.27153796730E+03  0.40306852648E+02  0.45861139515E+03  0.80478412032E+02 0.  0.
         24    2    4    4    0    0 -0.14637404440E+03  0.45505318243E+03 -0.37446048197E+02  0.48612152459E+03  0.80082272916E+02 0.  0.
         13    1    3    3    0    0 -0.73272165130E+02 -0.21539200388E+02  0.51586430771E+02  0.92162395672E+02  0.00000000000E+00 0.  1.
        -13    1    3    3    0    0 -0.13880898559E+03 -0.16197601474E+03  0.42839163609E+02  0.21757609650E+03  0.00000000000E+00 0. -1.
          4    1    6    6  502    0 -0.14058725558E+03  0.45676000768E+03 -0.39984271713E+02  0.47957608680E+03  0.00000000000E+00 0. -1.
          1    1    5    5  503    0  0.32638586915E+03 -0.22063941343E+03  0.51822633757E+02  0.39736012848E+03  0.00000000000E+00 0. -1.
         -4    1    5    5    0  503  0.32069325966E+02 -0.50898553871E+02 -0.11515781109E+02  0.61251266670E+02  0.00000000000E+00 0.  1.
         -3    1    6    6    0  502 -0.57867888161E+01 -0.17068252526E+01  0.25382235161E+01  0.65454377900E+01  0.00000000000E+00 0.  1.
<mgrwt>
<rscale>  0 0.12506934E+04</rscale>
<asrwt>0</asrwt>
<pdfrwt beam="1">  1        2 0.10398137E+00 0.12506934E+04</pdfrwt>
<pdfrwt beam="2">  1       -2 0.89014232E-01 0.12506934E+04</pdfrwt>
<totfact> 0.45674748E+01</totfact>
</mgrwt>
</event>
<event>
12    1  0.1541840E-007  0.1481123E+04  0.7818608E-02  0.8897104E-01
          2   -1    0    0  501    0  0.00000000000E+00  0.00000000000E+00  0.15338911090E+04  0.15338911090E+04  0.00000000000E+00 0. -1.
         -2   -1    0    0    0  501 -0.00000000000E+00 -0.00000000000E+00 -0.35754273956E+03  0.35754273956E+03  0.00000000000E+00 0.  1.
         23    2    1    2    0    0 -0.11869422329E+03  0.44862344698E+03  0.36256310499E+03  0.59582870526E+03  0.90600911115E+02 0.  0.
        254    2    1    2    0    0  0.11869422329E+03 -0.44862344698E+03  0.81378526450E+03  0.12956051433E+04  0.89498319253E+03 0.  0.
        -24    2    4    4    0    0 -0.22694066441E+03 -0.47686946259E+03  0.77038033463E+03  0.93717535960E+03  0.76845592910E+02 0.  0.
         24    2    4    4    0    0  0.34563488771E+03  0.28246015608E+02  0.43404929870E+02  0.35842978374E+03  0.79539983260E+02 0.  0.
         11    1    3    3    0    0 -0.57485034983E+02  0.17448156418E+03  0.90533941367E+02  0.20480415041E+03  0.00000000000E+00 0.  1.
        -11    1    3    3    0    0 -0.61209188311E+02  0.27414188280E+03  0.27202916362E+03  0.39102455485E+03  0.00000000000E+00 0. -1.
          4    1    6    6  502    0  0.15935537100E+03 -0.17516978411E+02  0.45333583393E+02  0.16660165840E+03  0.00000000000E+00 0. -1.
          1    1    5    5  503    0 -0.55640043273E+02 -0.19613353137E+03  0.26820229568E+03  0.33689263565E+03  0.00000000000E+00 0. -1.
         -2    1    5    5    0  503 -0.17130062114E+03 -0.28073593121E+03  0.50217803895E+03  0.60028272396E+03  0.00000000000E+00 0.  1.
         -3    1    6    6    0  502  0.18627951671E+03  0.45762994019E+02 -0.19286535233E+01  0.19182812534E+03  0.00000000000E+00 0.  1.
<mgrwt>
<rscale>  0 0.14811234E+04</rscale>
<asrwt>0</asrwt>
<pdfrwt beam="1">  1        2 0.23598324E+00 0.14811234E+04</pdfrwt>
<pdfrwt beam="2">  1       -2 0.55006576E-01 0.14811234E+04</pdfrwt>
<totfact> 0.36524229E+01</totfact>
</mgrwt>
</event>
<event>
12    1  0.1541840E-007  0.1608438E+04  0.7818608E-02  0.8815381E-01
         -2   -1    0    0    0  501 -0.00000000000E+00  0.00000000000E+00  0.47140680285E+03  0.47140680285E+03  0.00000000000E+00 0.  1.
          2   -1    0    0  501    0  0.00000000000E+00 -0.00000000000E+00 -0.13719961549E+04  0.13719961549E+04  0.00000000000E+00 0. -1.
         23    2    1    2    0    0 -0.29140566462E+03  0.42087082740E+02  0.21846055519E+03  0.37818890447E+03  0.92807593361E+02 0.  0.
        254    2    1    2    0    0  0.29140566462E+03 -0.42087082740E+02 -0.11190499072E+04  0.14652140533E+04  0.89882753804E+03 0.  0.
        -24    2    4    4    0    0 -0.13449098805E+03  0.24841021483E+03 -0.82802573808E+02  0.30501488928E+03  0.79889647354E+02 0.  0.
         24    2    4    4    0    0  0.42589665267E+03 -0.29049729757E+03 -0.10362473334E+04  0.11601991640E+04  0.80479347906E+02 0.  0.
         11    1    3    3    0    0 -0.64501957502E+02  0.86557724657E+00  0.62812841312E+01  0.64812855792E+02  0.00000000000E+00 0. -1.
        -11    1    3    3    0    0 -0.22690370712E+03  0.41221505494E+02  0.21217927106E+03  0.31337604868E+03  0.00000000000E+00 0.  1.
          4    1    6    6  502    0  0.26903671534E+03 -0.21222746904E+03 -0.61684089488E+03  0.70563017396E+03  0.00000000000E+00 0. -1.
          3    1    5    5  503    0 -0.14072062093E+03  0.22926660567E+03 -0.89955412609E+02  0.28365021750E+03  0.00000000000E+00 0. -1.
         -4    1    5    5    0  503  0.62296328740E+01  0.19143609159E+02  0.71528388017E+01  0.21364671781E+02  0.00000000000E+00 0.  1.
         -3    1    6    6    0  502  0.15685993733E+03 -0.78269828539E+02 -0.41940643856E+03  0.45456899003E+03  0.00000000000E+00 0.  1.
<mgrwt>
<rscale>  0 0.16084382E+04</rscale>
<asrwt>0</asrwt>
<pdfrwt beam="1">  1        2 0.21107633E+00 0.16084382E+04</pdfrwt>
<pdfrwt beam="2">  1       -2 0.72524123E-01 0.16084382E+04</pdfrwt>
<totfact> 0.24749891E+01</totfact>
</mgrwt>
</event>
<event>
12    1  0.1541840E-007  0.2121531E+04  0.7818608E-02  0.8551817E-01
          2   -1    0    0  501    0  0.00000000000E+00  0.00000000000E+00  0.21030166496E+04  0.21030166496E+04  0.00000000000E+00 0. -1.
         -2   -1    0    0    0  501 -0.00000000000E+00 -0.00000000000E+00 -0.53505233295E+03  0.53505233295E+03  0.00000000000E+00 0.  1.
         23    2    1    2    0    0 -0.69080313143E+03 -0.49906977972E+03  0.49863506737E+03  0.99153220757E+03  0.90661881858E+02 0.  0.
        254    2    1    2    0    0  0.69080313143E+03  0.49906977972E+03  0.10693292493E+04  0.16465367750E+04  0.91724516709E+03 0.  0.
        -24    2    4    4    0    0  0.38371863477E+03  0.64452617711E+02 -0.54589743915E+02  0.40066473015E+03  0.78473277276E+02 0.  0.
         24    2    4    4    0    0  0.30708449666E+03  0.43461716201E+03  0.11239189932E+04  0.12458720448E+04  0.76225213816E+02 0.  0.
         13    1    3    3    0    0 -0.44803604827E+03 -0.29588352337E+03  0.35660988077E+03  0.64455718677E+03  0.00000000000E+00 0.  1.
        -13    1    3    3    0    0 -0.24276708316E+03 -0.20318625635E+03  0.14202518661E+03  0.34697502081E+03  0.00000000000E+00 0. -1.
          4    1    6    6  502    0  0.26209474916E+02  0.54381332696E+02  0.82931029014E+02  0.10257593039E+03  0.00000000000E+00 0. -1.
          1    1    5    5  503    0  0.41838995446E+02 -0.31815469039E+01  0.16314005887E+02  0.45019668687E+02  0.00000000000E+00 0. -1.
         -2    1    5    5    0  503  0.34187963932E+03  0.67634164615E+02 -0.70903749801E+02  0.35564506146E+03  0.00000000000E+00 0.  1.
         -3    1    6    6    0  502  0.28087502174E+03  0.38023582931E+03  0.10409879642E+04  0.11432961144E+04  0.00000000000E+00 0.  1.
<mgrwt>
<rscale>  0 0.21215315E+04</rscale>
<asrwt>0</asrwt>
<pdfrwt beam="1">  1        2 0.32354102E+00 0.21215315E+04</pdfrwt>
<pdfrwt beam="2">  1       -2 0.82315744E-01 0.21215315E+04</pdfrwt>
<totfact> 0.69777257E+00</totfact>
</mgrwt>
</event>
<event>
12    1  0.1601108E-007  0.1874026E+04  0.7818608E-02  0.8667894E-01
         -1   -1    0    0    0  501 -0.00000000000E+00  0.00000000000E+00  0.68791949794E+03  0.68791949794E+03  0.00000000000E+00 0.  1.
          1   -1    0    0  501    0  0.00000000000E+00 -0.00000000000E+00 -0.12763024540E+04  0.12763024540E+04  0.00000000000E+00 0. -1.
         23    2    1    2    0    0  0.54159669438E+03 -0.41234638883E+03  0.49208481319E+02  0.68788815794E+03  0.86093666784E+02 0.  0.
        254    2    1    2    0    0 -0.54159669438E+03  0.41234638883E+03 -0.63759143743E+03  0.12763337940E+04  0.87129133415E+03 0.  0.
        -24    2    4    4    0    0 -0.35356361173E+03  0.29788175198E+03 -0.84339087075E+03  0.96548582550E+03  0.84344250961E+02 0.  0.
         24    2    4    4    0    0 -0.18803308265E+03  0.11446463685E+03  0.20579943332E+03  0.31084796853E+03  0.76252603406E+02 0.  0.
         11    1    3    3    0    0  0.73553395780E+02 -0.29275167786E+02 -0.11631373982E+02  0.80015163191E+02  0.00000000000E+00 0.  1.
        -11    1    3    3    0    0  0.46804329860E+03 -0.38307122105E+03  0.60839855301E+02  0.60787299475E+03  0.00000000000E+00 0. -1.
          4    1    6    6  502    0 -0.17826689288E+03  0.77082448945E+02  0.17514956506E+03  0.26153041731E+03  0.00000000000E+00 0. -1.
          1    1    5    5  503    0 -0.24028497621E+03  0.24608415153E+03 -0.65148599120E+03  0.73670094079E+03  0.00000000000E+00 0. -1.
         -2    1    5    5    0  503 -0.11327863551E+03  0.51797600457E+02 -0.19190487955E+03  0.22878488471E+03  0.00000000000E+00 0.  1.
         -3    1    6    6    0  502 -0.97661897661E+01  0.37382187902E+02  0.30649868261E+02  0.49317551230E+02  0.00000000000E+00 0.  1.
<mgrwt>
<rscale>  0 0.18740260E+04</rscale>
<asrwt>0</asrwt>
<pdfrwt beam="1">  1        1 0.19635422E+00 0.18740260E+04</pdfrwt>
<pdfrwt beam="2">  1       -1 0.10583377E+00 0.18740260E+04</pdfrwt>
<totfact> 0.73725248E+00</totfact>
</mgrwt>
</event>
<event>
12    1  0.1541840E-007  0.1623811E+04  0.7818608E-02  0.8806052E-01
         -2   -1    0    0    0  501 -0.00000000000E+00  0.00000000000E+00  0.53528331327E+03  0.53528331327E+03  0.00000000000E+00 0. -1.
          2   -1    0    0  501    0  0.00000000000E+00 -0.00000000000E+00 -0.12314793771E+04  0.12314793771E+04  0.00000000000E+00 0.  1.
         23    2    1    2    0    0 -0.12851475397E+03  0.78597733491E+01  0.34680602409E+03  0.38129314235E+03  0.92370038622E+02 0.  0.
        254    2    1    2    0    0  0.12851475397E+03 -0.78597733491E+01 -0.10430020879E+04  0.13854695480E+04  0.90282594947E+03 0.  0.
        -24    2    4    4    0    0  0.23919109921E+03  0.40422986353E+03 -0.51002686634E+03  0.69785732200E+03  0.79140842616E+02 0.  0.
         24    2    4    4    0    0 -0.11067634524E+03 -0.41208963688E+03 -0.53297522158E+03  0.68761222601E+03  0.81736554397E+02 0.  0.
         11    1    3    3    0    0 -0.97054582438E+02 -0.20748779295E+02  0.30846196012E+03  0.32403531390E+03  0.00000000000E+00 0. -1.
        -11    1    3    3    0    0 -0.31460171534E+02  0.28608552644E+02  0.38344063974E+02  0.57257828455E+02  0.00000000000E+00 0.  1.
          4    1    6    6  502    0 -0.70367465779E+02 -0.19660882659E+03 -0.20137676099E+03  0.29010206962E+03  0.00000000000E+00 0. -1.
          1    1    5    5  503    0  0.21452892486E+03  0.35735209291E+03 -0.40991985808E+03  0.58460026339E+03  0.00000000000E+00 0. -1.
         -2    1    5    5    0  503  0.24662174356E+02  0.46877770616E+02 -0.10010700826E+03  0.11325705861E+03  0.00000000000E+00 0.  1.
         -3    1    6    6    0  502 -0.40308879461E+02 -0.21548081029E+03 -0.33159846059E+03  0.39751015639E+03  0.00000000000E+00 0.  1.
<mgrwt>
<rscale>  0 0.16238108E+04</rscale>
<asrwt>0</asrwt>
<pdfrwt beam="1">  1        2 0.18945836E+00 0.16238108E+04</pdfrwt>
<pdfrwt beam="2">  1       -2 0.82351280E-01 0.16238108E+04</pdfrwt>
<totfact> 0.22484211E+01</totfact>
</mgrwt>
</event>
<event>
12    1  0.1541840E-007  0.1346657E+04  0.7818608E-02  0.8993362E-01
          2   -1    0    0  501    0  0.00000000000E+00  0.00000000000E+00  0.10594889075E+04  0.10594889075E+04  0.00000000000E+00 0. -1.
         -2   -1    0    0    0  501 -0.00000000000E+00 -0.00000000000E+00 -0.42791528903E+03  0.42791528903E+03  0.00000000000E+00 0.  1.
         23    2    1    2    0    0 -0.14398281769E+03 -0.61871894278E+02  0.53253239655E+03  0.56288003440E+03  0.93187964126E+02 0.  0.
        254    2    1    2    0    0  0.14398281769E+03  0.61871894278E+02  0.99041221956E+02  0.92452416218E+03  0.90574642131E+03 0.  0.
        -24    2    4    4    0    0  0.33014587670E+03  0.39515580971E+03  0.12323857619E+03  0.53437620871E+03  0.72289500742E+02 0.  0.
         24    2    4    4    0    0 -0.18616305902E+03 -0.33328391543E+03 -0.24197354232E+02  0.39014795347E+03  0.76779299397E+02 0.  0.
         11    1    3    3    0    0 -0.32533887864E+02 -0.58726167285E+02  0.14810021145E+03  0.16260654727E+03  0.00000000000E+00 0. -1.
        -11    1    3    3    0    0 -0.11144892982E+03 -0.31457269937E+01  0.38443218510E+03  0.40027348713E+03  0.00000000000E+00 0.  1.
          2    1    6    6  502    0 -0.63773004033E+02 -0.53792685714E+02  0.53782965622E+01  0.83603679068E+02  0.00000000000E+00 0. -1.
          1    1    5    5  503    0  0.14130093929E+03  0.11554065369E+03  0.40372822785E+02  0.18693732351E+03  0.00000000000E+00 0. -1.
         -2    1    5    5    0  503  0.18884493741E+03  0.27961515602E+03  0.82865753403E+02  0.34743888520E+03  0.00000000000E+00 0.  1.
         -1    1    6    6    0  502 -0.12239005498E+03 -0.27949122972E+03 -0.29575650794E+02  0.30654427440E+03  0.00000000000E+00 0.  1.
<mgrwt>
<rscale>  0 0.13466573E+04</rscale>
<asrwt>0</asrwt>
<pdfrwt beam="1">  1        2 0.16299829E+00 0.13466573E+04</pdfrwt>
<pdfrwt beam="2">  1       -2 0.65833122E-01 0.13466573E+04</pdfrwt>
<totfact> 0.47921693E+01</totfact>
</mgrwt>
</event>
<event>
12    1  0.1541840E-007  0.1632201E+04  0.7818608E-02  0.8801006E-01
         -1   -1    0    0    0  501 -0.00000000000E+00  0.00000000000E+00  0.73381643265E+03  0.73381643265E+03  0.00000000000E+00 0.  1.
          1   -1    0    0  501    0  0.00000000000E+00 -0.00000000000E+00 -0.90761177244E+03  0.90761177244E+03  0.00000000000E+00 0. -1.
         23    2    1    2    0    0 -0.31267795570E+03  0.55649799429E+01 -0.54793201098E+03  0.63769514519E+03  0.92882380261E+02 0.  0.
        254    2    1    2    0    0  0.31267795570E+03 -0.55649799429E+01  0.37413667119E+03  0.10037330599E+04  0.87732738121E+03 0.  0.
        -24    2    4    4    0    0 -0.98949711165E+02  0.31090523195E+03  0.33875764665E+03  0.47722269383E+03  0.80818610170E+02 0.  0.
         24    2    4    4    0    0  0.41162766686E+03 -0.31647021189E+03  0.35379024540E+02  0.52651036607E+03  0.79817034901E+02 0.  0.
         11    1    3    3    0    0 -0.26554093435E+03  0.87715194302E-01 -0.51654002629E+03  0.58079737798E+03  0.00000000000E+00 0. -1.
        -11    1    3    3    0    0 -0.47137021352E+02  0.54772647486E+01 -0.31391984691E+02  0.56897767213E+02  0.00000000000E+00 0.  1.
          4    1    6    6  502    0  0.21578609011E+03 -0.13343149281E+03  0.47755343563E+02  0.25816307404E+03  0.00000000000E+00 0. -1.
          3    1    5    5  503    0 -0.56489611714E+02  0.11444415775E+03  0.84290397432E+02  0.15294905222E+03  0.00000000000E+00 0. -1.
         -4    1    5    5    0  503 -0.42460099451E+02  0.19646107420E+03  0.25446724922E+03  0.32427364161E+03  0.00000000000E+00 0.  1.
         -3    1    6    6    0  502  0.19584157676E+03 -0.18303871908E+03 -0.12376319023E+02  0.26834729204E+03  0.00000000000E+00 0.  1.
<mgrwt>
<rscale>  0 0.16322015E+04</rscale>
<asrwt>0</asrwt>
<pdfrwt beam="1">  1        1 0.13963258E+00 0.16322015E+04</pdfrwt>
<pdfrwt beam="2">  1       -1 0.11289484E+00 0.16322015E+04</pdfrwt>
<totfact> 0.12318821E+01</totfact>
</mgrwt>
</event>
<event>
12    1  0.1541840E-007  0.1522459E+04  0.7818608E-02  0.8869654E-01
          2   -1    0    0  501    0  0.00000000000E+00  0.00000000000E+00  0.49314810852E+03  0.49314810852E+03  0.00000000000E+00 0. -1.
         -2   -1    0    0    0  501 -0.00000000000E+00 -0.00000000000E+00 -0.11750428764E+04  0.11750428764E+04  0.00000000000E+00 0.  1.
         23    2    1    2    0    0 -0.84709748659E+02  0.61942701151E+00  0.30506017261E+03  0.33017401729E+03  0.93685898477E+02 0.  0.
        254    2    1    2    0    0  0.84709748659E+02 -0.61942701151E+00 -0.98695494052E+03  0.13380169677E+04  0.89946274292E+03 0.  0.
        -24    2    4    4    0    0  0.36145059244E+03 -0.27015243593E+03 -0.30604274096E+03  0.55143305275E+03  0.82385574939E+02 0.  0.
         24    2    4    4    0    0 -0.27674084378E+03  0.26953300892E+03 -0.68091219955E+03  0.78658391490E+03  0.76415274429E+02 0.  0.
         11    1    3    3    0    0 -0.29279667199E+02  0.37281708474E+02  0.61153671527E+02  0.77375682480E+02  0.00000000000E+00 0.  1.
        -11    1    3    3    0    0 -0.55430081459E+02 -0.36662281462E+02  0.24390650108E+03  0.25279833481E+03  0.00000000000E+00 0. -1.
          4    1    6    6  502    0 -0.14500026080E+03  0.89194623686E+02 -0.28147149327E+03  0.32894826044E+03  0.00000000000E+00 0. -1.
          1    1    5    5  503    0  0.35467303721E+03 -0.27618669248E+03 -0.30162199814E+03  0.54133897161E+03  0.00000000000E+00 0. -1.
         -4    1    5    5    0  503  0.67775552289E+01  0.60342565459E+01 -0.44207428220E+01  0.10094081139E+02  0.00000000000E+00 0.  1.
         -3    1    6    6    0  502 -0.13174058298E+03  0.18033838523E+03 -0.39944070628E+03  0.45763565446E+03  0.00000000000E+00 0.  1.
<mgrwt>
<rscale>  0 0.15224588E+04</rscale>
<asrwt>0</asrwt>
<pdfrwt beam="1">  1        2 0.75868941E-01 0.15224588E+04</pdfrwt>
<pdfrwt beam="2">  1       -2 0.18077582E+00 0.15224588E+04</pdfrwt>
<totfact> 0.10798762E+01</totfact>
</mgrwt>
</event>
<event>
12    1  0.1541840E-007  0.1357471E+04  0.7818608E-02  0.8985192E-01
         -1   -1    0    0    0  501 -0.00000000000E+00  0.00000000000E+00  0.10035731383E+04  0.10035731383E+04  0.00000000000E+00 0.  1.
          1   -1    0    0  501    0  0.00000000000E+00 -0.00000000000E+00 -0.45904158906E+03  0.45904158906E+03  0.00000000000E+00 0. -1.
         23    2    1    2    0    0  0.21065721994E+03  0.14053396027E+03  0.42945690949E+03  0.50657924497E+03  0.89794409710E+02 0.  0.
        254    2    1    2    0    0 -0.21065721994E+03 -0.14053396027E+03  0.11507463976E+03  0.95603548242E+03  0.91467776436E+03 0.  0.
        -24    2    4    4    0    0 -0.60468838989E+02 -0.34631782903E+03  0.41827265381E+03  0.55231860839E+03  0.80692707616E+02 0.  0.
         24    2    4    4    0    0 -0.15018838095E+03  0.20578386875E+03 -0.30319801405E+03  0.40371687402E+03  0.78452076054E+02 0.  0.
         13    1    3    3    0    0  0.16469281920E+03  0.11923498193E+03  0.26207264828E+03  0.33169681727E+03  0.00000000000E+00 0. -1.
        -13    1    3    3    0    0  0.45964400742E+02  0.21298978340E+02  0.16738426122E+03  0.17488242769E+03  0.00000000000E+00 0.  1.
          2    1    6    6  502    0 -0.79635299427E+02  0.14779353296E+03 -0.14882078896E+03  0.22434869406E+03  0.00000000000E+00 0. -1.
          3    1    5    5  503    0 -0.27210294698E+02 -0.12573744613E+03  0.96656081702E+02  0.16091209907E+03  0.00000000000E+00 0. -1.
         -4    1    5    5    0  503 -0.33258544291E+02 -0.22058038290E+03  0.32161657211E+03  0.39140650932E+03  0.00000000000E+00 0.  1.
         -1    1    6    6    0  502 -0.70553081523E+02  0.57990335792E+02 -0.15437722508E+03  0.17936817996E+03  0.00000000000E+00 0.  1.
<mgrwt>
<rscale>  0 0.13574709E+04</rscale>
<asrwt>0</asrwt>
<pdfrwt beam="1">  1        1 0.70621783E-01 0.13574709E+04</pdfrwt>
<pdfrwt beam="2">  1       -1 0.15439587E+00 0.13574709E+04</pdfrwt>
<totfact> 0.15726685E+01</totfact>
</mgrwt>
</event>
<event>
12    1  0.1541840E-007  0.3756525E+04  0.7818608E-02  0.8055549E-01
         -1   -1    0    0    0  501 -0.00000000000E+00  0.00000000000E+00  0.21837931838E+04  0.21837931838E+04  0.00000000000E+00 0.  1.
          1   -1    0    0  501    0  0.00000000000E+00 -0.00000000000E+00 -0.16154777191E+04  0.16154777191E+04  0.00000000000E+00 0. -1.
         23    2    1    2    0    0 -0.15329419701E+04  0.56689441033E+03  0.97711209806E+03  0.19061683641E+04  0.86310045024E+02 0.  0.
        254    2    1    2    0    0  0.15329419701E+04 -0.56689441033E+03 -0.40879663335E+03  0.18931025388E+04  0.86338993442E+03 0.  0.
        -24    2    4    4    0    0  0.18074075898E+03  0.64278980020E+02  0.19184300490E+03  0.28237197212E+03  0.78301870213E+02 0.  0.
         24    2    4    4    0    0  0.13522012111E+04 -0.63117339035E+03 -0.60063963825E+03  0.16107305667E+04  0.82807121778E+02 0.  0.
         11    1    3    3    0    0 -0.59861465472E+03  0.21220025075E+03  0.42792814951E+03  0.76582697289E+03  0.00000000000E+00 0. -1.
        -11    1    3    3    0    0 -0.93432731540E+03  0.35469415957E+03  0.54918394855E+03  0.11403413912E+04  0.00000000000E+00 0.  1.
          4    1    6    6  502    0  0.98998870760E+03 -0.45615271838E+03 -0.39912106896E+03  0.11607973860E+04  0.00000000000E+00 0. -1.
          3    1    5    5  503    0 -0.37299955333E+01  0.14984720887E+02  0.21622900401E+02  0.26570746104E+02  0.00000000000E+00 0. -1.
         -4    1    5    5    0  503  0.18447075452E+03  0.49294259133E+02  0.17022010450E+03  0.25580122601E+03  0.00000000000E+00 0.  1.
         -3    1    6    6    0  502  0.36221250354E+03 -0.17502067197E+03 -0.20151856929E+03  0.44993318071E+03  0.00000000000E+00 0.  1.
<mgrwt>
<rscale>  0 0.37565246E+04</rscale>
<asrwt>0</asrwt>
<pdfrwt beam="1">  1        1 0.24853503E+00 0.37565246E+04</pdfrwt>
<pdfrwt beam="2">  1       -1 0.33596818E+00 0.37565246E+04</pdfrwt>
<totfact> 0.83610566E-02</totfact>
</mgrwt>
</event>
<event>
12    1  0.1541840E-007  0.1530476E+04  0.7818608E-02  0.8864436E-01
          1   -1    0    0  501    0  0.00000000000E+00  0.00000000000E+00  0.11129738692E+04  0.11129738692E+04  0.00000000000E+00 0. -1.
         -1   -1    0    0    0  501 -0.00000000000E+00 -0.00000000000E+00 -0.52614813685E+03  0.52614813685E+03  0.00000000000E+00 0.  1.
         23    2    1    2    0    0 -0.62841092098E+01 -0.26433981445E+03  0.63700888170E+03  0.69497781961E+03  0.85433171835E+02 0.  0.
        254    2    1    2    0    0  0.62841092098E+01  0.26433981445E+03 -0.50183149342E+02  0.94414418645E+03  0.90497230278E+03 0.  0.
        -24    2    4    4    0    0  0.23175426717E+03  0.32942118937E+03 -0.36096407436E+03  0.54652475651E+03  0.78523156749E+02 0.  0.
         24    2    4    4    0    0 -0.22547015796E+03 -0.65081374917E+02  0.31078092501E+03  0.39761942994E+03  0.80274841788E+02 0.  0.
         13    1    3    3    0    0 -0.22650684640E+02 -0.17833767736E+03  0.33069999537E+03  0.37640386238E+03  0.00000000000E+00 0. -1.
        -13    1    3    3    0    0  0.16366575430E+02 -0.86002137092E+02  0.30630888634E+03  0.31857395723E+03  0.00000000000E+00 0.  1.
          2    1    6    6  502    0 -0.20768685385E+03 -0.34596369299E+02  0.28284981113E+03  0.35261133517E+03  0.00000000000E+00 0. -1.
          3    1    5    5  503    0  0.22391999243E+03  0.30975370749E+03 -0.36041965398E+03  0.52534736060E+03  0.00000000000E+00 0. -1.
         -4    1    5    5    0  503  0.78342747350E+01  0.19667481876E+02 -0.54442038028E+00  0.21177395910E+02  0.00000000000E+00 0.  1.
         -1    1    6    6    0  502 -0.17783304107E+02 -0.30485005618E+02  0.27931113879E+02  0.45008094772E+02  0.00000000000E+00 0.  1.
<mgrwt>
<rscale>  0 0.15304759E+04</rscale>
<asrwt>0</asrwt>
<pdfrwt beam="1">  1        1 0.17122675E+00 0.15304759E+04</pdfrwt>
<pdfrwt beam="2">  1       -1 0.80945867E-01 0.15304759E+04</pdfrwt>
<totfact> 0.18200316E+01</totfact>
</mgrwt>
</event>
<event>
12    1  0.1541840E-007  0.1401380E+04  0.7818608E-02  0.8952820E-01
         -2   -1    0    0    0  501 -0.00000000000E+00  0.00000000000E+00  0.96443069296E+03  0.96443069296E+03  0.00000000000E+00 0.  1.
          2   -1    0    0  501    0  0.00000000000E+00 -0.00000000000E+00 -0.50907388094E+03  0.50907388094E+03  0.00000000000E+00 0. -1.
         23    2    1    2    0    0 -0.21235948199E+03 -0.21404543562E+03  0.42035676932E+03  0.52562759670E+03  0.93126574095E+02 0.  0.
        254    2    1    2    0    0  0.21235948199E+03  0.21404543562E+03  0.35000042703E+02  0.94787697720E+03  0.89796089158E+03 0.  0.
        -24    2    4    4    0    0 -0.63694184970E+02 -0.23905630285E+03 -0.23220952852E+03  0.34858601335E+03  0.79912942872E+02 0.  0.
         24    2    4    4    0    0  0.27605366696E+03  0.45310173847E+03  0.26720957123E+03  0.59929096385E+03  0.79005645017E+02 0.  0.
         11    1    3    3    0    0 -0.19547304116E+02 -0.22176602579E+01  0.71945328162E+02  0.74586495826E+02  0.00000000000E+00 0. -1.
        -11    1    3    3    0    0 -0.19281217787E+03 -0.21182777537E+03  0.34841144116E+03  0.45104110088E+03  0.00000000000E+00 0.  1.
          2    1    6    6  502    0  0.42906601823E+01  0.50430424426E+02  0.26384118197E+02  0.57076783070E+02  0.00000000000E+00 0. -1.
          1    1    5    5  503    0 -0.15572867374E+02 -0.72144186554E+02 -0.24398339978E+02  0.77734013440E+02  0.00000000000E+00 0. -1.
         -2    1    5    5    0  503 -0.48121317596E+02 -0.16691211630E+03 -0.20781118854E+03  0.27085199991E+03  0.00000000000E+00 0.  1.
         -1    1    6    6    0  502  0.27176300678E+03  0.40267131405E+03  0.24082545303E+03  0.54221418078E+03  0.00000000000E+00 0.  1.
<mgrwt>
<rscale>  0 0.14013800E+04</rscale>
<asrwt>0</asrwt>
<pdfrwt beam="1">  1        2 0.78319059E-01 0.14013800E+04</pdfrwt>
<pdfrwt beam="2">  1       -2 0.14837395E+00 0.14013800E+04</pdfrwt>
<totfact> 0.18082931E+01</totfact>
</mgrwt>
</event>
<event>
12    1  0.1541840E-007  0.1765291E+04  0.7818608E-02  0.8724978E-01
         -2   -1    0    0    0  501 -0.00000000000E+00  0.00000000000E+00  0.19126404205E+04  0.19126404205E+04  0.00000000000E+00 0.  1.
          2   -1    0    0  501    0  0.00000000000E+00 -0.00000000000E+00 -0.40732349402E+03  0.40732349402E+03  0.00000000000E+00 0. -1.
         23    2    1    2    0    0 -0.32482753376E+03 -0.42790057308E+03  0.71738678423E+02  0.54966430858E+03  0.91501841586E+02 0.  0.
        254    2    1    2    0    0  0.32482753376E+03  0.42790057308E+03  0.14335782481E+04  0.17702996060E+04  0.88893322266E+03 0.  0.
        -24    2    4    4    0    0  0.50228937905E+03  0.44471527580E+03  0.56685527602E+03  0.88190013687E+03  0.79728605954E+02 0.  0.
         24    2    4    4    0    0 -0.17746184529E+03 -0.16814702718E+02  0.86672297209E+03  0.88839946911E+03  0.79179957152E+02 0.  0.
         11    1    3    3    0    0 -0.30691674560E+03 -0.42518475704E+03  0.59384340003E+02  0.52773711845E+03  0.00000000000E+00 0. -1.
        -11    1    3    3    0    0 -0.17910788161E+02 -0.27158160388E+01  0.12354338420E+02  0.21927190133E+02  0.00000000000E+00 0.  1.
          4    1    6    6  502    0 -0.26108912617E+02  0.11596228887E+02  0.52769898349E+02  0.60006749739E+02  0.00000000000E+00 0. -1.
          3    1    5    5  503    0  0.33934267654E+02  0.25213597095E+02  0.64417677731E+02  0.77051263481E+02  0.00000000000E+00 0. -1.
         -4    1    5    5    0  503  0.46835511140E+03  0.41950167871E+03  0.50243759829E+03  0.80484887338E+03  0.00000000000E+00 0.  1.
         -3    1    6    6    0  502 -0.15135293267E+03 -0.28410931605E+02  0.81395307374E+03  0.82839271938E+03  0.00000000000E+00 0.  1.
<mgrwt>
<rscale>  0 0.17652913E+04</rscale>
<asrwt>0</asrwt>
<pdfrwt beam="1">  1        2 0.62665154E-01 0.17652913E+04</pdfrwt>
<pdfrwt beam="2">  1       -2 0.29425237E+00 0.17652913E+04</pdfrwt>
<totfact> 0.25458879E+00</totfact>
</mgrwt>
</event>
<event>
12    1  0.1541840E-007  0.2336698E+04  0.7818608E-02  0.8463591E-01
         -1   -1    0    0    0  501 -0.00000000000E+00  0.00000000000E+00  0.60619828059E+03  0.60619828059E+03  0.00000000000E+00 0.  1.
          1   -1    0    0  501    0  0.00000000000E+00 -0.00000000000E+00 -0.22518026073E+04  0.22518026073E+04  0.00000000000E+00 0. -1.
         23    2    1    2    0    0 -0.70393367774E+03  0.12058845147E+03 -0.15127106237E+04  0.16752678752E+04  0.90359423007E+02 0.  0.
        254    2    1    2    0    0  0.70393367774E+03 -0.12058845147E+03 -0.13289370302E+03  0.11827330127E+04  0.93334476252E+03 0.  0.
        -24    2    4    4    0    0  0.41158877540E+03 -0.47245237273E+03 -0.28589454385E+03  0.69370109005E+03  0.82879114420E+02 0.  0.
         24    2    4    4    0    0  0.29234490235E+03  0.35186392126E+03  0.15300084083E+03  0.48903192264E+03  0.80431356167E+02 0.  0.
         13    1    3    3    0    0 -0.49047320757E+03  0.12507742531E+03 -0.10455713965E+04  0.11616487743E+04  0.00000000000E+00 0. -1.
        -13    1    3    3    0    0 -0.21346047017E+03 -0.44889738425E+01 -0.46713922715E+03  0.51361910085E+03  0.00000000000E+00 0.  1.
          4    1    6    6  502    0  0.25003164415E+02  0.64627916537E+01  0.19333679640E+02  0.32260146855E+02  0.00000000000E+00 0. -1.
          3    1    5    5  503    0  0.11842406763E+03 -0.98495628488E+02 -0.98954069353E+02  0.18307800651E+03  0.00000000000E+00 0. -1.
         -4    1    5    5    0  503  0.29316470776E+03 -0.37395674425E+03 -0.18694047449E+03  0.51062308354E+03  0.00000000000E+00 0.  1.
         -3    1    6    6    0  502  0.26734173793E+03  0.34540112961E+03  0.13366716119E+03  0.45677177579E+03  0.00000000000E+00 0.  1.
<mgrwt>
<rscale>  0 0.23366976E+04</rscale>
<asrwt>0</asrwt>
<pdfrwt beam="1">  1        1 0.34643116E+00 0.23366976E+04</pdfrwt>
<pdfrwt beam="2">  1       -1 0.93261276E-01 0.23366976E+04</pdfrwt>
<totfact> 0.20188552E+00</totfact>
</mgrwt>
</event>
<event>
12    1  0.1541840E-007  0.1304962E+04  0.7818608E-02  0.9025639E-01
          2   -1    0    0  501    0  0.00000000000E+00  0.00000000000E+00  0.11628506344E+04  0.11628506344E+04  0.00000000000E+00 0. -1.
         -2   -1    0    0    0  501 -0.00000000000E+00 -0.00000000000E+00 -0.36611026176E+03  0.36611026176E+03  0.00000000000E+00 0.  1.
         23    2    1    2    0    0 -0.90701420778E+02  0.22951550835E+03 -0.56067755388E+02  0.26909770581E+03  0.91465106866E+02 0.  0.
        254    2    1    2    0    0  0.90701420778E+02 -0.22951550835E+03  0.85280812807E+03  0.12598631904E+04  0.89390684017E+03 0.  0.
        -24    2    4    4    0    0  0.10521525084E+03 -0.20843935002E+03 -0.12572145555E+03  0.27774055603E+03  0.82563432795E+02 0.  0.
         24    2    4    4    0    0 -0.14513830061E+02 -0.21076158328E+02  0.97852958362E+03  0.98212263436E+03  0.79936644882E+02 0.  0.
         13    1    3    3    0    0  0.15578648675E+02  0.32431223267E+02  0.65996901428E+01  0.36579153176E+02  0.00000000000E+00 0. -1.
        -13    1    3    3    0    0 -0.10628006945E+03  0.19708428508E+03 -0.62667445531E+02  0.23251855263E+03  0.00000000000E+00 0.  1.
          4    1    6    6  502    0  0.30140120091E+01 -0.26106195174E+02  0.99743884592E+02  0.10314775910E+03  0.00000000000E+00 0. -1.
          1    1    5    5  503    0  0.77560194555E+02 -0.72277689578E+02 -0.74855713477E+02  0.12978068435E+03  0.00000000000E+00 0. -1.
         -2    1    5    5    0  503  0.27655056285E+02 -0.13616166044E+03 -0.50865742070E+02  0.14795987168E+03  0.00000000000E+00 0.  1.
         -3    1    6    6    0  502 -0.17527842070E+02  0.50300368458E+01  0.87878569902E+03  0.87897487525E+03  0.00000000000E+00 0.  1.
<mgrwt>
<rscale>  0 0.13049621E+04</rscale>
<asrwt>0</asrwt>
<pdfrwt beam="1">  1        2 0.17890010E+00 0.13049621E+04</pdfrwt>
<pdfrwt beam="2">  1       -2 0.56324656E-01 0.13049621E+04</pdfrwt>
<totfact> 0.57800753E+01</totfact>
</mgrwt>
</event>
<event>
12    1  0.1541840E-007  0.1455733E+04  0.7818608E-02  0.8914435E-01
         -1   -1    0    0    0  501 -0.00000000000E+00  0.00000000000E+00  0.19068578270E+04  0.19068578270E+04  0.00000000000E+00 0.  1.
          1   -1    0    0  501    0  0.00000000000E+00 -0.00000000000E+00 -0.27783390205E+03  0.27783390205E+03  0.00000000000E+00 0. -1.
         23    2    1    2    0    0  0.27082070449E+03 -0.32240311280E+03  0.71560445356E+03  0.83536661768E+03  0.91978426088E+02 0.  0.
        254    2    1    2    0    0 -0.27082070449E+03  0.32240311280E+03  0.91341947138E+03  0.13493251113E+04  0.89947512711E+03 0.  0.
        -24    2    4    4    0    0 -0.54486345713E+03  0.17349203631E+03  0.83616965593E+03  0.10157008298E+04  0.74113484633E+02 0.  0.
         24    2    4    4    0    0  0.27404275263E+03  0.14891107649E+03  0.77249815449E+02  0.33362428154E+03  0.89798041581E+02 0.  0.
         11    1    3    3    0    0  0.23484718997E+03 -0.26604233456E+03  0.52772807105E+03  0.63594704449E+03  0.00000000000E+00 0. -1.
        -11    1    3    3    0    0  0.35973514517E+02 -0.56360778243E+02  0.18787638251E+03  0.19941957320E+03  0.00000000000E+00 0.  1.
          4    1    6    6  502    0  0.30915232048E+01 -0.54268581315E+01 -0.81958933804E+01  0.10304415229E+02  0.00000000000E+00 0. -1.
          3    1    5    5  503    0 -0.18750052591E+03  0.63209204459E+02  0.22955218798E+03  0.30306114524E+03  0.00000000000E+00 0. -1.
         -4    1    5    5    0  503 -0.35736293121E+03  0.11028283185E+03  0.60661746795E+03  0.71263968457E+03  0.00000000000E+00 0.  1.
         -3    1    6    6    0  502  0.27095122943E+03  0.15433793462E+03  0.85445708830E+02  0.32331986631E+03  0.00000000000E+00 0.  1.
<mgrwt>
<rscale>  0 0.14557331E+04</rscale>
<asrwt>0</asrwt>
<pdfrwt beam="1">  1        1 0.42743678E-01 0.14557331E+04</pdfrwt>
<pdfrwt beam="2">  1       -1 0.29336273E+00 0.14557331E+04</pdfrwt>
<totfact> 0.34397083E+00</totfact>
</mgrwt>
</event>
<event>
12    1  0.1541840E-007  0.1813994E+04  0.7818608E-02  0.8698893E-01
         -2   -1    0    0    0  501 -0.00000000000E+00  0.00000000000E+00  0.34774865304E+03  0.34774865304E+03  0.00000000000E+00 0.  1.
          2   -1    0    0  501    0  0.00000000000E+00 -0.00000000000E+00 -0.23656275502E+04  0.23656275502E+04  0.00000000000E+00 0. -1.
         23    2    1    2    0    0 -0.27014986723E+03  0.30588164669E+03 -0.15662094139E+04  0.16206393764E+04  0.83159650657E+02 0.  0.
        254    2    1    2    0    0  0.27014986723E+03 -0.30588164669E+03 -0.45166948320E+03  0.10927368268E+04  0.90748218611E+03 0.  0.
        -24    2    4    4    0    0 -0.17253717019E+03 -0.25492503953E+03  0.14182631483E+03  0.34686682698E+03  0.73797298055E+02 0.  0.
         24    2    4    4    0    0  0.44268703742E+03 -0.50956607153E+02 -0.59349579803E+03  0.74586999985E+03  0.74272508237E+02 0.  0.
         13    1    3    3    0    0 -0.21511763282E+03  0.24841760122E+03 -0.13711085957E+04  0.14099381837E+04  0.00000000000E+00 0. -1.
        -13    1    3    3    0    0 -0.55032234411E+02  0.57464045463E+02 -0.19510081823E+03  0.21070119274E+03  0.00000000000E+00 0.  1.
          4    1    6    6  502    0  0.12996410909E+03 -0.10257269530E+02 -0.23225282902E+03  0.26634049226E+03  0.00000000000E+00 0. -1.
          3    1    5    5  503    0 -0.20114974222E+02 -0.62532607674E+02  0.50616186440E+01  0.65882920350E+02  0.00000000000E+00 0. -1.
         -4    1    5    5    0  503 -0.15242219597E+03 -0.19239243186E+03  0.13676469619E+03  0.28098390663E+03  0.00000000000E+00 0.  1.
         -3    1    6    6    0  502  0.31272292833E+03 -0.40699337623E+02 -0.36124296901E+03  0.47952950759E+03  0.00000000000E+00 0.  1.
<mgrwt>
<rscale>  0 0.18139943E+04</rscale>
<asrwt>0</asrwt>
<pdfrwt beam="1">  1        2 0.36394270E+00 0.18139943E+04</pdfrwt>
<pdfrwt beam="2">  1       -2 0.53499792E-01 0.18139943E+04</pdfrwt>
<totfact> 0.12924950E+01</totfact>
</mgrwt>
</event>
<event>
12    1  0.1541840E-007  0.1898575E+04  0.7818608E-02  0.8655566E-01
         -2   -1    0    0    0  501 -0.00000000000E+00  0.00000000000E+00  0.44341588926E+03  0.44341588926E+03  0.00000000000E+00 0.  1.
          2   -1    0    0  501    0  0.00000000000E+00 -0.00000000000E+00 -0.20322841318E+04  0.20322841318E+04  0.00000000000E+00 0. -1.
         23    2    1    2    0    0 -0.35974617332E+03  0.34881477440E+03  0.75084372279E+02  0.51759159931E+03  0.10570877284E+03 0.  0.
        254    2    1    2    0    0  0.35974617332E+03 -0.34881477440E+03 -0.16639526148E+04  0.19581084218E+04  0.90241965345E+03 0.  0.
        -24    2    4    4    0    0  0.65136467116E+03 -0.31631960855E+03 -0.11879117650E+04  0.13934572688E+04  0.79087095826E+02 0.  0.
         24    2    4    4    0    0 -0.29161849784E+03 -0.32495165849E+02 -0.47604084979E+03  0.56465115302E+03  0.78222438250E+02 0.  0.
         13    1    3    3    0    0 -0.30357445228E+03  0.27578646466E+03  0.99987201940E+02  0.42215289021E+03  0.00000000000E+00 0.  1.
        -13    1    3    3    0    0 -0.56171721047E+02  0.73028309740E+02 -0.24902829660E+02  0.95438709096E+02  0.00000000000E+00 0. -1.
          4    1    6    6  502    0 -0.20862367758E+03  0.11516732815E+02 -0.34672570768E+03  0.40481500756E+03  0.00000000000E+00 0. -1.
          1    1    5    5  503    0  0.17164507964E+03 -0.11092986829E+03 -0.28711343479E+03  0.35242246449E+03  0.00000000000E+00 0. -1.
         -2    1    5    5    0  503  0.47971959152E+03 -0.20538974026E+03 -0.90079833025E+03  0.10410348043E+04  0.00000000000E+00 0.  1.
         -3    1    6    6    0  502 -0.82994820257E+02 -0.44011898664E+02 -0.12931514211E+03  0.15983614545E+03  0.00000000000E+00 0.  1.
<mgrwt>
<rscale>  0 0.18985753E+04</rscale>
<asrwt>0</asrwt>
<pdfrwt beam="1">  1        2 0.31265909E+00 0.18985753E+04</pdfrwt>
<pdfrwt beam="2">  1       -2 0.68217831E-01 0.18985753E+04</pdfrwt>
<totfact> 0.11806653E+01</totfact>
</mgrwt>
</event>
<event>
12    1  0.1541840E-007  0.2147212E+04  0.7818608E-02  0.8540726E-01
         -2   -1    0    0    0  501 -0.00000000000E+00  0.00000000000E+00  0.85112028940E+03  0.85112028940E+03  0.00000000000E+00 0.  1.
          2   -1    0    0  501    0  0.00000000000E+00 -0.00000000000E+00 -0.13542507749E+04  0.13542507749E+04  0.00000000000E+00 0. -1.
         23    2    1    2    0    0  0.71038782449E+03 -0.51888155986E+03 -0.14158216160E+03  0.89563989351E+03  0.90754482065E+02 0.  0.
        254    2    1    2    0    0 -0.71038782449E+03  0.51888155986E+03 -0.36154832393E+03  0.13097311708E+04  0.90043856810E+03 0.  0.
        -24    2    4    4    0    0 -0.33252140977E+03  0.61609143620E+03 -0.52536715832E+03  0.87894883808E+03  0.80007894702E+02 0.  0.
         24    2    4    4    0    0 -0.37786641472E+03 -0.97209876333E+02  0.16381883439E+03  0.43078233273E+03  0.80647506247E+02 0.  0.
         13    1    3    3    0    0  0.41950139403E+03 -0.26576710366E+03 -0.11085614244E+03  0.50882478055E+03  0.00000000000E+00 0.  1.
        -13    1    3    3    0    0  0.29088643046E+03 -0.25311445620E+03 -0.30726019163E+02  0.38681511296E+03  0.00000000000E+00 0. -1.
          2    1    6    6  502    0 -0.73166168861E+02 -0.52343382174E+02  0.28382206941E+02  0.94332749319E+02  0.00000000000E+00 0. -1.
          3    1    5    5  503    0  0.29290821237E+01  0.15587490719E+02 -0.56510310242E+01  0.16836969461E+02  0.00000000000E+00 0. -1.
         -4    1    5    5    0  503 -0.33545049189E+03  0.60050394548E+03 -0.51971612730E+03  0.86211186862E+03  0.00000000000E+00 0.  1.
         -1    1    6    6    0  502 -0.30470024586E+03 -0.44866494159E+02  0.13543662745E+03  0.33644958341E+03  0.00000000000E+00 0.  1.
<mgrwt>
<rscale>  0 0.21472124E+04</rscale>
<asrwt>0</asrwt>
<pdfrwt beam="1">  1        2 0.20834627E+00 0.21472124E+04</pdfrwt>
<pdfrwt beam="2">  1       -2 0.13094158E+00 0.21472124E+04</pdfrwt>
<totfact> 0.60196178E+00</totfact>
</mgrwt>
</event>
<event>
12    1  0.1541840E-007  0.1955697E+04  0.7818608E-02  0.8627618E-01
          2   -1    0    0  501    0  0.00000000000E+00  0.00000000000E+00  0.22638270116E+04  0.22638270116E+04  0.00000000000E+00 0. -1.
         -2   -1    0    0    0  501 -0.00000000000E+00 -0.00000000000E+00 -0.42237678448E+03  0.42237678448E+03  0.00000000000E+00 0.  1.
         23    2    1    2    0    0  0.61593083286E+03 -0.42812254166E+03  0.49641765627E+03  0.90407786125E+03  0.90920779850E+02 0.  0.
        254    2    1    2    0    0 -0.61593083286E+03  0.42812254166E+03  0.13450325708E+04  0.17821259348E+04  0.89677228401E+03 0.  0.
        -24    2    4    4    0    0  0.14922169043E+03  0.20875249416E+03  0.71607221245E+03  0.76480344273E+03  0.79499533780E+02 0.  0.
         24    2    4    4    0    0 -0.76515252329E+03  0.21937004750E+03  0.62896035839E+03  0.10173224921E+04  0.75975777858E+02 0.  0.
         13    1    3    3    0    0  0.41579844634E+03 -0.31030621256E+03  0.29602178741E+03  0.59733340117E+03  0.00000000000E+00 0. -1.
        -13    1    3    3    0    0  0.20013238652E+03 -0.11781632910E+03  0.20039586886E+03  0.30674446009E+03  0.00000000000E+00 0.  1.
          2    1    6    6  502    0 -0.39356616204E+03  0.81968930463E+02  0.28659329167E+03  0.49370937230E+03  0.00000000000E+00 0. -1.
          3    1    5    5  503    0  0.13495139829E+03  0.21294387976E+03  0.69216501729E+03  0.73664739665E+03  0.00000000000E+00 0. -1.
         -4    1    5    5    0  503  0.14270292142E+02 -0.41913856037E+01  0.23907195156E+02  0.28156046088E+02  0.00000000000E+00 0.  1.
         -1    1    6    6    0  502 -0.37158636125E+03  0.13740111704E+03  0.34236706671E+03  0.52361311977E+03  0.00000000000E+00 0.  1.
<mgrwt>
<rscale>  0 0.19556973E+04</rscale>
<asrwt>0</asrwt>
<pdfrwt beam="1">  1        2 0.34828107E+00 0.19556973E+04</pdfrwt>
<pdfrwt beam="2">  1       -2 0.64981045E-01 0.19556973E+04</pdfrwt>
<totfact> 0.96820999E+00</totfact>
</mgrwt>
</event>
<event>
12    1  0.1541840E-007  0.1819819E+04  0.7818608E-02  0.8695831E-01
         -2   -1    0    0    0  501 -0.00000000000E+00  0.00000000000E+00  0.61193303202E+03  0.61193303202E+03  0.00000000000E+00 0.  1.
          2   -1    0    0  501    0  0.00000000000E+00 -0.00000000000E+00 -0.13529832254E+04  0.13529832254E+04  0.00000000000E+00 0. -1.
         23    2    1    2    0    0 -0.16934935340E+03  0.15288082001E+03  0.41645149915E+03  0.48433939225E+03  0.95399408358E+02 0.  0.
        254    2    1    2    0    0  0.16934935340E+03 -0.15288082001E+03 -0.11575016925E+04  0.14805768652E+04  0.89456466331E+03 0.  0.
        -24    2    4    4    0    0 -0.28851526303E+02 -0.24539125791E+03 -0.12131972144E+04  0.12406232187E+04  0.79051943123E+02 0.  0.
         24    2    4    4    0    0  0.19820087971E+03  0.92510437900E+02  0.55695521869E+02  0.23995364648E+03  0.81449318384E+02 0.  0.
         13    1    3    3    0    0 -0.53290179153E+02  0.11550741989E+02  0.46528451968E+02  0.71680957563E+02  0.00000000000E+00 0. -1.
        -13    1    3    3    0    0 -0.11605917425E+03  0.14133007802E+03  0.36992304719E+03  0.41265843469E+03  0.00000000000E+00 0.  1.
          2    1    6    6  502    0  0.24887709967E+02 -0.47877684263E+01  0.30422632591E+02  0.39596179205E+02  0.00000000000E+00 0. -1.
          3    1    5    5  503    0  0.38739849679E+01 -0.34526363087E+02 -0.33827975161E+03  0.34005921228E+03  0.00000000000E+00 0. -1.
         -4    1    5    5    0  503 -0.32725511271E+02 -0.21086489482E+03 -0.87491746278E+03  0.90056400640E+03  0.00000000000E+00 0.  1.
         -1    1    6    6    0  502  0.17331316974E+03  0.97298206327E+02  0.25272889278E+02  0.20035746727E+03  0.00000000000E+00 0.  1.
<mgrwt>
<rscale>  0 0.18198188E+04</rscale>
<asrwt>0</asrwt>
<pdfrwt beam="1">  1        2 0.20815126E+00 0.18198188E+04</pdfrwt>
<pdfrwt beam="2">  1       -2 0.94143544E-01 0.18198188E+04</pdfrwt>
<totfact> 0.13820343E+01</totfact>
</mgrwt>
</event>
<event>
12    1  0.1541840E-007  0.2782033E+04  0.7818608E-02  0.8308868E-01
         -2   -1    0    0    0  501 -0.00000000000E+00  0.00000000000E+00  0.11900493055E+04  0.11900493055E+04  0.00000000000E+00 0.  1.
          2   -1    0    0  501    0  0.00000000000E+00 -0.00000000000E+00 -0.16259211610E+04  0.16259211610E+04  0.00000000000E+00 0. -1.
         23    2    1    2    0    0  0.85569893078E+03  0.73423216885E+03  0.33520514427E+03  0.11797963840E+04  0.90771587140E+02 0.  0.
        254    2    1    2    0    0 -0.85569893078E+03 -0.73423216885E+03 -0.77107699975E+03  0.16361740824E+04  0.90065995281E+03 0.  0.
        -24    2    4    4    0    0 -0.72628991363E+03 -0.83566206403E+03 -0.32892984632E+03  0.11577906151E+04  0.80350113905E+02 0.  0.
         24    2    4    4    0    0 -0.12940901715E+03  0.10142989519E+03 -0.44214715343E+03  0.47838346729E+03  0.79510497029E+02 0.  0.
         13    1    3    3    0    0  0.84822785926E+02  0.87996316857E+02  0.63976965370E+02  0.13795401006E+03  0.00000000000E+00 0. -1.
        -13    1    3    3    0    0  0.77087614486E+03  0.64623585199E+03  0.27122817890E+03  0.10418423739E+04  0.00000000000E+00 0.  1.
          4    1    6    6  502    0 -0.54134262247E+02  0.71634137237E+02 -0.14626592144E+03  0.17162659392E+03  0.00000000000E+00 0. -1.
          3    1    5    5  503    0 -0.24308350102E+03 -0.24986207466E+03 -0.70577755184E+02  0.35567100578E+03  0.00000000000E+00 0. -1.
         -4    1    5    5    0  503 -0.48320641261E+03 -0.58579998937E+03 -0.25835209114E+03  0.80211960937E+03  0.00000000000E+00 0.  1.
         -3    1    6    6    0  502 -0.75274754900E+02  0.29795757949E+02 -0.29588123199E+03  0.30675687337E+03  0.00000000000E+00 0.  1.
<mgrwt>
<rscale>  0 0.27820326E+04</rscale>
<asrwt>0</asrwt>
<pdfrwt beam="1">  1        2 0.25014172E+00 0.27820326E+04</pdfrwt>
<pdfrwt beam="2">  1       -2 0.18308451E+00 0.27820326E+04</pdfrwt>
<totfact> 0.16232354E+00</totfact>
</mgrwt>
</event>
<event>
12    1  0.1541840E-007  0.2549484E+04  0.7818608E-02  0.8385566E-01
          2   -1    0    0  501    0  0.00000000000E+00  0.00000000000E+00  0.24904148986E+04  0.24904148986E+04  0.00000000000E+00 0.  1.
         -2   -1    0    0    0  501 -0.00000000000E+00 -0.00000000000E+00 -0.65248839643E+03  0.65248839643E+03  0.00000000000E+00 0. -1.
         23    2    1    2    0    0 -0.51480835493E+03 -0.63094938873E+03 -0.12794170801E+03  0.82932928435E+03  0.91067051067E+02 0.  0.
        254    2    1    2    0    0  0.51480835493E+03  0.63094938873E+03  0.19658682102E+04  0.23135740107E+04  0.90821919689E+03 0.  0.
        -24    2    4    4    0    0  0.47865272677E+02  0.53544238818E+03  0.16484633505E+04  0.17357199823E+04  0.79390198694E+02 0.  0.
         24    2    4    4    0    0  0.46694308226E+03  0.95507000554E+02  0.31740485973E+03  0.57785402841E+03  0.77537113365E+02 0.  0.
         11    1    3    3    0    0 -0.10700962990E+03 -0.11914740824E+03  0.10327374824E+02  0.16047996900E+03  0.00000000000E+00 0.  1.
        -11    1    3    3    0    0 -0.40779872503E+03 -0.51180198049E+03 -0.13826908283E+03  0.66884931535E+03  0.00000000000E+00 0. -1.
          4    1    6    6  502    0  0.49459951924E+02 -0.64425605375E+00  0.61148479664E+02  0.78650101560E+02  0.00000000000E+00 0. -1.
          1    1    5    5  503    0 -0.16303036877E+02  0.99582396835E+02  0.25367687772E+03  0.27300989187E+03  0.00000000000E+00 0. -1.
         -2    1    5    5    0  503  0.64168309554E+02  0.43585999134E+03  0.13947864727E+04  0.14627100904E+04  0.00000000000E+00 0.  1.
         -3    1    6    6    0  502  0.41748313033E+03  0.96151256607E+02  0.25625638007E+03  0.49920392685E+03  0.00000000000E+00 0.  1.
<mgrwt>
<rscale>  0 0.25494837E+04</rscale>
<asrwt>0</asrwt>
<pdfrwt beam="1">  1        2 0.38314075E+00 0.25494837E+04</pdfrwt>
<pdfrwt beam="2">  1       -2 0.10038283E+00 0.25494837E+04</pdfrwt>
<totfact> 0.25631336E+00</totfact>
</mgrwt>
</event>
<event>
12    1  0.1541840E-007  0.1530719E+04  0.7818608E-02  0.8864278E-01
         -1   -1    0    0    0  501 -0.00000000000E+00  0.00000000000E+00  0.60533151349E+03  0.60533151349E+03  0.00000000000E+00 0.  1.
          1   -1    0    0  501    0  0.00000000000E+00 -0.00000000000E+00 -0.96769333587E+03  0.96769333587E+03  0.00000000000E+00 0. -1.
         23    2    1    2    0    0  0.42722876963E+03 -0.25632455103E+02  0.13634477281E+03  0.45829100023E+03  0.90880688076E+02 0.  0.
        254    2    1    2    0    0 -0.42722876963E+03  0.25632455103E+02 -0.49870659520E+03  0.11147338491E+04  0.90041204010E+03 0.  0.
        -24    2    4    4    0    0 -0.56169555796E+02 -0.24507807770E+03  0.15968134768E+03  0.30820607274E+03  0.79212166410E+02 0.  0.
         24    2    4    4    0    0 -0.37105921383E+03  0.27071053280E+03 -0.65838794288E+03  0.80652777639E+03  0.77738266146E+02 0.  0.
         13    1    3    3    0    0  0.89844063290E+02 -0.24576617286E+02 -0.31647150474E+01  0.93198611830E+02  0.00000000000E+00 0. -1.
        -13    1    3    3    0    0  0.33738470634E+03 -0.10558378173E+01  0.13950948786E+03  0.36509238840E+03  0.00000000000E+00 0.  1.
          2    1    6    6  502    0  0.16042246789E+01 -0.95858437529E+00 -0.13948566059E+02  0.14073198497E+02  0.00000000000E+00 0. -1.
          3    1    5    5  503    0 -0.47880040418E+01 -0.11815880624E+02  0.38124580103E+02  0.40199796338E+02  0.00000000000E+00 0. -1.
         -2    1    5    5    0  503 -0.51381551755E+02 -0.23326219707E+03  0.12155676758E+03  0.26800627640E+03  0.00000000000E+00 0.  1.
         -1    1    6    6    0  502 -0.37266343851E+03  0.27166911718E+03 -0.64443937682E+03  0.79245457790E+03  0.00000000000E+00 0.  1.
<mgrwt>
<rscale>  0 0.15307191E+04</rscale>
<asrwt>0</asrwt>
<pdfrwt beam="1">  1        1 0.14887590E+00 0.15307191E+04</pdfrwt>
<pdfrwt beam="2">  1       -1 0.93127926E-01 0.15307191E+04</pdfrwt>
<totfact> 0.17339243E+01</totfact>
</mgrwt>
</event>
<event>
12    1  0.1541840E-007  0.2486259E+04  0.7818608E-02  0.8407897E-01
         -2   -1    0    0    0  501 -0.00000000000E+00  0.00000000000E+00  0.11271185801E+04  0.11271185801E+04  0.00000000000E+00 0.  1.
          2   -1    0    0  501    0  0.00000000000E+00 -0.00000000000E+00 -0.13710809819E+04  0.13710809819E+04  0.00000000000E+00 0. -1.
         23    2    1    2    0    0  0.50683943231E+02 -0.29156426259E+03 -0.11503105816E+04  0.11914797718E+04  0.93973566867E+02 0.  0.
        254    2    1    2    0    0 -0.50683943231E+02  0.29156426259E+03  0.90634817974E+03  0.13067197901E+04  0.89357204838E+03 0.  0.
        -24    2    4    4    0    0 -0.27331297220E+03 -0.11715203845E+03  0.74759693203E+03  0.80855840652E+03  0.80255486300E+02 0.  0.
         24    2    4    4    0    0  0.22262902897E+03  0.40871630104E+03  0.15875124771E+03  0.49816138360E+03  0.79687553508E+02 0.  0.
         13    1    3    3    0    0 -0.25661980595E+02 -0.39370224955E+02 -0.17699340753E+03  0.18312623562E+03  0.00000000000E+00 0.  1.
        -13    1    3    3    0    0  0.76345923826E+02 -0.25219403764E+03 -0.97331717402E+03  0.10083535362E+04  0.00000000000E+00 0. -1.
          2    1    6    6  502    0 -0.37318467207E+01 -0.10591000836E+01  0.14105114783E+00  0.38817867484E+01  0.00000000000E+00 0. -1.
          1    1    5    5  503    0 -0.13441984500E+03 -0.82839472211E+02  0.47721292003E+03  0.50265618859E+03  0.00000000000E+00 0. -1.
         -4    1    5    5    0  503 -0.13889312721E+03 -0.34312566237E+02  0.27038401200E+03  0.30590221793E+03  0.00000000000E+00 0.  1.
         -1    1    6    6    0  502  0.22636087569E+03  0.40977540112E+03  0.15861019656E+03  0.49427959685E+03  0.00000000000E+00 0.  1.
<mgrwt>
<rscale>  0 0.24862589E+04</rscale>
<asrwt>0</asrwt>
<pdfrwt beam="1">  1        2 0.21093554E+00 0.24862589E+04</pdfrwt>
<pdfrwt beam="2">  1       -2 0.17340286E+00 0.24862589E+04</pdfrwt>
<totfact> 0.27071314E+00</totfact>
</mgrwt>
</event>
<event>
12    1  0.1541840E-007  0.2584139E+04  0.7818608E-02  0.8373609E-01
          2   -1    0    0  501    0  0.00000000000E+00  0.00000000000E+00  0.17427975888E+04  0.17427975888E+04  0.00000000000E+00 0.  1.
         -2   -1    0    0    0  501 -0.00000000000E+00 -0.00000000000E+00 -0.95791044198E+03  0.95791044198E+03  0.00000000000E+00 0. -1.
         23    2    1    2    0    0 -0.10540159070E+03 -0.63635278338E+03  0.13207812598E+04  0.14726570102E+04  0.90560329333E+02 0.  0.
        254    2    1    2    0    0  0.10540159070E+03  0.63635278338E+03 -0.53589411305E+03  0.12280510205E+04  0.89714683766E+03 0.  0.
        -24    2    4    4    0    0  0.19920986348E+03 -0.14587640259E+03 -0.31083550902E+03  0.40475925052E+03  0.79036970277E+02 0.  0.
         24    2    4    4    0    0 -0.93808272778E+02  0.78222918597E+03 -0.22505860403E+03  0.82329176999E+03  0.80470316675E+02 0.  0.
         13    1    3    3    0    0 -0.76233234854E+02 -0.55227791814E+03  0.11941508031E+04  0.13178841169E+04  0.00000000000E+00 0.  1.
        -13    1    3    3    0    0 -0.29168355847E+02 -0.84074865238E+02  0.12663045668E+03  0.15477289332E+03  0.00000000000E+00 0. -1.
          4    1    6    6  502    0 -0.60338342257E+02  0.62166325857E+03 -0.14701541061E+03  0.64165368662E+03  0.00000000000E+00 0. -1.
          3    1    5    5  503    0  0.56918418899E+02 -0.38095335189E+02 -0.14826548979E+03  0.16332059404E+03  0.00000000000E+00 0. -1.
         -4    1    5    5    0  503  0.14229144458E+03 -0.10778106740E+03 -0.16257001923E+03  0.24143865648E+03  0.00000000000E+00 0.  1.
         -3    1    6    6    0  502 -0.33469930521E+02  0.16056592740E+03 -0.78043193415E+02  0.18163808336E+03  0.00000000000E+00 0.  1.
<mgrwt>
<rscale>  0 0.25841393E+04</rscale>
<asrwt>0</asrwt>
<pdfrwt beam="1">  1        2 0.26812271E+00 0.25841393E+04</pdfrwt>
<pdfrwt beam="2">  1       -2 0.14737084E+00 0.25841393E+04</pdfrwt>
<totfact> 0.25821504E+00</totfact>
</mgrwt>
</event>
<event>
12    1  0.1541840E-007  0.2310025E+04  0.7818608E-02  0.8473979E-01
          1   -1    0    0  501    0  0.00000000000E+00  0.00000000000E+00  0.16908603173E+04  0.16908603173E+04  0.00000000000E+00 0. -1.
         -1   -1    0    0    0  501 -0.00000000000E+00 -0.00000000000E+00 -0.78897931623E+03  0.78897931623E+03  0.00000000000E+00 0.  1.
         23    2    1    2    0    0  0.23091265146E+03 -0.42497363435E+03  0.12958758811E+04  0.13857696856E+04  0.84498991777E+02 0.  0.
        254    2    1    2    0    0 -0.23091265146E+03  0.42497363435E+03 -0.39399488010E+03  0.10940699479E+04  0.89879577377E+03 0.  0.
        -24    2    4    4    0    0 -0.47912829883E+01  0.65028508346E+03 -0.39277837649E+03  0.76400012613E+03  0.80794142856E+02 0.  0.
         24    2    4    4    0    0 -0.22612136847E+03 -0.22531144912E+03 -0.12165036171E+01  0.33006982181E+03  0.83955255991E+02 0.  0.
         13    1    3    3    0    0  0.32360153729E+02 -0.70063403196E+02  0.30665598702E+03  0.31621820692E+03  0.00000000000E+00 0.  1.
        -13    1    3    3    0    0  0.19855249773E+03 -0.35491023115E+03  0.98921989411E+03  0.10695514786E+04  0.00000000000E+00 0. -1.
          4    1    6    6  502    0 -0.38977088876E+02 -0.11044322501E+02 -0.19569275756E+02  0.44990522006E+02  0.00000000000E+00 0. -1.
          3    1    5    5  503    0  0.68328685394E+00  0.11355630895E+02 -0.23255839065E+02  0.25889211741E+02  0.00000000000E+00 0. -1.
         -4    1    5    5    0  503 -0.54745698423E+01  0.63892945257E+03 -0.36952253742E+03  0.73811091439E+03  0.00000000000E+00 0.  1.
         -3    1    6    6    0  502 -0.18714427959E+03 -0.21426712662E+03  0.18352772139E+02  0.28507929981E+03  0.00000000000E+00 0.  1.
<mgrwt>
<rscale>  0 0.23100249E+04</rscale>
<asrwt>0</asrwt>
<pdfrwt beam="1">  1        1 0.26013236E+00 0.23100249E+04</pdfrwt>
<pdfrwt beam="2">  1       -1 0.12138143E+00 0.23100249E+04</pdfrwt>
<totfact> 0.26280190E+00</totfact>
</mgrwt>
</event>
<event>
12    1  0.1541840E-007  0.3111195E+04  0.7818608E-02  0.8212672E-01
          2   -1    0    0  501    0  0.00000000000E+00  0.00000000000E+00  0.16774789987E+04  0.16774789987E+04  0.00000000000E+00 0. -1.
         -2   -1    0    0    0  501 -0.00000000000E+00 -0.00000000000E+00 -0.14425717785E+04  0.14425717785E+04  0.00000000000E+00 0.  1.
         23    2    1    2    0    0 -0.50569545678E+03 -0.19714105378E+03  0.14282990924E+04  0.15306613606E+04  0.91068179362E+02 0.  0.
        254    2    1    2    0    0  0.50569545678E+03  0.19714105378E+03 -0.11933918722E+04  0.15893894165E+04  0.89854441552E+03 0.  0.
        -24    2    4    4    0    0  0.57228478087E+03  0.46279698818E+03 -0.10017105876E+04  0.12458259498E+04  0.83470193177E+02 0.  0.
         24    2    4    4    0    0 -0.66589324093E+02 -0.26565593440E+03 -0.19168128462E+03  0.34356346677E+03  0.79290146051E+02 0.  0.
         13    1    3    3    0    0 -0.20677194492E+03 -0.12188252889E+03  0.69188039416E+03  0.73233084591E+03  0.00000000000E+00 0. -1.
        -13    1    3    3    0    0 -0.29892351186E+03 -0.75258524897E+02  0.73641869827E+03  0.79833051469E+03  0.00000000000E+00 0.  1.
          2    1    6    6  502    0  0.26754352437E+01 -0.66255108100E+01 -0.29161033787E+02  0.30023677968E+02  0.00000000000E+00 0. -1.
          3    1    5    5  503    0  0.32114840810E+02  0.32522923280E+02 -0.10080141316E+03  0.11067984655E+03  0.00000000000E+00 0. -1.
         -4    1    5    5    0  503  0.54016994006E+03  0.43027406490E+03 -0.90090917443E+03  0.11351461032E+04  0.00000000000E+00 0.  1.
         -1    1    6    6    0  502 -0.69264759337E+02 -0.25903042359E+03 -0.16252025083E+03  0.31353978880E+03  0.00000000000E+00 0.  1.
<mgrwt>
<rscale>  0 0.31111952E+04</rscale>
<asrwt>0</asrwt>
<pdfrwt beam="1">  1        2 0.25807369E+00 0.31111952E+04</pdfrwt>
<pdfrwt beam="2">  1       -2 0.22193412E+00 0.31111952E+04</pdfrwt>
<totfact> 0.82280485E-01</totfact>
</mgrwt>
</event>
<event>
12    1  0.1541840E-007  0.2059498E+04  0.7818608E-02  0.8579298E-01
         -1   -1    0    0    0  501 -0.00000000000E+00  0.00000000000E+00  0.15790742786E+04  0.15790742786E+04  0.00000000000E+00 0.  1.
          1   -1    0    0  501    0  0.00000000000E+00 -0.00000000000E+00 -0.67152222714E+03  0.67152222714E+03  0.00000000000E+00 0. -1.
         23    2    1    2    0    0  0.47800472212E+03 -0.63261095916E+03  0.63435213106E+03  0.10193421122E+04  0.89278080260E+02 0.  0.
        254    2    1    2    0    0 -0.47800472212E+03  0.63261095916E+03  0.27319992037E+03  0.12312543935E+04  0.90147881001E+03 0.  0.
        -24    2    4    4    0    0  0.38708534932E+02  0.17523950160E+03 -0.28105504192E+03  0.34267147701E+03  0.78895950274E+02 0.  0.
         24    2    4    4    0    0 -0.51671325705E+03  0.45737145755E+03  0.55425496229E+03  0.88858291644E+03  0.78738783122E+02 0.  0.
         11    1    3    3    0    0  0.14888254846E+03 -0.26658794468E+03  0.25714020402E+03  0.39919447642E+03  0.00000000000E+00 0. -1.
        -11    1    3    3    0    0  0.32912217365E+03 -0.36602301448E+03  0.37721192704E+03  0.62014763582E+03  0.00000000000E+00 0.  1.
          2    1    6    6  502    0 -0.46745233065E+03  0.38385723922E+03  0.50013910252E+03  0.78485488047E+03  0.00000000000E+00 0. -1.
          3    1    5    5  503    0 -0.31010107610E+01  0.86661175983E+02 -0.19035918256E+03  0.20918029084E+03  0.00000000000E+00 0. -1.
         -4    1    5    5    0  503  0.41809545693E+02  0.88578325620E+02 -0.90695859361E+02  0.13349118617E+03  0.00000000000E+00 0.  1.
         -1    1    6    6    0  502 -0.49260926397E+02  0.73514218332E+02  0.54115859779E+02  0.10372803597E+03  0.00000000000E+00 0.  1.
<mgrwt>
<rscale>  0 0.20594985E+04</rscale>
<asrwt>0</asrwt>
<pdfrwt beam="1">  1        1 0.10331111E+00 0.20594985E+04</pdfrwt>
<pdfrwt beam="2">  1       -1 0.24293450E+00 0.20594985E+04</pdfrwt>
<totfact> 0.20763094E+00</totfact>
</mgrwt>
</event>
<event>
12    1  0.1541840E-007  0.1537154E+04  0.7818608E-02  0.8860115E-01
          1   -1    0    0  501    0  0.00000000000E+00  0.00000000000E+00  0.60760774177E+03  0.60760774177E+03  0.00000000000E+00 0. -1.
         -1   -1    0    0    0  501 -0.00000000000E+00 -0.00000000000E+00 -0.97219038506E+03  0.97219038506E+03  0.00000000000E+00 0.  1.
         23    2    1    2    0    0 -0.34889746409E+03  0.19149495592E+03 -0.49198656908E+03  0.64437560557E+03  0.12152933104E+03 0.  0.
        254    2    1    2    0    0  0.34889746409E+03 -0.19149495592E+03  0.12740392580E+03  0.93542252126E+03  0.83688934416E+03 0.  0.
        -24    2    4    4    0    0 -0.11686627016E+03 -0.37737392236E+03  0.14206664158E+03  0.42733597448E+03  0.79776575899E+02 0.  0.
         24    2    4    4    0    0  0.46576373426E+03  0.18587896644E+03 -0.14662715786E+02  0.50808654677E+03  0.80312498804E+02 0.  0.
         11    1    3    3    0    0 -0.78079356244E+02  0.26982950660E+02 -0.18763893755E+03  0.20501911224E+03  0.00000000000E+00 0. -1.
        -11    1    3    3    0    0 -0.27081810785E+03  0.16451200525E+03 -0.30434763153E+03  0.43935649333E+03  0.00000000000E+00 0.  1.
          2    1    6    6  502    0  0.37633059641E+03  0.11425335587E+03 -0.12116067517E+02  0.39347852065E+03  0.00000000000E+00 0. -1.
          3    1    5    5  503    0 -0.85159091152E+02 -0.14620415900E+03  0.49254804614E+02  0.17622077826E+03  0.00000000000E+00 0. -1.
         -4    1    5    5    0  503 -0.31707179011E+02 -0.23116976336E+03  0.92811836968E+02  0.25111519622E+03  0.00000000000E+00 0.  1.
         -1    1    6    6    0  502  0.89433137851E+02  0.71625610566E+02 -0.25466482695E+01  0.11460802612E+03  0.00000000000E+00 0.  1.
<mgrwt>
<rscale>  0 0.15371537E+04</rscale>
<asrwt>0</asrwt>
<pdfrwt beam="1">  1        1 0.93478116E-01 0.15371537E+04</pdfrwt>
<pdfrwt beam="2">  1       -1 0.14956775E+00 0.15371537E+04</pdfrwt>
<totfact> 0.11405014E+01</totfact>
</mgrwt>
</event>
<event>
12    1  0.1541840E-007  0.1382885E+04  0.7818608E-02  0.8966301E-01
          2   -1    0    0  501    0  0.00000000000E+00  0.00000000000E+00  0.16094290674E+04  0.16094290674E+04  0.00000000000E+00 0. -1.
         -2   -1    0    0    0  501 -0.00000000000E+00 -0.00000000000E+00 -0.29705729317E+03  0.29705729317E+03  0.00000000000E+00 0.  1.
         23    2    1    2    0    0  0.19576100111E+03  0.18575534922E+03  0.77798235779E+03  0.82852200371E+03  0.91458965025E+02 0.  0.
        254    2    1    2    0    0 -0.19576100111E+03 -0.18575534922E+03  0.53438941647E+03  0.10779643569E+04  0.89644168075E+03 0.  0.
        -24    2    4    4    0    0 -0.33171408445E+03 -0.24483240996E+03 -0.91823683828E+02  0.42956629056E+03  0.78220625691E+02 0.  0.
         24    2    4    4    0    0  0.13595308334E+03  0.59077060738E+02  0.62621310030E+03  0.64839806634E+03  0.79396885776E+02 0.  0.
         11    1    3    3    0    0  0.73957690692E+02  0.12954294981E+03  0.45350354045E+03  0.47740609240E+03  0.00000000000E+00 0. -1.
        -11    1    3    3    0    0  0.12180331041E+03  0.56212399413E+02  0.32447881734E+03  0.35111591131E+03  0.00000000000E+00 0.  1.
          4    1    6    6  502    0  0.82014436513E+02  0.72357882676E+02  0.35141077591E+03  0.36803744974E+03  0.00000000000E+00 0. -1.
          3    1    5    5  503    0 -0.28557502065E+03 -0.23802498068E+03 -0.70971521859E+02  0.37847845482E+03  0.00000000000E+00 0. -1.
         -4    1    5    5    0  503 -0.46139063791E+02 -0.68074292757E+01 -0.20852161969E+02  0.51087835731E+02  0.00000000000E+00 0.  1.
         -3    1    6    6    0  502  0.53938646828E+02 -0.13280821938E+02  0.27480232439E+03  0.28036061660E+03  0.00000000000E+00 0.  1.
<mgrwt>
<rscale>  0 0.13828849E+04</rscale>
<asrwt>0</asrwt>
<pdfrwt beam="1">  1        2 0.24760447E+00 0.13828849E+04</pdfrwt>
<pdfrwt beam="2">  1       -2 0.45701123E-01 0.13828849E+04</pdfrwt>
<totfact> 0.48733999E+01</totfact>
</mgrwt>
</event>
<event>
12    1  0.1541840E-007  0.1433990E+04  0.7818608E-02  0.8929576E-01
         -3   -1    0    0    0  501 -0.00000000000E+00  0.00000000000E+00  0.54881125240E+03  0.54881125240E+03  0.00000000000E+00 0.  1.
          3   -1    0    0  501    0  0.00000000000E+00 -0.00000000000E+00 -0.93671835969E+03  0.93671835969E+03  0.00000000000E+00 0. -1.
         23    2    1    2    0    0 -0.38721579050E+03  0.34763450814E+02  0.75194141957E+02  0.40648085252E+03  0.91803913630E+02 0.  0.
        254    2    1    2    0    0  0.38721579050E+03 -0.34763450814E+02 -0.46310124924E+03  0.10790487596E+04  0.89372193245E+03 0.  0.
        -24    2    4    4    0    0 -0.20019999339E+03  0.23563775393E+03 -0.18991984718E+03  0.37262587238E+03  0.84707166063E+02 0.  0.
         24    2    4    4    0    0  0.58741578389E+03 -0.27040120474E+03 -0.27318140207E+03  0.70642288719E+03  0.78937332223E+02 0.  0.
         11    1    3    3    0    0 -0.16687270262E+03  0.24002973330E+02 -0.12570697511E+02  0.16905816764E+03  0.00000000000E+00 0.  1.
        -11    1    3    3    0    0 -0.22034308788E+03  0.10760477484E+02  0.87764839468E+02  0.23742268489E+03  0.00000000000E+00 0. -1.
          2    1    6    6  502    0  0.12306340712E+03 -0.25150743062E+02 -0.39821455337E+02  0.13176839664E+03  0.00000000000E+00 0. -1.
          1    1    5    5  503    0 -0.74058621593E+02  0.35721374207E+02 -0.31430292034E+02  0.88025901102E+02  0.00000000000E+00 0. -1.
         -2    1    5    5    0  503 -0.12614137180E+03  0.19991637972E+03 -0.15848955514E+03  0.28459997127E+03  0.00000000000E+00 0.  1.
         -1    1    6    6    0  502  0.46435237677E+03 -0.24525046168E+03 -0.23335994673E+03  0.57465449055E+03  0.00000000000E+00 0.  1.
<mgrwt>
<rscale>  0 0.14339896E+04</rscale>
<asrwt>0</asrwt>
<pdfrwt beam="1">  1        3 0.14411051E+00 0.14339896E+04</pdfrwt>
<pdfrwt beam="2">  1       -3 0.84432502E-01 0.14339896E+04</pdfrwt>
<totfact> 0.11757115E+00</totfact>
</mgrwt>
</event>
<event>
12    1  0.1541840E-007  0.1738834E+04  0.7818608E-02  0.8739521E-01
         -2   -1    0    0    0  501 -0.00000000000E+00  0.00000000000E+00  0.27984407870E+03  0.27984407870E+03  0.00000000000E+00 0.  1.
          2   -1    0    0  501    0  0.00000000000E+00 -0.00000000000E+00 -0.27010970171E+04  0.27010970171E+04  0.00000000000E+00 0. -1.
         23    2    1    2    0    0 -0.32265492151E+03 -0.39773865139E+03 -0.15586836533E+04  0.16444735365E+04  0.11178661875E+03 0.  0.
        254    2    1    2    0    0  0.32265492151E+03  0.39773865139E+03 -0.86256928513E+03  0.13364675593E+04  0.88307277854E+03 0.  0.
        -24    2    4    4    0    0 -0.15930297964E+03  0.49205150210E+03 -0.44947643459E+03  0.68976534120E+03  0.79088814789E+02 0.  0.
         24    2    4    4    0    0  0.48195790115E+03 -0.94312850717E+02 -0.41309285053E+03  0.64670221809E+03  0.79998271377E+02 0.  0.
         11    1    3    3    0    0 -0.52641283063E+01 -0.31240161936E+02 -0.44943631577E+02  0.54987169266E+02  0.00000000000E+00 0.  1.
        -11    1    3    3    0    0 -0.31739079321E+03 -0.36649848945E+03 -0.15137400217E+04  0.15894863673E+04  0.00000000000E+00 0. -1.
          4    1    6    6  502    0  0.48455652237E+03 -0.91910588187E+02 -0.40613494858E+03  0.63889606044E+03  0.00000000000E+00 0. -1.
          1    1    5    5  503    0 -0.10923294158E+03  0.24432425414E+03 -0.19522239613E+03  0.33126720429E+03  0.00000000000E+00 0. -1.
         -2    1    5    5    0  503 -0.50070038056E+02  0.24772724796E+03 -0.25425403846E+03  0.35849813691E+03  0.00000000000E+00 0.  1.
         -3    1    6    6    0  502 -0.25986212202E+01 -0.24022625295E+01 -0.69579019596E+01  0.78061576454E+01  0.00000000000E+00 0.  1.
<mgrwt>
<rscale>  0 0.17388341E+04</rscale>
<asrwt>0</asrwt>
<pdfrwt beam="1">  1        2 0.41555339E+00 0.17388341E+04</pdfrwt>
<pdfrwt beam="2">  1       -2 0.43052935E-01 0.17388341E+04</pdfrwt>
<totfact> 0.12898195E+01</totfact>
</mgrwt>
</event>
<event>
12    1  0.1541840E-007  0.2239413E+04  0.7818608E-02  0.8502200E-01
          1   -1    0    0  501    0  0.00000000000E+00  0.00000000000E+00  0.12859292348E+04  0.12859292348E+04  0.00000000000E+00 0. -1.
         -1   -1    0    0    0  501 -0.00000000000E+00 -0.00000000000E+00 -0.97496999513E+03  0.97496999513E+03  0.00000000000E+00 0.  1.
         23    2    1    2    0    0  0.21667243677E+03  0.88658204797E+03 -0.63644815181E+02  0.91849654167E+03  0.81305362124E+02 0.  0.
        254    2    1    2    0    0 -0.21667243677E+03 -0.88658204797E+03  0.37460405487E+03  0.13424026883E+04  0.91035273764E+03 0.  0.
        -24    2    4    4    0    0 -0.28510656065E+03 -0.20699824553E+03 -0.22870538038E+03  0.42762373291E+03  0.80136641782E+02 0.  0.
         24    2    4    4    0    0  0.68434123881E+02 -0.67958380245E+03  0.60330943525E+03  0.91477895536E+03  0.79504016596E+02 0.  0.
         11    1    3    3    0    0  0.20782616827E+03  0.86656615146E+03 -0.49650741559E+02  0.89252104021E+03  0.00000000000E+00 0.  1.
        -11    1    3    3    0    0  0.88462684993E+01  0.20015896515E+02 -0.13994073622E+02  0.25975501461E+02  0.00000000000E+00 0. -1.
          4    1    6    6  502    0  0.85809971405E+02 -0.58392367142E+03  0.50993140146E+03  0.77997451204E+03  0.00000000000E+00 0. -1.
          3    1    5    5  503    0 -0.19693058234E+03 -0.11934079423E+03 -0.18650351301E+03  0.29632320158E+03  0.00000000000E+00 0. -1.
         -4    1    5    5    0  503 -0.88175978310E+02 -0.87657451293E+02 -0.42201867370E+02  0.13130053133E+03  0.00000000000E+00 0.  1.
         -3    1    6    6    0  502 -0.17375847524E+02 -0.95660131026E+02  0.93378033790E+02  0.13480444332E+03  0.00000000000E+00 0.  1.
<mgrwt>
<rscale>  0 0.22394128E+04</rscale>
<asrwt>0</asrwt>
<pdfrwt beam="1">  1        1 0.19783527E+00 0.22394128E+04</pdfrwt>
<pdfrwt beam="2">  1       -1 0.14999538E+00 0.22394128E+04</pdfrwt>
<totfact> 0.29354453E+00</totfact>
</mgrwt>
</event>
<event>
12    1  0.1541840E-007  0.1148781E+04  0.7818608E-02  0.9158909E-01
          2   -1    0    0  501    0  0.00000000000E+00  0.00000000000E+00  0.83293945359E+03  0.83293945359E+03  0.00000000000E+00 0.  1.
         -2   -1    0    0    0  501 -0.00000000000E+00 -0.00000000000E+00 -0.39609679030E+03  0.39609679030E+03  0.00000000000E+00 0. -1.
         23    2    1    2    0    0 -0.10026965816E+03 -0.15963136253E+03  0.16972068926E+03  0.26974487270E+03  0.91766048925E+02 0.  0.
        254    2    1    2    0    0  0.10026965816E+03  0.15963136253E+03  0.26712197404E+03  0.95929137119E+03  0.90185897433E+03 0.  0.
        -24    2    4    4    0    0  0.30636998908E+03 -0.28352192652E+03  0.14316892187E+03  0.44863423831E+03  0.80796575212E+02 0.  0.
         24    2    4    4    0    0 -0.20610033092E+03  0.44315328905E+03  0.12395305217E+03  0.51065713289E+03  0.80896008692E+02 0.  0.
         11    1    3    3    0    0 -0.96418475874E+02 -0.13676819181E+03  0.17875839048E+03  0.24486041523E+03  0.00000000000E+00 0.  1.
        -11    1    3    3    0    0 -0.38511822817E+01 -0.22863170715E+02 -0.90377012176E+01  0.24884457467E+02  0.00000000000E+00 0. -1.
          4    1    6    6  502    0  0.63608083491E+01  0.27174044910E+02  0.24431132437E+01  0.28015306565E+02  0.00000000000E+00 0. -1.
          3    1    5    5  503    0  0.17524385914E+03 -0.11054173465E+03  0.84662311083E+02  0.22382491413E+03  0.00000000000E+00 0. -1.
         -4    1    5    5    0  503  0.13112612993E+03 -0.17298019187E+03  0.58506610782E+02  0.22480932418E+03  0.00000000000E+00 0.  1.
         -3    1    6    6    0  502 -0.21246113927E+03  0.41597924414E+03  0.12150993893E+03  0.48264182632E+03  0.00000000000E+00 0.  1.
<mgrwt>
<rscale>  0 0.11487813E+04</rscale>
<asrwt>0</asrwt>
<pdfrwt beam="1">  1        2 0.12814453E+00 0.11487813E+04</pdfrwt>
<pdfrwt beam="2">  1       -2 0.60937968E-01 0.11487813E+04</pdfrwt>
<totfact> 0.80971682E+01</totfact>
</mgrwt>
</event>
<event>
12    1  0.1541840E-007  0.1479921E+04  0.7818608E-02  0.8897916E-01
         -2   -1    0    0    0  501 -0.00000000000E+00  0.00000000000E+00  0.14325102612E+04  0.14325102612E+04  0.00000000000E+00 0. -1.
          2   -1    0    0  501    0  0.00000000000E+00 -0.00000000000E+00 -0.38222512442E+03  0.38222512442E+03  0.00000000000E+00 0.  1.
         23    2    1    2    0    0 -0.34432796028E+03  0.21486606149E+02  0.71013006953E+03  0.79480694990E+03  0.91705798517E+02 0.  0.
        254    2    1    2    0    0  0.34432796028E+03 -0.21486606149E+02  0.34015506721E+03  0.10199284357E+04  0.89751051565E+03 0.  0.
        -24    2    4    4    0    0 -0.25525876642E+03 -0.19362219211E+03  0.84612135749E+02  0.34089827548E+03  0.80036426656E+02 0.  0.
         24    2    4    4    0    0  0.59958672670E+03  0.17213558596E+03  0.25554293146E+03  0.67903016021E+03  0.81516046683E+02 0.  0.
         11    1    3    3    0    0 -0.39243627516E+02  0.67371796433E+01  0.32067874970E+02  0.51125341028E+02  0.00000000000E+00 0.  1.
        -11    1    3    3    0    0 -0.30508433276E+03  0.14749426506E+02  0.67806219456E+03  0.74368160887E+03  0.00000000000E+00 0. -1.
          2    1    6    6  502    0  0.43647264618E+02  0.81672745224E+01 -0.27025828755E+01  0.44486987266E+02  0.00000000000E+00 0. -1.
          1    1    5    5  503    0 -0.57940462245E+02 -0.47544172404E+02  0.56350790108E+02  0.93770768583E+02  0.00000000000E+00 0. -1.
         -2    1    5    5    0  503 -0.19731830418E+03 -0.14607801971E+03  0.28261345641E+02  0.24712750689E+03  0.00000000000E+00 0.  1.
         -1    1    6    6    0  502  0.55593946208E+03  0.16396831144E+03  0.25824551434E+03  0.63454317295E+03  0.00000000000E+00 0.  1.
<mgrwt>
<rscale>  0 0.14799208E+04</rscale>
<asrwt>0</asrwt>
<pdfrwt beam="1">  1        2 0.58803866E-01 0.14799208E+04</pdfrwt>
<pdfrwt beam="2">  1       -2 0.22038619E+00 0.14799208E+04</pdfrwt>
<totfact> 0.79557376E+00</totfact>
</mgrwt>
</event>
<event>
12    1  0.1541840E-007  0.1120747E+04  0.7818608E-02  0.9185204E-01
          1   -1    0    0  501    0  0.00000000000E+00  0.00000000000E+00  0.18145352107E+04  0.18145352107E+04  0.00000000000E+00 0.  1.
         -1   -1    0    0    0  501 -0.00000000000E+00 -0.00000000000E+00 -0.17305708988E+03  0.17305708988E+03  0.00000000000E+00 0. -1.
         23    2    1    2    0    0 -0.13557082915E+03  0.20355147641E+02  0.50034460486E+03  0.52700513002E+03  0.92714085828E+02 0.  0.
        254    2    1    2    0    0  0.13557082915E+03 -0.20355147641E+02  0.11411335160E+04  0.14605871706E+04  0.90129651047E+03 0.  0.
        -24    2    4    4    0    0 -0.31762846914E+03 -0.17979071656E+03  0.26479421156E+03  0.45801330336E+03  0.80297356193E+02 0.  0.
         24    2    4    4    0    0  0.45319929828E+03  0.15943556892E+03  0.87633930442E+03  0.10025738672E+04  0.79840329024E+02 0.  0.
         13    1    3    3    0    0 -0.10821774973E+03 -0.98512547663E+01  0.44618636852E+03  0.45922805231E+03  0.00000000000E+00 0.  1.
        -13    1    3    3    0    0 -0.27353079422E+02  0.30206402407E+02  0.54158236340E+02  0.67777077716E+02  0.00000000000E+00 0. -1.
          2    1    6    6  502    0  0.43519230312E+03  0.13796537219E+03  0.79787294335E+03  0.91925405538E+03  0.00000000000E+00 0. -1.
          3    1    5    5  503    0 -0.24139304447E+03 -0.14129331329E+03  0.15791593952E+03  0.32120374570E+03  0.00000000000E+00 0. -1.
         -4    1    5    5    0  503 -0.76235424667E+02 -0.38497403275E+02  0.10687827204E+03  0.13680955766E+03  0.00000000000E+00 0.  1.
         -1    1    6    6    0  502  0.18006995167E+02  0.21470196729E+02  0.78466361072E+02  0.83319811824E+02  0.00000000000E+00 0.  1.
<mgrwt>
<rscale>  0 0.11207465E+04</rscale>
<asrwt>0</asrwt>
<pdfrwt beam="1">  1        1 0.27915925E+00 0.11207465E+04</pdfrwt>
<pdfrwt beam="2">  1       -1 0.26624169E-01 0.11207465E+04</pdfrwt>
<totfact> 0.49862723E+01</totfact>
</mgrwt>
</event>
<event>
12    1  0.1541840E-007  0.1561075E+04  0.7818608E-02  0.8844825E-01
         -2   -1    0    0    0  501 -0.00000000000E+00  0.00000000000E+00  0.20478349120E+03  0.20478349120E+03  0.00000000000E+00 0. -1.
          2   -1    0    0  501    0  0.00000000000E+00 -0.00000000000E+00 -0.29750369850E+04  0.29750369850E+04  0.00000000000E+00 0.  1.
         23    2    1    2    0    0 -0.50125149815E+03  0.27458398606E+02 -0.69965882815E+03  0.86614843256E+03  0.93185853940E+02 0.  0.
        254    2    1    2    0    0  0.50125149815E+03 -0.27458398606E+02 -0.20705946656E+04  0.23136720436E+04  0.90205821766E+03 0.  0.
        -24    2    4    4    0    0 -0.11382399171E+02 -0.27399841688E+03 -0.18052330698E+03  0.33832246297E+03  0.81662311553E+02 0.  0.
         24    2    4    4    0    0  0.51263389732E+03  0.24654001827E+03 -0.18900713587E+04  0.19753495807E+04  0.77850701074E+02 0.  0.
         11    1    3    3    0    0 -0.40499248896E+03  0.55324947616E+02 -0.53315441578E+03  0.67181351357E+03  0.00000000000E+00 0. -1.
        -11    1    3    3    0    0 -0.96259009186E+02 -0.27866549010E+02 -0.16650441236E+03  0.19433491899E+03  0.00000000000E+00 0.  1.
          2    1    6    6  502    0  0.84442139630E+02  0.29697012784E+02 -0.39962909205E+03  0.40953119383E+03  0.00000000000E+00 0. -1.
          1    1    5    5  503    0  0.28138113629E+02 -0.42347165577E+02 -0.26363453958E+02  0.57271874210E+02  0.00000000000E+00 0. -1.
         -2    1    5    5    0  503 -0.39520512800E+02 -0.23165125130E+03 -0.15415985302E+03  0.28105058876E+03  0.00000000000E+00 0.  1.
         -1    1    6    6    0  502  0.42819175769E+03  0.21684300549E+03 -0.14904422666E+04  0.15658183868E+04  0.00000000000E+00 0.  1.
<mgrwt>
<rscale>  0 0.15610746E+04</rscale>
<asrwt>0</asrwt>
<pdfrwt beam="1">  1        2 0.45769800E+00 0.15610746E+04</pdfrwt>
<pdfrwt beam="2">  1       -2 0.31505152E-01 0.15610746E+04</pdfrwt>
<totfact> 0.16340556E+01</totfact>
</mgrwt>
</event>
<event>
12    1  0.1541840E-007  0.1573784E+04  0.7818608E-02  0.8836817E-01
          1   -1    0    0  501    0  0.00000000000E+00  0.00000000000E+00  0.11784933626E+04  0.11784933626E+04  0.00000000000E+00 0. -1.
         -1   -1    0    0    0  501 -0.00000000000E+00 -0.00000000000E+00 -0.52541562823E+03  0.52541562823E+03  0.00000000000E+00 0.  1.
         23    2    1    2    0    0  0.17027209023E+03 -0.26958267872E+03 -0.22613902577E+03  0.40181801330E+03  0.93013178969E+02 0.  0.
        254    2    1    2    0    0 -0.17027209023E+03  0.26958267872E+03  0.87921676014E+03  0.13020909775E+04  0.90595330843E+03 0.  0.
        -24    2    4    4    0    0 -0.33456922166E+02 -0.29408204950E+03  0.55189963195E+03  0.63136522957E+03  0.80157544123E+02 0.  0.
         24    2    4    4    0    0 -0.13681516807E+03  0.56366472821E+03  0.32731712818E+03  0.67072574795E+03  0.79373865467E+02 0.  0.
         13    1    3    3    0    0 -0.96470795279E+01 -0.10332372807E+02 -0.99795161369E+00  0.14171096594E+02  0.00000000000E+00 0. -1.
        -13    1    3    3    0    0  0.17991916976E+03 -0.25925030591E+03 -0.22514107416E+03  0.38764691671E+03  0.00000000000E+00 0.  1.
          2    1    6    6  502    0 -0.13511090291E+03  0.43352471738E+03  0.23619261315E+03  0.51184527659E+03  0.00000000000E+00 0. -1.
          3    1    5    5  503    0  0.25682889087E+02 -0.11081251403E+03  0.21893616955E+03  0.24672265886E+03  0.00000000000E+00 0. -1.
         -4    1    5    5    0  503 -0.59139811254E+02 -0.18326953547E+03  0.33296346241E+03  0.38464257071E+03  0.00000000000E+00 0.  1.
         -1    1    6    6    0  502 -0.17042651606E+01  0.13014001084E+03  0.91124515034E+02  0.15888047136E+03  0.00000000000E+00 0.  1.
<mgrwt>
<rscale>  0 0.15737838E+04</rscale>
<asrwt>0</asrwt>
<pdfrwt beam="1">  1        1 0.18130667E+00 0.15737838E+04</pdfrwt>
<pdfrwt beam="2">  1       -1 0.80833174E-01 0.15737838E+04</pdfrwt>
<totfact> 0.16259813E+01</totfact>
</mgrwt>
</event>
<event>
12    1  0.1541840E-007  0.2131826E+04  0.7818608E-02  0.8547352E-01
          2   -1    0    0  501    0  0.00000000000E+00  0.00000000000E+00  0.11702649302E+04  0.11702649302E+04  0.00000000000E+00 0. -1.
         -2   -1    0    0    0  501 -0.00000000000E+00 -0.00000000000E+00 -0.97086579180E+03  0.97086579180E+03  0.00000000000E+00 0.  1.
         23    2    1    2    0    0  0.10473929459E+03  0.53718455427E+03 -0.60894779756E+03  0.82370889592E+03  0.90229484646E+02 0.  0.
        254    2    1    2    0    0 -0.10473929459E+03 -0.53718455427E+03  0.80834693592E+03  0.13174218260E+04  0.88466826197E+03 0.  0.
        -24    2    4    4    0    0  0.24864309861E+03  0.11220736828E+03  0.31679846266E+03  0.42531211759E+03  0.78200047563E+02 0.  0.
         24    2    4    4    0    0 -0.35338239320E+03 -0.64939192255E+03  0.49154847327E+03  0.89210970846E+03  0.87469111399E+02 0.  0.
         13    1    3    3    0    0 -0.12151226573E+02  0.13947770921E+03 -0.16224099455E+03  0.21429844607E+03  0.00000000000E+00 0. -1.
        -13    1    3    3    0    0  0.11689052116E+03  0.39770684506E+03 -0.44670680301E+03  0.60941044986E+03  0.00000000000E+00 0.  1.
          2    1    6    6  502    0 -0.24951573776E+03 -0.38415116929E+03  0.27487904028E+03  0.53421784980E+03  0.00000000000E+00 0. -1.
          3    1    5    5  503    0  0.27428674669E+02  0.27842280155E+02  0.86981833439E+02  0.95359132268E+02  0.00000000000E+00 0. -1.
         -4    1    5    5    0  503  0.22121442394E+03  0.84365088128E+02  0.22981662922E+03  0.32995298532E+03  0.00000000000E+00 0.  1.
         -1    1    6    6    0  502 -0.10386665544E+03 -0.26524075326E+03  0.21666943298E+03  0.35789185866E+03  0.00000000000E+00 0.  1.
<mgrwt>
<rscale>  0 0.21318257E+04</rscale>
<asrwt>0</asrwt>
<pdfrwt beam="1">  1        2 0.18004076E+00 0.21318257E+04</pdfrwt>
<pdfrwt beam="2">  1       -2 0.14936397E+00 0.21318257E+04</pdfrwt>
<totfact> 0.54973589E+00</totfact>
</mgrwt>
</event>
<event>
12    1  0.1541840E-007  0.1109986E+04  0.7818608E-02  0.9195513E-01
         -2   -1    0    0    0  501 -0.00000000000E+00  0.00000000000E+00  0.20025783741E+03  0.20025783741E+03  0.00000000000E+00 0.  1.
          2   -1    0    0  501    0  0.00000000000E+00 -0.00000000000E+00 -0.15381033684E+04  0.15381033684E+04  0.00000000000E+00 0. -1.
         23    2    1    2    0    0  0.10267427531E+03 -0.10352656138E+03 -0.90858041224E+02  0.19442644305E+03  0.91031326373E+02 0.  0.
        254    2    1    2    0    0 -0.10267427531E+03  0.10352656138E+03 -0.12469874897E+04  0.15439347627E+04  0.89860836647E+03 0.  0.
        -24    2    4    4    0    0  0.26193429394E+03 -0.26857139932E+03 -0.50309064532E+03  0.63235064968E+03  0.77633600176E+02 0.  0.
         24    2    4    4    0    0 -0.36460856926E+03  0.37209796070E+03 -0.74389684440E+03  0.91158411303E+03  0.78783112955E+02 0.  0.
         11    1    3    3    0    0  0.84312607610E+02 -0.81293692421E+02 -0.10929940057E+03  0.16019874904E+03  0.00000000000E+00 0.  1.
        -11    1    3    3    0    0  0.18361667703E+02 -0.22232868957E+02  0.18441359345E+02  0.34227694012E+02  0.00000000000E+00 0. -1.
          2    1    6    6  502    0 -0.78883266389E+02  0.53916907164E+02 -0.97350038577E+02  0.13640613111E+03  0.00000000000E+00 0. -1.
          3    1    5    5  503    0  0.18827576151E+03 -0.16946420392E+03 -0.38915370804E+03  0.46433445625E+03  0.00000000000E+00 0. -1.
         -4    1    5    5    0  503  0.73658532431E+02 -0.99107195394E+02 -0.11393693728E+03  0.16801619343E+03  0.00000000000E+00 0.  1.
         -1    1    6    6    0  502 -0.28572530287E+03  0.31818105353E+03 -0.64654680582E+03  0.77517798191E+03  0.00000000000E+00 0.  1.
<mgrwt>
<rscale>  0 0.11099860E+04</rscale>
<asrwt>0</asrwt>
<pdfrwt beam="1">  1        2 0.23663129E+00 0.11099860E+04</pdfrwt>
<pdfrwt beam="2">  1       -2 0.30808898E-01 0.11099860E+04</pdfrwt>
<totfact> 0.11687640E+02</totfact>
</mgrwt>
</event>
<event>
12    1  0.1541840E-007  0.1395520E+04  0.7818608E-02  0.8957068E-01
         -1   -1    0    0    0  501 -0.00000000000E+00  0.00000000000E+00  0.18485092275E+03  0.18485092275E+03  0.00000000000E+00 0.  1.
          1   -1    0    0  501    0  0.00000000000E+00 -0.00000000000E+00 -0.26338472912E+04  0.26338472912E+04  0.00000000000E+00 0. -1.
         23    2    1    2    0    0  0.28456618309E+03  0.12583780592E+03 -0.12128779681E+04  0.12554680262E+04  0.91180772572E+02 0.  0.
        254    2    1    2    0    0 -0.28456618309E+03 -0.12583780592E+03 -0.12361184004E+04  0.15632301878E+04  0.90492367321E+03 0.  0.
        -24    2    4    4    0    0  0.12306124365E+03  0.28777374548E+03 -0.22159517949E+03  0.39153550241E+03  0.78979920228E+02 0.  0.
         24    2    4    4    0    0 -0.40762742674E+03 -0.41361155140E+03 -0.10145232209E+04  0.11716946854E+04  0.79852586496E+02 0.  0.
         13    1    3    3    0    0  0.71778383685E+01  0.11702875434E+02 -0.16314276545E+03  0.16371939584E+03  0.00000000000E+00 0.  1.
        -13    1    3    3    0    0  0.27738834472E+03  0.11413493048E+03 -0.10497352026E+04  0.10917486303E+04  0.00000000000E+00 0. -1.
          4    1    6    6  502    0 -0.30399786999E+03 -0.32008168219E+03 -0.83259730993E+03  0.94238276127E+03  0.00000000000E+00 0. -1.
          3    1    5    5  503    0  0.12987546923E+03  0.25189436439E+03 -0.17801296521E+03  0.33467450471E+03  0.00000000000E+00 0. -1.
         -4    1    5    5    0  503 -0.68142255871E+01  0.35879381088E+02 -0.43582214285E+02  0.56860997702E+02  0.00000000000E+00 0.  1.
         -3    1    6    6    0  502 -0.10362955675E+03 -0.93529869202E+02 -0.18192591094E+03  0.22931192410E+03  0.00000000000E+00 0.  1.
<mgrwt>
<rscale>  0 0.13955201E+04</rscale>
<asrwt>0</asrwt>
<pdfrwt beam="1">  1        1 0.40520724E+00 0.13955201E+04</pdfrwt>
<pdfrwt beam="2">  1       -1 0.28438606E-01 0.13955201E+04</pdfrwt>
<totfact> 0.11995530E+01</totfact>
</mgrwt>
</event>
<event>
12    1  0.1541840E-007  0.1358793E+04  0.7818608E-02  0.8984199E-01
          2   -1    0    0  501    0  0.00000000000E+00  0.00000000000E+00  0.18247659864E+04  0.18247659864E+04  0.00000000000E+00 0. -1.
         -2   -1    0    0    0  501 -0.00000000000E+00 -0.00000000000E+00 -0.25295262482E+03  0.25295262482E+03  0.00000000000E+00 0.  1.
         23    2    1    2    0    0 -0.30559988818E+03 -0.15571325469E+03  0.21071298773E+03  0.41712378810E+03  0.10933609679E+03 0.  0.
        254    2    1    2    0    0  0.30559988818E+03  0.15571325469E+03  0.13611003739E+04  0.16605948232E+04  0.88732352022E+03 0.  0.
        -24    2    4    4    0    0 -0.23716032225E+03 -0.16804675883E+03  0.31409094333E+03  0.43511792401E+03  0.78674999292E+02 0.  0.
         24    2    4    4    0    0  0.54276021043E+03  0.32376001352E+03  0.10470094306E+04  0.12254768991E+04  0.78458207022E+02 0.  0.
         11    1    3    3    0    0 -0.54755657683E+02  0.87513875761E+01  0.59067706063E+02  0.81017052109E+02  0.00000000000E+00 0. -1.
        -11    1    3    3    0    0 -0.25084423050E+03 -0.16446464227E+03  0.15164528167E+03  0.33610673599E+03  0.00000000000E+00 0.  1.
          2    1    6    6  502    0  0.32728712705E+03  0.17844161009E+03  0.54676724183E+03  0.66174971740E+03  0.00000000000E+00 0. -1.
          3    1    5    5  503    0 -0.21024161923E+03 -0.13210733958E+03  0.29688121582E+03  0.38703015894E+03  0.00000000000E+00 0. -1.
         -4    1    5    5    0  503 -0.26918703027E+02 -0.35939419249E+02  0.17209727509E+02  0.48087765071E+02  0.00000000000E+00 0.  1.
         -3    1    6    6    0  502  0.21547308338E+03  0.14531840343E+03  0.50024218874E+03  0.56372718174E+03  0.00000000000E+00 0.  1.
<mgrwt>
<rscale>  0 0.13587926E+04</rscale>
<asrwt>0</asrwt>
<pdfrwt beam="1">  1        2 0.28073322E+00 0.13587926E+04</pdfrwt>
<pdfrwt beam="2">  1       -2 0.38915790E-01 0.13587926E+04</pdfrwt>
<totfact> 0.50935375E+01</totfact>
</mgrwt>
</event>
<event>
12    1  0.1541840E-007  0.5323449E+04  0.7818608E-02  0.7780461E-01
          2   -1    0    0  501    0  0.00000000000E+00  0.00000000000E+00  0.36988774617E+04  0.36988774617E+04  0.00000000000E+00 0. -1.
         -2   -1    0    0    0  501 -0.00000000000E+00 -0.00000000000E+00 -0.19153860724E+04  0.19153860724E+04  0.00000000000E+00 0.  1.
         23    2    1    2    0    0 -0.13304704041E+04 -0.22117082938E+04  0.98214483839E+03  0.27630299055E+04  0.88998326066E+02 0.  0.
        254    2    1    2    0    0  0.13304704041E+04  0.22117082938E+04  0.80134655094E+03  0.28512336286E+04  0.90860983762E+03 0.  0.
        -24    2    4    4    0    0  0.12888499272E+04  0.15722090620E+04  0.84646429711E+03  0.22035521638E+04  0.78516639530E+02 0.  0.
         24    2    4    4    0    0  0.41620476875E+02  0.63949923182E+03 -0.45117746169E+02  0.64768146482E+03  0.82244375244E+02 0.  0.
         11    1    3    3    0    0 -0.11604028574E+04 -0.19673448095E+04  0.84680134475E+03  0.24359911553E+04  0.00000000000E+00 0. -1.
        -11    1    3    3    0    0 -0.17006754666E+03 -0.24436348427E+03  0.13534349364E+03  0.32703875022E+03  0.00000000000E+00 0.  1.
          2    1    6    6  502    0  0.11608484742E+01  0.50408133532E+03 -0.22806406049E+02  0.50459832773E+03  0.00000000000E+00 0. -1.
          1    1    5    5  503    0  0.18540246848E+02  0.12231468680E+02  0.43108450593E+01  0.22625935657E+02  0.00000000000E+00 0. -1.
         -4    1    5    5    0  503  0.12703096804E+04  0.15599775933E+04  0.84215345205E+03  0.21809262281E+04  0.00000000000E+00 0.  1.
         -1    1    6    6    0  502  0.40459628400E+02  0.13541789650E+03 -0.22311340120E+02  0.14308313709E+03  0.00000000000E+00 0.  1.
<mgrwt>
<rscale>  0 0.53234494E+04</rscale>
<asrwt>0</asrwt>
<pdfrwt beam="1">  1        2 0.56905807E+00 0.53234494E+04</pdfrwt>
<pdfrwt beam="2">  1       -2 0.29467478E+00 0.53234494E+04</pdfrwt>
<totfact> 0.14175150E-02</totfact>
</mgrwt>
</event>
<event>
12    1  0.1541840E-007  0.3261715E+04  0.7818608E-02  0.8172706E-01
         -2   -1    0    0    0  501 -0.00000000000E+00  0.00000000000E+00  0.17930486366E+04  0.17930486366E+04  0.00000000000E+00 0.  1.
          2   -1    0    0  501    0  0.00000000000E+00 -0.00000000000E+00 -0.14833371569E+04  0.14833371569E+04  0.00000000000E+00 0. -1.
         23    2    1    2    0    0  0.46195318811E+03 -0.94267229325E+03  0.12246169682E+04  0.16155142249E+04  0.90375281753E+02 0.  0.
        254    2    1    2    0    0 -0.46195318811E+03  0.94267229325E+03 -0.91490548854E+03  0.16608715687E+04  0.90521296619E+03 0.  0.
        -24    2    4    4    0    0 -0.41197199949E+03  0.37036950036E+03  0.20643015099E+02  0.56013953585E+03  0.80222630174E+02 0.  0.
         24    2    4    4    0    0 -0.49981188625E+02  0.57230279289E+03 -0.93554850364E+03  0.11007320328E+04  0.79570091304E+02 0.  0.
         11    1    3    3    0    0  0.45737694242E+03 -0.92841451039E+03  0.11859396507E+04  0.15740393977E+04  0.00000000000E+00 0.  1.
        -11    1    3    3    0    0  0.45762456913E+01 -0.14257782854E+02  0.38677317544E+02  0.41474827172E+02  0.00000000000E+00 0. -1.
          4    1    6    6  502    0 -0.48301652810E+02  0.42782040633E+03 -0.75884707510E+03  0.87247477507E+03  0.00000000000E+00 0. -1.
          1    1    5    5  503    0 -0.63092468495E+02  0.99772556437E+02 -0.16239963500E+01  0.11805871405E+03  0.00000000000E+00 0. -1.
         -2    1    5    5    0  503 -0.34887953099E+03  0.27059694392E+03  0.22267011449E+02  0.44208082180E+03  0.00000000000E+00 0.  1.
         -3    1    6    6    0  502 -0.16795358152E+01  0.14448238655E+03 -0.17670142854E+03  0.22825725774E+03  0.00000000000E+00 0.  1.
<mgrwt>
<rscale>  0 0.32617147E+04</rscale>
<asrwt>0</asrwt>
<pdfrwt beam="1">  1        2 0.22820571E+00 0.32617147E+04</pdfrwt>
<pdfrwt beam="2">  1       -2 0.27585364E+00 0.32617147E+04</pdfrwt>
<totfact> 0.48513432E-01</totfact>
</mgrwt>
</event>
<event>
12    1  0.1541840E-007  0.1310856E+04  0.7818608E-02  0.9021001E-01
          2   -1    0    0  501    0  0.00000000000E+00  0.00000000000E+00  0.25089978661E+04  0.25089978661E+04  0.00000000000E+00 0. -1.
         -2   -1    0    0    0  501 -0.00000000000E+00 -0.00000000000E+00 -0.17121798611E+03  0.17121798611E+03  0.00000000000E+00 0.  1.
         23    2    1    2    0    0 -0.21676736837E+03 -0.52838113635E+02  0.11212063425E+04  0.11469124868E+04  0.92328931924E+02 0.  0.
        254    2    1    2    0    0  0.21676736837E+03  0.52838113635E+02  0.12165735374E+04  0.15333033654E+04  0.90619428381E+03 0.  0.
        -24    2    4    4    0    0 -0.17918067339E+03  0.35932803720E+03  0.40061709208E+03  0.57291782795E+03  0.80736801305E+02 0.  0.
         24    2    4    4    0    0  0.39594804176E+03 -0.30648992357E+03  0.81595644537E+03  0.96038553742E+03  0.76449556767E+02 0.  0.
         11    1    3    3    0    0 -0.40322263244E+02 -0.50025622178E+02  0.26107667810E+03  0.26886702966E+03  0.00000000000E+00 0.  1.
        -11    1    3    3    0    0 -0.17644510513E+03 -0.28124914570E+01  0.86012966445E+03  0.87804545719E+03  0.00000000000E+00 0. -1.
          4    1    6    6  502    0  0.36320631793E+03 -0.25163515997E+03  0.69432810785E+03  0.82300097477E+03  0.00000000000E+00 0. -1.
          3    1    5    5  503    0 -0.73606717791E+02  0.14119494811E+03  0.21560412214E+03  0.26802816971E+03  0.00000000000E+00 0. -1.
         -4    1    5    5    0  503 -0.10557395560E+03  0.21813308909E+03  0.18501296994E+03  0.30488965824E+03  0.00000000000E+00 0.  1.
         -3    1    6    6    0  502  0.32741723835E+02 -0.54854763600E+02  0.12162833751E+03  0.13738456265E+03  0.00000000000E+00 0.  1.
<mgrwt>
<rscale>  0 0.13108555E+04</rscale>
<asrwt>0</asrwt>
<pdfrwt beam="1">  1        2 0.38599964E+00 0.13108555E+04</pdfrwt>
<pdfrwt beam="2">  1       -2 0.26341231E-01 0.13108555E+04</pdfrwt>
<totfact> 0.44146560E+01</totfact>
</mgrwt>
</event>
<event>
12    1  0.1541840E-007  0.1738864E+04  0.7818608E-02  0.8739504E-01
         -3   -1    0    0    0  501 -0.00000000000E+00  0.00000000000E+00  0.15293107570E+04  0.15293107570E+04  0.00000000000E+00 0.  1.
          3   -1    0    0  501    0  0.00000000000E+00 -0.00000000000E+00 -0.49428302940E+03  0.49428302940E+03  0.00000000000E+00 0. -1.
         23    2    1    2    0    0  0.38352005794E+03  0.48065752813E+03  0.20124362552E+03  0.65345975690E+03  0.91604382432E+02 0.  0.
        254    2    1    2    0    0 -0.38352005794E+03 -0.48065752813E+03  0.83378410208E+03  0.13701340295E+04  0.89663372440E+03 0.  0.
        -24    2    4    4    0    0 -0.40953896739E+03 -0.65897561084E+03  0.87175879890E+03  0.11698086927E+04  0.80733837420E+02 0.  0.
         24    2    4    4    0    0  0.26018909450E+02  0.17831808270E+03 -0.37974696824E+02  0.20032533683E+03  0.78827918330E+02 0.  0.
         13    1    3    3    0    0 -0.48220192052E+00  0.13245937276E+02  0.16067506393E+02  0.20829117473E+02  0.00000000000E+00 0.  1.
        -13    1    3    3    0    0  0.38400225986E+03  0.46741159086E+03  0.18517611913E+03  0.63263063943E+03  0.00000000000E+00 0. -1.
          4    1    6    6  502    0  0.24772453956E+02  0.29433174382E+02 -0.34063371513E+02  0.51383844815E+02  0.00000000000E+00 0. -1.
          1    1    5    5  503    0 -0.10620949159E+03 -0.11755159366E+03  0.15378943827E+03  0.22079407736E+03  0.00000000000E+00 0. -1.
         -2    1    5    5    0  503 -0.30332947580E+03 -0.54142401718E+03  0.71796936064E+03  0.94901461531E+03  0.00000000000E+00 0.  1.
         -3    1    6    6    0  502  0.12464554940E+01  0.14888490832E+03 -0.39113253116E+01  0.14894149201E+03  0.00000000000E+00 0.  1.
<mgrwt>
<rscale>  0 0.17388644E+04</rscale>
<asrwt>0</asrwt>
<pdfrwt beam="1">  1        3 0.76043544E-01 0.17388644E+04</pdfrwt>
<pdfrwt beam="2">  1       -3 0.23527858E+00 0.17388644E+04</pdfrwt>
<totfact> 0.36060923E-01</totfact>
</mgrwt>
</event>
<event>
12    1  0.1541840E-007  0.2690843E+04  0.7818608E-02  0.8337982E-01
         -1   -1    0    0    0  501 -0.00000000000E+00  0.00000000000E+00  0.18289021973E+04  0.18289021973E+04  0.00000000000E+00 0.  1.
          1   -1    0    0  501    0  0.00000000000E+00 -0.00000000000E+00 -0.98975155967E+03  0.98975155967E+03  0.00000000000E+00 0. -1.
         23    2    1    2    0    0 -0.28288426959E+03 -0.77164087474E+03  0.12807696358E+04  0.15244439871E+04  0.90030330276E+02 0.  0.
        254    2    1    2    0    0  0.28288426959E+03  0.77164087474E+03 -0.44161899813E+03  0.12942097699E+04  0.89693836987E+03 0.  0.
        -24    2    4    4    0    0  0.59566920172E+03  0.49593643168E+03 -0.19631690449E+03  0.80399414375E+03  0.84211127806E+02 0.  0.
         24    2    4    4    0    0 -0.31278493213E+03  0.27570444307E+03 -0.24530209364E+03  0.49021562612E+03  0.79315126237E+02 0.  0.
         11    1    3    3    0    0 -0.56728829266E+01 -0.94511393676E+02  0.16269592295E+03  0.18824066638E+03  0.00000000000E+00 0. -1.
        -11    1    3    3    0    0 -0.27721138666E+03 -0.67712948107E+03  0.11180737128E+04  0.13362033207E+04  0.00000000000E+00 0.  1.
          2    1    6    6  502    0 -0.28981794322E+03  0.24389124727E+03 -0.19383910200E+03  0.42550085566E+03  0.00000000000E+00 0. -1.
          3    1    5    5  503    0  0.47011751564E+03  0.43328696095E+03 -0.16247762333E+03  0.65965676463E+03  0.00000000000E+00 0. -1.
         -4    1    5    5    0  503  0.12555168608E+03  0.62649470724E+02 -0.33839281159E+02  0.14433737911E+03  0.00000000000E+00 0.  1.
         -1    1    6    6    0  502 -0.22966988915E+02  0.31813195797E+02 -0.51462991636E+02  0.64714770453E+02  0.00000000000E+00 0.  1.
<mgrwt>
<rscale>  0 0.26908428E+04</rscale>
<asrwt>0</asrwt>
<pdfrwt beam="1">  1        1 0.15226947E+00 0.26908428E+04</pdfrwt>
<pdfrwt beam="2">  1       -1 0.28136957E+00 0.26908428E+04</pdfrwt>
<totfact> 0.58732589E-01</totfact>
</mgrwt>
</event>
<event>
12    1  0.1541840E-007  0.1407595E+04  0.7818608E-02  0.8948339E-01
         -2   -1    0    0    0  501 -0.00000000000E+00  0.00000000000E+00  0.33845120919E+03  0.33845120919E+03  0.00000000000E+00 0. -1.
          2   -1    0    0  501    0  0.00000000000E+00 -0.00000000000E+00 -0.14635216874E+04  0.14635216874E+04  0.00000000000E+00 0.  1.
         23    2    1    2    0    0 -0.44871211722E+03  0.17812361838E+02 -0.46079587135E+03  0.65000457480E+03  0.92267371440E+02 0.  0.
        254    2    1    2    0    0  0.44871211722E+03 -0.17812361838E+02 -0.66427460691E+03  0.11519683218E+04  0.82710967637E+03 0.  0.
        -24    2    4    4    0    0  0.46584730046E+03 -0.31663299034E+03 -0.22059733618E+03  0.61009150894E+03  0.79235766156E+02 0.  0.
         24    2    4    4    0    0 -0.17135183237E+02  0.29882062850E+03 -0.44367727073E+03  0.54187681289E+03  0.84814958979E+02 0.  0.
         13    1    3    3    0    0 -0.26975593498E+03  0.79700301617E+00 -0.21216587439E+03  0.34319565546E+03  0.00000000000E+00 0. -1.
        -13    1    3    3    0    0 -0.17895618224E+03  0.17015358822E+02 -0.24862999696E+03  0.30680891934E+03  0.00000000000E+00 0.  1.
          4    1    6    6  502    0 -0.38699815530E+02  0.86085696413E+02 -0.17145979056E+03  0.19572144141E+03  0.00000000000E+00 0. -1.
          1    1    5    5  503    0  0.39547603159E+03 -0.29967426686E+03 -0.18658586152E+03  0.53011342324E+03  0.00000000000E+00 0. -1.
         -2    1    5    5    0  503  0.70371268867E+02 -0.16958723482E+02 -0.34011474662E+02  0.79978085703E+02  0.00000000000E+00 0.  1.
         -3    1    6    6    0  502  0.21564632294E+02  0.21273493209E+03 -0.27221748018E+03  0.34615537149E+03  0.00000000000E+00 0.  1.
<mgrwt>
<rscale>  0 0.14075947E+04</rscale>
<asrwt>0</asrwt>
<pdfrwt beam="1">  1        2 0.22515718E+00 0.14075947E+04</pdfrwt>
<pdfrwt beam="2">  1       -2 0.52069416E-01 0.14075947E+04</pdfrwt>
<totfact> 0.45085007E+01</totfact>
</mgrwt>
</event>
<event>
12    1  0.1541840E-007  0.4012849E+04  0.7818608E-02  0.8001959E-01
         -2   -1    0    0    0  501 -0.00000000000E+00  0.00000000000E+00  0.97145669070E+03  0.97145669070E+03  0.00000000000E+00 0.  1.
          2   -1    0    0  501    0  0.00000000000E+00 -0.00000000000E+00 -0.41440235588E+04  0.41440235588E+04  0.00000000000E+00 0. -1.
         23    2    1    2    0    0 -0.13531611390E+03 -0.99453204367E+03  0.55428823979E+03  0.11505857351E+04  0.95956471307E+02 0.  0.
        254    2    1    2    0    0  0.13531611390E+03  0.99453204367E+03 -0.37268551079E+04  0.39648945145E+04  0.90748833547E+03 0.  0.
        -24    2    4    4    0    0 -0.89448575785E+02  0.39355534051E+03 -0.39166718591E+03  0.56767512844E+03  0.77233497772E+02 0.  0.
         24    2    4    4    0    0  0.22476468969E+03  0.60097670316E+03 -0.33351879220E+04  0.33972193861E+04  0.76999469634E+02 0.  0.
         13    1    3    3    0    0  0.46919495130E+01 -0.91544235499E+02  0.76740384495E+02  0.11954684461E+03  0.00000000000E+00 0. -1.
        -13    1    3    3    0    0 -0.14000806341E+03 -0.90298780817E+03  0.47754785529E+03  0.10310388904E+04  0.00000000000E+00 0.  1.
          2    1    6    6  502    0  0.16992271728E+03  0.37231914330E+03 -0.19925506722E+04  0.20341468618E+04  0.00000000000E+00 0. -1.
          3    1    5    5  503    0  0.28014850745E+01 -0.27855618966E+01 -0.44659975017E+01  0.59626174947E+01  0.00000000000E+00 0. -1.
         -4    1    5    5    0  503 -0.92250060859E+02  0.39634090240E+03 -0.38720118840E+03  0.56171251094E+03  0.00000000000E+00 0.  1.
         -1    1    6    6    0  502  0.54841972406E+02  0.22865755986E+03 -0.13426372498E+04  0.13630725242E+04  0.00000000000E+00 0.  1.
<mgrwt>
<rscale>  0 0.40128491E+04</rscale>
<asrwt>0</asrwt>
<pdfrwt beam="1">  1        2 0.63754208E+00 0.40128491E+04</pdfrwt>
<pdfrwt beam="2">  1       -2 0.14945488E+00 0.40128491E+04</pdfrwt>
<totfact> 0.61656112E-02</totfact>
</mgrwt>
</event>
<event>
12    1  0.1541840E-007  0.2645080E+04  0.7818608E-02  0.8353048E-01
         -2   -1    0    0    0  501 -0.00000000000E+00  0.00000000000E+00  0.29471993674E+04  0.29471993674E+04  0.00000000000E+00 0.  1.
          2   -1    0    0  501    0  0.00000000000E+00 -0.00000000000E+00 -0.59348290159E+03  0.59348290159E+03  0.00000000000E+00 0. -1.
         23    2    1    2    0    0  0.60541152664E+03 -0.10914843772E+02  0.23733707459E+04  0.24515220250E+04  0.10212390134E+03 0.  0.
        254    2    1    2    0    0 -0.60541152664E+03  0.10914843772E+02 -0.19654280066E+02  0.10891602440E+04  0.90511960313E+03 0.  0.
        -24    2    4    4    0    0 -0.15799213501E+03  0.21957577244E+03 -0.37970033987E+03  0.47287656002E+03  0.79150858218E+02 0.  0.
         24    2    4    4    0    0 -0.44741939163E+03 -0.20866092866E+03  0.36004605980E+03  0.61628368397E+03  0.80305160431E+02 0.  0.
         13    1    3    3    0    0  0.39879704725E+02  0.80397307524E+01  0.85058324959E+02  0.94286514223E+02  0.00000000000E+00 0. -1.
        -13    1    3    3    0    0  0.56553182191E+03 -0.18954574524E+02  0.22883124209E+04  0.23572355108E+04  0.00000000000E+00 0.  1.
          4    1    6    6  502    0 -0.42807863757E+03 -0.18304141657E+03  0.35061665405E+03  0.58282717697E+03  0.00000000000E+00 0. -1.
          3    1    5    5  503    0 -0.12952089462E+03  0.15768964399E+03 -0.22449948332E+03  0.30338375694E+03  0.00000000000E+00 0. -1.
         -4    1    5    5    0  503 -0.28471240394E+02  0.61886128449E+02 -0.15520085655E+03  0.16949280309E+03  0.00000000000E+00 0.  1.
         -3    1    6    6    0  502 -0.19340754060E+02 -0.25619512093E+02  0.94294057531E+01  0.33456506995E+02  0.00000000000E+00 0.  1.
<mgrwt>
<rscale>  0 0.26450803E+04</rscale>
<asrwt>0</asrwt>
<pdfrwt beam="1">  1        2 0.91305063E-01 0.26450803E+04</pdfrwt>
<pdfrwt beam="2">  1       -2 0.45341528E+00 0.26450803E+04</pdfrwt>
<totfact> 0.14574229E-01</totfact>
</mgrwt>
</event>
<event>
12    1  0.1541840E-007  0.1669854E+04  0.7818608E-02  0.8778747E-01
          1   -1    0    0  501    0  0.00000000000E+00  0.00000000000E+00  0.11820055725E+04  0.11820055725E+04  0.00000000000E+00 0. -1.
         -1   -1    0    0    0  501 -0.00000000000E+00 -0.00000000000E+00 -0.58976301247E+03  0.58976301247E+03  0.00000000000E+00 0.  1.
         23    2    1    2    0    0  0.16284936840E+03  0.52920519826E+03  0.41511207481E+03  0.69807989285E+03  0.91757525505E+02 0.  0.
        254    2    1    2    0    0 -0.16284936840E+03 -0.52920519826E+03  0.17713048524E+03  0.10736886921E+04  0.90269271636E+03 0.  0.
        -24    2    4    4    0    0  0.15772636901E+03 -0.53710291974E+03  0.38546295592E+03  0.68435165120E+03  0.79989613313E+02 0.  0.
         24    2    4    4    0    0 -0.32057573742E+03  0.78977214717E+01 -0.20833247068E+03  0.38933704094E+03  0.73141887374E+02 0.  0.
         13    1    3    3    0    0  0.10921054772E+03  0.35571470129E+03  0.22338542710E+03  0.43400569292E+03  0.00000000000E+00 0.  1.
        -13    1    3    3    0    0  0.53638820683E+02  0.17349049697E+03  0.19172664771E+03  0.26407419993E+03  0.00000000000E+00 0. -1.
          4    1    6    6  502    0 -0.19223432923E+03  0.40431230102E+02 -0.12832156570E+03  0.23463833004E+03  0.00000000000E+00 0. -1.
          1    1    5    5  503    0  0.81108025328E+02 -0.20489450087E+03  0.19249610611E+03  0.29260044280E+03  0.00000000000E+00 0. -1.
         -2    1    5    5    0  503  0.76618343684E+02 -0.33220841887E+03  0.19296684981E+03  0.39175120840E+03  0.00000000000E+00 0.  1.
         -3    1    6    6    0  502 -0.12834140819E+03 -0.32533508631E+02 -0.80010904976E+02  0.15469871090E+03  0.00000000000E+00 0.  1.
<mgrwt>
<rscale>  0 0.16698541E+04</rscale>
<asrwt>0</asrwt>
<pdfrwt beam="1">  1        1 0.18184701E+00 0.16698541E+04</pdfrwt>
<pdfrwt beam="2">  1       -1 0.90732771E-01 0.16698541E+04</pdfrwt>
<totfact> 0.12470010E+01</totfact>
</mgrwt>
</event>
<event>
12    1  0.1541840E-007  0.1151653E+04  0.7818608E-02  0.9156260E-01
         -1   -1    0    0    0  501 -0.00000000000E+00  0.00000000000E+00  0.36273971956E+03  0.36273971956E+03  0.00000000000E+00 0.  1.
          1   -1    0    0  501    0  0.00000000000E+00 -0.00000000000E+00 -0.91408831488E+03  0.91408831488E+03  0.00000000000E+00 0. -1.
         23    2    1    2    0    0  0.20170531218E+03  0.51136677846E+02 -0.11629277885E+03  0.25689341648E+03  0.95761287778E+02 0.  0.
        254    2    1    2    0    0 -0.20170531218E+03 -0.51136677846E+02 -0.43505581647E+03  0.10199346180E+04  0.89871745765E+03 0.  0.
        -24    2    4    4    0    0 -0.54153364806E+03  0.53856073460E+02 -0.19661909766E+03  0.58392165180E+03  0.78398069185E+02 0.  0.
         24    2    4    4    0    0  0.33982833587E+03 -0.10499275131E+03 -0.23843671882E+03  0.43601296616E+03  0.82149023668E+02 0.  0.
         13    1    3    3    0    0  0.18884898391E+03  0.45600826077E+02 -0.66769753005E+02  0.20543021682E+03  0.00000000000E+00 0.  1.
        -13    1    3    3    0    0  0.12856328268E+02  0.55358517685E+01 -0.49523025845E+02  0.51463199669E+02  0.00000000000E+00 0. -1.
          2    1    6    6  502    0  0.10236083169E+02 -0.23286850459E+02 -0.15089200281E+02  0.29575982960E+02  0.00000000000E+00 0. -1.
          1    1    5    5  503    0 -0.14390964139E+03  0.22341532413E+02 -0.17509725136E+02  0.14668237600E+03  0.00000000000E+00 0. -1.
         -2    1    5    5    0  503 -0.39762400667E+03  0.31514541047E+02 -0.17910937252E+03  0.43723927580E+03  0.00000000000E+00 0.  1.
         -1    1    6    6    0  502  0.32959225271E+03 -0.81705900847E+02 -0.22334751853E+03  0.40643698320E+03  0.00000000000E+00 0.  1.
<mgrwt>
<rscale>  0 0.11516530E+04</rscale>
<asrwt>0</asrwt>
<pdfrwt beam="1">  1        1 0.14062897E+00 0.11516530E+04</pdfrwt>
<pdfrwt beam="2">  1       -1 0.55806111E-01 0.11516530E+04</pdfrwt>
<totfact> 0.57145115E+01</totfact>
</mgrwt>
</event>
<event>
12    1  0.1541840E-007  0.1585044E+04  0.7818608E-02  0.8829789E-01
         -1   -1    0    0    0  501 -0.00000000000E+00  0.00000000000E+00  0.10205253393E+04  0.10205253393E+04  0.00000000000E+00 0.  1.
          1   -1    0    0  501    0  0.00000000000E+00 -0.00000000000E+00 -0.61545856466E+03  0.61545856466E+03  0.00000000000E+00 0. -1.
         23    2    1    2    0    0 -0.16246432506E+03 -0.23945913412E+03 -0.34136645495E+03  0.45594760908E+03  0.87303103231E+02 0.  0.
        254    2    1    2    0    0  0.16246432506E+03  0.23945913412E+03  0.74643322957E+03  0.11800362949E+04  0.86694161116E+03 0.  0.
        -24    2    4    4    0    0 -0.38685301114E+02  0.70297383134E+02 -0.18090152542E+03  0.21290005983E+03  0.78503496610E+02 0.  0.
         24    2    4    4    0    0  0.20114962618E+03  0.16916175098E+03  0.92733475498E+03  0.96713623504E+03  0.79535395973E+02 0.  0.
         13    1    3    3    0    0 -0.89642136618E+02 -0.20027983174E+03 -0.25393476567E+03  0.33560481057E+03  0.00000000000E+00 0.  1.
        -13    1    3    3    0    0 -0.72822188445E+02 -0.39179302377E+02 -0.87431689277E+02  0.12034279852E+03  0.00000000000E+00 0. -1.
          2    1    6    6  502    0 -0.22684304734E+01  0.95577862073E+01  0.98345704084E+01  0.13900209679E+02  0.00000000000E+00 0. -1.
          3    1    5    5  503    0  0.98413622816E+01  0.32558067754E+02 -0.17361683108E+02  0.38187802081E+02  0.00000000000E+00 0. -1.
         -4    1    5    5    0  503 -0.48526663395E+02  0.37739315380E+02 -0.16353984231E+03  0.17471225775E+03  0.00000000000E+00 0.  1.
         -1    1    6    6    0  502  0.20341805665E+03  0.15960396478E+03  0.91750018458E+03  0.95323602536E+03  0.00000000000E+00 0.  1.
<mgrwt>
<rscale>  0 0.15850439E+04</rscale>
<asrwt>0</asrwt>
<pdfrwt beam="1">  1        1 0.94685933E-01 0.15850439E+04</pdfrwt>
<pdfrwt beam="2">  1       -1 0.15700390E+00 0.15850439E+04</pdfrwt>
<totfact> 0.97666971E+00</totfact>
</mgrwt>
</event>
<event>
12    1  0.1541840E-007  0.2495297E+04  0.7818608E-02  0.8404663E-01
         -1   -1    0    0    0  501 -0.00000000000E+00  0.00000000000E+00  0.26901497869E+04  0.26901497869E+04  0.00000000000E+00 0.  1.
          1   -1    0    0  501    0  0.00000000000E+00 -0.00000000000E+00 -0.57863936334E+03  0.57863936334E+03  0.00000000000E+00 0. -1.
         23    2    1    2    0    0  0.31597664051E+03 -0.93990330798E+03  0.34635533612E+03  0.10547596407E+04  0.96417919030E+02 0.  0.
        254    2    1    2    0    0 -0.31597664051E+03  0.93990330798E+03  0.17651550874E+04  0.22140295095E+04  0.89604392788E+03 0.  0.
        -24    2    4    4    0    0 -0.20063786110E+03  0.83996232086E+03  0.64597728769E+03  0.10813607779E+04  0.79134215075E+02 0.  0.
         24    2    4    4    0    0 -0.11533877941E+03  0.99940987112E+02  0.11191777997E+04  0.11326687316E+04  0.84191883451E+02 0.  0.
         13    1    3    3    0    0  0.92925730586E+02 -0.20182990122E+03  0.43733643820E+02  0.22645779305E+03  0.00000000000E+00 0.  1.
        -13    1    3    3    0    0  0.22305090992E+03 -0.73807340676E+03  0.30262169230E+03  0.82830184766E+03  0.00000000000E+00 0. -1.
          2    1    6    6  502    0 -0.93702549726E+01  0.26482264872E+02  0.67440169482E+02  0.73056748428E+02  0.00000000000E+00 0. -1.
          1    1    5    5  503    0  0.60951991881E+00  0.11492833502E+02  0.22080782234E+02  0.24900154226E+02  0.00000000000E+00 0. -1.
         -2    1    5    5    0  503 -0.20124738102E+03  0.82846948736E+03  0.62389650546E+03  0.10564606237E+04  0.00000000000E+00 0.  1.
         -1    1    6    6    0  502 -0.10596852444E+03  0.73458722240E+02  0.10517376302E+04  0.10596119832E+04  0.00000000000E+00 0.  1.
<mgrwt>
<rscale>  0 0.24952968E+04</rscale>
<asrwt>0</asrwt>
<pdfrwt beam="1">  1        1 0.89021442E-01 0.24952968E+04</pdfrwt>
<pdfrwt beam="2">  1       -1 0.41386919E+00 0.24952968E+04</pdfrwt>
<totfact> 0.18427717E-01</totfact>
</mgrwt>
</event>
<event>
12    1  0.1541840E-007  0.1280714E+04  0.7818608E-02  0.9045001E-01
         -2   -1    0    0    0  501 -0.00000000000E+00  0.00000000000E+00  0.31344269754E+03  0.31344269754E+03  0.00000000000E+00 0.  1.
          2   -1    0    0  501    0  0.00000000000E+00 -0.00000000000E+00 -0.13082352971E+04  0.13082352971E+04  0.00000000000E+00 0. -1.
         23    2    1    2    0    0  0.10816699847E+03 -0.13115155704E+03  0.83954777044E+02  0.21048394098E+03  0.91401610230E+02 0.  0.
        254    2    1    2    0    0 -0.10816699847E+03  0.13115155704E+03 -0.10787473766E+04  0.14111940536E+04  0.89379635491E+03 0.  0.
        -24    2    4    4    0    0 -0.14672387709E+03  0.49348935045E+03 -0.75088312260E+03  0.91454246021E+03  0.86618777387E+02 0.  0.
         24    2    4    4    0    0  0.38556878621E+02 -0.36233779342E+03 -0.32786425398E+03  0.49665159342E+03  0.79953278744E+02 0.  0.
         11    1    3    3    0    0  0.22663998412E+01 -0.19546360356E+02 -0.17383038506E+02  0.26255795533E+02  0.00000000000E+00 0. -1.
        -11    1    3    3    0    0  0.10590059862E+03 -0.11160519668E+03  0.10133781555E+03  0.18422814545E+03  0.00000000000E+00 0.  1.
          2    1    6    6  502    0  0.57002736151E+02 -0.33540604957E+03 -0.30354670212E+03  0.45594641174E+03  0.00000000000E+00 0. -1.
          1    1    5    5  503    0 -0.74160772707E+02  0.38025527689E+03 -0.54717680774E+03  0.67044489314E+03  0.00000000000E+00 0. -1.
         -2    1    5    5    0  503 -0.72563104379E+02  0.11323407356E+03 -0.20370631486E+03  0.24409756706E+03  0.00000000000E+00 0.  1.
         -1    1    6    6    0  502 -0.18445857530E+02 -0.26931743853E+02 -0.24317551859E+02  0.40705181678E+02  0.00000000000E+00 0.  1.
<mgrwt>
<rscale>  0 0.12807136E+04</rscale>
<asrwt>0</asrwt>
<pdfrwt beam="1">  1        2 0.20126697E+00 0.12807136E+04</pdfrwt>
<pdfrwt beam="2">  1       -2 0.48221953E-01 0.12807136E+04</pdfrwt>
<totfact> 0.65348732E+01</totfact>
</mgrwt>
</event>
<event>
12    1  0.1541840E-007  0.2169730E+04  0.7818608E-02  0.8531134E-01
         -2   -1    0    0    0  501 -0.00000000000E+00  0.00000000000E+00  0.96484926549E+03  0.96484926549E+03  0.00000000000E+00 0.  1.
          2   -1    0    0  501    0  0.00000000000E+00 -0.00000000000E+00 -0.12198089953E+04  0.12198089953E+04  0.00000000000E+00 0. -1.
         23    2    1    2    0    0 -0.78396216529E+03 -0.21675307623E+03  0.27248466088E+03  0.86257705631E+03  0.90624031056E+02 0.  0.
        254    2    1    2    0    0  0.78396216529E+03  0.21675307623E+03 -0.52744439071E+03  0.13220812045E+04  0.89895636900E+03 0.  0.
        -24    2    4    4    0    0  0.11376627054E+03 -0.31459023956E+03 -0.23046362247E+03  0.41325617212E+03  0.75877528801E+02 0.  0.
         24    2    4    4    0    0  0.67019589475E+03  0.53134331579E+03 -0.29698076825E+03  0.90882503238E+03  0.79228190747E+02 0.  0.
         13    1    3    3    0    0 -0.66051047885E+03 -0.17978272099E+03  0.19323937364E+03  0.71129274913E+03  0.00000000000E+00 0.  1.
        -13    1    3    3    0    0 -0.12345168644E+03 -0.36970355235E+02  0.79245287239E+02  0.15128430719E+03  0.00000000000E+00 0. -1.
          2    1    6    6  502    0  0.59441113279E+03  0.44723928331E+03 -0.27750862668E+03  0.79395126374E+03  0.00000000000E+00 0. -1.
          3    1    5    5  503    0  0.88108970796E+02 -0.22735175071E+03 -0.12499592381E+03  0.27399998221E+03  0.00000000000E+00 0. -1.
         -4    1    5    5    0  503  0.25657299743E+02 -0.87238488856E+02 -0.10546769866E+03  0.13925618991E+03  0.00000000000E+00 0.  1.
         -1    1    6    6    0  502  0.75784761962E+02  0.84104032478E+02 -0.19472141565E+02  0.11487376864E+03  0.00000000000E+00 0.  1.
<mgrwt>
<rscale>  0 0.21697298E+04</rscale>
<asrwt>0</asrwt>
<pdfrwt beam="1">  1        2 0.18766292E+00 0.21697298E+04</pdfrwt>
<pdfrwt beam="2">  1       -2 0.14843835E+00 0.21697298E+04</pdfrwt>
<totfact> 0.52032272E+00</totfact>
</mgrwt>
</event>
<event>
12    1  0.1541840E-007  0.1116909E+04  0.7818608E-02  0.9188867E-01
         -1   -1    0    0    0  501 -0.00000000000E+00  0.00000000000E+00  0.15451043984E+03  0.15451043984E+03  0.00000000000E+00 0.  1.
          1   -1    0    0  501    0  0.00000000000E+00 -0.00000000000E+00 -0.20184472065E+04  0.20184472065E+04  0.00000000000E+00 0. -1.
         23    2    1    2    0    0  0.10987103598E+03  0.19482626373E+03 -0.29278942088E+03  0.37973343018E+03  0.91885338507E+02 0.  0.
        254    2    1    2    0    0 -0.10987103598E+03 -0.19482626373E+03 -0.15711473458E+04  0.17932242162E+04  0.83493723700E+03 0.  0.
        -24    2    4    4    0    0 -0.31505153284E+03 -0.36621090367E+03 -0.55912437359E+03  0.74323498743E+03  0.80064268469E+02 0.  0.
         24    2    4    4    0    0  0.20518049686E+03  0.17138463994E+03 -0.10120229722E+04  0.10499892288E+04  0.82553940760E+02 0.  0.
         11    1    3    3    0    0  0.11461351216E+03  0.19955725594E+03 -0.26421342427E+03  0.35038277516E+03  0.00000000000E+00 0.  1.
        -11    1    3    3    0    0 -0.47424761773E+01 -0.47309922120E+01 -0.28575996615E+02  0.29350655021E+02  0.00000000000E+00 0. -1.
          4    1    6    6  502    0  0.14535378463E+03  0.16315079168E+03 -0.82573805023E+03  0.85415995641E+03  0.00000000000E+00 0. -1.
          1    1    5    5  503    0 -0.29455806910E+03 -0.31664572181E+03 -0.46589505131E+03  0.63567850998E+03  0.00000000000E+00 0. -1.
         -2    1    5    5    0  503 -0.20493463739E+02 -0.49565181853E+02 -0.93229322283E+02  0.10755647745E+03  0.00000000000E+00 0.  1.
         -3    1    6    6    0  502  0.59826712231E+02  0.82338482563E+01 -0.18628492200E+03  0.19582927237E+03  0.00000000000E+00 0.  1.
<mgrwt>
<rscale>  0 0.11169085E+04</rscale>
<asrwt>0</asrwt>
<pdfrwt beam="1">  1        1 0.31053033E+00 0.11169085E+04</pdfrwt>
<pdfrwt beam="2">  1       -1 0.23770838E-01 0.11169085E+04</pdfrwt>
<totfact> 0.44135825E+01</totfact>
</mgrwt>
</event>
<event>
12    1  0.1541840E-007  0.2550533E+04  0.7818608E-02  0.8385201E-01
          2   -1    0    0  501    0  0.00000000000E+00  0.00000000000E+00  0.15883182972E+04  0.15883182972E+04  0.00000000000E+00 0. -1.
         -2   -1    0    0    0  501 -0.00000000000E+00 -0.00000000000E+00 -0.10239158204E+04  0.10239158204E+04  0.00000000000E+00 0.  1.
         23    2    1    2    0    0 -0.18740371015E+02  0.72308356296E+03 -0.61922029478E+03  0.95732102805E+03  0.99139985663E+02 0.  0.
        254    2    1    2    0    0  0.18740371015E+02 -0.72308356296E+03  0.11836227716E+04  0.16549130895E+04  0.90253721693E+03 0.  0.
        -24    2    4    4    0    0 -0.19715970265E+02 -0.70396390850E+03  0.13160680324E+04  0.14946790839E+04  0.77952510885E+02 0.  0.
         24    2    4    4    0    0  0.38456341281E+02 -0.19119654454E+02 -0.13244526077E+03  0.16023400567E+03  0.79301564296E+02 0.  0.
         11    1    3    3    0    0 -0.12902400221E+02  0.14361305248E+03 -0.75866252065E+02  0.16293209928E+03  0.00000000000E+00 0. -1.
        -11    1    3    3    0    0 -0.58379707948E+01  0.57947051047E+03 -0.54335404272E+03  0.79438892877E+03  0.00000000000E+00 0.  1.
          2    1    6    6  502    0  0.47908530032E+02 -0.18330943210E+02 -0.34471966526E+02  0.61802647232E+02  0.00000000000E+00 0. -1.
          1    1    5    5  503    0 -0.24520980822E+02 -0.10245661988E+03  0.23485715756E+03  0.25740342249E+03  0.00000000000E+00 0. -1.
         -2    1    5    5    0  503  0.48050105566E+01 -0.60150728863E+03  0.10812108748E+04  0.12372756614E+04  0.00000000000E+00 0.  1.
         -1    1    6    6    0  502 -0.94521887516E+01 -0.78871124437E+00 -0.97973294249E+02  0.98431358436E+02  0.00000000000E+00 0.  1.
<mgrwt>
<rscale>  0 0.25505327E+04</rscale>
<asrwt>0</asrwt>
<pdfrwt beam="1">  1        2 0.24435666E+00 0.25505327E+04</pdfrwt>
<pdfrwt beam="2">  1       -2 0.15752551E+00 0.25505327E+04</pdfrwt>
<totfact> 0.26428933E+00</totfact>
</mgrwt>
</event>
<event>
12    1  0.1541840E-007  0.1161385E+04  0.7818608E-02  0.9147344E-01
         -1   -1    0    0    0  501 -0.00000000000E+00  0.00000000000E+00  0.19530446221E+03  0.19530446221E+03  0.00000000000E+00 0.  1.
          1   -1    0    0  501    0  0.00000000000E+00 -0.00000000000E+00 -0.17265539332E+04  0.17265539332E+04  0.00000000000E+00 0. -1.
         23    2    1    2    0    0  0.11599206174E+03 -0.40286307663E+02 -0.59885688299E+03  0.61818184957E+03  0.91880835095E+02 0.  0.
        254    2    1    2    0    0 -0.11599206174E+03  0.40286307663E+02 -0.93239258796E+03  0.13036765458E+04  0.90285073684E+03 0.  0.
        -24    2    4    4    0    0 -0.33215719313E+03  0.29150432726E+03 -0.83651317056E+03  0.94952169443E+03  0.80833099036E+02 0.  0.
         24    2    4    4    0    0  0.21616513139E+03 -0.25121801960E+03 -0.95879417399E+02  0.35415485137E+03  0.79968360409E+02 0.  0.
         11    1    3    3    0    0  0.99789492119E+02 -0.16461827635E+02 -0.27435070682E+03  0.29239911908E+03  0.00000000000E+00 0.  1.
        -11    1    3    3    0    0  0.16202569623E+02 -0.23824480028E+02 -0.32450617617E+03  0.32578273048E+03  0.00000000000E+00 0. -1.
          2    1    6    6  502    0  0.23650699102E+02 -0.15316682015E+01  0.26112119738E+01  0.23843657510E+02  0.00000000000E+00 0. -1.
          3    1    5    5  503    0 -0.80763324875E+02  0.11095842861E+03 -0.30510713461E+03  0.33455171665E+03  0.00000000000E+00 0. -1.
         -4    1    5    5    0  503 -0.25139386826E+03  0.18054589865E+03 -0.53140603595E+03  0.61496997777E+03  0.00000000000E+00 0.  1.
         -1    1    6    6    0  502  0.19251443229E+03 -0.24968635140E+03 -0.98490629372E+02  0.33031119386E+03  0.00000000000E+00 0.  1.
<mgrwt>
<rscale>  0 0.11613848E+04</rscale>
<asrwt>0</asrwt>
<pdfrwt beam="1">  1        1 0.26562370E+00 0.11613848E+04</pdfrwt>
<pdfrwt beam="2">  1       -1 0.30046839E-01 0.11613848E+04</pdfrwt>
<totfact> 0.46188587E+01</totfact>
</mgrwt>
</event>
<event>
12    1  0.1541840E-007  0.2342313E+04  0.7818608E-02  0.8461422E-01
         -1   -1    0    0    0  501 -0.00000000000E+00  0.00000000000E+00  0.24316704617E+04  0.24316704617E+04  0.00000000000E+00 0.  1.
          1   -1    0    0  501    0  0.00000000000E+00 -0.00000000000E+00 -0.56405996939E+03  0.56405996939E+03  0.00000000000E+00 0. -1.
         23    2    1    2    0    0 -0.87225795437E+03  0.46490762980E+02  0.14059618038E+04  0.16576873688E+04  0.90573112343E+02 0.  0.
        254    2    1    2    0    0  0.87225795437E+03 -0.46490762980E+02  0.46164868843E+03  0.13380430623E+04  0.90235491633E+03 0.  0.
        -24    2    4    4    0    0  0.29280778030E+03  0.41256704763E+03  0.19802969401E+03  0.54917971250E+03  0.80216157414E+02 0.  0.
         24    2    4    4    0    0  0.57945017407E+03 -0.45905781061E+03  0.26361899442E+03  0.78886334980E+03  0.79459629498E+02 0.  0.
         11    1    3    3    0    0 -0.17481827471E+03 -0.18239720909E+02  0.32847844563E+03  0.37254825974E+03  0.00000000000E+00 0.  1.
        -11    1    3    3    0    0 -0.69743967967E+03  0.64730483889E+02  0.10774833582E+04  0.12851391090E+04  0.00000000000E+00 0. -1.
          2    1    6    6  502    0  0.12868661424E+03 -0.74099022193E+02  0.77831919675E+02  0.16765654623E+03  0.00000000000E+00 0. -1.
          3    1    5    5  503    0  0.13571565376E+02  0.52570502615E+02  0.55041952409E+01  0.54572349200E+02  0.00000000000E+00 0. -1.
         -4    1    5    5    0  503  0.27923621493E+03  0.35999654502E+03  0.19252549877E+03  0.49460736330E+03  0.00000000000E+00 0.  1.
         -1    1    6    6    0  502  0.45076355983E+03 -0.38495878842E+03  0.18578707474E+03  0.62120680357E+03  0.00000000000E+00 0.  1.
<mgrwt>
<rscale>  0 0.23423134E+04</rscale>
<asrwt>0</asrwt>
<pdfrwt beam="1">  1        1 0.86778458E-01 0.23423134E+04</pdfrwt>
<pdfrwt beam="2">  1       -1 0.37410314E+00 0.23423134E+04</pdfrwt>
<totfact> 0.36163815E-01</totfact>
</mgrwt>
</event>
<event>
12    1  0.1541840E-007  0.1459750E+04  0.7818608E-02  0.8911669E-01
         -2   -1    0    0    0  501 -0.00000000000E+00  0.00000000000E+00  0.30185673629E+03  0.30185673629E+03  0.00000000000E+00 0. -1.
          2   -1    0    0  501    0  0.00000000000E+00 -0.00000000000E+00 -0.17648032778E+04  0.17648032778E+04  0.00000000000E+00 0.  1.
         23    2    1    2    0    0  0.43846054247E+03 -0.85196186017E+01 -0.47289725659E+03  0.65139282800E+03  0.91436151885E+02 0.  0.
        254    2    1    2    0    0 -0.43846054247E+03  0.85196186017E+01 -0.99004928493E+03  0.14152671861E+04  0.91129764088E+03 0.  0.
        -24    2    4    4    0    0 -0.48209052460E+03  0.37208575039E+03 -0.75275434125E+03  0.97128003206E+03  0.76724981877E+02 0.  0.
         24    2    4    4    0    0  0.43629982135E+02 -0.36356613179E+03 -0.23729494368E+03  0.44398715405E+03  0.82047517595E+02 0.  0.
         11    1    3    3    0    0  0.28712448621E+03 -0.22043325878E+02 -0.24833462528E+03  0.38025841859E+03  0.00000000000E+00 0.  1.
        -11    1    3    3    0    0  0.15133605626E+03  0.13523707277E+02 -0.22456263131E+03  0.27113440941E+03  0.00000000000E+00 0. -1.
          2    1    6    6  502    0 -0.16040852979E+01 -0.22431353771E+03 -0.17658485196E+03  0.28548440628E+03  0.00000000000E+00 0. -1.
          1    1    5    5  503    0 -0.40592492000E+03  0.33730726537E+03 -0.67656459278E+03  0.85807393629E+03  0.00000000000E+00 0. -1.
         -4    1    5    5    0  503 -0.76165604607E+02  0.34778485019E+02 -0.76189748470E+02  0.11320609576E+03  0.00000000000E+00 0.  1.
         -1    1    6    6    0  502  0.45234067433E+02 -0.13925259408E+03 -0.60710091725E+02  0.15850274777E+03  0.00000000000E+00 0.  1.
<mgrwt>
<rscale>  0 0.14597503E+04</rscale>
<asrwt>0</asrwt>
<pdfrwt beam="1">  1        2 0.27150820E+00 0.14597503E+04</pdfrwt>
<pdfrwt beam="2">  1       -2 0.46439498E-01 0.14597503E+04</pdfrwt>
<totfact> 0.38450893E+01</totfact>
</mgrwt>
</event>
<event>
12    1  0.1541840E-007  0.2239735E+04  0.7818608E-02  0.8502069E-01
         -2   -1    0    0    0  501 -0.00000000000E+00  0.00000000000E+00  0.78074298845E+03  0.78074298845E+03  0.00000000000E+00 0.  1.
          2   -1    0    0  501    0  0.00000000000E+00 -0.00000000000E+00 -0.16062939881E+04  0.16062939881E+04  0.00000000000E+00 0. -1.
         23    2    1    2    0    0 -0.64696119809E+03 -0.17746535340E+03 -0.10402780046E+04  0.12412961022E+04  0.92654967266E+02 0.  0.
        254    2    1    2    0    0  0.64696119809E+03  0.17746535340E+03  0.21472700494E+03  0.11457408744E+04  0.90363804759E+03 0.  0.
        -24    2    4    4    0    0  0.19337339175E+03 -0.15338378968E+03 -0.28847109687E+03  0.38770553727E+03  0.78613957595E+02 0.  0.
         24    2    4    4    0    0  0.45358780635E+03  0.33084914308E+03  0.50319810181E+03  0.75803533710E+03  0.78779369604E+02 0.  0.
         13    1    3    3    0    0 -0.26484817441E+03 -0.32461295545E+02 -0.36851596972E+03  0.45497506650E+03  0.00000000000E+00 0.  1.
        -13    1    3    3    0    0 -0.38211302368E+03 -0.14500405786E+03 -0.67176203486E+03  0.78632103567E+03  0.00000000000E+00 0. -1.
          4    1    6    6  502    0  0.24327532403E+03  0.22440566004E+03  0.28286597992E+03  0.43537793483E+03  0.00000000000E+00 0. -1.
          3    1    5    5  503    0  0.15643759329E+03 -0.12343352242E+03 -0.17705253098E+03  0.26656360175E+03  0.00000000000E+00 0. -1.
         -4    1    5    5    0  503  0.36935798455E+02 -0.29950267262E+02 -0.11141856589E+03  0.12114193552E+03  0.00000000000E+00 0.  1.
         -3    1    6    6    0  502  0.21031248231E+03  0.10644348304E+03  0.22033212189E+03  0.32265740227E+03  0.00000000000E+00 0.  1.
<mgrwt>
<rscale>  0 0.22397346E+04</rscale>
<asrwt>0</asrwt>
<pdfrwt beam="1">  1        2 0.24712215E+00 0.22397346E+04</pdfrwt>
<pdfrwt beam="2">  1       -2 0.12011431E+00 0.22397346E+04</pdfrwt>
<totfact> 0.53396022E+00</totfact>
</mgrwt>
</event>
<event>
12    1  0.1541840E-007  0.1546996E+04  0.7818608E-02  0.8853789E-01
         -2   -1    0    0    0  501 -0.00000000000E+00  0.00000000000E+00  0.16513390680E+03  0.16513390680E+03  0.00000000000E+00 0.  1.
          2   -1    0    0  501    0  0.00000000000E+00 -0.00000000000E+00 -0.36231135099E+04  0.36231135099E+04  0.00000000000E+00 0. -1.
         23    2    1    2    0    0  0.86618958648E+02 -0.13476182809E+03 -0.23472097573E+04  0.23547167045E+04  0.98150494285E+02 0.  0.
        254    2    1    2    0    0 -0.86618958648E+02  0.13476182809E+03 -0.11107698458E+04  0.14335307122E+04  0.89192884139E+03 0.  0.
        -24    2    4    4    0    0 -0.15769986012E+02  0.48993839142E+03 -0.83421892968E+03  0.97097985004E+03  0.81193144474E+02 0.  0.
         24    2    4    4    0    0 -0.70848972637E+02 -0.35517656333E+03 -0.27655091614E+03  0.46255086215E+03  0.79390949069E+02 0.  0.
         11    1    3    3    0    0  0.54976260726E+02 -0.63266184131E+02 -0.60793891520E+03  0.61368943604E+03  0.00000000000E+00 0.  1.
        -11    1    3    3    0    0  0.31642697923E+02 -0.71495643957E+02 -0.17392708421E+04  0.17410272685E+04  0.00000000000E+00 0. -1.
          2    1    6    6  502    0  0.42630892798E+01 -0.19013565352E+02 -0.40600781207E+02  0.45034575964E+02  0.00000000000E+00 0. -1.
          3    1    5    5  503    0 -0.43654366256E+02  0.17911322647E+03 -0.32975521689E+03  0.37779062277E+03  0.00000000000E+00 0. -1.
         -4    1    5    5    0  503  0.27884380244E+02  0.31082516495E+03 -0.50446371280E+03  0.59318922727E+03  0.00000000000E+00 0.  1.
         -1    1    6    6    0  502 -0.75112061916E+02 -0.33616299798E+03 -0.23595013494E+03  0.41751628618E+03  0.00000000000E+00 0.  1.
<mgrwt>
<rscale>  0 0.15469957E+04</rscale>
<asrwt>0</asrwt>
<pdfrwt beam="1">  1        2 0.55740204E+00 0.15469957E+04</pdfrwt>
<pdfrwt beam="2">  1       -2 0.25405218E-01 0.15469957E+04</pdfrwt>
<totfact> 0.90469742E+00</totfact>
</mgrwt>
</event>
<event>
12    1  0.1541840E-007  0.1188071E+04  0.7818608E-02  0.9123363E-01
         -1   -1    0    0    0  501 -0.00000000000E+00  0.00000000000E+00  0.11640630829E+03  0.11640630829E+03  0.00000000000E+00 0.  1.
          1   -1    0    0  501    0  0.00000000000E+00 -0.00000000000E+00 -0.30314326333E+04  0.30314326333E+04  0.00000000000E+00 0. -1.
         23    2    1    2    0    0  0.17468556271E+03 -0.44450052221E+01 -0.17806749449E+03  0.26867874006E+03  0.99726771107E+02 0.  0.
        254    2    1    2    0    0 -0.17468556271E+03  0.44450052221E+01 -0.27369588305E+04  0.28791602015E+04  0.87640459964E+03 0.  0.
        -24    2    4    4    0    0 -0.31681829878E+03  0.23236485415E+03 -0.24300463050E+04  0.24629924941E+04  0.82702611892E+02 0.  0.
         24    2    4    4    0    0  0.14213273607E+03 -0.22791984893E+03 -0.30691252558E+03  0.41616770743E+03  0.82771312350E+02 0.  0.
         13    1    3    3    0    0  0.84396335954E+02 -0.21464888087E+01 -0.15332719805E+03  0.17503307858E+03  0.00000000000E+00 0. -1.
        -13    1    3    3    0    0  0.90289226758E+02 -0.22985164133E+01 -0.24740296447E+02  0.93645661483E+02  0.00000000000E+00 0.  1.
          4    1    6    6  502    0  0.14252687415E+03 -0.21538383228E+03 -0.30976078783E+03  0.40330615014E+03  0.00000000000E+00 0. -1.
          1    1    5    5  503    0 -0.25653588737E+03  0.21370576402E+03 -0.21612127317E+04  0.21868519124E+04  0.00000000000E+00 0. -1.
         -2    1    5    5    0  503 -0.60282411416E+02  0.18659090125E+02 -0.26883357328E+03  0.27614058176E+03  0.00000000000E+00 0.  1.
         -3    1    6    6    0  502 -0.39413807927E+00 -0.12536016642E+02  0.28482622442E+01  0.12861557289E+02  0.00000000000E+00 0.  1.
<mgrwt>
<rscale>  0 0.11880705E+04</rscale>
<asrwt>0</asrwt>
<pdfrwt beam="1">  1        1 0.46637418E+00 0.11880705E+04</pdfrwt>
<pdfrwt beam="2">  1       -1 0.17908666E-01 0.11880705E+04</pdfrwt>
<totfact> 0.14004562E+01</totfact>
</mgrwt>
</event>
<event>
12    1  0.1541840E-007  0.1585271E+04  0.7818608E-02  0.8829648E-01
          1   -1    0    0  501    0  0.00000000000E+00  0.00000000000E+00  0.52407227017E+03  0.52407227017E+03  0.00000000000E+00 0. -1.
         -1   -1    0    0    0  501 -0.00000000000E+00 -0.00000000000E+00 -0.11988257678E+04  0.11988257678E+04  0.00000000000E+00 0.  1.
         23    2    1    2    0    0  0.42451253334E+03  0.22296981512E+03 -0.49418516156E+03  0.69431077096E+03  0.89005861347E+02 0.  0.
        254    2    1    2    0    0 -0.42451253334E+03 -0.22296981512E+03 -0.18056833610E+03  0.10285872670E+04  0.89188587414E+03 0.  0.
        -24    2    4    4    0    0 -0.61146839030E+03 -0.25940605609E+03 -0.35561713735E+03  0.75754462093E+03  0.78900000297E+02 0.  0.
         24    2    4    4    0    0  0.18695585696E+03  0.36436240968E+02  0.17504880125E+03  0.27104264611E+03  0.80882266798E+02 0.  0.
         13    1    3    3    0    0  0.35845488549E+02  0.56408409118E+01 -0.72291332945E+02  0.80887297856E+02  0.00000000000E+00 0.  1.
        -13    1    3    3    0    0  0.38866704479E+03  0.21732897421E+03 -0.42189382861E+03  0.61342347311E+03  0.00000000000E+00 0. -1.
          2    1    6    6  502    0  0.11845112844E+03  0.62128142282E+02  0.11472019543E+03  0.17621378815E+03  0.00000000000E+00 0. -1.
          3    1    5    5  503    0 -0.50034164371E+03 -0.24221822352E+03 -0.30710069337E+03  0.63507658129E+03  0.00000000000E+00 0. -1.
         -2    1    5    5    0  503 -0.11112674660E+03 -0.17187832576E+02 -0.48516443979E+02  0.12246803964E+03  0.00000000000E+00 0.  1.
         -1    1    6    6    0  502  0.68504728525E+02 -0.25691901314E+02  0.60328605815E+02  0.94828857965E+02  0.00000000000E+00 0.  1.
<mgrwt>
<rscale>  0 0.15852714E+04</rscale>
<asrwt>0</asrwt>
<pdfrwt beam="1">  1        1 0.80626504E-01 0.15852714E+04</pdfrwt>
<pdfrwt beam="2">  1       -1 0.18443473E+00 0.15852714E+04</pdfrwt>
<totfact> 0.77145962E+00</totfact>
</mgrwt>
</event>
<event>
12    1  0.1541840E-007  0.1586681E+04  0.7818608E-02  0.8828773E-01
          2   -1    0    0  501    0  0.00000000000E+00  0.00000000000E+00  0.14694667324E+04  0.14694667324E+04  0.00000000000E+00 0.  1.
         -2   -1    0    0    0  501 -0.00000000000E+00 -0.00000000000E+00 -0.42831099421E+03  0.42831099421E+03  0.00000000000E+00 0. -1.
         23    2    1    2    0    0 -0.20956019563E+03 -0.30823360158E+03  0.81992388467E+03  0.90526161331E+03  0.91104243317E+02 0.  0.
        254    2    1    2    0    0  0.20956019563E+03  0.30823360158E+03  0.22123185355E+03  0.99251611333E+03  0.89287248444E+03 0.  0.
        -24    2    4    4    0    0 -0.17647649679E+03 -0.16888956928E+03  0.26792646871E+03  0.37178192419E+03  0.82277372234E+02 0.  0.
         24    2    4    4    0    0  0.38603669243E+03  0.47712317086E+03 -0.46694615161E+02  0.62073418915E+03  0.80372249071E+02 0.  0.
         11    1    3    3    0    0 -0.19352784461E+03 -0.23472538637E+03  0.70577100794E+03  0.76854521617E+03  0.00000000000E+00 0.  1.
        -11    1    3    3    0    0 -0.16032351017E+02 -0.73508215208E+02  0.11415287673E+03  0.13671639714E+03  0.00000000000E+00 0. -1.
          4    1    6    6  502    0  0.37157255052E+03  0.44522209913E+03 -0.26960341725E+02  0.58053056585E+03  0.00000000000E+00 0. -1.
          1    1    5    5  503    0 -0.16757033376E+03 -0.17612898211E+03  0.26561715331E+03  0.36007458564E+03  0.00000000000E+00 0. -1.
         -2    1    5    5    0  503 -0.89061630368E+01  0.72394128296E+01  0.23093154089E+01  0.11707338545E+02  0.00000000000E+00 0.  1.
         -3    1    6    6    0  502  0.14464141904E+02  0.31901071730E+02 -0.19734273436E+02  0.40203623301E+02  0.00000000000E+00 0.  1.
<mgrwt>
<rscale>  0 0.15866805E+04</rscale>
<asrwt>0</asrwt>
<pdfrwt beam="1">  1        2 0.22607180E+00 0.15866805E+04</pdfrwt>
<pdfrwt beam="2">  1       -2 0.65894000E-01 0.15866805E+04</pdfrwt>
<totfact> 0.26876443E+01</totfact>
</mgrwt>
</event>
<event>
12    1  0.1541840E-007  0.2303857E+04  0.7818608E-02  0.8476402E-01
          1   -1    0    0  501    0  0.00000000000E+00  0.00000000000E+00  0.38604336391E+03  0.38604336391E+03  0.00000000000E+00 0. -1.
         -1   -1    0    0    0  501 -0.00000000000E+00 -0.00000000000E+00 -0.34372789051E+04  0.34372789051E+04  0.00000000000E+00 0.  1.
         23    2    1    2    0    0 -0.71030486195E+03  0.49608250810E+03 -0.57309948971E+03  0.10427865780E+04  0.91268670907E+02 0.  0.
        254    2    1    2    0    0  0.71030486195E+03 -0.49608250810E+03 -0.24781360515E+04  0.27805356910E+04  0.91629121343E+03 0.  0.
        -24    2    4    4    0    0  0.85752317089E+03 -0.46776978625E+03 -0.24021009497E+04  0.25945467166E+04  0.86192402700E+02 0.  0.
         24    2    4    4    0    0 -0.14721830894E+03 -0.28312721858E+02 -0.76035101727E+02  0.18598897445E+03  0.79597243770E+02 0.  0.
         13    1    3    3    0    0 -0.61458350647E+03  0.42076375909E+03 -0.45314440529E+03  0.87183420409E+03  0.00000000000E+00 0. -1.
        -13    1    3    3    0    0 -0.95721355487E+02  0.75318749018E+02 -0.11995508442E+03  0.17095237386E+03  0.00000000000E+00 0.  1.
          4    1    6    6  502    0 -0.11235526647E+03 -0.23141013330E+02 -0.92238957756E+02  0.14719795423E+03  0.00000000000E+00 0. -1.
          3    1    5    5  503    0  0.60434800144E+03 -0.36720199344E+03 -0.16797671612E+04  0.18225508296E+04  0.00000000000E+00 0. -1.
         -4    1    5    5    0  503  0.25317516945E+03 -0.10056779281E+03 -0.72233378858E+03  0.77199588697E+03  0.00000000000E+00 0.  1.
         -3    1    6    6    0  502 -0.34863042476E+02 -0.51717085279E+01  0.16203856029E+02  0.38791020223E+02  0.00000000000E+00 0.  1.
<mgrwt>
<rscale>  0 0.23038565E+04</rscale>
<asrwt>0</asrwt>
<pdfrwt beam="1">  1        1 0.59391285E-01 0.23038565E+04</pdfrwt>
<pdfrwt beam="2">  1       -1 0.52881215E+00 0.23038565E+04</pdfrwt>
<totfact> 0.55674275E-02</totfact>
</mgrwt>
</event>
<event>
12    1  0.1541840E-007  0.2056234E+04  0.7818608E-02  0.8580772E-01
          2   -1    0    0  501    0  0.00000000000E+00  0.00000000000E+00  0.21554806504E+04  0.21554806504E+04  0.00000000000E+00 0. -1.
         -2   -1    0    0    0  501 -0.00000000000E+00 -0.00000000000E+00 -0.49038924068E+03  0.49038924068E+03  0.00000000000E+00 0.  1.
         23    2    1    2    0    0  0.15850206202E+03  0.18410142044E+03  0.17104785879E+04  0.17300474429E+04  0.91164238502E+02 0.  0.
        254    2    1    2    0    0 -0.15850206202E+03 -0.18410142044E+03 -0.45387178220E+02  0.91582244814E+03  0.88184722254E+03 0.  0.
        -24    2    4    4    0    0  0.28904723696E+03 -0.31670598568E+02 -0.25269184570E+03  0.39355765227E+03  0.80517853723E+02 0.  0.
         24    2    4    4    0    0 -0.44754929897E+03 -0.15243082187E+03  0.20730466748E+03  0.52226479587E+03  0.79055432314E+02 0.  0.
         11    1    3    3    0    0  0.51187777406E+02  0.43640842806E+02  0.24928610321E+03  0.25820200032E+03  0.00000000000E+00 0.  1.
        -11    1    3    3    0    0  0.10731428461E+03  0.14046057764E+03  0.14611924847E+04  0.14718454426E+04  0.00000000000E+00 0. -1.
          4    1    6    6  502    0 -0.82236416208E+02 -0.55218993435E+02  0.64294528386E+02  0.11809213254E+03  0.00000000000E+00 0. -1.
          3    1    5    5  503    0  0.16304349466E+03 -0.55970703675E+02 -0.12881319177E+03  0.21519465420E+03  0.00000000000E+00 0. -1.
         -4    1    5    5    0  503  0.12600374229E+03  0.24300105108E+02 -0.12387865392E+03  0.17836299806E+03  0.00000000000E+00 0.  1.
         -3    1    6    6    0  502 -0.36531288277E+03 -0.97211828440E+02  0.14301013909E+03  0.40417266334E+03  0.00000000000E+00 0.  1.
<mgrwt>
<rscale>  0 0.20562340E+04</rscale>
<asrwt>0</asrwt>
<pdfrwt beam="1">  1        2 0.33161240E+00 0.20562340E+04</pdfrwt>
<pdfrwt beam="2">  1       -2 0.75444500E-01 0.20562340E+04</pdfrwt>
<totfact> 0.79724064E+00</totfact>
</mgrwt>
</event>
<event>
12    1  0.1541840E-007  0.1378698E+04  0.7818608E-02  0.8969384E-01
         -1   -1    0    0    0  501 -0.00000000000E+00  0.00000000000E+00  0.50362352306E+03  0.50362352306E+03  0.00000000000E+00 0.  1.
          1   -1    0    0  501    0  0.00000000000E+00 -0.00000000000E+00 -0.94356593645E+03  0.94356593645E+03  0.00000000000E+00 0. -1.
         23    2    1    2    0    0  0.28783913689E+03  0.14302418496E+03 -0.35770453943E+03  0.48800524216E+03  0.83001762847E+02 0.  0.
        254    2    1    2    0    0 -0.28783913689E+03 -0.14302418496E+03 -0.82237873958E+02  0.95918421735E+03  0.89998000460E+03 0.  0.
        -24    2    4    4    0    0 -0.17864094698E+03  0.31186011530E+03  0.18782352240E+03  0.41344754189E+03  0.80572171868E+02 0.  0.
         24    2    4    4    0    0 -0.10919818991E+03 -0.45488430026E+03 -0.27006139636E+03  0.54573667545E+03  0.77790679565E+02 0.  0.
         11    1    3    3    0    0  0.22032474214E+02  0.33540472368E+02 -0.73620699410E+02  0.83847484090E+02  0.00000000000E+00 0.  1.
        -11    1    3    3    0    0  0.26580666268E+03  0.10948371260E+03 -0.28408384002E+03  0.40415775807E+03  0.00000000000E+00 0. -1.
          2    1    6    6  502    0 -0.92199732222E+02 -0.37218746284E+03 -0.18443499772E+03  0.42548862089E+03  0.00000000000E+00 0. -1.
          3    1    5    5  503    0 -0.15089862813E+03  0.23043406902E+03  0.17535420666E+03  0.32652619180E+03  0.00000000000E+00 0. -1.
         -4    1    5    5    0  503 -0.27742318845E+02  0.81426046281E+02  0.12469315747E+02  0.86921350099E+02  0.00000000000E+00 0.  1.
         -1    1    6    6    0  502 -0.16998457689E+02 -0.82696837415E+02 -0.85626398646E+02  0.12024805457E+03  0.00000000000E+00 0.  1.
<mgrwt>
<rscale>  0 0.13786979E+04</rscale>
<asrwt>0</asrwt>
<pdfrwt beam="1">  1        1 0.14516399E+00 0.13786979E+04</pdfrwt>
<pdfrwt beam="2">  1       -1 0.77480542E-01 0.13786979E+04</pdfrwt>
<totfact> 0.27357693E+01</totfact>
</mgrwt>
</event>
<event>
12    1  0.1541840E-007  0.1773559E+04  0.7818608E-02  0.8720488E-01
          1   -1    0    0  501    0  0.00000000000E+00  0.00000000000E+00  0.24015103408E+04  0.24015103408E+04  0.00000000000E+00 0. -1.
         -1   -1    0    0    0  501 -0.00000000000E+00 -0.00000000000E+00 -0.32745153590E+03  0.32745153590E+03  0.00000000000E+00 0.  1.
         23    2    1    2    0    0  0.39952495643E+03 -0.51217533150E+03  0.92037776256E+03  0.11302203257E+04  0.91427554486E+02 0.  0.
        254    2    1    2    0    0 -0.39952495643E+03  0.51217533150E+03  0.11536810423E+04  0.15987415510E+04  0.89613103872E+03 0.  0.
        -24    2    4    4    0    0 -0.41197252607E+03 -0.21593056080E+02  0.91906214713E+03  0.10104882757E+04  0.78890447929E+02 0.  0.
         24    2    4    4    0    0  0.12447569639E+02  0.53376838758E+03  0.23461889520E+03  0.58825327531E+03  0.77021142265E+02 0.  0.
         11    1    3    3    0    0 -0.37462903532E+01 -0.25091746686E+00  0.95730213149E+01  0.10283014543E+02  0.00000000000E+00 0.  1.
        -11    1    3    3    0    0  0.40327124679E+03 -0.51192441403E+03  0.91080474125E+03  0.11199373111E+04  0.00000000000E+00 0. -1.
          2    1    6    6  502    0 -0.25026868805E+02  0.83436978650E+02  0.29269642863E+02  0.91895514372E+02  0.00000000000E+00 0. -1.
          1    1    5    5  503    0 -0.75936931336E+02  0.26027506150E+02  0.19242271863E+03  0.20849544662E+03  0.00000000000E+00 0. -1.
         -2    1    5    5    0  503 -0.33603559474E+03 -0.47620562230E+02  0.72663942851E+03  0.80199282911E+03  0.00000000000E+00 0.  1.
         -1    1    6    6    0  502  0.37474438444E+02  0.45033140893E+03  0.20534925234E+03  0.49635776094E+03  0.00000000000E+00 0.  1.
<mgrwt>
<rscale>  0 0.17735594E+04</rscale>
<asrwt>0</asrwt>
<pdfrwt beam="1">  1        1 0.36946312E+00 0.17735594E+04</pdfrwt>
<pdfrwt beam="2">  1       -1 0.50377161E-01 0.17735594E+04</pdfrwt>
<totfact> 0.59361423E+00</totfact>
</mgrwt>
</event>
<event>
12    1  0.1541840E-007  0.2034787E+04  0.7818608E-02  0.8590527E-01
          1   -1    0    0  501    0  0.00000000000E+00  0.00000000000E+00  0.84434046163E+03  0.84434046163E+03  0.00000000000E+00 0. -1.
         -1   -1    0    0    0  501 -0.00000000000E+00 -0.00000000000E+00 -0.12259142758E+04  0.12259142758E+04  0.00000000000E+00 0.  1.
         23    2    1    2    0    0 -0.55816548726E+03 -0.58160951672E+03 -0.22642292471E+03  0.84213990056E+03  0.90077356653E+02 0.  0.
        254    2    1    2    0    0  0.55816548726E+03  0.58160951672E+03 -0.15515088946E+03  0.12281148369E+04  0.91344179506E+03 0.  0.
        -24    2    4    4    0    0  0.29320870439E+03 -0.17829774015E+02  0.29883038050E+03  0.42682863333E+03  0.81202467634E+02 0.  0.
         24    2    4    4    0    0  0.26495678286E+03  0.59943929073E+03 -0.45398126996E+03  0.80128620355E+03  0.80193680918E+02 0.  0.
         13    1    3    3    0    0 -0.43602150779E+03 -0.40461497135E+03 -0.14551913944E+03  0.61237557940E+03  0.00000000000E+00 0.  1.
        -13    1    3    3    0    0 -0.12214397947E+03 -0.17699454536E+03 -0.80903785273E+02  0.22976432116E+03  0.00000000000E+00 0. -1.
          4    1    6    6  502    0  0.18755625844E+03  0.48784401199E+03 -0.33561137119E+03  0.62113132475E+03  0.00000000000E+00 0. -1.
          1    1    5    5  503    0  0.14148367841E+03 -0.29396445585E+02  0.96909299547E+02  0.17399193834E+03  0.00000000000E+00 0. -1.
         -2    1    5    5    0  503  0.15172502599E+03  0.11566671570E+02  0.20192108095E+03  0.25283669499E+03  0.00000000000E+00 0.  1.
         -3    1    6    6    0  502  0.77400524427E+02  0.11159527874E+03 -0.11836989877E+03  0.18015487879E+03  0.00000000000E+00 0.  1.
<mgrwt>
<rscale>  0 0.20347865E+04</rscale>
<asrwt>0</asrwt>
<pdfrwt beam="1">  1        1 0.12989853E+00 0.20347865E+04</pdfrwt>
<pdfrwt beam="2">  1       -1 0.18860219E+00 0.20347865E+04</pdfrwt>
<totfact> 0.33849279E+00</totfact>
</mgrwt>
</event>
<event>
12    1  0.1541840E-007  0.3646145E+04  0.7818608E-02  0.8080003E-01
          2   -1    0    0  501    0  0.00000000000E+00  0.00000000000E+00  0.12451611890E+04  0.12451611890E+04  0.00000000000E+00 0. -1.
         -2   -1    0    0    0  501 -0.00000000000E+00 -0.00000000000E+00 -0.26692070306E+04  0.26692070306E+04  0.00000000000E+00 0.  1.
         23    2    1    2    0    0 -0.53897178402E+03  0.16030031092E+04 -0.39276947244E+03  0.17385728042E+04  0.90873455872E+02 0.  0.
        254    2    1    2    0    0  0.53897178402E+03 -0.16030031092E+04 -0.10312763692E+04  0.21757954154E+04  0.90024729268E+03 0.  0.
        -24    2    4    4    0    0  0.52599197657E+03 -0.16810044049E+04 -0.10615956202E+04  0.20580833636E+04  0.79236997787E+02 0.  0.
         24    2    4    4    0    0  0.12979807446E+02  0.78001295668E+02  0.30319251020E+02  0.11771205186E+03  0.81756911905E+02 0.  0.
         13    1    3    3    0    0 -0.24916472129E+02  0.68594366298E+02  0.15442921308E+01  0.72995907484E+02  0.00000000000E+00 0. -1.
        -13    1    3    3    0    0 -0.51405531189E+03  0.15344087429E+04 -0.39431376457E+03  0.16655768968E+04  0.00000000000E+00 0.  1.
          4    1    6    6  502    0  0.17077925258E+02 -0.12505683349E+02 -0.25803182523E+01  0.21323829146E+02  0.00000000000E+00 0. -1.
          3    1    5    5  503    0  0.19611168220E+02 -0.11631702996E+03 -0.84913859010E+02  0.14534308662E+03  0.00000000000E+00 0. -1.
         -2    1    5    5    0  503  0.50638080835E+03 -0.15646873750E+04 -0.97668176118E+03  0.19127402769E+04  0.00000000000E+00 0.  1.
         -3    1    6    6    0  502 -0.40981178120E+01  0.90506979017E+02  0.32899569273E+02  0.96388222718E+02  0.00000000000E+00 0.  1.
<mgrwt>
<rscale>  0 0.36461448E+04</rscale>
<asrwt>0</asrwt>
<pdfrwt beam="1">  1        2 0.19156326E+00 0.36461448E+04</pdfrwt>
<pdfrwt beam="2">  1       -2 0.41064723E+00 0.36461448E+04</pdfrwt>
<totfact> 0.91283941E-02</totfact>
</mgrwt>
</event>
<event>
12    1  0.1541840E-007  0.1725577E+04  0.7818608E-02  0.8746910E-01
         -2   -1    0    0    0  501 -0.00000000000E+00  0.00000000000E+00  0.35691015558E+03  0.35691015558E+03  0.00000000000E+00 0.  1.
          2   -1    0    0  501    0  0.00000000000E+00 -0.00000000000E+00 -0.20856913385E+04  0.20856913385E+04  0.00000000000E+00 0. -1.
         23    2    1    2    0    0 -0.25715246088E+03 -0.40297654862E+03 -0.68972342677E+02  0.49556115820E+03  0.11093327088E+03 0.  0.
        254    2    1    2    0    0  0.25715246088E+03  0.40297654862E+03 -0.16598088402E+04  0.19470403359E+04  0.89860068801E+03 0.  0.
        -24    2    4    4    0    0  0.23308650418E+02  0.64184173291E+02  0.95604236819E+02  0.14232233229E+03  0.80327920955E+02 0.  0.
         24    2    4    4    0    0  0.23384381046E+03  0.33879237533E+03 -0.17554130770E+04  0.18047180036E+04  0.77902503700E+02 0.  0.
         13    1    3    3    0    0 -0.11853295466E+02  0.35567135605E+01 -0.12191343230E+02  0.17371806886E+02  0.00000000000E+00 0. -1.
        -13    1    3    3    0    0 -0.24529916541E+03 -0.40653326218E+03 -0.56780999447E+02  0.47818935131E+03  0.00000000000E+00 0.  1.
          2    1    6    6  502    0  0.81083650532E+02  0.10443875624E+03 -0.42006504987E+03  0.44038240010E+03  0.00000000000E+00 0. -1.
          1    1    5    5  503    0  0.38811326318E+02  0.28642386764E+00  0.26887734518E+02  0.47216007420E+02  0.00000000000E+00 0. -1.
         -2    1    5    5    0  503 -0.15502675901E+02  0.63897749423E+02  0.68716502301E+02  0.95106324868E+02  0.00000000000E+00 0.  1.
         -1    1    6    6    0  502  0.15276015993E+03  0.23435361909E+03 -0.13353480272E+04  0.13643356035E+04  0.00000000000E+00 0.  1.
<mgrwt>
<rscale>  0 0.17255775E+04</rscale>
<asrwt>0</asrwt>
<pdfrwt beam="1">  1        2 0.32087559E+00 0.17255775E+04</pdfrwt>
<pdfrwt beam="2">  1       -2 0.54909255E-01 0.17255775E+04</pdfrwt>
<totfact> 0.17735052E+01</totfact>
</mgrwt>
</event>
<event>
12    1  0.1541840E-007  0.4074702E+04  0.7818608E-02  0.7989644E-01
         -2   -1    0    0    0  501 -0.00000000000E+00  0.00000000000E+00  0.21231929295E+04  0.21231929295E+04  0.00000000000E+00 0. -1.
          2   -1    0    0  501    0  0.00000000000E+00 -0.00000000000E+00 -0.19549798272E+04  0.19549798272E+04  0.00000000000E+00 0.  1.
         23    2    1    2    0    0  0.75609156232E+03  0.37533601319E+03 -0.16640439167E+04  0.18682044229E+04  0.92704021666E+02 0.  0.
        254    2    1    2    0    0 -0.75609156232E+03 -0.37533601319E+03  0.18322570190E+04  0.22099683339E+04  0.90235396574E+03 0.  0.
        -24    2    4    4    0    0 -0.72039568708E+03 -0.34238884028E+03  0.67203889465E+03  0.10460511391E+04  0.79916493123E+02 0.  0.
         24    2    4    4    0    0 -0.35695875235E+02 -0.32947172908E+02  0.11602181244E+04  0.11639171947E+04  0.78977391120E+02 0.  0.
         11    1    3    3    0    0  0.22450260419E+03  0.15960414315E+03 -0.53006385789E+03  0.59736303472E+03  0.00000000000E+00 0. -1.
        -11    1    3    3    0    0  0.53158895813E+03  0.21573187004E+03 -0.11339800588E+04  0.12708413882E+04  0.00000000000E+00 0.  1.
          2    1    6    6  502    0 -0.45013637029E+02 -0.43816060368E+02  0.11077890211E+04  0.11095686504E+04  0.00000000000E+00 0. -1.
          3    1    5    5  503    0 -0.66738471294E+03 -0.29949151894E+03  0.59309515713E+03  0.94173212242E+03  0.00000000000E+00 0. -1.
         -4    1    5    5    0  503 -0.53010974142E+02 -0.42897321337E+02  0.78943737520E+02  0.10431901673E+03  0.00000000000E+00 0.  1.
         -1    1    6    6    0  502  0.93177617945E+01  0.10868887460E+02  0.52429103279E+02  0.54348544324E+02  0.00000000000E+00 0.  1.
<mgrwt>
<rscale>  0 0.40747021E+04</rscale>
<asrwt>0</asrwt>
<pdfrwt beam="1">  1        2 0.30076613E+00 0.40747021E+04</pdfrwt>
<pdfrwt beam="2">  1       -2 0.32664506E+00 0.40747021E+04</pdfrwt>
<totfact> 0.12086469E-01</totfact>
</mgrwt>
</event>
<event>
12    1  0.1541840E-007  0.1380297E+04  0.7818608E-02  0.8968205E-01
         -1   -1    0    0    0  501 -0.00000000000E+00  0.00000000000E+00  0.92688674419E+03  0.92688674419E+03  0.00000000000E+00 0.  1.
          1   -1    0    0  501    0  0.00000000000E+00 -0.00000000000E+00 -0.51387609339E+03  0.51387609339E+03  0.00000000000E+00 0. -1.
         23    2    1    2    0    0  0.33538870710E+03 -0.18229508727E+03  0.50798183493E+02  0.39868485931E+03  0.10320890417E+03 0.  0.
        254    2    1    2    0    0 -0.33538870710E+03  0.18229508727E+03  0.36221246731E+03  0.10420779783E+04  0.89945069772E+03 0.  0.
        -24    2    4    4    0    0  0.10688834799E+02  0.41447922693E+03 -0.79045712675E+02  0.43010798183E+03  0.82688394597E+02 0.  0.
         24    2    4    4    0    0 -0.34607754190E+03 -0.23218413965E+03  0.44125817998E+03  0.61196999644E+03  0.78226309024E+02 0.  0.
         13    1    3    3    0    0  0.18139444885E+03 -0.74026159820E+02  0.73125219133E+02  0.20911986057E+03  0.00000000000E+00 0.  1.
        -13    1    3    3    0    0  0.15399425825E+03 -0.10826892745E+03 -0.22327035640E+02  0.18956499874E+03  0.00000000000E+00 0. -1.
          2    1    6    6  502    0 -0.29539119135E+03 -0.22563235641E+03  0.40209481698E+03  0.54758210163E+03  0.00000000000E+00 0. -1.
          3    1    5    5  503    0 -0.35620564843E+02  0.20355577499E+03 -0.32281390109E+02  0.20915512501E+03  0.00000000000E+00 0. -1.
         -4    1    5    5    0  503  0.46309399642E+02  0.21092345193E+03 -0.46764322565E+02  0.22095285682E+03  0.00000000000E+00 0.  1.
         -1    1    6    6    0  502 -0.50686350553E+02 -0.65517832476E+01  0.39163363002E+02  0.64387894807E+02  0.00000000000E+00 0.  1.
<mgrwt>
<rscale>  0 0.13802970E+04</rscale>
<asrwt>0</asrwt>
<pdfrwt beam="1">  1        1 0.79057861E-01 0.13802970E+04</pdfrwt>
<pdfrwt beam="2">  1       -1 0.14259796E+00 0.13802970E+04</pdfrwt>
<totfact> 0.16644238E+01</totfact>
</mgrwt>
</event>
<event>
12    1  0.1541840E-007  0.1717891E+04  0.7818608E-02  0.8751226E-01
          1   -1    0    0  501    0  0.00000000000E+00  0.00000000000E+00  0.19331555358E+04  0.19331555358E+04  0.00000000000E+00 0.  1.
         -1   -1    0    0    0  501 -0.00000000000E+00 -0.00000000000E+00 -0.38164937408E+03  0.38164937408E+03  0.00000000000E+00 0. -1.
         23    2    1    2    0    0  0.26086487715E+03 -0.74105987560E+02 -0.18452284271E+03  0.33986618198E+03  0.88984047174E+02 0.  0.
        254    2    1    2    0    0 -0.26086487715E+03  0.74105987560E+02  0.17360290044E+04  0.19749387279E+04  0.90168957696E+03 0.  0.
        -24    2    4    4    0    0  0.11980296876E+03 -0.24538176355E+02  0.15039132624E+04  0.15110798600E+04  0.81562056228E+02 0.  0.
         24    2    4    4    0    0 -0.38066784591E+03  0.98644163915E+02  0.23211574202E+03  0.46385886790E+03  0.81539264487E+02 0.  0.
         11    1    3    3    0    0  0.13254906886E+03 -0.26743903275E+02 -0.14326633493E+03  0.19700186482E+03  0.00000000000E+00 0. -1.
        -11    1    3    3    0    0  0.12831580829E+03 -0.47362084285E+02 -0.41256507783E+02  0.14286431716E+03  0.00000000000E+00 0.  1.
          2    1    6    6  502    0 -0.34854880054E+03  0.95991215397E+02  0.23548408354E+03  0.43145490308E+03  0.00000000000E+00 0. -1.
          1    1    5    5  503    0  0.11512324295E+03 -0.46252371808E+02  0.13241018213E+04  0.13299016039E+04  0.00000000000E+00 0. -1.
         -2    1    5    5    0  503  0.46797258093E+01  0.21714195452E+02  0.17981144110E+03  0.18117825606E+03  0.00000000000E+00 0.  1.
         -1    1    6    6    0  502 -0.32119045371E+02  0.26529485187E+01 -0.33683415252E+01  0.32403964819E+02  0.00000000000E+00 0.  1.
<mgrwt>
<rscale>  0 0.17178913E+04</rscale>
<asrwt>0</asrwt>
<pdfrwt beam="1">  1        1 0.29740854E+00 0.17178913E+04</pdfrwt>
<pdfrwt beam="2">  1       -1 0.58715290E-01 0.17178913E+04</pdfrwt>
<totfact> 0.92419864E+00</totfact>
</mgrwt>
</event>
<event>
12    1  0.1541840E-007  0.1757911E+04  0.7818608E-02  0.8729008E-01
         -1   -1    0    0    0  501 -0.00000000000E+00  0.00000000000E+00  0.37281884857E+03  0.37281884857E+03  0.00000000000E+00 0.  1.
          1   -1    0    0  501    0  0.00000000000E+00 -0.00000000000E+00 -0.20722191657E+04  0.20722191657E+04  0.00000000000E+00 0. -1.
         23    2    1    2    0    0  0.31126262356E+03 -0.37932443716E+03 -0.54353630244E+02  0.50214849234E+03  0.91800554414E+02 0.  0.
        254    2    1    2    0    0 -0.31126262356E+03  0.37932443716E+03 -0.16450466868E+04  0.19428895219E+04  0.90987342135E+03 0.  0.
        -24    2    4    4    0    0  0.19986485494E+03  0.34615865096E+03 -0.31293382725E+03  0.51349045706E+03  0.77285816132E+02 0.  0.
         24    2    4    4    0    0 -0.51112747850E+03  0.33165786198E+02 -0.13321128596E+04  0.14293990648E+04  0.79408734871E+02 0.  0.
         13    1    3    3    0    0  0.50857788822E+02 -0.73472573504E+02 -0.45696232014E+02  0.10036373529E+03  0.00000000000E+00 0. -1.
        -13    1    3    3    0    0  0.26040483473E+03 -0.30585186365E+03 -0.86573982296E+01  0.40178475705E+03  0.00000000000E+00 0.  1.
          4    1    6    6  502    0 -0.49789229494E+02 -0.16358520955E+02 -0.10172459194E+03  0.11443103244E+03  0.00000000000E+00 0. -1.
          1    1    5    5  503    0  0.18940971832E+02  0.54815618078E+01 -0.62250440767E+01  0.20677502449E+02  0.00000000000E+00 0. -1.
         -2    1    5    5    0  503  0.18092388311E+03  0.34067708915E+03 -0.30670878318E+03  0.49281295461E+03  0.00000000000E+00 0.  1.
         -3    1    6    6    0  502 -0.46133824901E+03  0.49524307153E+02 -0.12303882677E+04  0.13149680324E+04  0.00000000000E+00 0.  1.
<mgrwt>
<rscale>  0 0.17579105E+04</rscale>
<asrwt>0</asrwt>
<pdfrwt beam="1">  1        1 0.31880296E+00 0.17579105E+04</pdfrwt>
<pdfrwt beam="2">  1       -1 0.57356744E-01 0.17579105E+04</pdfrwt>
<totfact> 0.77613883E+00</totfact>
</mgrwt>
</event>
<event>
12    1  0.1541840E-007  0.1121488E+04  0.7818608E-02  0.9184498E-01
          3   -1    0    0  501    0  0.00000000000E+00  0.00000000000E+00  0.18325908926E+04  0.18325908926E+04  0.00000000000E+00 0. -1.
         -3   -1    0    0    0  501 -0.00000000000E+00 -0.00000000000E+00 -0.17157877742E+03  0.17157877742E+03  0.00000000000E+00 0.  1.
         23    2    1    2    0    0 -0.70384801858E+02  0.10377183908E+03  0.49776800726E+03  0.52166149122E+03  0.92925278846E+02 0.  0.
        254    2    1    2    0    0  0.70384801858E+02 -0.10377183908E+03  0.11632441079E+04  0.14825081788E+04  0.91047846250E+03 0.  0.
        -24    2    4    4    0    0 -0.16455269138E+03  0.33604087012E+03  0.69837146408E+03  0.79620697411E+03  0.78878318619E+02 0.  0.
         24    2    4    4    0    0  0.23493749323E+03 -0.43981270920E+03  0.46487264380E+03  0.68630120466E+03  0.79195477548E+02 0.  0.
         13    1    3    3    0    0 -0.25867396168E+02 -0.47884531073E+01  0.32427480267E+02  0.41756352141E+02  0.00000000000E+00 0.  1.
        -13    1    3    3    0    0 -0.44517405690E+02  0.10856029219E+03  0.46534052699E+03  0.47990513907E+03  0.00000000000E+00 0. -1.
          2    1    6    6  502    0  0.38743483818E+01  0.15329620591E+01 -0.94581665343E+00  0.42726007536E+01  0.00000000000E+00 0. -1.
          1    1    5    5  503    0 -0.60820097684E+02  0.11203415064E+03  0.31967841989E+03  0.34415843348E+03  0.00000000000E+00 0. -1.
         -2    1    5    5    0  503 -0.10373259369E+03  0.22400671948E+03  0.37869304418E+03  0.45204854062E+03  0.00000000000E+00 0.  1.
         -1    1    6    6    0  502  0.23106314485E+03 -0.44134567126E+03  0.46581846045E+03  0.68202860391E+03  0.00000000000E+00 0.  1.
<mgrwt>
<rscale>  0 0.11214878E+04</rscale>
<asrwt>0</asrwt>
<pdfrwt beam="1">  1        3 0.28193705E+00 0.11214878E+04</pdfrwt>
<pdfrwt beam="2">  1       -3 0.26396736E-01 0.11214878E+04</pdfrwt>
<totfact> 0.17649126E+00</totfact>
</mgrwt>
</event>
<event>
12    1  0.1541840E-007  0.1673948E+04  0.7818608E-02  0.8776364E-01
          2   -1    0    0  501    0  0.00000000000E+00  0.00000000000E+00  0.67271852630E+03  0.67271852630E+03  0.00000000000E+00 0. -1.
         -2   -1    0    0    0  501 -0.00000000000E+00 -0.00000000000E+00 -0.10413346117E+04  0.10413346117E+04  0.00000000000E+00 0.  1.
         23    2    1    2    0    0 -0.27821795374E+03 -0.31049238841E+03  0.30186760040E+03  0.52270020751E+03  0.90998383046E+02 0.  0.
        254    2    1    2    0    0  0.27821795374E+03  0.31049238841E+03 -0.67048368578E+03  0.11913529305E+04  0.89216740526E+03 0.  0.
        -24    2    4    4    0    0  0.18929651963E+03 -0.92408249555E+02 -0.73273604163E+03  0.76644593220E+03  0.78516261743E+02 0.  0.
         24    2    4    4    0    0  0.88921434108E+02  0.40290063796E+03  0.62252355848E+02  0.42490699827E+03  0.80216306692E+02 0.  0.
         11    1    3    3    0    0 -0.12581792273E+03 -0.17456965460E+03  0.10653679419E+03  0.24011414474E+03  0.00000000000E+00 0. -1.
        -11    1    3    3    0    0 -0.15240003101E+03 -0.13592273381E+03  0.19533080621E+03  0.28258606277E+03  0.00000000000E+00 0.  1.
          2    1    6    6  502    0  0.51663083307E+02  0.35501455019E+03  0.62920769722E+02  0.36422991130E+03  0.00000000000E+00 0. -1.
          1    1    5    5  503    0  0.80867706194E+02 -0.52156652894E+01 -0.19887127378E+03  0.21474769522E+03  0.00000000000E+00 0. -1.
         -2    1    5    5    0  503  0.10842881344E+03 -0.87192584266E+02 -0.53386476785E+03  0.55169823698E+03  0.00000000000E+00 0.  1.
         -1    1    6    6    0  502  0.37258350800E+02  0.47886087773E+02 -0.66841387430E+00  0.60677086974E+02  0.00000000000E+00 0.  1.
<mgrwt>
<rscale>  0 0.16739475E+04</rscale>
<asrwt>0</asrwt>
<pdfrwt beam="1">  1        2 0.10349516E+00 0.16739475E+04</pdfrwt>
<pdfrwt beam="2">  1       -2 0.16020532E+00 0.16739475E+04</pdfrwt>
<totfact> 0.10303063E+01</totfact>
</mgrwt>
</event>
<event>
12    1  0.1541840E-007  0.4112511E+04  0.7818608E-02  0.7982226E-01
          2   -1    0    0  501    0  0.00000000000E+00  0.00000000000E+00  0.12662686338E+04  0.12662686338E+04  0.00000000000E+00 0. -1.
         -2   -1    0    0    0  501 -0.00000000000E+00 -0.00000000000E+00 -0.33390916467E+04  0.33390916467E+04  0.00000000000E+00 0.  1.
         23    2    1    2    0    0 -0.40454335863E+03 -0.17087194070E+04 -0.35716760768E+02  0.17587569719E+04  0.92590810989E+02 0.  0.
        254    2    1    2    0    0  0.40454335863E+03  0.17087194070E+04 -0.20371062521E+04  0.28466033086E+04  0.93272245232E+03 0.  0.
        -24    2    4    4    0    0 -0.23036729186E+02 -0.97757316470E+02 -0.11551516305E+03  0.17359251985E+03  0.81874454121E+02 0.  0.
         24    2    4    4    0    0  0.42758008781E+03  0.18064767235E+04 -0.19215910890E+04  0.26730107887E+04  0.79318844460E+02 0.  0.
         11    1    3    3    0    0  0.18577357353E+01 -0.65814700313E+02 -0.53976178839E+01  0.66061791061E+02  0.00000000000E+00 0.  1.
        -11    1    3    3    0    0 -0.40640109436E+03 -0.16429047067E+04 -0.30319142884E+02  0.16926951809E+04  0.00000000000E+00 0. -1.
          4    1    6    6  502    0  0.42495707040E+03  0.18048132908E+04 -0.19209692782E+04  0.26698431591E+04  0.00000000000E+00 0. -1.
          1    1    5    5  503    0 -0.43878256162E+02 -0.72810216054E+02 -0.45549195084E+02  0.96443548765E+02  0.00000000000E+00 0. -1.
         -2    1    5    5    0  503  0.20841526976E+02 -0.24947100416E+02 -0.69965967962E+02  0.77148971080E+02  0.00000000000E+00 0.  1.
         -3    1    6    6    0  502  0.26230174142E+01  0.16634327382E+01 -0.62181080916E+00  0.31676296362E+01  0.00000000000E+00 0.  1.
<mgrwt>
<rscale>  0 0.41125112E+04</rscale>
<asrwt>0</asrwt>
<pdfrwt beam="1">  1        2 0.19481056E+00 0.41125112E+04</pdfrwt>
<pdfrwt beam="2">  1       -2 0.51370640E+00 0.41125112E+04</pdfrwt>
<totfact> 0.18446736E-02</totfact>
</mgrwt>
</event>
<event>
12    1  0.1541840E-007  0.1822785E+04  0.7818608E-02  0.8694276E-01
         -1   -1    0    0    0  501 -0.00000000000E+00  0.00000000000E+00  0.62915034280E+03  0.62915034280E+03  0.00000000000E+00 0.  1.
          1   -1    0    0  501    0  0.00000000000E+00 -0.00000000000E+00 -0.13202506819E+04  0.13202506819E+04  0.00000000000E+00 0. -1.
         23    2    1    2    0    0  0.40293751105E+03  0.43760914827E+03  0.85732540967E+02  0.60793012422E+03  0.91479849647E+02 0.  0.
        254    2    1    2    0    0 -0.40293751105E+03 -0.43760914827E+03 -0.77683288011E+03  0.13414709005E+04  0.91772242473E+03 0.  0.
        -24    2    4    4    0    0 -0.15126577372E+03  0.17068608941E+03  0.83347983273E+02  0.25542178347E+03  0.79235886704E+02 0.  0.
         24    2    4    4    0    0 -0.25167173733E+03 -0.60829523768E+03 -0.86018086339E+03  0.10860491170E+04  0.78929128663E+02 0.  0.
         11    1    3    3    0    0  0.17407367718E+03  0.14386419184E+03  0.77298113089E-01  0.22582860039E+03  0.00000000000E+00 0. -1.
        -11    1    3    3    0    0  0.22886383388E+03  0.29374495643E+03  0.85655242854E+02  0.38210152383E+03  0.00000000000E+00 0.  1.
          4    1    6    6  502    0 -0.24983861357E+03 -0.61017523452E+03 -0.85961848850E+03  0.10833637872E+04  0.00000000000E+00 0. -1.
          1    1    5    5  503    0 -0.11278787569E+03  0.14148340725E+03  0.96900437970E+02  0.20525192888E+03  0.00000000000E+00 0. -1.
         -2    1    5    5    0  503 -0.38477898026E+02  0.29202682158E+02 -0.13552454698E+02  0.50169854594E+02  0.00000000000E+00 0.  1.
         -3    1    6    6    0  502 -0.18331237630E+01  0.18799968412E+01 -0.56237488197E+00  0.26853298422E+01  0.00000000000E+00 0.  1.
<mgrwt>
<rscale>  0 0.18227849E+04</rscale>
<asrwt>0</asrwt>
<pdfrwt beam="1">  1        1 0.20311549E+00 0.18227849E+04</pdfrwt>
<pdfrwt beam="2">  1       -1 0.96792362E-01 0.18227849E+04</pdfrwt>
<totfact> 0.84589534E+00</totfact>
</mgrwt>
</event>
<event>
12    1  0.1541840E-007  0.1283030E+04  0.7818608E-02  0.9043132E-01
         -1   -1    0    0    0  501 -0.00000000000E+00  0.00000000000E+00  0.15816282327E+04  0.15816282327E+04  0.00000000000E+00 0.  1.
          1   -1    0    0  501    0  0.00000000000E+00 -0.00000000000E+00 -0.26020098176E+03  0.26020098176E+03  0.00000000000E+00 0. -1.
         23    2    1    2    0    0 -0.11569303419E+03 -0.68202303160E+02 -0.72002386064E+02  0.17764984858E+03  0.91316443128E+02 0.  0.
        254    2    1    2    0    0  0.11569303419E+03  0.68202303160E+02  0.13934296370E+04  0.16641793659E+04  0.89989464730E+03 0.  0.
        -24    2    4    4    0    0  0.23842676589E+03 -0.27977022578E+03  0.23010250030E+03  0.44111539367E+03  0.80727491982E+02 0.  0.
         24    2    4    4    0    0 -0.12273373170E+03  0.34797252894E+03  0.11633271367E+04  0.12230639722E+04  0.80043758970E+02 0.  0.
         11    1    3    3    0    0 -0.47392749943E+01 -0.21551916102E+02 -0.50865765153E+02  0.55446116904E+02  0.00000000000E+00 0.  1.
        -11    1    3    3    0    0 -0.11095375919E+03 -0.46650387058E+02 -0.21136620911E+02  0.12220373168E+03  0.00000000000E+00 0. -1.
          4    1    6    6  502    0 -0.98224119934E+02  0.29273952025E+03  0.10521842282E+04  0.10965564530E+04  0.00000000000E+00 0. -1.
          1    1    5    5  503    0  0.99319080361E+02 -0.13042636974E+03  0.57206113331E+02  0.17363138268E+03  0.00000000000E+00 0. -1.
         -2    1    5    5    0  503  0.13910768553E+03 -0.14934385604E+03  0.17289638697E+03  0.26748401100E+03  0.00000000000E+00 0.  1.
         -3    1    6    6    0  502 -0.24509611765E+02  0.55233008689E+02  0.11114290848E+03  0.12650751924E+03  0.00000000000E+00 0.  1.
<mgrwt>
<rscale>  0 0.12830296E+04</rscale>
<asrwt>0</asrwt>
<pdfrwt beam="1">  1        1 0.40030921E-01 0.12830296E+04</pdfrwt>
<pdfrwt beam="2">  1       -1 0.24332741E+00 0.12830296E+04</pdfrwt>
<totfact> 0.80173159E+00</totfact>
</mgrwt>
</event>
<event>
12    1  0.1541840E-007  0.1331471E+04  0.7818608E-02  0.9004974E-01
         -2   -1    0    0    0  501 -0.00000000000E+00  0.00000000000E+00  0.17651743830E+03  0.17651743830E+03  0.00000000000E+00 0.  1.
          2   -1    0    0  501    0  0.00000000000E+00 -0.00000000000E+00 -0.25108229479E+04  0.25108229479E+04  0.00000000000E+00 0. -1.
         23    2    1    2    0    0  0.10142892837E+03 -0.18384242907E+03 -0.12029022526E+04  0.12244956045E+04  0.91267682465E+02 0.  0.
        254    2    1    2    0    0 -0.10142892837E+03  0.18384242907E+03 -0.11314032570E+04  0.14628447817E+04  0.90319192820E+03 0.  0.
        -24    2    4    4    0    0 -0.28331620271E+03 -0.28922243258E+03 -0.53749062880E+03  0.67774432897E+03  0.80768268400E+02 0.  0.
         24    2    4    4    0    0  0.18188727435E+03  0.47306486164E+03 -0.59391262818E+03  0.78510045271E+03  0.82323551004E+02 0.  0.
         13    1    3    3    0    0  0.45950589177E+02 -0.14071381331E+03 -0.96979477603E+03  0.98102688114E+03  0.00000000000E+00 0. -1.
        -13    1    3    3    0    0  0.55478339190E+02 -0.43128615760E+02 -0.23310747662E+03  0.24346872339E+03  0.00000000000E+00 0.  1.
          2    1    6    6  502    0  0.22601401498E+02  0.15257721724E+03 -0.15348724895E+03  0.21759817592E+03  0.00000000000E+00 0. -1.
          1    1    5    5  503    0 -0.14527561158E+03 -0.16395721676E+03 -0.35321685836E+03  0.41563099172E+03  0.00000000000E+00 0. -1.
         -2    1    5    5    0  503 -0.13804059113E+03 -0.12526521582E+03 -0.18427377044E+03  0.26211333725E+03  0.00000000000E+00 0.  1.
         -1    1    6    6    0  502  0.15928587285E+03  0.32048764440E+03 -0.44042537923E+03  0.56750227680E+03  0.00000000000E+00 0.  1.
<mgrwt>
<rscale>  0 0.13314714E+04</rscale>
<asrwt>0</asrwt>
<pdfrwt beam="1">  1        2 0.38628045E+00 0.13314714E+04</pdfrwt>
<pdfrwt beam="2">  1       -2 0.27156529E-01 0.13314714E+04</pdfrwt>
<totfact> 0.41575096E+01</totfact>
</mgrwt>
</event>
<event>
12    1  0.1541840E-007  0.1816558E+04  0.7818608E-02  0.8697543E-01
         -4   -1    0    0    0  501 -0.00000000000E+00  0.00000000000E+00  0.73816964866E+03  0.73816964866E+03  0.00000000000E+00 0.  1.
          4   -1    0    0  501    0  0.00000000000E+00 -0.00000000000E+00 -0.11175896672E+04  0.11175896672E+04  0.00000000000E+00 0. -1.
         23    2    1    2    0    0 -0.38353753737E+02 -0.10021041666E+02  0.55012542890E+03  0.55899149587E+03  0.90895947283E+02 0.  0.
        254    2    1    2    0    0  0.38353753737E+02  0.10021041666E+02 -0.92954544744E+03  0.12967678200E+04  0.90331644977E+03 0.  0.
        -24    2    4    4    0    0 -0.40532480874E+03  0.23209698116E+02 -0.63662493954E+03  0.75926745742E+03  0.79805185223E+02 0.  0.
         24    2    4    4    0    0  0.44367856248E+03 -0.13188656451E+02 -0.29292050790E+03  0.53750036258E+03  0.77971843394E+02 0.  0.
         13    1    3    3    0    0 -0.21963684382E+02  0.12843306187E+02  0.50614023429E+03  0.50677933137E+03  0.00000000000E+00 0.  1.
        -13    1    3    3    0    0 -0.16390069355E+02 -0.22864347853E+02  0.43985194612E+02  0.52212164495E+02  0.00000000000E+00 0. -1.
          2    1    6    6  502    0  0.40676009085E+03 -0.30092581628E+02 -0.24988165375E+03  0.47833061355E+03  0.00000000000E+00 0. -1.
          1    1    5    5  503    0 -0.17258830970E+03 -0.10041511171E+02 -0.33361853625E+03  0.37575109357E+03  0.00000000000E+00 0. -1.
         -2    1    5    5    0  503 -0.23273649904E+03  0.33251209288E+02 -0.30300640329E+03  0.38351636385E+03  0.00000000000E+00 0.  1.
         -1    1    6    6    0  502  0.36918471628E+02  0.16903925177E+02 -0.43038854148E+02  0.59169749029E+02  0.00000000000E+00 0.  1.
<mgrwt>
<rscale>  0 0.18165580E+04</rscale>
<asrwt>0</asrwt>
<pdfrwt beam="1">  1        4 0.17193687E+00 0.18165580E+04</pdfrwt>
<pdfrwt beam="2">  1       -4 0.11356456E+00 0.18165580E+04</pdfrwt>
<totfact> 0.23444458E-01</totfact>
</mgrwt>
</event>
<event>
12    1  0.3711076E-007  0.2321435E+04  0.7818608E-02  0.8469517E-01
         -1   -1    0    0    0  501 -0.00000000000E+00  0.00000000000E+00  0.12901041674E+04  0.12901041674E+04  0.00000000000E+00 0.  1.
          1   -1    0    0  501    0  0.00000000000E+00 -0.00000000000E+00 -0.10443071504E+04  0.10443071504E+04  0.00000000000E+00 0. -1.
         23    2    1    2    0    0 -0.85368475400E+03 -0.28227146286E+03 -0.28901079972E+03  0.94892465930E+03  0.92064807176E+02 0.  0.
        254    2    1    2    0    0  0.85368475400E+03  0.28227146286E+03  0.53480781676E+03  0.13854866584E+04  0.90834962537E+03 0.  0.
        -24    2    4    4    0    0  0.29069624428E+03  0.24619471694E+02 -0.24332114608E+03  0.38785843291E+03  0.78221218524E+02 0.  0.
         24    2    4    4    0    0  0.56298850972E+03  0.25765199117E+03  0.77812896284E+03  0.99762822554E+03  0.80229564067E+02 0.  0.
         11    1    3    3    0    0 -0.84486822629E+03 -0.27728410726E+03 -0.27335021931E+03  0.93027369002E+03  0.00000000000E+00 0. -1.
        -11    1    3    3    0    0 -0.88165277104E+01 -0.49873555987E+01 -0.15660580406E+02  0.18650969288E+02  0.00000000000E+00 0.  1.
          2    1    6    6  502    0  0.52734027146E+03  0.22001378787E+03  0.72857574520E+03  0.92591384332E+03  0.00000000000E+00 0. -1.
          3    1    5    5  503    0  0.25848189901E+03  0.23677616502E+02 -0.24310260649E+03  0.35562958106E+03  0.00000000000E+00 0. -1.
         -4    1    5    5    0  503  0.32214345266E+02  0.94185519275E+00 -0.21853958379E+00  0.32228851852E+02  0.00000000000E+00 0.  1.
         -1    1    6    6    0  502  0.35648238262E+02  0.37638203298E+02  0.49553217635E+02  0.71714382216E+02  0.00000000000E+00 0.  1.
<mgrwt>
<rscale>  0 0.23214349E+04</rscale>
<asrwt>0</asrwt>
<pdfrwt beam="1">  1        1 0.16066264E+00 0.23214349E+04</pdfrwt>
<pdfrwt beam="2">  1       -1 0.19847757E+00 0.23214349E+04</pdfrwt>
<totfact> 0.19447714E+00</totfact>
</mgrwt>
</event>
<event>
12    1  0.1541840E-007  0.1996965E+04  0.7818608E-02  0.8608041E-01
         -2   -1    0    0    0  501 -0.00000000000E+00  0.00000000000E+00  0.32081686631E+03  0.32081686631E+03  0.00000000000E+00 0. -1.
          2   -1    0    0  501    0  0.00000000000E+00 -0.00000000000E+00 -0.31075885386E+04  0.31075885386E+04  0.00000000000E+00 0.  1.
         23    2    1    2    0    0 -0.42224726559E+03 -0.59929568239E+02 -0.20060910612E+04  0.20528767244E+04  0.89538779477E+02 0.  0.
        254    2    1    2    0    0  0.42224726559E+03  0.59929568239E+02 -0.78068061111E+03  0.13755286806E+04  0.10491580568E+04 0.  0.
        -24    2    4    4    0    0 -0.69380041514E+02 -0.17388989648E+03 -0.79982255617E+03  0.82529881897E+03  0.79691486170E+02 0.  0.
         24    2    4    4    0    0  0.49162730710E+03  0.23381946472E+03  0.19141945068E+02  0.55022986162E+03  0.77572774733E+02 0.  0.
         13    1    3    3    0    0 -0.21220508085E+03 -0.30905848431E+02 -0.79759878652E+03  0.82592372048E+03  0.00000000000E+00 0. -1.
        -13    1    3    3    0    0 -0.21004218474E+03 -0.29023719808E+02 -0.12084922747E+04  0.12269530039E+04  0.00000000000E+00 0.  1.
          2    1    6    6  502    0  0.22717993240E+03  0.66850049691E+02 -0.12956518919E+01  0.23681496900E+03  0.00000000000E+00 0. -1.
          1    1    5    5  503    0 -0.81046152272E+02 -0.10644149923E+03 -0.57062589027E+03  0.58609911977E+03  0.00000000000E+00 0. -1.
         -2    1    5    5    0  503  0.11666110757E+02 -0.67448397258E+02 -0.22919666591E+03  0.23919969920E+03  0.00000000000E+00 0.  1.
         -1    1    6    6    0  502  0.26444737470E+03  0.16696941503E+03  0.20437596959E+02  0.31341489262E+03  0.00000000000E+00 0.  1.
<mgrwt>
<rscale>  0 0.19969645E+04</rscale>
<asrwt>0</asrwt>
<pdfrwt beam="1">  1        2 0.47809054E+00 0.19969645E+04</pdfrwt>
<pdfrwt beam="2">  1       -2 0.49356442E-01 0.19969645E+04</pdfrwt>
<totfact> 0.53894774E+00</totfact>
</mgrwt>
</event>
<event>
12    1  0.1541840E-007  0.2857068E+04  0.7818608E-02  0.8285767E-01
         -3   -1    0    0    0  501 -0.00000000000E+00  0.00000000000E+00  0.11917397742E+04  0.11917397742E+04  0.00000000000E+00 0. -1.
          3   -1    0    0  501    0  0.00000000000E+00 -0.00000000000E+00 -0.17123786127E+04  0.17123786127E+04  0.00000000000E+00 0.  1.
         23    2    1    2    0    0  0.55377283243E+03  0.10432356656E+04  0.28026335414E+03  0.12173782213E+04  0.91962939461E+02 0.  0.
        254    2    1    2    0    0 -0.55377283243E+03 -0.10432356656E+04 -0.80090219272E+03  0.16867401656E+04  0.89924582847E+03 0.  0.
        -24    2    4    4    0    0 -0.87853657453E+02 -0.49081332615E+03 -0.81580161997E+03  0.95941135249E+03  0.79510212438E+02 0.  0.
         24    2    4    4    0    0 -0.46591917497E+03 -0.55242233941E+03  0.14899427246E+02  0.72732881309E+03  0.80833722712E+02 0.  0.
         11    1    3    3    0    0  0.53592047126E+03  0.10036957385E+04  0.25135222795E+03  0.11652441073E+04  0.00000000000E+00 0. -1.
        -11    1    3    3    0    0  0.17852361170E+02  0.39539927023E+02  0.28911126189E+02  0.52134114032E+02  0.00000000000E+00 0.  1.
          2    1    6    6  502    0 -0.29355971574E+03 -0.28727680904E+03  0.62373477313E-01  0.41073747772E+03  0.00000000000E+00 0. -1.
          3    1    5    5  503    0 -0.65559587162E+02 -0.45208540152E+03 -0.70642412096E+03  0.84125757554E+03  0.00000000000E+00 0. -1.
         -4    1    5    5    0  503 -0.22294070291E+02 -0.38727924630E+02 -0.10937749901E+03  0.11815377694E+03  0.00000000000E+00 0.  1.
         -1    1    6    6    0  502 -0.17235945924E+03 -0.26514553037E+03  0.14837053769E+02  0.31659133536E+03  0.00000000000E+00 0.  1.
<mgrwt>
<rscale>  0 0.28570682E+04</rscale>
<asrwt>0</asrwt>
<pdfrwt beam="1">  1        3 0.26344286E+00 0.28570682E+04</pdfrwt>
<pdfrwt beam="2">  1       -3 0.18334458E+00 0.28570682E+04</pdfrwt>
<totfact> 0.26144028E-02</totfact>
</mgrwt>
</event>
<event>
12    1  0.1541840E-007  0.1472976E+04  0.7818608E-02  0.8902625E-01
          2   -1    0    0  501    0  0.00000000000E+00  0.00000000000E+00  0.96850520297E+03  0.96850520297E+03  0.00000000000E+00 0. -1.
         -2   -1    0    0    0  501 -0.00000000000E+00 -0.00000000000E+00 -0.56005338054E+03  0.56005338054E+03  0.00000000000E+00 0.  1.
         23    2    1    2    0    0 -0.92886823915E+02  0.43893086780E+03  0.10169736217E+02  0.45829414727E+03  0.92961460416E+02 0.  0.
        254    2    1    2    0    0  0.92886823915E+02 -0.43893086780E+03  0.39828208621E+03  0.10702644362E+04  0.88631206384E+03 0.  0.
        -24    2    4    4    0    0  0.40996136520E+03 -0.25093332841E+03  0.47925066826E+03  0.68364843087E+03  0.81597289999E+02 0.  0.
         24    2    4    4    0    0 -0.31707454129E+03 -0.18799753939E+03 -0.80968582044E+02  0.38661600537E+03  0.83884949687E+02 0.  0.
         11    1    3    3    0    0 -0.50372872500E+02  0.21197633781E+03 -0.41215732352E+02  0.22174338923E+03  0.00000000000E+00 0.  1.
        -11    1    3    3    0    0 -0.42513951415E+02  0.22695452999E+03  0.51385468569E+02  0.23655075804E+03  0.00000000000E+00 0. -1.
          2    1    6    6  502    0 -0.20748497262E+03 -0.14153922508E+03 -0.91052948082E+02  0.26715913881E+03  0.00000000000E+00 0. -1.
          3    1    5    5  503    0  0.31325938658E+03 -0.15885050790E+03  0.31343506571E+03  0.47075096129E+03  0.00000000000E+00 0. -1.
         -2    1    5    5    0  503  0.96701978621E+02 -0.92082820514E+02  0.16581560255E+03  0.21289746958E+03  0.00000000000E+00 0.  1.
         -1    1    6    6    0  502 -0.10958956867E+03 -0.46458314313E+02  0.10084366037E+02  0.11945686656E+03  0.00000000000E+00 0.  1.
<mgrwt>
<rscale>  0 0.14729761E+04</rscale>
<asrwt>0</asrwt>
<pdfrwt beam="1">  1        2 0.14900080E+00 0.14729761E+04</pdfrwt>
<pdfrwt beam="2">  1       -2 0.86162059E-01 0.14729761E+04</pdfrwt>
<totfact> 0.29865164E+01</totfact>
</mgrwt>
</event>
<event>
12    1  0.1541840E-007  0.1282439E+04  0.7818608E-02  0.9043609E-01
         -2   -1    0    0    0  501 -0.00000000000E+00  0.00000000000E+00  0.38979264912E+03  0.38979264912E+03  0.00000000000E+00 0.  1.
          2   -1    0    0  501    0  0.00000000000E+00 -0.00000000000E+00 -0.10548226795E+04  0.10548226795E+04  0.00000000000E+00 0. -1.
         23    2    1    2    0    0 -0.10678388008E+03  0.14167597282E+03  0.12131913711E+03  0.23333542247E+03  0.90841664612E+02 0.  0.
        254    2    1    2    0    0  0.10678388008E+03 -0.14167597282E+03 -0.78634916751E+03  0.12112799062E+04  0.90409021649E+03 0.  0.
        -24    2    4    4    0    0  0.20861930794E+03  0.22189124933E+03  0.21938517891E+02  0.31563778167E+03  0.79926018738E+02 0.  0.
         24    2    4    4    0    0 -0.10183542786E+03 -0.36356722215E+03 -0.80828768540E+03  0.89564212451E+03  0.79336331152E+02 0.  0.
         11    1    3    3    0    0 -0.11624606080E+03  0.14595006842E+03  0.12199779431E+03  0.22293055183E+03  0.00000000000E+00 0.  1.
        -11    1    3    3    0    0  0.94621807216E+01 -0.42740956051E+01 -0.67865720200E+00  0.10404870631E+02  0.00000000000E+00 0. -1.
          4    1    6    6  502    0 -0.11865560824E+02 -0.63942697323E+02 -0.21912752473E+03  0.22857456589E+03  0.00000000000E+00 0. -1.
          3    1    5    5  503    0  0.39341049620E+02  0.18290341789E+02 -0.19621911400E+02  0.47615902753E+02  0.00000000000E+00 0. -1.
         -4    1    5    5    0  503  0.16927825832E+03  0.20360090755E+03  0.41560429292E+02  0.26802187891E+03  0.00000000000E+00 0.  1.
         -3    1    6    6    0  502 -0.89969867040E+02 -0.29962452483E+03 -0.58916016066E+03  0.66706755862E+03  0.00000000000E+00 0.  1.
<mgrwt>
<rscale>  0 0.12824385E+04</rscale>
<asrwt>0</asrwt>
<pdfrwt beam="1">  1        2 0.16228041E+00 0.12824385E+04</pdfrwt>
<pdfrwt beam="2">  1       -2 0.59968100E-01 0.12824385E+04</pdfrwt>
<totfact> 0.59152509E+01</totfact>
</mgrwt>
</event>
<event>
12    1  0.1541840E-007  0.1585986E+04  0.7818608E-02  0.8829204E-01
          2   -1    0    0  501    0  0.00000000000E+00  0.00000000000E+00  0.63023967336E+03  0.63023967336E+03  0.00000000000E+00 0. -1.
         -2   -1    0    0    0  501 -0.00000000000E+00 -0.00000000000E+00 -0.99777571127E+03  0.99777571127E+03  0.00000000000E+00 0.  1.
         23    2    1    2    0    0  0.19294640299E+02 -0.29628249069E+03  0.32293310587E+03  0.44776744534E+03  0.89745734225E+02 0.  0.
        254    2    1    2    0    0 -0.19294640299E+02  0.29628249069E+03 -0.69046914378E+03  0.11802479393E+04  0.90999008909E+03 0.  0.
        -24    2    4    4    0    0  0.18737502207E+03  0.54182093617E+02 -0.80583707181E+03  0.83291694843E+03  0.79574861126E+02 0.  0.
         24    2    4    4    0    0 -0.20666966237E+03  0.24210039707E+03  0.11536792803E+03  0.34733099085E+03  0.77486171568E+02 0.  0.
         13    1    3    3    0    0  0.10734793416E+02 -0.16566090845E+03  0.11459850017E+03  0.20172156211E+03  0.00000000000E+00 0. -1.
        -13    1    3    3    0    0  0.85598468828E+01 -0.13062158223E+03  0.20833460570E+03  0.24604588324E+03  0.00000000000E+00 0.  1.
          2    1    6    6  502    0 -0.74417702794E+01  0.42536825989E+02  0.30432794236E+02  0.52829125254E+02  0.00000000000E+00 0. -1.
          1    1    5    5  503    0  0.86419137323E+02  0.45349240629E+02 -0.25918723850E+03  0.27695278573E+03  0.00000000000E+00 0. -1.
         -2    1    5    5    0  503  0.10095588474E+03  0.88328529871E+01 -0.54664983331E+03  0.55596416270E+03  0.00000000000E+00 0.  1.
         -1    1    6    6    0  502 -0.19922789209E+03  0.19956357108E+03  0.84935133790E+02  0.29450186560E+03  0.00000000000E+00 0.  1.
<mgrwt>
<rscale>  0 0.15859859E+04</rscale>
<asrwt>0</asrwt>
<pdfrwt beam="1">  1        2 0.96959950E-01 0.15859859E+04</pdfrwt>
<pdfrwt beam="2">  1       -2 0.15350396E+00 0.15859859E+04</pdfrwt>
<totfact> 0.12623858E+01</totfact>
</mgrwt>
</event>
<event>
12    1  0.1541840E-007  0.1259735E+04  0.7818608E-02  0.9062120E-01
         -1   -1    0    0    0  501 -0.00000000000E+00  0.00000000000E+00  0.96057830383E+03  0.96057830383E+03  0.00000000000E+00 0.  1.
          1   -1    0    0  501    0  0.00000000000E+00 -0.00000000000E+00 -0.41301469856E+03  0.41301469856E+03  0.00000000000E+00 0. -1.
         23    2    1    2    0    0  0.93914314315E+02 -0.26801282598E+03  0.25612871873E+03  0.39320667899E+03  0.91426465074E+02 0.  0.
        254    2    1    2    0    0 -0.93914314315E+02  0.26801282598E+03  0.29143488654E+03  0.98038632341E+03  0.89194858411E+03 0.  0.
        -24    2    4    4    0    0  0.27073412061E+03  0.38793714151E+03 -0.18760223425E+02  0.48030679000E+03  0.80935015331E+02 0.  0.
         24    2    4    4    0    0 -0.36464843492E+03 -0.11992431553E+03  0.31019510997E+03  0.50007953341E+03  0.80673483509E+02 0.  0.
         13    1    3    3    0    0 -0.13981044383E+02 -0.21647270944E+02  0.42628354952E+02  0.49812153007E+02  0.00000000000E+00 0. -1.
        -13    1    3    3    0    0  0.10789535870E+03 -0.24636555504E+03  0.21350036378E+03  0.34339452598E+03  0.00000000000E+00 0.  1.
          2    1    6    6  502    0 -0.23972762517E+03 -0.11785918614E+03  0.20429697386E+03  0.33629953250E+03  0.00000000000E+00 0. -1.
          1    1    5    5  503    0  0.26023359233E+03  0.36637078541E+03 -0.35909786446E+02  0.45081990611E+03  0.00000000000E+00 0. -1.
         -2    1    5    5    0  503  0.10500528276E+02  0.21566356103E+02  0.17149563021E+02  0.29486883888E+02  0.00000000000E+00 0.  1.
         -1    1    6    6    0  502 -0.12492080975E+03 -0.20651293836E+01  0.10589813611E+03  0.16378000091E+03  0.00000000000E+00 0.  1.
<mgrwt>
<rscale>  0 0.12597348E+04</rscale>
<asrwt>0</asrwt>
<pdfrwt beam="1">  1        1 0.63540723E-01 0.12597348E+04</pdfrwt>
<pdfrwt beam="2">  1       -1 0.14778128E+00 0.12597348E+04</pdfrwt>
<totfact> 0.20574020E+01</totfact>
</mgrwt>
</event>
<event>
12    1  0.1541840E-007  0.2269989E+04  0.7818608E-02  0.8489849E-01
         -1   -1    0    0    0  501 -0.00000000000E+00  0.00000000000E+00  0.20461838394E+04  0.20461838394E+04  0.00000000000E+00 0.  1.
          1   -1    0    0  501    0  0.00000000000E+00 -0.00000000000E+00 -0.62956810835E+03  0.62956810835E+03  0.00000000000E+00 0. -1.
         23    2    1    2    0    0  0.31570957481E+03 -0.19305208551E+03 -0.44090909531E+03  0.58195587130E+03  0.85616368009E+02 0.  0.
        254    2    1    2    0    0 -0.31570957481E+03  0.19305208551E+03  0.18575248263E+04  0.20937960764E+04  0.89254797398E+03 0.  0.
        -24    2    4    4    0    0 -0.65918750081E+02  0.28504298483E+03  0.17800359680E+04  0.18056804634E+04  0.79743988325E+02 0.  0.
         24    2    4    4    0    0 -0.24979082472E+03 -0.91990899326E+02  0.77488858333E+02  0.28811561303E+03  0.78411106562E+02 0.  0.
         11    1    3    3    0    0  0.24832691576E+03 -0.15718053522E+03 -0.39682898725E+03  0.49380686798E+03  0.00000000000E+00 0.  1.
        -11    1    3    3    0    0  0.67382659040E+02 -0.35871550289E+02 -0.44080108063E+02  0.88149003320E+02  0.00000000000E+00 0. -1.
          2    1    6    6  502    0 -0.21343206627E+03 -0.56273712735E+02  0.38760586867E+02  0.22410345993E+03  0.00000000000E+00 0. -1.
          1    1    5    5  503    0 -0.83194779283E+02  0.25818511397E+03  0.15826199160E+04  0.16056982042E+04  0.00000000000E+00 0. -1.
         -2    1    5    5    0  503  0.17276029202E+02  0.26857870866E+02  0.19741605200E+03  0.19998225921E+03  0.00000000000E+00 0.  1.
         -1    1    6    6    0  502 -0.36358758452E+02 -0.35717186591E+02  0.38728271466E+02  0.64012153103E+02  0.00000000000E+00 0.  1.
<mgrwt>
<rscale>  0 0.22699886E+04</rscale>
<asrwt>0</asrwt>
<pdfrwt beam="1">  1        1 0.96856633E-01 0.22699886E+04</pdfrwt>
<pdfrwt beam="2">  1       -1 0.31479751E+00 0.22699886E+04</pdfrwt>
<totfact> 0.76601515E-01</totfact>
</mgrwt>
</event>
<event>
12    1  0.1541840E-007  0.1428516E+04  0.7818608E-02  0.8933432E-01
          1   -1    0    0  501    0  0.00000000000E+00  0.00000000000E+00  0.81078982799E+03  0.81078982799E+03  0.00000000000E+00 0. -1.
         -1   -1    0    0    0  501 -0.00000000000E+00 -0.00000000000E+00 -0.62921872385E+03  0.62921872385E+03  0.00000000000E+00 0.  1.
         23    2    1    2    0    0  0.28412207852E+02  0.42897055846E+03  0.12375292126E+03  0.45589645291E+03  0.87771274739E+02 0.  0.
        254    2    1    2    0    0 -0.28412207852E+02 -0.42897055846E+03  0.57818182869E+02  0.98411209894E+03  0.88335196124E+03 0.  0.
        -24    2    4    4    0    0  0.59296862015E+02  0.22635965479E+03 -0.14564051355E+03  0.28731436683E+03  0.81139232431E+02 0.  0.
         24    2    4    4    0    0 -0.87709069866E+02 -0.65533021325E+03  0.20345869642E+03  0.69679773211E+03  0.83552791653E+02 0.  0.
         11    1    3    3    0    0  0.53742190751E+02  0.36103794770E+03  0.90133917482E+02  0.37597971465E+03  0.00000000000E+00 0. -1.
        -11    1    3    3    0    0 -0.25329982899E+02  0.67932610760E+02  0.33619003782E+02  0.79916738257E+02  0.00000000000E+00 0.  1.
          2    1    6    6  502    0 -0.73774381296E+02 -0.47270982539E+03  0.10886758735E+03  0.49066219533E+03  0.00000000000E+00 0. -1.
          3    1    5    5  503    0  0.61953706124E+02  0.22735218607E+03 -0.12550649492E+03  0.26698156955E+03  0.00000000000E+00 0. -1.
         -4    1    5    5    0  503 -0.26568441095E+01 -0.99253128042E+00 -0.20134018633E+02  0.20332797281E+02  0.00000000000E+00 0.  1.
         -1    1    6    6    0  502 -0.13934688570E+02 -0.18262038786E+03  0.94591109066E+02  0.20613553678E+03  0.00000000000E+00 0.  1.
<mgrwt>
<rscale>  0 0.14285155E+04</rscale>
<asrwt>0</asrwt>
<pdfrwt beam="1">  1        1 0.12473690E+00 0.14285155E+04</pdfrwt>
<pdfrwt beam="2">  1       -1 0.96802880E-01 0.14285155E+04</pdfrwt>
<totfact> 0.21611834E+01</totfact>
</mgrwt>
</event>
<event>
12    1  0.1541840E-007  0.1739216E+04  0.7818608E-02  0.8739309E-01
          2   -1    0    0  501    0  0.00000000000E+00  0.00000000000E+00  0.32363060060E+03  0.32363060060E+03  0.00000000000E+00 0. -1.
         -2   -1    0    0    0  501 -0.00000000000E+00 -0.00000000000E+00 -0.23366692075E+04  0.23366692075E+04  0.00000000000E+00 0.  1.
         23    2    1    2    0    0  0.48089808094E+02  0.52338786955E+03 -0.20458832731E+03  0.57165048943E+03  0.93168700528E+02 0.  0.
        254    2    1    2    0    0 -0.48089808094E+02 -0.52338786955E+03 -0.18084502795E+04  0.20886493186E+04  0.90317001223E+03 0.  0.
        -24    2    4    4    0    0  0.29867981693E+03  0.23665154526E+02 -0.10139575251E+04  0.10603712553E+04  0.80670092182E+02 0.  0.
         24    2    4    4    0    0 -0.34676962502E+03 -0.54705302408E+03 -0.79449275447E+03  0.10282780634E+04  0.81368634589E+02 0.  0.
         13    1    3    3    0    0  0.58644352827E+02  0.45678241504E+03 -0.14833312544E+03  0.48383060146E+03  0.00000000000E+00 0. -1.
        -13    1    3    3    0    0 -0.10554544733E+02  0.66605454509E+02 -0.56255201870E+02  0.87819887966E+02  0.00000000000E+00 0.  1.
          4    1    6    6  502    0 -0.31303327385E+00 -0.70781242062E+01  0.71607629586E-02  0.70850464632E+01  0.00000000000E+00 0. -1.
          1    1    5    5  503    0  0.66975166662E+02  0.10566580694E+02 -0.36309532427E+03  0.36937181820E+03  0.00000000000E+00 0. -1.
         -2    1    5    5    0  503  0.23170465026E+03  0.13098573832E+02 -0.65086220080E+03  0.69099943706E+03  0.00000000000E+00 0.  1.
         -3    1    6    6    0  502 -0.34645659175E+03 -0.53997489987E+03 -0.79449991523E+03  0.10211930169E+04  0.00000000000E+00 0.  1.
<mgrwt>
<rscale>  0 0.17392155E+04</rscale>
<asrwt>0</asrwt>
<pdfrwt beam="1">  1        2 0.49789322E-01 0.17392155E+04</pdfrwt>
<pdfrwt beam="2">  1       -2 0.35948758E+00 0.17392155E+04</pdfrwt>
<totfact> 0.13025437E+00</totfact>
</mgrwt>
</event>
<event>
12    1  0.1541840E-007  0.1322282E+04  0.7818608E-02  0.9012079E-01
         -1   -1    0    0    0  501 -0.00000000000E+00  0.00000000000E+00  0.37498613970E+03  0.37498613970E+03  0.00000000000E+00 0.  1.
          1   -1    0    0  501    0  0.00000000000E+00 -0.00000000000E+00 -0.11656636177E+04  0.11656636177E+04  0.00000000000E+00 0. -1.
         23    2    1    2    0    0  0.16098209823E+02  0.27051051104E+03 -0.28065009071E+03  0.39980216154E+03  0.87419711805E+02 0.  0.
        254    2    1    2    0    0 -0.16098209823E+02 -0.27051051104E+03 -0.51002738730E+03  0.11408475959E+04  0.98385477195E+03 0.  0.
        -24    2    4    4    0    0  0.10605348899E+02  0.24585577872E+03  0.14986008005E+03  0.29868369991E+03  0.78717035285E+02 0.  0.
         24    2    4    4    0    0 -0.26703558722E+02 -0.51636628975E+03 -0.65988746735E+03  0.84216389597E+03  0.80257914660E+02 0.  0.
         11    1    3    3    0    0  0.65624377178E+01  0.12782659823E+03 -0.72016333090E+02  0.14686407674E+03  0.00000000000E+00 0. -1.
        -11    1    3    3    0    0  0.95357721057E+01  0.14268391281E+03 -0.20863375762E+03  0.25293808480E+03  0.00000000000E+00 0.  1.
          2    1    6    6  502    0  0.27151433259E+02 -0.11980870007E+03 -0.16508096322E+03  0.20577426797E+03  0.00000000000E+00 0. -1.
          1    1    5    5  503    0 -0.15642163887E+02  0.22473274525E+02 -0.17514554500E+01  0.27437072641E+02  0.00000000000E+00 0. -1.
         -2    1    5    5    0  503  0.26247512786E+02  0.22338250419E+03  0.15161153550E+03  0.27124662727E+03  0.00000000000E+00 0.  1.
         -1    1    6    6    0  502 -0.53854991981E+02 -0.39655758968E+03 -0.49480650413E+03  0.63638962800E+03  0.00000000000E+00 0.  1.
<mgrwt>
<rscale>  0 0.13222824E+04</rscale>
<asrwt>0</asrwt>
<pdfrwt beam="1">  1        1 0.17933286E+00 0.13222824E+04</pdfrwt>
<pdfrwt beam="2">  1       -1 0.57690176E-01 0.13222824E+04</pdfrwt>
<totfact> 0.33807752E+01</totfact>
</mgrwt>
</event>
<event>
12    1  0.1541840E-007  0.1597891E+04  0.7818608E-02  0.8821845E-01
         -1   -1    0    0    0  501 -0.00000000000E+00  0.00000000000E+00  0.87926499507E+03  0.87926499507E+03  0.00000000000E+00 0.  1.
          1   -1    0    0  501    0  0.00000000000E+00 -0.00000000000E+00 -0.72596280812E+03  0.72596280812E+03  0.00000000000E+00 0. -1.
         23    2    1    2    0    0 -0.63744976579E+02  0.23361100323E+03 -0.43200858869E+03  0.50359087711E+03  0.91295278847E+02 0.  0.
        254    2    1    2    0    0  0.63744976579E+02 -0.23361100323E+03  0.58531077564E+03  0.11016369261E+04  0.90131997090E+03 0.  0.
        -24    2    4    4    0    0 -0.29423451545E+03 -0.47791100401E+01  0.59591976248E+03  0.66925057692E+03  0.78607769399E+02 0.  0.
         24    2    4    4    0    0  0.35797949203E+03 -0.22883189319E+03 -0.10608986844E+02  0.43238634916E+03  0.79574193572E+02 0.  0.
         11    1    3    3    0    0  0.23474192176E+02  0.54946918078E+02 -0.10883229569E+03  0.12415582986E+03  0.00000000000E+00 0.  1.
        -11    1    3    3    0    0 -0.87219168755E+02  0.17866408515E+03 -0.32317629300E+03  0.37943504725E+03  0.00000000000E+00 0. -1.
          4    1    6    6  502    0  0.49172572609E+02 -0.38590562601E+01  0.75031605215E+01  0.49891197921E+02  0.00000000000E+00 0. -1.
          3    1    5    5  503    0 -0.14937358788E+03  0.16325816360E+02  0.22575863934E+03  0.27119359187E+03  0.00000000000E+00 0. -1.
         -4    1    5    5    0  503 -0.14486092756E+03 -0.21104926400E+02  0.37016112315E+03  0.39805698504E+03  0.00000000000E+00 0.  1.
         -3    1    6    6    0  502  0.30880691942E+03 -0.22497283693E+03 -0.18112147366E+02  0.38249515123E+03  0.00000000000E+00 0.  1.
<mgrwt>
<rscale>  0 0.15978907E+04</rscale>
<asrwt>0</asrwt>
<pdfrwt beam="1">  1        1 0.11168659E+00 0.15978907E+04</pdfrwt>
<pdfrwt beam="2">  1       -1 0.13527154E+00 0.15978907E+04</pdfrwt>
<totfact> 0.11333176E+01</totfact>
</mgrwt>
</event>
<event>
12    1  0.1541840E-007  0.1147139E+04  0.7818608E-02  0.9160427E-01
         -1   -1    0    0    0  501 -0.00000000000E+00  0.00000000000E+00  0.15944345567E+04  0.15944345567E+04  0.00000000000E+00 0.  1.
          1   -1    0    0  501    0  0.00000000000E+00 -0.00000000000E+00 -0.20633132690E+03  0.20633132690E+03  0.00000000000E+00 0. -1.
         23    2    1    2    0    0  0.12653319190E+03  0.15605673013E+03  0.40013358145E+03  0.45668890437E+03  0.89963996693E+02 0.  0.
        254    2    1    2    0    0 -0.12653319190E+03 -0.15605673013E+03  0.98796964840E+03  0.13440769793E+04  0.88887262777E+03 0.  0.
        -24    2    4    4    0    0  0.30068731225E+03 -0.31936481668E+03  0.46168607781E+03  0.64199854107E+03  0.81248670206E+02 0.  0.
         24    2    4    4    0    0 -0.42722050416E+03  0.16330808656E+03  0.52628357059E+03  0.70207843820E+03  0.82175704509E+02 0.  0.
         11    1    3    3    0    0  0.94492246388E+02  0.45273976893E+02  0.19424148256E+03  0.22069950421E+03  0.00000000000E+00 0.  1.
        -11    1    3    3    0    0  0.32040945516E+02  0.11078275323E+03  0.20589209889E+03  0.23598940016E+03  0.00000000000E+00 0. -1.
          4    1    6    6  502    0 -0.10258664731E+03  0.70586309526E+01  0.93737266131E+02  0.13914208399E+03  0.00000000000E+00 0. -1.
          1    1    5    5  503    0  0.21779494185E+03 -0.20894563460E+03  0.36406879094E+03  0.47290485243E+03  0.00000000000E+00 0. -1.
         -2    1    5    5    0  503  0.82892370403E+02 -0.11041918209E+03  0.97617286871E+02  0.16909368865E+03  0.00000000000E+00 0.  1.
         -3    1    6    6    0  502 -0.32463385685E+03  0.15624945560E+03  0.43254630446E+03  0.56293635421E+03  0.00000000000E+00 0.  1.
<mgrwt>
<rscale>  0 0.11471387E+04</rscale>
<asrwt>0</asrwt>
<pdfrwt beam="1">  1        1 0.31743282E-01 0.11471387E+04</pdfrwt>
<pdfrwt beam="2">  1       -1 0.24529762E+00 0.11471387E+04</pdfrwt>
<totfact> 0.10649384E+01</totfact>
</mgrwt>
</event>
<event>
12    1  0.1541840E-007  0.1238349E+04  0.7818608E-02  0.9079936E-01
          1   -1    0    0  501    0  0.00000000000E+00  0.00000000000E+00  0.98114317676E+03  0.98114317676E+03  0.00000000000E+00 0. -1.
         -1   -1    0    0    0  501 -0.00000000000E+00 -0.00000000000E+00 -0.39074555609E+03  0.39074555609E+03  0.00000000000E+00 0.  1.
         23    2    1    2    0    0  0.58326841309E+02  0.23457114214E+03  0.31540320460E+03  0.40736393247E+03  0.89669118765E+02 0.  0.
        254    2    1    2    0    0 -0.58326841309E+02 -0.23457114214E+03  0.27499441607E+03  0.96452480039E+03  0.89233430986E+03 0.  0.
        -24    2    4    4    0    0  0.24656925523E+03  0.11593642430E+03  0.38627271637E+03  0.48010431452E+03  0.83999341128E+02 0.  0.
         24    2    4    4    0    0 -0.30489609654E+03 -0.35050756644E+03 -0.11127830029E+03  0.48442048587E+03  0.80393800731E+02 0.  0.
         11    1    3    3    0    0  0.11966456534E+02  0.80484105653E+02  0.17820826868E+03  0.19590577932E+03  0.00000000000E+00 0. -1.
        -11    1    3    3    0    0  0.46360384776E+02  0.15408703649E+03  0.13719493592E+03  0.21145815314E+03  0.00000000000E+00 0.  1.
          4    1    6    6  502    0 -0.21799188145E+03 -0.26667717613E+03 -0.11637416138E+03  0.36356584284E+03  0.00000000000E+00 0. -1.
          1    1    5    5  503    0  0.17631114121E+03  0.10472474197E+03  0.33357058680E+03  0.39156382171E+03  0.00000000000E+00 0. -1.
         -2    1    5    5    0  503  0.70258114021E+02  0.11211682328E+02  0.52702129567E+02  0.88540492811E+02  0.00000000000E+00 0.  1.
         -3    1    6    6    0  502 -0.86904215095E+02 -0.83830390309E+02  0.50958610873E+01  0.12085464303E+03  0.00000000000E+00 0.  1.
<mgrwt>
<rscale>  0 0.12383494E+04</rscale>
<asrwt>0</asrwt>
<pdfrwt beam="1">  1        1 0.15094510E+00 0.12383494E+04</pdfrwt>
<pdfrwt beam="2">  1       -1 0.60114702E-01 0.12383494E+04</pdfrwt>
<totfact> 0.43359221E+01</totfact>
</mgrwt>
</event>
<event>
12    1  0.1541840E-007  0.1428018E+04  0.7818608E-02  0.8933784E-01
          2   -1    0    0  501    0  0.00000000000E+00  0.00000000000E+00  0.28879886586E+03  0.28879886586E+03  0.00000000000E+00 0. -1.
         -2   -1    0    0    0  501 -0.00000000000E+00 -0.00000000000E+00 -0.17652729291E+04  0.17652729291E+04  0.00000000000E+00 0.  1.
         23    2    1    2    0    0  0.33884345537E+03  0.17724832204E+03 -0.25174308232E+03  0.46725321126E+03  0.93376276559E+02 0.  0.
        254    2    1    2    0    0 -0.33884345537E+03 -0.17724832204E+03 -0.12247309810E+04  0.15868185837E+04  0.93369983777E+03 0.  0.
        -24    2    4    4    0    0 -0.32176768882E+03  0.29647398887E+03 -0.27804737381E+03  0.52479576377E+03  0.81663822694E+02 0.  0.
         24    2    4    4    0    0 -0.17075766544E+02 -0.47372231092E+03 -0.94668360716E+03  0.10620228200E+04  0.83535671517E+02 0.  0.
         11    1    3    3    0    0  0.22420998949E+03  0.78130242677E+02 -0.11802402753E+03  0.26514925096E+03  0.00000000000E+00 0. -1.
        -11    1    3    3    0    0  0.11463346587E+03  0.99118079368E+02 -0.13371905479E+03  0.20210396030E+03  0.00000000000E+00 0.  1.
          2    1    6    6  502    0 -0.34806971238E+02 -0.17659760964E+03 -0.42212218988E+03  0.45889583150E+03  0.00000000000E+00 0. -1.
          1    1    5    5  503    0 -0.11563924828E+03  0.11234381216E+03 -0.57422249199E+02  0.17114579333E+03  0.00000000000E+00 0. -1.
         -2    1    5    5    0  503 -0.20612844054E+03  0.18413017671E+03 -0.22062512461E+03  0.35364997043E+03  0.00000000000E+00 0.  1.
         -1    1    6    6    0  502  0.17731204695E+02 -0.29712470128E+03 -0.52456141728E+03  0.60312698847E+03  0.00000000000E+00 0.  1.
<mgrwt>
<rscale>  0 0.14280180E+04</rscale>
<asrwt>0</asrwt>
<pdfrwt beam="1">  1        2 0.44430594E-01 0.14280180E+04</pdfrwt>
<pdfrwt beam="2">  1       -2 0.27158045E+00 0.14280180E+04</pdfrwt>
<totfact> 0.52868561E+00</totfact>
</mgrwt>
</event>
<event>
12    1  0.1541840E-007  0.1882471E+04  0.7818608E-02  0.8663631E-01
         -2   -1    0    0    0  501 -0.00000000000E+00  0.00000000000E+00  0.32010902624E+03  0.32010902624E+03  0.00000000000E+00 0.  1.
          2   -1    0    0  501    0  0.00000000000E+00 -0.00000000000E+00 -0.27675717157E+04  0.27675717157E+04  0.00000000000E+00 0. -1.
         23    2    1    2    0    0  0.20559058038E+03 -0.53269510288E+03 -0.17596957358E+04  0.18522950592E+04  0.91849574077E+02 0.  0.
        254    2    1    2    0    0 -0.20559058038E+03  0.53269510288E+03 -0.68776695366E+03  0.12353856828E+04  0.85271498362E+03 0.  0.
        -24    2    4    4    0    0  0.55668818961E+02  0.67413659866E+03 -0.31042630423E+03  0.74850492872E+03  0.79598787083E+02 0.  0.
         24    2    4    4    0    0 -0.26125939934E+03 -0.14144149578E+03 -0.37734064943E+03  0.48688075405E+03  0.80029572503E+02 0.  0.
         11    1    3    3    0    0  0.99597860963E+02 -0.37677818870E+03 -0.11714784368E+04  0.12346024725E+04  0.00000000000E+00 0. -1.
        -11    1    3    3    0    0  0.10599271942E+03 -0.15591691418E+03 -0.58821729903E+03  0.61769258663E+03  0.00000000000E+00 0.  1.
          4    1    6    6  502    0 -0.17886326782E+03 -0.65187383314E+02 -0.27822989342E+03  0.33712510602E+03  0.00000000000E+00 0. -1.
          3    1    5    5  503    0  0.75315969159E+02  0.47895980618E+03 -0.21548152007E+03  0.53057259319E+03  0.00000000000E+00 0. -1.
         -4    1    5    5    0  503 -0.19647150198E+02  0.19517679248E+03 -0.94944784154E+02  0.21793233554E+03  0.00000000000E+00 0.  1.
         -3    1    6    6    0  502 -0.82396131520E+02 -0.76254112470E+02 -0.99110756014E+02  0.14975564803E+03  0.00000000000E+00 0.  1.
<mgrwt>
<rscale>  0 0.18824714E+04</rscale>
<asrwt>0</asrwt>
<pdfrwt beam="1">  1        2 0.42578028E+00 0.18824714E+04</pdfrwt>
<pdfrwt beam="2">  1       -2 0.49247541E-01 0.18824714E+04</pdfrwt>
<totfact> 0.88727058E+00</totfact>
</mgrwt>
</event>
<event>
12    1  0.1541840E-007  0.1499427E+04  0.7818608E-02  0.8884834E-01
          2   -1    0    0  501    0  0.00000000000E+00  0.00000000000E+00  0.36420977446E+04  0.36420977446E+04  0.00000000000E+00 0. -1.
         -2   -1    0    0    0  501 -0.00000000000E+00 -0.00000000000E+00 -0.15432604782E+03  0.15432604782E+03  0.00000000000E+00 0.  1.
         23    2    1    2    0    0  0.17423920378E+03  0.41489109344E+03  0.76427104221E+03  0.89151555492E+03  0.90530874019E+02 0.  0.
        254    2    1    2    0    0 -0.17423920378E+03 -0.41489109344E+03  0.27235006545E+04  0.29049082375E+04  0.90473318351E+03 0.  0.
        -24    2    4    4    0    0  0.11140862472E+03 -0.24303252836E+03  0.16641123237E+03  0.32493346816E+03  0.80077268739E+02 0.  0.
         24    2    4    4    0    0 -0.28564782850E+03 -0.17185856508E+03  0.25570894222E+04  0.25799747693E+04  0.80208783929E+02 0.  0.
         11    1    3    3    0    0  0.11194951692E+01  0.74083717167E+02  0.16258863322E+03  0.17867488372E+03  0.00000000000E+00 0.  1.
        -11    1    3    3    0    0  0.17311970861E+03  0.34080737627E+03  0.60168240899E+03  0.71284067120E+03  0.00000000000E+00 0. -1.
          2    1    6    6  502    0 -0.37886107233E+02 -0.37714074021E+02  0.64880046093E+03  0.65099903733E+03  0.00000000000E+00 0. -1.
          3    1    5    5  503    0 -0.11681260802E+02 -0.36350216921E+02  0.17375499195E+02  0.41948755600E+02  0.00000000000E+00 0. -1.
         -4    1    5    5    0  503  0.12308988552E+03 -0.20668231144E+03  0.14903573317E+03  0.28298471256E+03  0.00000000000E+00 0.  1.
         -1    1    6    6    0  502 -0.24776172127E+03 -0.13414449106E+03  0.19082889612E+04  0.19289757320E+04  0.00000000000E+00 0.  1.
<mgrwt>
<rscale>  0 0.14994273E+04</rscale>
<asrwt>0</asrwt>
<pdfrwt beam="1">  1        2 0.56032267E+00 0.14994273E+04</pdfrwt>
<pdfrwt beam="2">  1       -2 0.23742472E-01 0.14994273E+04</pdfrwt>
<totfact> 0.99596898E+00</totfact>
</mgrwt>
</event>
<event>
12    1  0.1541840E-007  0.1709016E+04  0.7818608E-02  0.8756239E-01
          1   -1    0    0  501    0  0.00000000000E+00  0.00000000000E+00  0.10747243294E+04  0.10747243294E+04  0.00000000000E+00 0. -1.
         -1   -1    0    0    0  501 -0.00000000000E+00 -0.00000000000E+00 -0.67941512846E+03  0.67941512846E+03  0.00000000000E+00 0.  1.
         23    2    1    2    0    0 -0.25485251216E+03  0.47748742952E+03 -0.15332119645E+03  0.57015544181E+03  0.92875132542E+02 0.  0.
        254    2    1    2    0    0  0.25485251216E+03 -0.47748742952E+03  0.54863039736E+03  0.11839840160E+04  0.89882077688E+03 0.  0.
        -24    2    4    4    0    0 -0.25099966040E+03  0.12506825654E+02  0.36968117199E+03  0.45301447797E+03  0.73489442236E+02 0.  0.
         24    2    4    4    0    0  0.50585217256E+03 -0.48999425517E+03  0.17894922537E+03  0.73096953804E+03  0.79453443556E+02 0.  0.
         13    1    3    3    0    0 -0.61148264998E+02  0.15833057537E+03 -0.87859334632E+02  0.19112023464E+03  0.00000000000E+00 0.  1.
        -13    1    3    3    0    0 -0.19370424716E+03  0.31915685415E+03 -0.65461861819E+02  0.37903520717E+03  0.00000000000E+00 0. -1.
          4    1    6    6  502    0  0.38549836931E+03 -0.32911597418E+03  0.11114285297E+03  0.51892104502E+03  0.00000000000E+00 0. -1.
          3    1    5    5  503    0 -0.80346965207E+02 -0.21103561118E+02  0.16250845038E+03  0.18251025055E+03  0.00000000000E+00 0. -1.
         -4    1    5    5    0  503 -0.17065269519E+03  0.33610386773E+02  0.20717272160E+03  0.27050422742E+03  0.00000000000E+00 0.  1.
         -3    1    6    6    0  502  0.12035380325E+03 -0.16087828099E+03  0.67806372398E+02  0.21204849301E+03  0.00000000000E+00 0.  1.
<mgrwt>
<rscale>  0 0.17090161E+04</rscale>
<asrwt>0</asrwt>
<pdfrwt beam="1">  1        1 0.16534220E+00 0.17090161E+04</pdfrwt>
<pdfrwt beam="2">  1       -1 0.10452540E+00 0.17090161E+04</pdfrwt>
<totfact> 0.10842476E+01</totfact>
</mgrwt>
</event>
<event>
12    1  0.1541840E-007  0.1616606E+04  0.7818608E-02  0.8810411E-01
          1   -1    0    0  501    0  0.00000000000E+00  0.00000000000E+00  0.12815631900E+04  0.12815631900E+04  0.00000000000E+00 0. -1.
         -1   -1    0    0    0  501 -0.00000000000E+00 -0.00000000000E+00 -0.50980985428E+03  0.50980985428E+03  0.00000000000E+00 0.  1.
         23    2    1    2    0    0 -0.12004645528E+03  0.21383779865E+03 -0.26845709147E+03  0.37501883984E+03  0.91826819153E+02 0.  0.
        254    2    1    2    0    0  0.12004645528E+03 -0.21383779865E+03  0.10402104272E+04  0.14163542045E+04  0.92945346525E+03 0.  0.
        -24    2    4    4    0    0  0.30268351732E+02  0.35750344514E+03  0.30657174953E+03  0.47853518213E+03  0.79276708539E+02 0.  0.
         24    2    4    4    0    0  0.89778103552E+02 -0.57134124379E+03  0.73363867769E+03  0.93781902235E+03  0.82388618960E+02 0.  0.
         13    1    3    3    0    0 -0.98389820706E+02  0.21723209069E+03 -0.23348752904E+03  0.33374655693E+03  0.00000000000E+00 0.  1.
        -13    1    3    3    0    0 -0.21656634578E+02 -0.33942920471E+01 -0.34969562433E+02  0.41272282908E+02  0.00000000000E+00 0. -1.
          4    1    6    6  502    0  0.69651962669E+02 -0.27876980282E+03  0.31123287490E+03  0.42359166810E+03  0.00000000000E+00 0. -1.
          1    1    5    5  503    0 -0.19573195974E+02  0.14225607629E+03  0.91954921527E+02  0.17051571434E+03  0.00000000000E+00 0. -1.
         -2    1    5    5    0  503  0.49841547706E+02  0.21524736885E+03  0.21461682801E+03  0.30801946779E+03  0.00000000000E+00 0.  1.
         -3    1    6    6    0  502  0.20126140883E+02 -0.29257144097E+03  0.42240580279E+03  0.51422735424E+03  0.00000000000E+00 0.  1.
<mgrwt>
<rscale>  0 0.16166058E+04</rscale>
<asrwt>0</asrwt>
<pdfrwt beam="1">  1        1 0.19716357E+00 0.16166058E+04</pdfrwt>
<pdfrwt beam="2">  1       -1 0.78432286E-01 0.16166058E+04</pdfrwt>
<totfact> 0.14538625E+01</totfact>
</mgrwt>
</event>
<event>
12    1  0.1541840E-007  0.2488259E+04  0.7818608E-02  0.8407180E-01
         -1   -1    0    0    0  501 -0.00000000000E+00  0.00000000000E+00  0.10545583599E+04  0.10545583599E+04  0.00000000000E+00 0.  1.
          1   -1    0    0  501    0  0.00000000000E+00 -0.00000000000E+00 -0.14677782685E+04  0.14677782685E+04  0.00000000000E+00 0. -1.
         23    2    1    2    0    0  0.32726890191E+03 -0.10148978326E+04 -0.78505063078E+02  0.10731631948E+04  0.91616881556E+02 0.  0.
        254    2    1    2    0    0 -0.32726890191E+03  0.10148978326E+04 -0.33471484552E+03  0.14491734336E+04  0.92246792261E+03 0.  0.
        -24    2    4    4    0    0 -0.29214638697E+03  0.99682224814E+03 -0.57756259853E+03  0.11911039035E+04  0.78395459041E+02 0.  0.
         24    2    4    4    0    0 -0.35122514940E+02  0.18075584440E+02  0.24284775301E+03  0.25806953010E+03  0.77875114228E+02 0.  0.
         11    1    3    3    0    0  0.17153402489E+03 -0.54412231254E+03  0.36857025815E+01  0.57053185459E+03  0.00000000000E+00 0. -1.
        -11    1    3    3    0    0  0.15573487702E+03 -0.47077552004E+03 -0.82190765659E+02  0.50263134020E+03  0.00000000000E+00 0.  1.
          4    1    6    6  502    0 -0.25240335604E+02 -0.29320789298E+02  0.98907211438E+02  0.10620461243E+03  0.00000000000E+00 0. -1.
          1    1    5    5  503    0 -0.23514506772E+03  0.89085368951E+03 -0.51279547672E+03  0.10544537448E+04  0.00000000000E+00 0. -1.
         -2    1    5    5    0  503 -0.57001319258E+02  0.10596855863E+03 -0.64767121808E+02  0.13665015874E+03  0.00000000000E+00 0.  1.
         -3    1    6    6    0  502 -0.98821793357E+01  0.47396373738E+02  0.14394054158E+03  0.15186491768E+03  0.00000000000E+00 0.  1.
<mgrwt>
<rscale>  0 0.24882587E+04</rscale>
<asrwt>0</asrwt>
<pdfrwt beam="1">  1        1 0.22581204E+00 0.24882587E+04</pdfrwt>
<pdfrwt beam="2">  1       -1 0.16223975E+00 0.24882587E+04</pdfrwt>
<totfact> 0.17217851E+00</totfact>
</mgrwt>
</event>
<event>
12    1  0.1541840E-007  0.1543491E+04  0.7818608E-02  0.8856036E-01
          1   -1    0    0  501    0  0.00000000000E+00  0.00000000000E+00  0.92050781345E+03  0.92050781345E+03  0.00000000000E+00 0. -1.
         -1   -1    0    0    0  501 -0.00000000000E+00 -0.00000000000E+00 -0.64702410823E+03  0.64702410823E+03  0.00000000000E+00 0.  1.
         23    2    1    2    0    0 -0.15663800983E+03 -0.30711417854E+03 -0.27773881118E+03  0.45544200592E+03  0.10692983089E+03 0.  0.
        254    2    1    2    0    0  0.15663800983E+03  0.30711417854E+03  0.55122251640E+03  0.11120899158E+04  0.90224338921E+03 0.  0.
        -24    2    4    4    0    0  0.98107459220E+02  0.17687599093E+03  0.79189719859E+03  0.82141540643E+03  0.81926229427E+02 0.  0.
         24    2    4    4    0    0  0.58530550607E+02  0.13023818761E+03 -0.24067468219E+03  0.29067450933E+03  0.78610157517E+02 0.  0.
         13    1    3    3    0    0 -0.11753478882E+01 -0.10553449091E+03 -0.67448066707E+02  0.12525235294E+03  0.00000000000E+00 0. -1.
        -13    1    3    3    0    0 -0.15546266194E+03 -0.20157968762E+03 -0.21029074447E+03  0.33018965297E+03  0.00000000000E+00 0.  1.
          4    1    6    6  502    0 -0.15119465175E+02  0.44278703599E+02 -0.46825312014E+02  0.66195254096E+02  0.00000000000E+00 0. -1.
          3    1    5    5  503    0  0.22854860442E+02  0.66873010114E+01  0.37619871174E+02  0.44523245027E+02  0.00000000000E+00 0. -1.
         -4    1    5    5    0  503  0.75252598779E+02  0.17018868992E+03  0.75427732741E+03  0.77689216140E+03  0.00000000000E+00 0.  1.
         -3    1    6    6    0  502  0.73650015782E+02  0.85959484009E+02 -0.19384937017E+03  0.22447925524E+03  0.00000000000E+00 0.  1.
<mgrwt>
<rscale>  0 0.15434905E+04</rscale>
<asrwt>0</asrwt>
<pdfrwt beam="1">  1        1 0.14161659E+00 0.15434905E+04</pdfrwt>
<pdfrwt beam="2">  1       -1 0.99542171E-01 0.15434905E+04</pdfrwt>
<totfact> 0.16260326E+01</totfact>
</mgrwt>
</event>
<event>
12    1  0.1541840E-007  0.3373875E+04  0.7818608E-02  0.8144348E-01
         -2   -1    0    0    0  501 -0.00000000000E+00  0.00000000000E+00  0.69296222664E+03  0.69296222664E+03  0.00000000000E+00 0.  1.
          2   -1    0    0  501    0  0.00000000000E+00 -0.00000000000E+00 -0.41066573942E+04  0.41066573942E+04  0.00000000000E+00 0. -1.
         23    2    1    2    0    0 -0.60467878344E+03  0.12518395962E+03 -0.36522715536E+04  0.37052554764E+04  0.92321121339E+02 0.  0.
        254    2    1    2    0    0  0.60467878344E+03 -0.12518395962E+03  0.23857638602E+03  0.10943641444E+04  0.87143946076E+03 0.  0.
        -24    2    4    4    0    0 -0.18573149243E+03 -0.16198046851E+03 -0.14897527049E+02  0.25979521181E+03  0.80856393128E+02 0.  0.
         24    2    4    4    0    0  0.79041027587E+03  0.36796508893E+02  0.25347391307E+03  0.83456893262E+03  0.78446742555E+02 0.  0.
         13    1    3    3    0    0 -0.51408360409E+03  0.13337305818E+03 -0.32213166316E+04  0.32648049200E+04  0.00000000000E+00 0. -1.
        -13    1    3    3    0    0 -0.90595179351E+02 -0.81890985587E+01 -0.43095492196E+03  0.44045055639E+03  0.00000000000E+00 0.  1.
          2    1    6    6  502    0  0.76553289635E+02  0.23660326867E+02  0.38730813838E+02  0.88996028911E+02  0.00000000000E+00 0. -1.
          3    1    5    5  503    0 -0.90615615054E+02 -0.11260266840E+03 -0.39505304622E+02  0.14983731082E+03  0.00000000000E+00 0. -1.
         -4    1    5    5    0  503 -0.95115877376E+02 -0.49377800117E+02  0.24607777573E+02  0.10995790099E+03  0.00000000000E+00 0.  1.
         -1    1    6    6    0  502  0.71385698624E+03  0.13136182025E+02  0.21474309923E+03  0.74557290371E+03  0.00000000000E+00 0.  1.
<mgrwt>
<rscale>  0 0.33738752E+04</rscale>
<asrwt>0</asrwt>
<pdfrwt beam="1">  1        2 0.63179343E+00 0.33738752E+04</pdfrwt>
<pdfrwt beam="2">  1       -2 0.10660958E+00 0.33738752E+04</pdfrwt>
<totfact> 0.16394435E-01</totfact>
</mgrwt>
</event>
<event>
12    1  0.1541840E-007  0.2679503E+04  0.7818608E-02  0.8341686E-01
         -1   -1    0    0    0  501 -0.00000000000E+00  0.00000000000E+00  0.13458100141E+04  0.13458100141E+04  0.00000000000E+00 0.  1.
          1   -1    0    0  501    0  0.00000000000E+00 -0.00000000000E+00 -0.13337200312E+04  0.13337200312E+04  0.00000000000E+00 0. -1.
         23    2    1    2    0    0  0.43784974628E+03  0.20838589548E+03 -0.10754093140E+04  0.11832201186E+04  0.91474449099E+02 0.  0.
        254    2    1    2    0    0 -0.43784974628E+03 -0.20838589548E+03  0.10874992969E+04  0.14963099266E+04  0.90617415214E+03 0.  0.
        -24    2    4    4    0    0  0.88136981579E+02  0.66350431397E+02 -0.97925569378E+02  0.16833068927E+03  0.81088202238E+02 0.  0.
         24    2    4    4    0    0 -0.52598672786E+03 -0.27473632688E+03  0.11854248663E+04  0.13279792374E+04  0.78451603320E+02 0.  0.
         11    1    3    3    0    0  0.79759214672E+02  0.77234796557E+02 -0.21100176919E+03  0.23842921953E+03  0.00000000000E+00 0.  1.
        -11    1    3    3    0    0  0.35809053161E+03  0.13115109892E+03 -0.86440754479E+03  0.94479089912E+03  0.00000000000E+00 0. -1.
          4    1    6    6  502    0 -0.35464382249E+03 -0.15206246285E+03  0.81715134133E+03  0.90367668337E+03  0.00000000000E+00 0. -1.
          1    1    5    5  503    0  0.64392268880E+02  0.21074931310E+01 -0.67733501924E+02  0.93480656297E+02  0.00000000000E+00 0. -1.
         -2    1    5    5    0  503  0.23744712699E+02  0.64242938266E+02 -0.30192067454E+02  0.74850032968E+02  0.00000000000E+00 0.  1.
         -3    1    6    6    0  502 -0.17134290538E+03 -0.12267386403E+03  0.36827352498E+03  0.42430255401E+03  0.00000000000E+00 0.  1.
<mgrwt>
<rscale>  0 0.26795028E+04</rscale>
<asrwt>0</asrwt>
<pdfrwt beam="1">  1        1 0.20518770E+00 0.26795028E+04</pdfrwt>
<pdfrwt beam="2">  1       -1 0.20704770E+00 0.26795028E+04</pdfrwt>
<totfact> 0.10079628E+00</totfact>
</mgrwt>
</event>
<event>
12    1  0.1541840E-007  0.1256995E+04  0.7818608E-02  0.9064382E-01
          1   -1    0    0  501    0  0.00000000000E+00  0.00000000000E+00  0.35969897764E+03  0.35969897764E+03  0.00000000000E+00 0. -1.
         -1   -1    0    0    0  501 -0.00000000000E+00 -0.00000000000E+00 -0.10981651009E+04  0.10981651009E+04  0.00000000000E+00 0.  1.
         23    2    1    2    0    0 -0.67996225722E+02  0.22610771703E+03 -0.38720537182E+03  0.46257445975E+03  0.91098542461E+02 0.  0.
        254    2    1    2    0    0  0.67996225722E+02 -0.22610771703E+03 -0.35126075140E+03  0.99528961874E+03  0.90081580986E+03 0.  0.
        -24    2    4    4    0    0 -0.96052031569E+02 -0.39687603023E+02  0.28203411794E+03  0.31071694017E+03  0.78744362522E+02 0.  0.
         24    2    4    4    0    0  0.16404825729E+03 -0.18642011400E+03 -0.63329486933E+03  0.68457267857E+03  0.76896495958E+02 0.  0.
         13    1    3    3    0    0 -0.50671220290E+02  0.22983202511E+03 -0.36066790151E+03  0.43066421666E+03  0.00000000000E+00 0.  1.
        -13    1    3    3    0    0 -0.17325005432E+02 -0.37243080808E+01 -0.26537470301E+02  0.31910243087E+02  0.00000000000E+00 0. -1.
          2    1    6    6  502    0  0.11255262958E+03 -0.16941645569E+03 -0.45926686207E+03  0.50229083257E+03  0.00000000000E+00 0. -1.
          3    1    5    5  503    0 -0.79775889146E+02 -0.37356110446E+02  0.28072646761E+03  0.29422274061E+03  0.00000000000E+00 0. -1.
         -4    1    5    5    0  503 -0.16276142423E+02 -0.23314925766E+01  0.13076503264E+01  0.16494199562E+02  0.00000000000E+00 0.  1.
         -1    1    6    6    0  502  0.51495627709E+02 -0.17003658313E+02 -0.17402800727E+03  0.18228184600E+03  0.00000000000E+00 0.  1.
<mgrwt>
<rscale>  0 0.12569946E+04</rscale>
<asrwt>0</asrwt>
<pdfrwt beam="1">  1        1 0.55338304E-01 0.12569946E+04</pdfrwt>
<pdfrwt beam="2">  1       -1 0.16894848E+00 0.12569946E+04</pdfrwt>
<totfact> 0.17055377E+01</totfact>
</mgrwt>
</event>
<event>
12    1  0.1541840E-007  0.1117368E+04  0.7818608E-02  0.9188428E-01
         -2   -1    0    0    0  501 -0.00000000000E+00  0.00000000000E+00  0.20804839493E+03  0.20804839493E+03  0.00000000000E+00 0. -1.
          2   -1    0    0  501    0  0.00000000000E+00 -0.00000000000E+00 -0.15002641260E+04  0.15002641260E+04  0.00000000000E+00 0.  1.
         23    2    1    2    0    0 -0.39871065829E+02 -0.11056762291E+03 -0.10722584759E+03  0.18226453480E+03  0.88927369968E+02 0.  0.
        254    2    1    2    0    0  0.39871065829E+02  0.11056762291E+03 -0.11849898835E+04  0.15260479862E+04  0.95436184485E+03 0.  0.
        -24    2    4    4    0    0 -0.13347992939E+03  0.48699466815E+03 -0.82898079242E+03  0.97390935712E+03  0.79432885622E+02 0.  0.
         24    2    4    4    0    0  0.17335099522E+03 -0.37642704524E+03 -0.35600909110E+03  0.55213862905E+03  0.79791633709E+02 0.  0.
         11    1    3    3    0    0 -0.21469516199E+02 -0.10303547662E+03 -0.40721825518E+02  0.11285174629E+03  0.00000000000E+00 0. -1.
        -11    1    3    3    0    0 -0.18401549630E+02 -0.75321462884E+01 -0.66504022077E+02  0.69412788511E+02  0.00000000000E+00 0.  1.
          4    1    6    6  502    0  0.23420643544E+02 -0.10891545290E+03 -0.62937130840E+02  0.12795383880E+03  0.00000000000E+00 0. -1.
          3    1    5    5  503    0 -0.66671168629E+01  0.65222144599E+02 -0.16061249141E+03  0.17347838768E+03  0.00000000000E+00 0. -1.
         -4    1    5    5    0  503 -0.12681281253E+03  0.42177252355E+03 -0.66836830101E+03  0.80043096944E+03  0.00000000000E+00 0.  1.
         -3    1    6    6    0  502  0.14993035167E+03 -0.26751159234E+03 -0.29307196026E+03  0.42418479025E+03  0.00000000000E+00 0.  1.
<mgrwt>
<rscale>  0 0.11173675E+04</rscale>
<asrwt>0</asrwt>
<pdfrwt beam="1">  1        2 0.23080988E+00 0.11173675E+04</pdfrwt>
<pdfrwt beam="2">  1       -2 0.32007444E-01 0.11173675E+04</pdfrwt>
<totfact> 0.11419706E+02</totfact>
</mgrwt>
</event>
<event>
12    1  0.1541840E-007  0.2552513E+04  0.7818608E-02  0.8384513E-01
         -1   -1    0    0    0  501 -0.00000000000E+00  0.00000000000E+00  0.98188804494E+03  0.98188804494E+03  0.00000000000E+00 0.  1.
          1   -1    0    0  501    0  0.00000000000E+00 -0.00000000000E+00 -0.16588759492E+04  0.16588759492E+04  0.00000000000E+00 0. -1.
         23    2    1    2    0    0 -0.71122008806E+03 -0.65992440775E+02 -0.11209741072E+04  0.13327960392E+04  0.97843330201E+02 0.  0.
        254    2    1    2    0    0  0.71122008806E+03  0.65992440775E+02  0.44398620296E+03  0.13079679549E+04  0.10017322031E+04 0.  0.
        -24    2    4    4    0    0  0.10475658738E+02 -0.33711839053E+03 -0.59912423003E+02  0.35179740835E+03  0.80083515359E+02 0.  0.
         24    2    4    4    0    0  0.70074442932E+03  0.40311083130E+03  0.50389862596E+03  0.95617054654E+03  0.82505704538E+02 0.  0.
         13    1    3    3    0    0 -0.65639529450E+03 -0.86121999154E+02 -0.10432718846E+04  0.12355921684E+04  0.00000000000E+00 0. -1.
        -13    1    3    3    0    0 -0.54824793564E+02  0.20129558378E+02 -0.77702222608E+02  0.97203870849E+02  0.00000000000E+00 0.  1.
          2    1    6    6  502    0  0.18094393578E+03  0.95128060557E+02  0.87357503569E+02  0.22230921985E+03  0.00000000000E+00 0. -1.
          1    1    5    5  503    0  0.23227367038E+02 -0.21583049089E+03 -0.73276933813E+02  0.22911093472E+03  0.00000000000E+00 0. -1.
         -2    1    5    5    0  503 -0.12751708300E+02 -0.12128789964E+03  0.13364510810E+02  0.12268647363E+03  0.00000000000E+00 0.  1.
         -3    1    6    6    0  502  0.51980049354E+03  0.30798277075E+03  0.41654112239E+03  0.73386132669E+03  0.00000000000E+00 0.  1.
<mgrwt>
<rscale>  0 0.25525129E+04</rscale>
<asrwt>0</asrwt>
<pdfrwt beam="1">  1        1 0.25521168E+00 0.25525129E+04</pdfrwt>
<pdfrwt beam="2">  1       -1 0.15105970E+00 0.25525129E+04</pdfrwt>
<totfact> 0.15393510E+00</totfact>
</mgrwt>
</event>
<event>
12    1  0.1541840E-007  0.1828593E+04  0.7818608E-02  0.8691240E-01
          2   -1    0    0  501    0  0.00000000000E+00  0.00000000000E+00  0.20197639138E+04  0.20197639138E+04  0.00000000000E+00 0.  1.
         -2   -1    0    0    0  501 -0.00000000000E+00 -0.00000000000E+00 -0.41387905665E+03  0.41387905665E+03  0.00000000000E+00 0. -1.
         23    2    1    2    0    0  0.45541992294E+03  0.51102701806E+03  0.52066099787E+03  0.86503324732E+03  0.92944740983E+02 0.  0.
        254    2    1    2    0    0 -0.45541992294E+03 -0.51102701806E+03  0.10852238592E+04  0.15686097231E+04  0.90236894854E+03 0.  0.
        -24    2    4    4    0    0 -0.24396443316E+03 -0.75639622206E+03  0.75351635822E+03  0.10981773636E+04  0.80948936505E+02 0.  0.
         24    2    4    4    0    0 -0.21145548977E+03  0.24536920401E+03  0.33170750103E+03  0.47043235953E+03  0.79732479121E+02 0.  0.
         11    1    3    3    0    0  0.31115391446E+03  0.38245545055E+03  0.41701777793E+03  0.64574976364E+03  0.00000000000E+00 0. -1.
        -11    1    3    3    0    0  0.14426600848E+03  0.12857156751E+03  0.10364321994E+03  0.21928348368E+03  0.00000000000E+00 0.  1.
          2    1    6    6  502    0 -0.18131454354E+03  0.16788415326E+03  0.27546229357E+03  0.37005341208E+03  0.00000000000E+00 0. -1.
          1    1    5    5  503    0 -0.17241672373E+03 -0.61763781439E+03  0.63191159220E+03  0.90028676362E+03  0.00000000000E+00 0. -1.
         -2    1    5    5    0  503 -0.71547709437E+02 -0.13875840768E+03  0.12160476601E+03  0.19789059994E+03  0.00000000000E+00 0.  1.
         -1    1    6    6    0  502 -0.30140946228E+02  0.77485050746E+02  0.56245207458E+02  0.10037894745E+03  0.00000000000E+00 0.  1.
<mgrwt>
<rscale>  0 0.18285929E+04</rscale>
<asrwt>0</asrwt>
<pdfrwt beam="1">  1        2 0.31073291E+00 0.18285929E+04</pdfrwt>
<pdfrwt beam="2">  1       -2 0.63673702E-01 0.18285929E+04</pdfrwt>
<totfact> 0.14001390E+01</totfact>
</mgrwt>
</event>
<event>
12    1  0.1541840E-007  0.1786734E+04  0.7818608E-02  0.8713386E-01
         -2   -1    0    0    0  501 -0.00000000000E+00  0.00000000000E+00  0.62140897996E+03  0.62140897996E+03  0.00000000000E+00 0.  1.
          2   -1    0    0  501    0  0.00000000000E+00 -0.00000000000E+00 -0.12843467266E+04  0.12843467266E+04  0.00000000000E+00 0. -1.
         23    2    1    2    0    0 -0.27325212273E+03  0.12868105421E+03 -0.86475578954E+03  0.92411100265E+03  0.12228259643E+03 0.  0.
        254    2    1    2    0    0  0.27325212273E+03 -0.12868105421E+03  0.20181804288E+03  0.98164470393E+03  0.91195957478E+03 0.  0.
        -24    2    4    4    0    0 -0.36845085146E+02  0.22099447361E+03 -0.23553773562E+03  0.33686131578E+03  0.88325554066E+02 0.  0.
         24    2    4    4    0    0  0.31009720788E+03 -0.34967552782E+03  0.43735577850E+03  0.64478338815E+03  0.77667802604E+02 0.  0.
         13    1    3    3    0    0 -0.21948278597E+03  0.14569941499E+03 -0.77025733864E+03  0.81406227071E+03  0.00000000000E+00 0. -1.
        -13    1    3    3    0    0 -0.53769336759E+02 -0.17018360783E+02 -0.94498450897E+02  0.11004873194E+03  0.00000000000E+00 0.  1.
          2    1    6    6  502    0  0.13341248769E+03 -0.98992162106E+02  0.17350955773E+03  0.24021637466E+03  0.00000000000E+00 0. -1.
          3    1    5    5  503    0 -0.20629359517E+01  0.53762910872E+01  0.79215334270E+01  0.97934111743E+01  0.00000000000E+00 0. -1.
         -4    1    5    5    0  503 -0.34782149195E+02  0.21561818252E+03 -0.24345926905E+03  0.32706790460E+03  0.00000000000E+00 0.  1.
         -1    1    6    6    0  502  0.17668472018E+03 -0.25068336571E+03  0.26384622076E+03  0.40456701349E+03  0.00000000000E+00 0.  1.
<mgrwt>
<rscale>  0 0.17867340E+04</rscale>
<asrwt>0</asrwt>
<pdfrwt beam="1">  1        2 0.19759180E+00 0.17867340E+04</pdfrwt>
<pdfrwt beam="2">  1       -2 0.95601383E-01 0.17867340E+04</pdfrwt>
<totfact> 0.14655365E+01</totfact>
</mgrwt>
</event>
<event>
12    1  0.1541840E-007  0.1732517E+04  0.7818608E-02  0.8743033E-01
         -1   -1    0    0    0  501 -0.00000000000E+00  0.00000000000E+00  0.41848067119E+03  0.41848067119E+03  0.00000000000E+00 0.  1.
          1   -1    0    0  501    0  0.00000000000E+00 -0.00000000000E+00 -0.17931626058E+04  0.17931626058E+04  0.00000000000E+00 0. -1.
         23    2    1    2    0    0  0.41608470871E+03 -0.34854636740E+03 -0.89797599465E+03  0.10543673518E+04  0.10353052901E+03 0.  0.
        254    2    1    2    0    0 -0.41608470871E+03  0.34854636740E+03 -0.47670593994E+03  0.11572759252E+04  0.90411722627E+03 0.  0.
        -24    2    4    4    0    0 -0.21207659750E+02  0.55552655952E+03 -0.10411491611E+03  0.57091589013E+03  0.77752907844E+02 0.  0.
         24    2    4    4    0    0 -0.39487704896E+03 -0.20698019211E+03 -0.37259102384E+03  0.58636003509E+03  0.78900798325E+02 0.  0.
         11    1    3    3    0    0  0.56218798576E+02 -0.78202632445E+02 -0.22499193071E+03  0.24473980861E+03  0.00000000000E+00 0. -1.
        -11    1    3    3    0    0  0.35986591014E+03 -0.27034373496E+03 -0.67298406395E+03  0.80962754316E+03  0.00000000000E+00 0.  1.
          2    1    6    6  502    0 -0.17219789261E+03 -0.10604490660E+03 -0.21667666977E+03  0.29638896008E+03  0.00000000000E+00 0. -1.
          1    1    5    5  503    0  0.14529486190E+02  0.23711244405E+02  0.98585678986E-01  0.27808969763E+02  0.00000000000E+00 0. -1.
         -2    1    5    5    0  503 -0.35737145940E+02  0.53181531512E+03 -0.10421350179E+03  0.54310692036E+03  0.00000000000E+00 0.  1.
         -1    1    6    6    0  502 -0.22267915635E+03 -0.10093528552E+03 -0.15591435407E+03  0.28997107500E+03  0.00000000000E+00 0.  1.
<mgrwt>
<rscale>  0 0.17325171E+04</rscale>
<asrwt>0</asrwt>
<pdfrwt beam="1">  1        1 0.27587117E+00 0.17325171E+04</pdfrwt>
<pdfrwt beam="2">  1       -1 0.64381643E-01 0.17325171E+04</pdfrwt>
<totfact> 0.95605198E+00</totfact>
</mgrwt>
</event>
<event>
12    1  0.1541840E-007  0.1409219E+04  0.7818608E-02  0.8947172E-01
         -2   -1    0    0    0  501 -0.00000000000E+00  0.00000000000E+00  0.99608048370E+03  0.99608048370E+03  0.00000000000E+00 0.  1.
          2   -1    0    0  501    0  0.00000000000E+00 -0.00000000000E+00 -0.49842805231E+03  0.49842805231E+03  0.00000000000E+00 0. -1.
         23    2    1    2    0    0  0.24681312816E+03  0.82313694918E+02 -0.16721027867E+03  0.32270321009E+03  0.92118510134E+02 0.  0.
        254    2    1    2    0    0 -0.24681312816E+03 -0.82313694918E+02  0.66486271006E+03  0.11718053259E+04  0.92918945001E+03 0.  0.
        -24    2    4    4    0    0 -0.17500846715E+03 -0.19984951639E+03  0.86901795686E+03  0.91270360066E+03  0.85251747991E+02 0.  0.
         24    2    4    4    0    0 -0.71804661007E+02  0.11753582147E+03 -0.20415524680E+03  0.25910172526E+03  0.80521801786E+02 0.  0.
         13    1    3    3    0    0  0.70247607042E+02 -0.12158274065E+02 -0.70718313051E+02  0.10041727802E+03  0.00000000000E+00 0. -1.
        -13    1    3    3    0    0  0.17656552111E+03  0.94471968984E+02 -0.96491965623E+02  0.22228593208E+03  0.00000000000E+00 0.  1.
          4    1    6    6  502    0 -0.62490980954E+02  0.12972988311E+03 -0.18815580145E+03  0.23693368459E+03  0.00000000000E+00 0. -1.
          1    1    5    5  503    0 -0.14360249024E+03 -0.18944704575E+03  0.66929138722E+03  0.71025546063E+03  0.00000000000E+00 0. -1.
         -2    1    5    5    0  503 -0.31405976906E+02 -0.10402470636E+02  0.19972656964E+03  0.20244814003E+03  0.00000000000E+00 0.  1.
         -1    1    6    6    0  502 -0.93136800533E+01 -0.12194061643E+02 -0.15999445348E+02  0.22168040665E+02  0.00000000000E+00 0.  1.
<mgrwt>
<rscale>  0 0.14092189E+04</rscale>
<asrwt>0</asrwt>
<pdfrwt beam="1">  1        2 0.76681239E-01 0.14092189E+04</pdfrwt>
<pdfrwt beam="2">  1       -2 0.15324315E+00 0.14092189E+04</pdfrwt>
<totfact> 0.16998742E+01</totfact>
</mgrwt>
</event>
<event>
12    1  0.1541840E-007  0.1622106E+04  0.7818608E-02  0.8807081E-01
         -2   -1    0    0    0  501 -0.00000000000E+00  0.00000000000E+00  0.12697029415E+04  0.12697029415E+04  0.00000000000E+00 0.  1.
          2   -1    0    0  501    0  0.00000000000E+00 -0.00000000000E+00 -0.51807951386E+03  0.51807951386E+03  0.00000000000E+00 0. -1.
         23    2    1    2    0    0  0.51363944825E+03  0.62808617539E+02  0.47338968765E+02  0.52748442214E+03  0.90710707231E+02 0.  0.
        254    2    1    2    0    0 -0.51363944825E+03 -0.62808617539E+02  0.70428445890E+03  0.12602980332E+04  0.90805513506E+03 0.  0.
        -24    2    4    4    0    0 -0.17304421849E+03 -0.46037875281E+03  0.22590245592E+03  0.54680127255E+03  0.77889758550E+02 0.  0.
         24    2    4    4    0    0 -0.34059522976E+03  0.39757013527E+03  0.47838200298E+03  0.71349676069E+03  0.78493080827E+02 0.  0.
         13    1    3    3    0    0  0.71303539544E+01 -0.10226089510E+02 -0.41835827854E+01  0.13149799204E+02  0.00000000000E+00 0.  1.
        -13    1    3    3    0    0  0.50650909430E+03  0.73034707049E+02  0.51522551551E+02  0.51433462294E+03  0.00000000000E+00 0. -1.
          2    1    6    6  502    0 -0.12783286018E+03  0.11838494793E+03  0.20180284831E+03  0.26660950025E+03  0.00000000000E+00 0. -1.
          1    1    5    5  503    0 -0.43404934769E+00 -0.12018772736E+02  0.21611645473E+02  0.24732620503E+02  0.00000000000E+00 0. -1.
         -2    1    5    5    0  503 -0.17261016914E+03 -0.44835998007E+03  0.20429081045E+03  0.52206865205E+03  0.00000000000E+00 0.  1.
         -1    1    6    6    0  502 -0.21276236958E+03  0.27918518734E+03  0.27657915468E+03  0.44688726044E+03  0.00000000000E+00 0.  1.
<mgrwt>
<rscale>  0 0.16221061E+04</rscale>
<asrwt>0</asrwt>
<pdfrwt beam="1">  1        2 0.79704541E-01 0.16221061E+04</pdfrwt>
<pdfrwt beam="2">  1       -2 0.19533891E+00 0.16221061E+04</pdfrwt>
<totfact> 0.80663911E+00</totfact>
</mgrwt>
</event>
<event>
12    1  0.1541840E-007  0.2608028E+04  0.7818608E-02  0.8365479E-01
         -2   -1    0    0    0  501 -0.00000000000E+00  0.00000000000E+00  0.76899394442E+03  0.76899394442E+03  0.00000000000E+00 0. -1.
          2   -1    0    0  501    0  0.00000000000E+00 -0.00000000000E+00 -0.22112692622E+04  0.22112692622E+04  0.00000000000E+00 0.  1.
         23    2    1    2    0    0  0.76871565269E+03  0.27271701371E+03  0.28458039326E+03  0.86930272489E+03  0.96968567099E+02 0.  0.
        254    2    1    2    0    0 -0.76871565269E+03 -0.27271701371E+03 -0.17268557111E+04  0.21109604818E+04  0.89934708787E+03 0.  0.
        -24    2    4    4    0    0  0.84819623416E+02 -0.18730363759E+03 -0.56070610763E+02  0.23069001609E+03  0.88300333863E+02 0.  0.
         24    2    4    4    0    0 -0.85353527611E+03 -0.85413376118E+02 -0.16707851003E+04  0.18802704657E+04  0.89868016011E+02 0.  0.
         11    1    3    3    0    0  0.50833915329E+03  0.15730574614E+03  0.14170753557E+03  0.55066761133E+03  0.00000000000E+00 0. -1.
        -11    1    3    3    0    0  0.26037649940E+03  0.11541126758E+03  0.14287285769E+03  0.31863511355E+03  0.00000000000E+00 0.  1.
          2    1    6    6  502    0 -0.57154543740E+03 -0.99543413061E+02 -0.11244100539E+04  0.12652553289E+04  0.00000000000E+00 0. -1.
          3    1    5    5  503    0  0.90373378496E+02 -0.19417088937E+03 -0.49878034777E+02  0.21990338827E+03  0.00000000000E+00 0. -1.
         -4    1    5    5    0  503 -0.55537550797E+01  0.68672517750E+01 -0.61925759857E+01  0.10786627822E+02  0.00000000000E+00 0.  1.
         -1    1    6    6    0  502 -0.28198983871E+03  0.14130036943E+02 -0.54637504641E+03  0.61501513674E+03  0.00000000000E+00 0.  1.
<mgrwt>
<rscale>  0 0.26080281E+04</rscale>
<asrwt>0</asrwt>
<pdfrwt beam="1">  1        2 0.34019527E+00 0.26080281E+04</pdfrwt>
<pdfrwt beam="2">  1       -2 0.11830676E+00 0.26080281E+04</pdfrwt>
<totfact> 0.24742337E+00</totfact>
</mgrwt>
</event>
<event>
12    1  0.1541840E-007  0.1640551E+04  0.7818608E-02  0.8796016E-01
         -1   -1    0    0    0  501 -0.00000000000E+00  0.00000000000E+00  0.83233617564E+03  0.83233617564E+03  0.00000000000E+00 0.  1.
          1   -1    0    0  501    0  0.00000000000E+00 -0.00000000000E+00 -0.80838910708E+03  0.80838910708E+03  0.00000000000E+00 0. -1.
         23    2    1    2    0    0 -0.43985359450E+03 -0.13765444168E+03 -0.23599905767E+03  0.52564886851E+03  0.90505512726E+02 0.  0.
        254    2    1    2    0    0  0.43985359450E+03  0.13765444168E+03  0.25994612624E+03  0.11150764142E+04  0.98153119720E+03 0.  0.
        -24    2    4    4    0    0  0.74062133244E+03  0.19061354891E+03  0.17234646162E+03  0.78768814220E+03  0.76784265495E+02 0.  0.
         24    2    4    4    0    0 -0.30076773794E+03 -0.52959107230E+02  0.87599664611E+02  0.32738827202E+03  0.79015695847E+02 0.  0.
         11    1    3    3    0    0 -0.41726541524E+03 -0.13651779859E+03 -0.19841430958E+03  0.48178394985E+03  0.00000000000E+00 0. -1.
        -11    1    3    3    0    0 -0.22588179262E+02 -0.11366430893E+01 -0.37584748093E+02  0.43864918660E+02  0.00000000000E+00 0.  1.
          2    1    6    6  502    0 -0.25685875077E+02  0.16242723304E+02  0.18000701876E+02  0.35321601136E+02  0.00000000000E+00 0. -1.
          3    1    5    5  503    0  0.85595206816E+02  0.50115677824E+00  0.70469367283E+01  0.85886261447E+02  0.00000000000E+00 0. -1.
         -4    1    5    5    0  503  0.65502612562E+03  0.19011239213E+03  0.16529952490E+03  0.70180188075E+03  0.00000000000E+00 0.  1.
         -1    1    6    6    0  502 -0.27508186286E+03 -0.69201830535E+02  0.69598962735E+02  0.29206667088E+03  0.00000000000E+00 0.  1.
<mgrwt>
<rscale>  0 0.16405505E+04</rscale>
<asrwt>0</asrwt>
<pdfrwt beam="1">  1        1 0.12436755E+00 0.16405505E+04</pdfrwt>
<pdfrwt beam="2">  1       -1 0.12805172E+00 0.16405505E+04</pdfrwt>
<totfact> 0.10955905E+01</totfact>
</mgrwt>
</event>
<event>
12    1  0.1541840E-007  0.1553287E+04  0.7818608E-02  0.8849771E-01
         -1   -1    0    0    0  501 -0.00000000000E+00  0.00000000000E+00  0.70410342012E+03  0.70410342012E+03  0.00000000000E+00 0.  1.
          1   -1    0    0  501    0  0.00000000000E+00 -0.00000000000E+00 -0.85665718464E+03  0.85665718464E+03  0.00000000000E+00 0. -1.
         23    2    1    2    0    0  0.31069589390E+03 -0.74863363537E+01 -0.45784345598E+03  0.56091110624E+03  0.91720527693E+02 0.  0.
        254    2    1    2    0    0 -0.31069589390E+03  0.74863363537E+01  0.30528969146E+03  0.99984949852E+03  0.89994957651E+03 0.  0.
        -24    2    4    4    0    0  0.88836126929E+02 -0.30798882720E+03  0.35083810763E+03  0.48229975504E+03  0.82320719229E+02 0.  0.
         24    2    4    4    0    0 -0.39953202083E+03  0.31547516355E+03 -0.45548416172E+02  0.51754974349E+03  0.81441170668E+02 0.  0.
         11    1    3    3    0    0  0.19500785590E+03  0.33297910054E+02 -0.32166353110E+03  0.37762976832E+03  0.00000000000E+00 0.  1.
        -11    1    3    3    0    0  0.11568803800E+03 -0.40784246408E+02 -0.13617992488E+03  0.18328133792E+03  0.00000000000E+00 0. -1.
          2    1    6    6  502    0 -0.68782341078E+02  0.72579084794E+02  0.20042796938E+02  0.10198258529E+03  0.00000000000E+00 0. -1.
          3    1    5    5  503    0  0.56244334511E+01 -0.10148839665E+02  0.48311622954E+02  0.49685471826E+02  0.00000000000E+00 0. -1.
         -4    1    5    5    0  503  0.83211693478E+02 -0.29783998753E+03  0.30252648468E+03  0.43261428321E+03  0.00000000000E+00 0.  1.
         -1    1    6    6    0  502 -0.33074967976E+03  0.24289607876E+03 -0.65591213110E+02  0.41556715820E+03  0.00000000000E+00 0.  1.
<mgrwt>
<rscale>  0 0.15532872E+04</rscale>
<asrwt>0</asrwt>
<pdfrwt beam="1">  1        1 0.13179341E+00 0.15532872E+04</pdfrwt>
<pdfrwt beam="2">  1       -1 0.10832360E+00 0.15532872E+04</pdfrwt>
<totfact> 0.15074679E+01</totfact>
</mgrwt>
</event>
<event>
12    1  0.1541840E-007  0.1045877E+04  0.7818608E-02  0.9259611E-01
         -2   -1    0    0    0  501 -0.00000000000E+00  0.00000000000E+00  0.17620569173E+04  0.17620569173E+04  0.00000000000E+00 0. -1.
          2   -1    0    0  501    0  0.00000000000E+00 -0.00000000000E+00 -0.15519624495E+03  0.15519624495E+03  0.00000000000E+00 0.  1.
         23    2    1    2    0    0 -0.19931959638E+03  0.66317815094E+02  0.39445498612E+03  0.45654712039E+03  0.93349788243E+02 0.  0.
        254    2    1    2    0    0  0.19931959638E+03 -0.66317815094E+02  0.12124056862E+04  0.14607060418E+04  0.78715197937E+03 0.  0.
        -24    2    4    4    0    0  0.43826016862E+03  0.16269186802E+03  0.69550938383E+03  0.84178199788E+03  0.79517354291E+02 0.  0.
         24    2    4    4    0    0 -0.23894057224E+03 -0.22900968312E+03  0.51689630237E+03  0.61892404396E+03  0.79669020064E+02 0.  0.
         11    1    3    3    0    0 -0.81314888757E+01 -0.20154319832E+00  0.93461099469E+02  0.93814385064E+02  0.00000000000E+00 0. -1.
        -11    1    3    3    0    0 -0.19118810750E+03  0.66519358293E+02  0.30099388665E+03  0.36273273533E+03  0.00000000000E+00 0.  1.
          2    1    6    6  502    0 -0.73003463533E+02 -0.47973688308E+02  0.83824358434E+02  0.12106817718E+03  0.00000000000E+00 0. -1.
          3    1    5    5  503    0  0.57908841621E+02  0.94865592583E-02  0.59142087411E+02  0.82772099957E+02  0.00000000000E+00 0. -1.
         -4    1    5    5    0  503  0.38035132700E+03  0.16268238147E+03  0.63636729642E+03  0.75900989792E+03  0.00000000000E+00 0.  1.
         -1    1    6    6    0  502 -0.16593710871E+03 -0.18103599481E+03  0.43307194394E+03  0.49785586678E+03  0.00000000000E+00 0.  1.
<mgrwt>
<rscale>  0 0.10458769E+04</rscale>
<asrwt>0</asrwt>
<pdfrwt beam="1">  1        2 0.23876347E-01 0.10458769E+04</pdfrwt>
<pdfrwt beam="2">  1       -2 0.27108567E+00 0.10458769E+04</pdfrwt>
<totfact> 0.11092934E+01</totfact>
</mgrwt>
</event>
<event>
12    1  0.1541840E-007  0.1714663E+04  0.7818608E-02  0.8753045E-01
         -1   -1    0    0    0  501 -0.00000000000E+00  0.00000000000E+00  0.59318758815E+03  0.59318758815E+03  0.00000000000E+00 0. -1.
          1   -1    0    0  501    0  0.00000000000E+00 -0.00000000000E+00 -0.12390975508E+04  0.12390975508E+04  0.00000000000E+00 0.  1.
         23    2    1    2    0    0  0.41010956107E+03  0.45683640095E+03 -0.19660378920E+03  0.65114577152E+03  0.91915268157E+02 0.  0.
        254    2    1    2    0    0 -0.41010956107E+03 -0.45683640095E+03 -0.44930617349E+03  0.11811393675E+04  0.90350695544E+03 0.  0.
        -24    2    4    4    0    0 -0.21563488020E+03  0.54066312644E+02 -0.56965876419E+03  0.61568608717E+03  0.71670653678E+02 0.  0.
         24    2    4    4    0    0 -0.19447468087E+03 -0.51090271360E+03  0.12035259070E+03  0.56545328029E+03  0.80066733700E+02 0.  0.
         13    1    3    3    0    0  0.34092904517E+02  0.86591077019E+01 -0.17711978172E+02  0.39382997033E+02  0.00000000000E+00 0.  1.
        -13    1    3    3    0    0  0.37601665656E+03  0.44817729325E+03 -0.17889181103E+03  0.61176277448E+03  0.00000000000E+00 0. -1.
          4    1    6    6  502    0 -0.15400635468E+03 -0.38042761723E+03  0.55229274445E+02  0.41411761855E+03  0.00000000000E+00 0. -1.
          3    1    5    5  503    0 -0.61327554437E+02  0.19536730962E+02 -0.26176988704E+03  0.26956673858E+03  0.00000000000E+00 0. -1.
         -4    1    5    5    0  503 -0.15430732576E+03  0.34529581682E+02 -0.30788887715E+03  0.34611934859E+03  0.00000000000E+00 0.  1.
         -3    1    6    6    0  502 -0.40468326191E+02 -0.13047509637E+03  0.65123316258E+02  0.15133566175E+03  0.00000000000E+00 0.  1.
<mgrwt>
<rscale>  0 0.17146630E+04</rscale>
<asrwt>0</asrwt>
<pdfrwt beam="1">  1        1 0.19063039E+00 0.17146630E+04</pdfrwt>
<pdfrwt beam="2">  1       -1 0.91259629E-01 0.17146630E+04</pdfrwt>
<totfact> 0.11141607E+01</totfact>
</mgrwt>
</event>
<event>
12    1  0.1541840E-007  0.3253268E+04  0.7818608E-02  0.8174889E-01
         -1   -1    0    0    0  501 -0.00000000000E+00  0.00000000000E+00  0.14540824549E+04  0.14540824549E+04  0.00000000000E+00 0.  1.
          1   -1    0    0  501    0  0.00000000000E+00 -0.00000000000E+00 -0.18196614122E+04  0.18196614122E+04  0.00000000000E+00 0. -1.
         23    2    1    2    0    0 -0.13961703257E+04 -0.79517471454E+02 -0.71336138050E+03  0.15724868982E+04  0.90642040105E+02 0.  0.
        254    2    1    2    0    0  0.13961703257E+04  0.79517471454E+02  0.34778242325E+03  0.17012569688E+04  0.90427211259E+03 0.  0.
        -24    2    4    4    0    0  0.42569181361E+03 -0.92925179647E+02 -0.28560151122E+03  0.52692428712E+03  0.78945373233E+02 0.  0.
         24    2    4    4    0    0  0.97047851205E+03  0.17244265110E+03  0.63338393447E+03  0.11743326817E+04  0.79479737431E+02 0.  0.
         13    1    3    3    0    0 -0.12554784070E+04 -0.73857645234E+02 -0.60974902031E+03  0.13976676464E+04  0.00000000000E+00 0. -1.
        -13    1    3    3    0    0 -0.14069191870E+03 -0.56598262192E+01 -0.10361236020E+03  0.17481925182E+03  0.00000000000E+00 0.  1.
          2    1    6    6  502    0  0.16022126678E+03  0.18931235464E+02  0.71707798760E+02  0.17655382864E+03  0.00000000000E+00 0. -1.
          3    1    5    5  503    0  0.76981888550E+02 -0.47748587885E+02 -0.69794077253E+02  0.11435625050E+03  0.00000000000E+00 0. -1.
         -4    1    5    5    0  503  0.34870992506E+03 -0.45176591762E+02 -0.21580743397E+03  0.41256803661E+03  0.00000000000E+00 0.  1.
         -3    1    6    6    0  502  0.81025724527E+03  0.15351141564E+03  0.56167613571E+03  0.99777885309E+03  0.00000000000E+00 0.  1.
<mgrwt>
<rscale>  0 0.32532677E+04</rscale>
<asrwt>0</asrwt>
<pdfrwt beam="1">  1        1 0.27994791E+00 0.32532677E+04</pdfrwt>
<pdfrwt beam="2">  1       -1 0.22370499E+00 0.32532677E+04</pdfrwt>
<totfact> 0.34203917E-01</totfact>
</mgrwt>
</event>
<event>
12    1  0.1541840E-007  0.1976227E+04  0.7818608E-02  0.8617817E-01
          2   -1    0    0  501    0  0.00000000000E+00  0.00000000000E+00  0.22628109257E+04  0.22628109257E+04  0.00000000000E+00 0. -1.
         -2   -1    0    0    0  501 -0.00000000000E+00 -0.00000000000E+00 -0.43148453365E+03  0.43148453365E+03  0.00000000000E+00 0.  1.
         23    2    1    2    0    0 -0.32919750153E+03  0.29431304206E+03  0.16118481213E+04  0.16737691787E+04  0.91965948860E+02 0.  0.
        254    2    1    2    0    0  0.32919750153E+03 -0.29431304206E+03  0.21947827071E+03  0.10205262806E+04  0.89348308115E+03 0.  0.
        -24    2    4    4    0    0 -0.10466252423E+03 -0.22728461719E+03 -0.25677345948E+03  0.36758318133E+03  0.81069380866E+02 0.  0.
         24    2    4    4    0    0  0.43386002577E+03 -0.67028424870E+02  0.47625173019E+03  0.65294309925E+03  0.82411459457E+02 0.  0.
         11    1    3    3    0    0 -0.33421391628E+03  0.29514622321E+03  0.15968466790E+04  0.16579292962E+04  0.00000000000E+00 0. -1.
        -11    1    3    3    0    0  0.50164147430E+01 -0.83318114622E+00  0.15001442273E+02  0.15839882511E+02  0.00000000000E+00 0.  1.
          2    1    6    6  502    0  0.30893957728E+03 -0.81872063834E+02  0.36333485501E+03  0.48389969427E+03  0.00000000000E+00 0. -1.
          3    1    5    5  503    0 -0.87096890236E+02 -0.12168566079E+03 -0.18824504232E+03  0.24047757544E+03  0.00000000000E+00 0. -1.
         -4    1    5    5    0  503 -0.17565633998E+02 -0.10559895641E+03 -0.68528417159E+02  0.12710560590E+03  0.00000000000E+00 0.  1.
         -1    1    6    6    0  502  0.12492044848E+03  0.14843638964E+02  0.11291687518E+03  0.16904340498E+03  0.00000000000E+00 0.  1.
<mgrwt>
<rscale>  0 0.19762266E+04</rscale>
<asrwt>0</asrwt>
<pdfrwt beam="1">  1        2 0.34812475E+00 0.19762266E+04</pdfrwt>
<pdfrwt beam="2">  1       -2 0.66382237E-01 0.19762266E+04</pdfrwt>
<totfact> 0.92432874E+00</totfact>
</mgrwt>
</event>
<event>
12    1  0.1541840E-007  0.1781882E+04  0.7818608E-02  0.8715994E-01
         -2   -1    0    0    0  501 -0.00000000000E+00  0.00000000000E+00  0.24055731961E+03  0.24055731961E+03  0.00000000000E+00 0.  1.
          2   -1    0    0  501    0  0.00000000000E+00 -0.00000000000E+00 -0.32997382414E+04  0.32997382414E+04  0.00000000000E+00 0. -1.
         23    2    1    2    0    0  0.57144145153E+03  0.31861619170E+03 -0.15307927978E+04  0.16672669954E+04  0.91602587016E+02 0.  0.
        254    2    1    2    0    0 -0.57144145153E+03 -0.31861619170E+03 -0.15283881241E+04  0.18730285657E+04  0.86267267256E+03 0.  0.
        -24    2    4    4    0    0 -0.43523635414E+03 -0.48190184633E+03 -0.15088014414E+04  0.16445163852E+04  0.79323881148E+02 0.  0.
         24    2    4    4    0    0 -0.13620509739E+03  0.16328565462E+03 -0.19586682678E+02  0.22851218052E+03  0.81364273150E+02 0.  0.
         13    1    3    3    0    0  0.10461378639E+03  0.52236584382E+02 -0.19464899836E+03  0.22707033627E+03  0.00000000000E+00 0. -1.
        -13    1    3    3    0    0  0.46682766514E+03  0.26637960732E+03 -0.13361437994E+04  0.14401966591E+04  0.00000000000E+00 0.  1.
          4    1    6    6  502    0 -0.10412447046E+03  0.10191846859E+03  0.22573137679E+02  0.14744092422E+03  0.00000000000E+00 0. -1.
          1    1    5    5  503    0 -0.42400188386E+03 -0.45516297086E+03 -0.14011643085E+04  0.15330402301E+04  0.00000000000E+00 0. -1.
         -2    1    5    5    0  503 -0.11234470273E+02 -0.26738875472E+02 -0.10763713288E+03  0.11147615511E+03  0.00000000000E+00 0.  1.
         -3    1    6    6    0  502 -0.32080626930E+02  0.61367186032E+02 -0.42159820357E+02  0.81071256301E+02  0.00000000000E+00 0.  1.
<mgrwt>
<rscale>  0 0.17818824E+04</rscale>
<asrwt>0</asrwt>
<pdfrwt beam="1">  1        2 0.50765204E+00 0.17818824E+04</pdfrwt>
<pdfrwt beam="2">  1       -2 0.37008818E-01 0.17818824E+04</pdfrwt>
<totfact> 0.72959894E+00</totfact>
</mgrwt>
</event>
<event>
12    1  0.1541840E-007  0.1646769E+04  0.7818608E-02  0.8792320E-01
         -2   -1    0    0    0  501 -0.00000000000E+00  0.00000000000E+00  0.54076786083E+03  0.54076786083E+03  0.00000000000E+00 0.  1.
          2   -1    0    0  501    0  0.00000000000E+00 -0.00000000000E+00 -0.12537020503E+04  0.12537020503E+04  0.00000000000E+00 0. -1.
         23    2    1    2    0    0 -0.26803542596E+02 -0.29653302545E+03  0.24323614688E+03  0.39511318715E+03  0.91106215121E+02 0.  0.
        254    2    1    2    0    0  0.26803542596E+02  0.29653302545E+03 -0.95617033634E+03  0.13993567240E+04  0.97738798014E+03 0.  0.
        -24    2    4    4    0    0  0.44395880522E+03  0.40417691099E+02 -0.20029503270E+03  0.49523901519E+03  0.80066044962E+02 0.  0.
         24    2    4    4    0    0 -0.41715526263E+03  0.25611533435E+03 -0.75587530364E+03  0.90411770877E+03  0.80422503254E+02 0.  0.
         13    1    3    3    0    0 -0.31046887843E+02 -0.51641782955E+02  0.82464918020E+02  0.10213347001E+03  0.00000000000E+00 0.  1.
        -13    1    3    3    0    0  0.42433452468E+01 -0.24489124249E+03  0.16077122886E+03  0.29297971714E+03  0.00000000000E+00 0. -1.
          4    1    6    6  502    0 -0.39842874840E+03  0.23388794967E+03 -0.73570157438E+03  0.86873807738E+03  0.00000000000E+00 0. -1.
          3    1    5    5  503    0  0.42040846021E+03  0.54468873919E+02 -0.19750655096E+03  0.46767399897E+03  0.00000000000E+00 0. -1.
         -4    1    5    5    0  503  0.23550345012E+02 -0.14051182820E+02 -0.27884817426E+01  0.27565016221E+02  0.00000000000E+00 0.  1.
         -3    1    6    6    0  502 -0.18726514230E+02  0.22227384676E+02 -0.20173729265E+02  0.35379631389E+02  0.00000000000E+00 0.  1.
<mgrwt>
<rscale>  0 0.16467687E+04</rscale>
<asrwt>0</asrwt>
<pdfrwt beam="1">  1        2 0.19287724E+00 0.16467687E+04</pdfrwt>
<pdfrwt beam="2">  1       -2 0.83195056E-01 0.16467687E+04</pdfrwt>
<totfact> 0.21277221E+01</totfact>
</mgrwt>
</event>
<event>
12    1  0.1541840E-007  0.1283257E+04  0.7818608E-02  0.9042949E-01
          1   -1    0    0  501    0  0.00000000000E+00  0.00000000000E+00  0.20023462718E+04  0.20023462718E+04  0.00000000000E+00 0. -1.
         -1   -1    0    0    0  501 -0.00000000000E+00 -0.00000000000E+00 -0.20560234691E+03  0.20560234691E+03  0.00000000000E+00 0.  1.
         23    2    1    2    0    0  0.16822503459E+03  0.24688143763E+03  0.57710835093E+03  0.65734305755E+03  0.98973431217E+02 0.  0.
        254    2    1    2    0    0 -0.16822503459E+03 -0.24688143763E+03  0.12196355739E+04  0.15506055611E+04  0.90973433842E+03 0.  0.
        -24    2    4    4    0    0 -0.39301117854E+03  0.19400982767E+03  0.68767164419E+03  0.81946775277E+03  0.80854857043E+02 0.  0.
         24    2    4    4    0    0  0.22478614395E+03 -0.44089126530E+03  0.53196392972E+03  0.73113780835E+03  0.81626919249E+02 0.  0.
         13    1    3    3    0    0  0.11531891022E+03  0.13998279402E+03  0.24765609528E+03  0.30696445267E+03  0.00000000000E+00 0. -1.
        -13    1    3    3    0    0  0.52906124373E+02  0.10689864361E+03  0.32945225566E+03  0.35037860488E+03  0.00000000000E+00 0.  1.
          2    1    6    6  502    0  0.15207998600E+03 -0.21995310798E+03  0.31323173175E+03  0.41185168401E+03  0.00000000000E+00 0. -1.
          3    1    5    5  503    0 -0.19906610576E+03  0.71541420259E+02  0.27042928966E+03  0.34333291421E+03  0.00000000000E+00 0. -1.
         -4    1    5    5    0  503 -0.19394507278E+03  0.12246840741E+03  0.41724235453E+03  0.47613483855E+03  0.00000000000E+00 0.  1.
         -1    1    6    6    0  502  0.72706157955E+02 -0.22093815732E+03  0.21873219797E+03  0.31928612434E+03  0.00000000000E+00 0.  1.
<mgrwt>
<rscale>  0 0.12832569E+04</rscale>
<asrwt>0</asrwt>
<pdfrwt beam="1">  1        1 0.30805326E+00 0.12832569E+04</pdfrwt>
<pdfrwt beam="2">  1       -1 0.31631132E-01 0.12832569E+04</pdfrwt>
<totfact> 0.27183575E+01</totfact>
</mgrwt>
</event>
<event>
12    1  0.1541840E-007  0.2424596E+04  0.7818608E-02  0.8430352E-01
         -1   -1    0    0    0  501 -0.00000000000E+00  0.00000000000E+00  0.25024438192E+04  0.25024438192E+04  0.00000000000E+00 0.  1.
          1   -1    0    0  501    0  0.00000000000E+00 -0.00000000000E+00 -0.58729262253E+03  0.58729262253E+03  0.00000000000E+00 0. -1.
         23    2    1    2    0    0 -0.61885681643E+03  0.83233316397E+03  0.68397900712E+03  0.12454561538E+04  0.87014331508E+02 0.  0.
        254    2    1    2    0    0  0.61885681643E+03 -0.83233316397E+03  0.12311721896E+04  0.18442802879E+04  0.89990141955E+03 0.  0.
        -24    2    4    4    0    0  0.17654212019E+03 -0.15072296972E+03 -0.11407961780E+03  0.27059105457E+03  0.79503621398E+02 0.  0.
         24    2    4    4    0    0  0.44231469625E+03 -0.68161019425E+03  0.13452518074E+04  0.15736892334E+04  0.80997718776E+02 0.  0.
         11    1    3    3    0    0 -0.44707758301E+03  0.65837990908E+03  0.50619696399E+03  0.94317434033E+03  0.00000000000E+00 0. -1.
        -11    1    3    3    0    0 -0.17177923343E+03  0.17395325489E+03  0.17778204313E+03  0.30228181352E+03  0.00000000000E+00 0.  1.
          2    1    6    6  502    0  0.28933524876E+02 -0.28361056039E+02  0.10122236183E+03  0.10902965145E+03  0.00000000000E+00 0. -1.
          1    1    5    5  503    0  0.94528014885E+02 -0.49972729250E+02 -0.16669364516E+02  0.10821592757E+03  0.00000000000E+00 0. -1.
         -2    1    5    5    0  503  0.82014105301E+02 -0.10075024047E+03 -0.97410253285E+02  0.16237512700E+03  0.00000000000E+00 0.  1.
         -1    1    6    6    0  502  0.41338117137E+03 -0.65324913821E+03  0.12440294456E+04  0.14646595819E+04  0.00000000000E+00 0.  1.
<mgrwt>
<rscale>  0 0.24245963E+04</rscale>
<asrwt>0</asrwt>
<pdfrwt beam="1">  1        1 0.90352713E-01 0.24245963E+04</pdfrwt>
<pdfrwt beam="2">  1       -1 0.38499135E+00 0.24245963E+04</pdfrwt>
<totfact> 0.28601945E-01</totfact>
</mgrwt>
</event>
<event>
12    1  0.1541840E-007  0.2799322E+04  0.7818608E-02  0.8303479E-01
          2   -1    0    0  501    0  0.00000000000E+00  0.00000000000E+00  0.25879586621E+04  0.25879586621E+04  0.00000000000E+00 0. -1.
         -2   -1    0    0    0  501 -0.00000000000E+00 -0.00000000000E+00 -0.75698691192E+03  0.75698691192E+03  0.00000000000E+00 0.  1.
         23    2    1    2    0    0 -0.47708227587E+03 -0.68952779851E+03 -0.29067571115E+03  0.89198148868E+03  0.89902859994E+02 0.  0.
        254    2    1    2    0    0  0.47708227587E+03  0.68952779851E+03  0.21216474614E+04  0.24529640854E+04  0.90143705879E+03 0.  0.
        -24    2    4    4    0    0  0.73781703072E+03  0.51789471639E+03  0.16424767909E+04  0.18752994960E+04  0.80182808124E+02 0.  0.
         24    2    4    4    0    0 -0.26073475485E+03  0.17163308212E+03  0.47917067041E+03  0.57766458939E+03  0.81555620243E+02 0.  0.
         11    1    3    3    0    0 -0.44327413484E+03 -0.65001298075E+03 -0.24867600502E+03  0.82513549750E+03  0.00000000000E+00 0. -1.
        -11    1    3    3    0    0 -0.33808141032E+02 -0.39514817763E+02 -0.41999706129E+02  0.66845991187E+02  0.00000000000E+00 0.  1.
          4    1    6    6  502    0 -0.62188456350E+02  0.32610796815E+02  0.55272430732E+02  0.89363917612E+02  0.00000000000E+00 0. -1.
          3    1    5    5  503    0  0.31427416431E+03  0.26203568965E+03  0.70001648585E+03  0.81083539234E+03  0.00000000000E+00 0. -1.
         -4    1    5    5    0  503  0.42354286641E+03  0.25585902673E+03  0.94246030509E+03  0.10644641036E+04  0.00000000000E+00 0.  1.
         -3    1    6    6    0  502 -0.19854629850E+03  0.13902228531E+03  0.42389823968E+03  0.48830067178E+03  0.00000000000E+00 0.  1.
<mgrwt>
<rscale>  0 0.27993219E+04</rscale>
<asrwt>0</asrwt>
<pdfrwt beam="1">  1        2 0.39814748E+00 0.27993219E+04</pdfrwt>
<pdfrwt beam="2">  1       -2 0.11645953E+00 0.27993219E+04</pdfrwt>
<totfact> 0.15385026E+00</totfact>
</mgrwt>
</event>
<event>
12    1  0.1541840E-007  0.3036988E+04  0.7818608E-02  0.8233247E-01
         -1   -1    0    0    0  501 -0.00000000000E+00  0.00000000000E+00  0.19343365318E+04  0.19343365318E+04  0.00000000000E+00 0.  1.
          1   -1    0    0  501    0  0.00000000000E+00 -0.00000000000E+00 -0.11920491855E+04  0.11920491855E+04  0.00000000000E+00 0. -1.
         23    2    1    2    0    0 -0.99628853098E+03  0.95404313798E+03  0.44758784712E+03  0.14530541391E+04  0.90787137332E+02 0.  0.
        254    2    1    2    0    0  0.99628853098E+03 -0.95404313798E+03  0.29469949919E+03  0.16733315782E+04  0.90022309989E+03 0.  0.
        -24    2    4    4    0    0 -0.90426530447E+02 -0.16207438998E+03  0.25541787425E+03  0.32573477738E+03  0.80123588371E+02 0.  0.
         24    2    4    4    0    0  0.10867150614E+04 -0.79196874800E+03  0.39281624941E+02  0.13475968008E+04  0.79435312611E+02 0.  0.
         11    1    3    3    0    0 -0.43333617706E+03  0.35566828025E+03  0.19455211655E+03  0.59340601107E+03  0.00000000000E+00 0. -1.
        -11    1    3    3    0    0 -0.56295235391E+03  0.59837485773E+03  0.25303573057E+03  0.85964812807E+03  0.00000000000E+00 0.  1.
          2    1    6    6  502    0  0.10306919931E+04 -0.73963976503E+03  0.52967345682E+02  0.12697237914E+04  0.00000000000E+00 0. -1.
          3    1    5    5  503    0 -0.77389881059E+02 -0.98721454350E+02  0.21659720348E+03  0.25029875708E+03  0.00000000000E+00 0. -1.
         -4    1    5    5    0  503 -0.13036649387E+02 -0.63352935625E+02  0.38820670763E+02  0.75436020296E+02  0.00000000000E+00 0.  1.
         -1    1    6    6    0  502  0.56023068309E+02 -0.52328982977E+02 -0.13685720742E+02  0.77873009409E+02  0.00000000000E+00 0.  1.
<mgrwt>
<rscale>  0 0.30369882E+04</rscale>
<asrwt>0</asrwt>
<pdfrwt beam="1">  1        1 0.18339218E+00 0.30369882E+04</pdfrwt>
<pdfrwt beam="2">  1       -1 0.29759023E+00 0.30369882E+04</pdfrwt>
<totfact> 0.31450848E-01</totfact>
</mgrwt>
</event>
<event>
12    1  0.1541840E-007  0.2204811E+04  0.7818608E-02  0.8516428E-01
          1   -1    0    0  501    0  0.00000000000E+00  0.00000000000E+00  0.15912292974E+04  0.15912292974E+04  0.00000000000E+00 0. -1.
         -1   -1    0    0    0  501 -0.00000000000E+00 -0.00000000000E+00 -0.76374773001E+03  0.76374773001E+03  0.00000000000E+00 0.  1.
         23    2    1    2    0    0 -0.22990185289E+03 -0.35686865787E+03 -0.52151892861E+03  0.67853570311E+03  0.90656530721E+02 0.  0.
        254    2    1    2    0    0  0.22990185289E+03  0.35686865787E+03  0.13490004960E+04  0.16764413243E+04  0.90024611894E+03 0.  0.
        -24    2    4    4    0    0 -0.79401551140E+02  0.47824678409E+03  0.12124205711E+04  0.13083029360E+04  0.81659894089E+02 0.  0.
         24    2    4    4    0    0  0.30930340402E+03 -0.12137812622E+03  0.13657992489E+03  0.36813838829E+03  0.80439740063E+02 0.  0.
         11    1    3    3    0    0 -0.65693227830E+02 -0.90551683578E+02 -0.20465614455E+03  0.23323667183E+03  0.00000000000E+00 0. -1.
        -11    1    3    3    0    0 -0.16420862506E+03 -0.26631697429E+03 -0.31686278406E+03  0.44529903128E+03  0.00000000000E+00 0.  1.
          4    1    6    6  502    0  0.20343996798E+03 -0.67236618367E+02  0.12647202708E+03  0.24880465642E+03  0.00000000000E+00 0. -1.
          3    1    5    5  503    0 -0.90203007624E+02  0.45028532127E+03  0.11013407124E+04  0.11932496880E+04  0.00000000000E+00 0. -1.
         -4    1    5    5    0  503  0.10801456485E+02  0.27961462828E+02  0.11107985871E+03  0.11505324801E+03  0.00000000000E+00 0.  1.
         -3    1    6    6    0  502  0.10586343604E+03 -0.54141507856E+02  0.10107897810E+02  0.11933373187E+03  0.00000000000E+00 0.  1.
<mgrwt>
<rscale>  0 0.22048109E+04</rscale>
<asrwt>0</asrwt>
<pdfrwt beam="1">  1        1 0.24480451E+00 0.22048109E+04</pdfrwt>
<pdfrwt beam="2">  1       -1 0.11749965E+00 0.22048109E+04</pdfrwt>
<totfact> 0.33604266E+00</totfact>
</mgrwt>
</event>
<event>
12    1  0.1541840E-007  0.1410409E+04  0.7818608E-02  0.8946318E-01
         -2   -1    0    0    0  501 -0.00000000000E+00  0.00000000000E+00  0.19286275188E+03  0.19286275188E+03  0.00000000000E+00 0.  1.
          2   -1    0    0  501    0  0.00000000000E+00 -0.00000000000E+00 -0.25785866795E+04  0.25785866795E+04  0.00000000000E+00 0. -1.
         23    2    1    2    0    0  0.32356497013E+03  0.25375971007E+03 -0.63120128265E+03  0.76183188060E+03  0.11350980019E+03 0.  0.
        254    2    1    2    0    0 -0.32356497013E+03 -0.25375971007E+03 -0.17545226450E+04  0.20096175508E+04  0.88945191456E+03 0.  0.
        -24    2    4    4    0    0  0.26742544954E+03 -0.41332899085E+02 -0.24611701907E+03  0.37377805693E+03  0.76887379697E+02 0.  0.
         24    2    4    4    0    0 -0.59099041967E+03 -0.21242681098E+03 -0.15084056259E+04  0.16358394938E+04  0.79300007493E+02 0.  0.
         13    1    3    3    0    0  0.32950211973E+03  0.25699204383E+03 -0.60865226035E+03  0.73829135951E+03  0.00000000000E+00 0.  1.
        -13    1    3    3    0    0 -0.59371495968E+01 -0.32323337599E+01 -0.22549022295E+02  0.23540521093E+02  0.00000000000E+00 0. -1.
          2    1    6    6  502    0 -0.35224973743E+03 -0.85542457990E+02 -0.84670457984E+03  0.92103530614E+03  0.00000000000E+00 0. -1.
          3    1    5    5  503    0  0.26529304185E+03 -0.45187940036E+02 -0.22086097937E+03  0.34814066150E+03  0.00000000000E+00 0. -1.
         -4    1    5    5    0  503  0.21324076932E+01  0.38550409510E+01 -0.25256039701E+02  0.25637395435E+02  0.00000000000E+00 0.  1.
         -1    1    6    6    0  502 -0.23874068224E+03 -0.12688435299E+03 -0.66170104607E+03  0.71480418771E+03  0.00000000000E+00 0.  1.
<mgrwt>
<rscale>  0 0.14104089E+04</rscale>
<asrwt>0</asrwt>
<pdfrwt beam="1">  1        2 0.39670561E+00 0.14104089E+04</pdfrwt>
<pdfrwt beam="2">  1       -2 0.29671195E-01 0.14104089E+04</pdfrwt>
<totfact> 0.32027521E+01</totfact>
</mgrwt>
</event>
<event>
12    1  0.1541840E-007  0.1296668E+04  0.7818608E-02  0.9032211E-01
         -2   -1    0    0    0  501 -0.00000000000E+00  0.00000000000E+00  0.27811082157E+03  0.27811082157E+03  0.00000000000E+00 0. -1.
          2   -1    0    0  501    0  0.00000000000E+00 -0.00000000000E+00 -0.15114017086E+04  0.15114017086E+04  0.00000000000E+00 0.  1.
         23    2    1    2    0    0  0.61708960281E+02 -0.88684552406E+02 -0.71828863457E+03  0.73210585580E+03  0.91473908513E+02 0.  0.
        254    2    1    2    0    0 -0.61708960281E+02  0.88684552406E+02 -0.51500225246E+03  0.10574066744E+04  0.91717425243E+03 0.  0.
        -24    2    4    4    0    0 -0.26260329646E+03 -0.96634545859E+02  0.15288384311E+03  0.33125556441E+03  0.89766656941E+02 0.  0.
         24    2    4    4    0    0  0.20089433618E+03  0.18531909826E+03 -0.66788609558E+03  0.72615110995E+03  0.80758252383E+02 0.  0.
         11    1    3    3    0    0 -0.19461669857E+02 -0.45790167046E+02 -0.25450885130E+03  0.25932653428E+03  0.00000000000E+00 0. -1.
        -11    1    3    3    0    0  0.81170630138E+02 -0.42894385360E+02 -0.46377978327E+03  0.47277932153E+03  0.00000000000E+00 0.  1.
          4    1    6    6  502    0  0.82526087049E+02  0.28553811125E+02 -0.23786967767E+03  0.25339269668E+03  0.00000000000E+00 0. -1.
          3    1    5    5  503    0 -0.20476970579E+03 -0.38698950399E+02  0.13231027709E+03  0.24684863904E+03  0.00000000000E+00 0. -1.
         -4    1    5    5    0  503 -0.57833590673E+02 -0.57935595460E+02  0.20573566029E+02  0.84406925371E+02  0.00000000000E+00 0.  1.
         -3    1    6    6    0  502  0.11836824913E+03  0.15676528714E+03 -0.43001641790E+03  0.47275841328E+03  0.00000000000E+00 0.  1.
<mgrwt>
<rscale>  0 0.12966683E+04</rscale>
<asrwt>0</asrwt>
<pdfrwt beam="1">  1        2 0.23252334E+00 0.12966683E+04</pdfrwt>
<pdfrwt beam="2">  1       -2 0.42786281E-01 0.12966683E+04</pdfrwt>
<totfact> 0.63475761E+01</totfact>
</mgrwt>
</event>
<event>
12    1  0.1541840E-007  0.1615992E+04  0.7818608E-02  0.8810783E-01
          2   -1    0    0  501    0  0.00000000000E+00  0.00000000000E+00  0.10459489673E+04  0.10459489673E+04  0.00000000000E+00 0. -1.
         -2   -1    0    0    0  501 -0.00000000000E+00 -0.00000000000E+00 -0.62417752870E+03  0.62417752870E+03  0.00000000000E+00 0.  1.
         23    2    1    2    0    0 -0.44825609947E+03  0.11573229488E+03 -0.12008402073E+03  0.48723438932E+03  0.93003673625E+02 0.  0.
        254    2    1    2    0    0  0.44825609947E+03 -0.11573229488E+03  0.54185545931E+03  0.11828921067E+04  0.94408627912E+03 0.  0.
        -24    2    4    4    0    0  0.30380807508E+02  0.76206814429E+02 -0.24345886284E+03  0.26939946663E+03  0.81076400345E+02 0.  0.
         24    2    4    4    0    0  0.41787529196E+03 -0.19193910931E+03  0.78531432216E+03  0.91349264003E+03  0.79308495746E+02 0.  0.
         13    1    3    3    0    0 -0.13664833354E+03  0.78782461753E+02 -0.27878173012E+02  0.16017688931E+03  0.00000000000E+00 0. -1.
        -13    1    3    3    0    0 -0.31160776593E+03  0.36949833126E+02 -0.92205847717E+02  0.32705750000E+03  0.00000000000E+00 0.  1.
          2    1    6    6  502    0  0.30423839790E+03 -0.16715959173E+03  0.63192576646E+03  0.72099480316E+03  0.00000000000E+00 0. -1.
          3    1    5    5  503    0  0.47918951551E+02  0.48537470730E+02 -0.21644891204E+03  0.22694105733E+03  0.00000000000E+00 0. -1.
         -4    1    5    5    0  503 -0.17538144043E+02  0.27669343699E+02 -0.27009950808E+02  0.42458409295E+02  0.00000000000E+00 0.  1.
         -1    1    6    6    0  502  0.11363689406E+03 -0.24779517575E+02  0.15338855570E+03  0.19249783687E+03  0.00000000000E+00 0.  1.
<mgrwt>
<rscale>  0 0.16159924E+04</rscale>
<asrwt>0</asrwt>
<pdfrwt beam="1">  1        2 0.16091523E+00 0.16159924E+04</pdfrwt>
<pdfrwt beam="2">  1       -2 0.96027312E-01 0.16159924E+04</pdfrwt>
<totfact> 0.20499700E+01</totfact>
</mgrwt>
</event>
<event>
12    1  0.1541840E-007  0.1625757E+04  0.7818608E-02  0.8804879E-01
          2   -1    0    0  501    0  0.00000000000E+00  0.00000000000E+00  0.16976127287E+04  0.16976127287E+04  0.00000000000E+00 0. -1.
         -2   -1    0    0    0  501 -0.00000000000E+00 -0.00000000000E+00 -0.38923586346E+03  0.38923586346E+03  0.00000000000E+00 0.  1.
         23    2    1    2    0    0  0.31705640832E+03  0.33443852730E+03  0.86349942300E+03  0.98297211574E+03  0.90714013236E+02 0.  0.
        254    2    1    2    0    0 -0.31705640832E+03 -0.33443852730E+03  0.44487744219E+03  0.11038764764E+04  0.89902916634E+03 0.  0.
        -24    2    4    4    0    0  0.19071587901E+03 -0.18748529949E+03 -0.13904990725E+03  0.31160610704E+03  0.78994969484E+02 0.  0.
         24    2    4    4    0    0 -0.50777228734E+03 -0.14695322781E+03  0.58392734944E+03  0.79227036934E+03  0.85400478660E+02 0.  0.
         13    1    3    3    0    0  0.27935006754E+03  0.32208895706E+03  0.74970577840E+03  0.86245957045E+03  0.00000000000E+00 0. -1.
        -13    1    3    3    0    0  0.37706340781E+02  0.12349570237E+02  0.11379364460E+03  0.12051254529E+03  0.00000000000E+00 0.  1.
          4    1    6    6  502    0 -0.38840638318E+03 -0.13420725598E+03  0.40631793804E+03  0.57789737222E+03  0.00000000000E+00 0. -1.
          3    1    5    5  503    0  0.11137850302E+03 -0.71591416909E+02 -0.35404285884E+02  0.13705460725E+03  0.00000000000E+00 0. -1.
         -4    1    5    5    0  503  0.79337375998E+02 -0.11589388258E+03 -0.10364562137E+03  0.17455149979E+03  0.00000000000E+00 0.  1.
         -3    1    6    6    0  502 -0.11936590416E+03 -0.12745971833E+02  0.17760941140E+03  0.21437299712E+03  0.00000000000E+00 0.  1.
<mgrwt>
<rscale>  0 0.16257574E+04</rscale>
<asrwt>0</asrwt>
<pdfrwt beam="1">  1        2 0.26117118E+00 0.16257574E+04</pdfrwt>
<pdfrwt beam="2">  1       -2 0.59882442E-01 0.16257574E+04</pdfrwt>
<totfact> 0.24481341E+01</totfact>
</mgrwt>
</event>
<event>
12    1  0.1541840E-007  0.1540430E+04  0.7818608E-02  0.8858004E-01
          3   -1    0    0  501    0  0.00000000000E+00  0.00000000000E+00  0.39756015751E+03  0.39756015751E+03  0.00000000000E+00 0. -1.
         -3   -1    0    0    0  501 -0.00000000000E+00 -0.00000000000E+00 -0.14921795253E+04  0.14921795253E+04  0.00000000000E+00 0.  1.
         23    2    1    2    0    0 -0.19909255055E+03 -0.31563432866E+03  0.36398547858E+02  0.38588883927E+03  0.91227566385E+02 0.  0.
        254    2    1    2    0    0  0.19909255055E+03  0.31563432866E+03 -0.11310179156E+04  0.15038508435E+04  0.91820638257E+03 0.  0.
        -24    2    4    4    0    0 -0.16727124758E+03  0.51383291172E+03 -0.48329210558E+03  0.72938021315E+03  0.80126803142E+02 0.  0.
         24    2    4    4    0    0  0.36636379813E+03 -0.19819858305E+03 -0.64772581006E+03  0.77447063040E+03  0.82163991046E+02 0.  0.
         13    1    3    3    0    0  0.91551645869E+01 -0.20433270592E+02 -0.25378462833E+01  0.22533891130E+02  0.00000000000E+00 0.  1.
        -13    1    3    3    0    0 -0.20824771514E+03 -0.29520105807E+03  0.38936394141E+02  0.36335494814E+03  0.00000000000E+00 0. -1.
          4    1    6    6  502    0  0.10182914181E+03 -0.91231410548E+02 -0.25048883165E+03  0.28537168600E+03  0.00000000000E+00 0. -1.
          1    1    5    5  503    0 -0.57608995099E+02  0.12315043013E+03 -0.16408814267E+03  0.21309562014E+03  0.00000000000E+00 0. -1.
         -2    1    5    5    0  503 -0.10966225248E+03  0.39068248159E+03 -0.31920396291E+03  0.51628459301E+03  0.00000000000E+00 0.  1.
         -3    1    6    6    0  502  0.26453465632E+03 -0.10696717250E+03 -0.39723697842E+03  0.48909894440E+03  0.00000000000E+00 0.  1.
<mgrwt>
<rscale>  0 0.15404300E+04</rscale>
<asrwt>0</asrwt>
<pdfrwt beam="1">  1        3 0.61163102E-01 0.15404300E+04</pdfrwt>
<pdfrwt beam="2">  1       -3 0.22956608E+00 0.15404300E+04</pdfrwt>
<totfact> 0.63487987E-01</totfact>
</mgrwt>
</event>
<event>
12    1  0.1541840E-007  0.1250026E+04  0.7818608E-02  0.9070161E-01
          2   -1    0    0  501    0  0.00000000000E+00  0.00000000000E+00  0.92341508410E+03  0.92341508410E+03  0.00000000000E+00 0. -1.
         -2   -1    0    0    0  501 -0.00000000000E+00 -0.00000000000E+00 -0.42304003360E+03  0.42304003360E+03  0.00000000000E+00 0.  1.
         23    2    1    2    0    0  0.19902311102E+03  0.11282893693E+03  0.32471037771E+03  0.40752193580E+03  0.91086393252E+02 0.  0.
        254    2    1    2    0    0 -0.19902311102E+03 -0.11282893693E+03  0.17566467279E+03  0.93893318190E+03  0.89353056752E+03 0.  0.
        -24    2    4    4    0    0  0.87382908269E+02 -0.15980194875E+03  0.47458916883E+03  0.51471363306E+03  0.80763911540E+02 0.  0.
         24    2    4    4    0    0 -0.28640601929E+03  0.46973011816E+02 -0.29892449604E+03  0.42421954885E+03  0.79821673537E+02 0.  0.
         13    1    3    3    0    0  0.19308933538E+03  0.75615817917E+02  0.28822244968E+03  0.35506819607E+03  0.00000000000E+00 0. -1.
        -13    1    3    3    0    0  0.59337756384E+01  0.37213119016E+02  0.36487928033E+02  0.52453739737E+02  0.00000000000E+00 0.  1.
          4    1    6    6  502    0 -0.23994809932E+03  0.67283019065E+02 -0.23402817338E+03  0.34186441897E+03  0.00000000000E+00 0. -1.
          1    1    5    5  503    0  0.81155277876E+02 -0.15965039202E+03  0.47578035395E+03  0.50837129345E+03  0.00000000000E+00 0. -1.
         -2    1    5    5    0  503  0.62276303936E+01 -0.15155673307E+00 -0.11911851211E+01  0.63423396121E+01  0.00000000000E+00 0.  1.
         -3    1    6    6    0  502 -0.46457919973E+02 -0.20310007249E+02 -0.64896322657E+02  0.82355129877E+02  0.00000000000E+00 0.  1.
<mgrwt>
<rscale>  0 0.12500265E+04</rscale>
<asrwt>0</asrwt>
<pdfrwt beam="1">  1        2 0.14206386E+00 0.12500265E+04</pdfrwt>
<pdfrwt beam="2">  1       -2 0.65083082E-01 0.12500265E+04</pdfrwt>
<totfact> 0.60562525E+01</totfact>
</mgrwt>
</event>
<event>
12    1  0.1541840E-007  0.1108921E+04  0.7818608E-02  0.9196540E-01
          1   -1    0    0  501    0  0.00000000000E+00  0.00000000000E+00  0.35366080722E+03  0.35366080722E+03  0.00000000000E+00 0. -1.
         -1   -1    0    0    0  501 -0.00000000000E+00 -0.00000000000E+00 -0.86926982518E+03  0.86926982518E+03  0.00000000000E+00 0.  1.
         23    2    1    2    0    0  0.76401322991E+02  0.69928227194E+02  0.11965144664E+03  0.18163391591E+03  0.89147583329E+02 0.  0.
        254    2    1    2    0    0 -0.76401322991E+02 -0.69928227194E+02 -0.63526046461E+03  0.10412967165E+04  0.81854497417E+03 0.  0.
        -24    2    4    4    0    0  0.98302736914E+02  0.22220631596E+03 -0.64311955492E+03  0.69205078433E+03  0.79324972334E+02 0.  0.
         24    2    4    4    0    0 -0.17470405991E+03 -0.29213454316E+03  0.78590903087E+01  0.34924593215E+03  0.77761532712E+02 0.  0.
         11    1    3    3    0    0  0.26683533640E+02 -0.18811022906E+02  0.44376517065E+02  0.55092112113E+02  0.00000000000E+00 0.  1.
        -11    1    3    3    0    0  0.49717789351E+02  0.88739250100E+02  0.75274929579E+02  0.12654180380E+03  0.00000000000E+00 0. -1.
          4    1    6    6  502    0 -0.16665577701E+03 -0.27348976014E+03  0.26917416415E+02  0.32139593062E+03  0.00000000000E+00 0. -1.
          1    1    5    5  503    0  0.58804708262E+02  0.19732400104E+03 -0.56097611055E+03  0.59756920245E+03  0.00000000000E+00 0. -1.
         -2    1    5    5    0  503  0.39498028652E+02  0.24882314926E+02 -0.82143444363E+02  0.94481581884E+02  0.00000000000E+00 0.  1.
         -3    1    6    6    0  502 -0.80482828936E+01 -0.18644783022E+02 -0.19058326106E+02  0.27850001534E+02  0.00000000000E+00 0.  1.
<mgrwt>
<rscale>  0 0.11089214E+04</rscale>
<asrwt>0</asrwt>
<pdfrwt beam="1">  1        1 0.54409355E-01 0.11089214E+04</pdfrwt>
<pdfrwt beam="2">  1       -1 0.13373382E+00 0.11089214E+04</pdfrwt>
<totfact> 0.33207342E+01</totfact>
</mgrwt>
</event>
<event>
12    1  0.1541840E-007  0.1641998E+04  0.7818608E-02  0.8795154E-01
         -2   -1    0    0    0  501 -0.00000000000E+00  0.00000000000E+00  0.55730064704E+03  0.55730064704E+03  0.00000000000E+00 0.  1.
          2   -1    0    0  501    0  0.00000000000E+00 -0.00000000000E+00 -0.12094716833E+04  0.12094716833E+04  0.00000000000E+00 0. -1.
         23    2    1    2    0    0  0.18877217906E+03  0.30987049700E+02  0.34485482785E+03  0.40486731517E+03  0.91638189439E+02 0.  0.
        254    2    1    2    0    0 -0.18877217906E+03 -0.30987049700E+02 -0.99702586408E+03  0.13619050151E+04  0.90781582042E+03 0.  0.
        -24    2    4    4    0    0 -0.44391915612E+03  0.26193435250E+03 -0.66493503707E+03  0.84510674953E+03  0.79956190470E+02 0.  0.
         24    2    4    4    0    0  0.25514697706E+03 -0.29292140220E+03 -0.33209082701E+03  0.51679826561E+03  0.76767194703E+02 0.  0.
         13    1    3    3    0    0  0.12268576108E+03 -0.25160172918E+02  0.19603096752E+03  0.23262194759E+03  0.00000000000E+00 0. -1.
        -13    1    3    3    0    0  0.66086417980E+02  0.56147222618E+02  0.14882386033E+03  0.17224536758E+03  0.00000000000E+00 0.  1.
          4    1    6    6  502    0 -0.54193974474E+01 -0.72178451998E+01 -0.49265948006E+01  0.10282922462E+02  0.00000000000E+00 0. -1.
          1    1    5    5  503    0 -0.22627043684E+03  0.14539345072E+03 -0.28382493412E+03  0.39101682743E+03  0.00000000000E+00 0. -1.
         -2    1    5    5    0  503 -0.21764871928E+03  0.11654090178E+03 -0.38111010294E+03  0.45408992211E+03  0.00000000000E+00 0.  1.
         -3    1    6    6    0  502  0.26056637451E+03 -0.28570355700E+03 -0.32716423221E+03  0.50651534315E+03  0.00000000000E+00 0.  1.
<mgrwt>
<rscale>  0 0.16419980E+04</rscale>
<asrwt>0</asrwt>
<pdfrwt beam="1">  1        2 0.18607256E+00 0.16419980E+04</pdfrwt>
<pdfrwt beam="2">  1       -2 0.85738562E-01 0.16419980E+04</pdfrwt>
<totfact> 0.21113926E+01</totfact>
</mgrwt>
</event>
<event>
12    1  0.1541840E-007  0.1234405E+04  0.7818608E-02  0.9083263E-01
         -2   -1    0    0    0  501 -0.00000000000E+00  0.00000000000E+00  0.47641826844E+03  0.47641826844E+03  0.00000000000E+00 0.  1.
          2   -1    0    0  501    0  0.00000000000E+00 -0.00000000000E+00 -0.79958963732E+03  0.79958963732E+03  0.00000000000E+00 0. -1.
         23    2    1    2    0    0 -0.11695698269E+03 -0.17185692252E+03 -0.10806749952E+02  0.22657087096E+03  0.89464161024E+02 0.  0.
        254    2    1    2    0    0  0.11695698269E+03  0.17185692252E+03 -0.31236461893E+03  0.10494370348E+04  0.98006770033E+03 0.  0.
        -24    2    4    4    0    0 -0.36485081937E+03  0.31753731117E+03 -0.11672586553E+03  0.50380122684E+03  0.79023313667E+02 0.  0.
         24    2    4    4    0    0  0.48180780206E+03 -0.14568038866E+03 -0.19563875340E+03  0.54563580796E+03  0.77989610403E+02 0.  0.
         11    1    3    3    0    0 -0.92781135740E+02 -0.13025907351E+03  0.30918170205E+02  0.16288553843E+03  0.00000000000E+00 0.  1.
        -11    1    3    3    0    0 -0.24175846952E+02 -0.41597849007E+02 -0.41724920158E+02  0.63685332534E+02  0.00000000000E+00 0. -1.
          4    1    6    6  502    0  0.20569681097E+03 -0.59152763522E+02 -0.12471949719E+03  0.24771996378E+03  0.00000000000E+00 0. -1.
          1    1    5    5  503    0 -0.17037484328E+03  0.10666792775E+03 -0.24584775798E+02  0.20250937073E+03  0.00000000000E+00 0. -1.
         -2    1    5    5    0  503 -0.19447597608E+03  0.21086938343E+03 -0.92141089732E+02  0.30129185611E+03  0.00000000000E+00 0.  1.
         -3    1    6    6    0  502  0.27611099109E+03 -0.86527625135E+02 -0.70919256211E+02  0.29791584418E+03  0.00000000000E+00 0.  1.
<mgrwt>
<rscale>  0 0.12344053E+04</rscale>
<asrwt>0</asrwt>
<pdfrwt beam="1">  1        2 0.12301379E+00 0.12344053E+04</pdfrwt>
<pdfrwt beam="2">  1       -2 0.73295119E-01 0.12344053E+04</pdfrwt>
<totfact> 0.57045180E+01</totfact>
</mgrwt>
</event>
<event>
12    1  0.1541840E-007  0.1298796E+04  0.7818608E-02  0.9030521E-01
          2   -1    0    0  501    0  0.00000000000E+00  0.00000000000E+00  0.39044169835E+04  0.39044169835E+04  0.00000000000E+00 0. -1.
         -2   -1    0    0    0  501 -0.00000000000E+00 -0.00000000000E+00 -0.10801036250E+03  0.10801036250E+03  0.00000000000E+00 0.  1.
         23    2    1    2    0    0  0.16011714201E+03  0.18808784528E+03  0.32420495396E+03  0.41759468293E+03  0.90895161204E+02 0.  0.
        254    2    1    2    0    0 -0.16011714201E+03 -0.18808784528E+03  0.34722016670E+04  0.35948326631E+04  0.89756499604E+03 0.  0.
        -24    2    4    4    0    0  0.19648212209E+02 -0.79749686200E+02 -0.12656380012E+01  0.11411341487E+03  0.79209878945E+02 0.  0.
         24    2    4    4    0    0 -0.17976535422E+03 -0.10833815908E+03  0.34734673050E+04  0.34807192482E+04  0.79866302244E+02 0.  0.
         11    1    3    3    0    0  0.10991291918E+03  0.10997453457E+03  0.26568441488E+03  0.30783673655E+03  0.00000000000E+00 0. -1.
        -11    1    3    3    0    0  0.50204222833E+02  0.78113310711E+02  0.58520539081E+02  0.10975794639E+03  0.00000000000E+00 0.  1.
          4    1    6    6  502    0 -0.92685510456E+02 -0.11671789526E+02  0.16199228375E+04  0.16226141975E+04  0.00000000000E+00 0. -1.
          1    1    5    5  503    0 -0.86564898043E+01 -0.83894497399E+02  0.61421402875E+01  0.84563274516E+02  0.00000000000E+00 0. -1.
         -2    1    5    5    0  503  0.28304702014E+02  0.41448111993E+01 -0.74077782887E+01  0.29550140357E+02  0.00000000000E+00 0.  1.
         -3    1    6    6    0  502 -0.87079843764E+02 -0.96666369559E+02  0.18535444676E+04  0.18581050507E+04  0.00000000000E+00 0.  1.
<mgrwt>
<rscale>  0 0.12987956E+04</rscale>
<asrwt>0</asrwt>
<pdfrwt beam="1">  1        2 0.60067943E+00 0.12987956E+04</pdfrwt>
<pdfrwt beam="2">  1       -2 0.16616982E-01 0.12987956E+04</pdfrwt>
<totfact> 0.12159414E+01</totfact>
</mgrwt>
</event>
<event>
12    1  0.1541840E-007  0.1826969E+04  0.7818608E-02  0.8692088E-01
          1   -1    0    0  501    0  0.00000000000E+00  0.00000000000E+00  0.49149065579E+03  0.49149065579E+03  0.00000000000E+00 0. -1.
         -1   -1    0    0    0  501 -0.00000000000E+00 -0.00000000000E+00 -0.16978014339E+04  0.16978014339E+04  0.00000000000E+00 0.  1.
         23    2    1    2    0    0 -0.76020160000E+01 -0.38869103513E+03  0.22336219626E+03  0.45666773012E+03  0.86696214287E+02 0.  0.
        254    2    1    2    0    0  0.76020160000E+01  0.38869103513E+03 -0.14296729744E+04  0.17326243596E+04  0.89826713525E+03 0.  0.
        -24    2    4    4    0    0 -0.48984748109E+02  0.64737205434E+03 -0.72944089310E+03  0.97990073479E+03  0.81433108899E+02 0.  0.
         24    2    4    4    0    0  0.56586764109E+02 -0.25868101921E+03 -0.70023208126E+03  0.75272362477E+03  0.78421655733E+02 0.  0.
         13    1    3    3    0    0 -0.42773086959E+00 -0.38553489298E+03  0.22765407645E+03  0.44773174467E+03  0.00000000000E+00 0. -1.
        -13    1    3    3    0    0 -0.71742851304E+01 -0.31561421532E+01 -0.42918801876E+01  0.89359854503E+01  0.00000000000E+00 0.  1.
          2    1    6    6  502    0 -0.12701513754E+02 -0.86196622670E+01 -0.59370756971E+02  0.61323028403E+02  0.00000000000E+00 0. -1.
          3    1    5    5  503    0  0.13988755193E+02  0.35487979479E+02 -0.56699988749E+02  0.68337183755E+02  0.00000000000E+00 0. -1.
         -4    1    5    5    0  503 -0.62973503303E+02  0.61188407486E+03 -0.67274090436E+03  0.91156355104E+03  0.00000000000E+00 0.  1.
         -1    1    6    6    0  502  0.69288277864E+02 -0.25006135694E+03 -0.64086132429E+03  0.69140059636E+03  0.00000000000E+00 0.  1.
<mgrwt>
<rscale>  0 0.18269686E+04</rscale>
<asrwt>0</asrwt>
<pdfrwt beam="1">  1        1 0.75613948E-01 0.18269686E+04</pdfrwt>
<pdfrwt beam="2">  1       -1 0.26120022E+00 0.18269686E+04</pdfrwt>
<totfact> 0.25187306E+00</totfact>
</mgrwt>
</event>
<event>
12    1  0.1541840E-007  0.1422605E+04  0.7818608E-02  0.8937616E-01
         -2   -1    0    0    0  501 -0.00000000000E+00  0.00000000000E+00  0.17155020444E+04  0.17155020444E+04  0.00000000000E+00 0.  1.
          2   -1    0    0  501    0  0.00000000000E+00 -0.00000000000E+00 -0.29492915196E+03  0.29492915196E+03  0.00000000000E+00 0. -1.
         23    2    1    2    0    0 -0.28537444469E+03 -0.31272495655E+03  0.43261908407E+03  0.61222760779E+03  0.91803593117E+02 0.  0.
        254    2    1    2    0    0  0.28537444469E+03  0.31272495655E+03  0.98795380838E+03  0.13982035886E+04  0.89425112552E+03 0.  0.
        -24    2    4    4    0    0 -0.74586682445E+01  0.40268663057E+03  0.10008798089E+04  0.10817534196E+04  0.78853755753E+02 0.  0.
         24    2    4    4    0    0  0.29283311294E+03 -0.89961674019E+02 -0.12926000480E+02  0.31645016901E+03  0.78289802364E+02 0.  0.
         11    1    3    3    0    0 -0.19084506841E+02 -0.96808108515E+01  0.98862197198E+00  0.21422275171E+02  0.00000000000E+00 0. -1.
        -11    1    3    3    0    0 -0.26628993785E+03 -0.30304414570E+03  0.43163046210E+03  0.59080533262E+03  0.00000000000E+00 0.  1.
          4    1    6    6  502    0  0.25031239356E+03 -0.78879270591E+02 -0.39040704883E+02  0.26533452534E+03  0.00000000000E+00 0. -1.
          3    1    5    5  503    0  0.12548998323E+02  0.29772850655E+03  0.65183295948E+03  0.71671887657E+03  0.00000000000E+00 0. -1.
         -4    1    5    5    0  503 -0.20007666568E+02  0.10495812402E+03  0.34904684939E+03  0.36503454301E+03  0.00000000000E+00 0.  1.
         -3    1    6    6    0  502  0.42520719376E+02 -0.11082403429E+02  0.26114704403E+02  0.51115643673E+02  0.00000000000E+00 0.  1.
<mgrwt>
<rscale>  0 0.14226054E+04</rscale>
<asrwt>0</asrwt>
<pdfrwt beam="1">  1        2 0.45373717E-01 0.14226054E+04</pdfrwt>
<pdfrwt beam="2">  1       -2 0.26392339E+00 0.14226054E+04</pdfrwt>
<totfact> 0.57513049E+00</totfact>
</mgrwt>
</event>
<event>
12    1  0.1541840E-007  0.1777089E+04  0.7818608E-02  0.8718579E-01
         -2   -1    0    0    0  501 -0.00000000000E+00  0.00000000000E+00  0.24829447753E+03  0.24829447753E+03  0.00000000000E+00 0.  1.
          2   -1    0    0  501    0  0.00000000000E+00 -0.00000000000E+00 -0.31797380297E+04  0.31797380297E+04  0.00000000000E+00 0. -1.
         23    2    1    2    0    0 -0.66277177517E+03  0.21302694225E+03 -0.13378312226E+04  0.15108777422E+04  0.91171638227E+02 0.  0.
        254    2    1    2    0    0  0.66277177517E+03 -0.21302694225E+03 -0.15936123296E+04  0.19171547651E+04  0.80699146962E+03 0.  0.
        -24    2    4    4    0    0 -0.78319443387E+02 -0.37264368122E+02  0.30016742272E+02  0.12200542092E+03  0.80385008391E+02 0.  0.
         24    2    4    4    0    0  0.74109121855E+03 -0.17576257413E+03 -0.16236290719E+04  0.17951493441E+04  0.79253567898E+02 0.  0.
         11    1    3    3    0    0 -0.57747726346E+03  0.20907963258E+03 -0.11284236913E+04  0.12847312208E+04  0.00000000000E+00 0.  1.
        -11    1    3    3    0    0 -0.85294511705E+02  0.39473096707E+01 -0.20940753130E+03  0.22614652141E+03  0.00000000000E+00 0. -1.
          4    1    6    6  502    0  0.59355381077E+03 -0.10832967647E+03 -0.12632441919E+04  0.13999383320E+04  0.00000000000E+00 0. -1.
          1    1    5    5  503    0 -0.83309034976E+02 -0.27569145654E+01  0.19819571819E+02  0.85678534731E+02  0.00000000000E+00 0. -1.
         -2    1    5    5    0  503  0.49895915890E+01 -0.34507453556E+02  0.10197170453E+02  0.36326886192E+02  0.00000000000E+00 0.  1.
         -3    1    6    6    0  502  0.14753740778E+03 -0.67432897666E+02 -0.36038488001E+03  0.39521101214E+03  0.00000000000E+00 0.  1.
<mgrwt>
<rscale>  0 0.17770891E+04</rscale>
<asrwt>0</asrwt>
<pdfrwt beam="1">  1        2 0.48919045E+00 0.17770891E+04</pdfrwt>
<pdfrwt beam="2">  1       -2 0.38199152E-01 0.17770891E+04</pdfrwt>
<totfact> 0.82264185E+00</totfact>
</mgrwt>
</event>
<event>
12    1  0.1541840E-007  0.1755374E+04  0.7818608E-02  0.8730398E-01
         -2   -1    0    0    0  501 -0.00000000000E+00  0.00000000000E+00  0.83222576994E+03  0.83222576994E+03  0.00000000000E+00 0.  1.
          2   -1    0    0  501    0  0.00000000000E+00 -0.00000000000E+00 -0.92563179896E+03  0.92563179896E+03  0.00000000000E+00 0. -1.
         23    2    1    2    0    0  0.48161727863E+03  0.33253555992E+03 -0.31123019186E+03  0.66846473836E+03  0.86288889347E+02 0.  0.
        254    2    1    2    0    0 -0.48161727863E+03 -0.33253555992E+03  0.21782416283E+03  0.10893928305E+04  0.89263333550E+03 0.  0.
        -24    2    4    4    0    0 -0.38176102064E+03  0.22011160242E+03  0.26473380859E+03  0.52030301919E+03  0.80253647709E+02 0.  0.
         24    2    4    4    0    0 -0.99856257989E+02 -0.55264716234E+03 -0.46909645757E+02  0.56908981136E+03  0.79199370103E+02 0.  0.
         13    1    3    3    0    0  0.33070579749E+03  0.23016230086E+03 -0.16780789030E+03  0.43646362653E+03  0.00000000000E+00 0. -1.
        -13    1    3    3    0    0  0.15091148113E+03  0.10237325906E+03 -0.14342230156E+03  0.23200111183E+03  0.00000000000E+00 0.  1.
          2    1    6    6  502    0 -0.80303128915E+01 -0.16301127221E+03  0.15502918591E+02  0.16394359176E+03  0.00000000000E+00 0. -1.
          1    1    5    5  503    0 -0.30496392654E+03  0.18204242249E+03  0.17404630333E+03  0.39551808527E+03  0.00000000000E+00 0. -1.
         -2    1    5    5    0  503 -0.76797094101E+02  0.38069179931E+02  0.90687505260E+02  0.12478493392E+03  0.00000000000E+00 0.  1.
         -1    1    6    6    0  502 -0.91825945097E+02 -0.38963589013E+03 -0.62412564348E+02  0.40514621960E+03  0.00000000000E+00 0.  1.
<mgrwt>
<rscale>  0 0.17553742E+04</rscale>
<asrwt>0</asrwt>
<pdfrwt beam="1">  1        2 0.14240489E+00 0.17553742E+04</pdfrwt>
<pdfrwt beam="2">  1       -2 0.12803473E+00 0.17553742E+04</pdfrwt>
<totfact> 0.12050155E+01</totfact>
</mgrwt>
</event>
<event>
12    1  0.1541840E-007  0.1524614E+04  0.7818608E-02  0.8868248E-01
          1   -1    0    0  501    0  0.00000000000E+00  0.00000000000E+00  0.18513690998E+03  0.18513690998E+03  0.00000000000E+00 0. -1.
         -1   -1    0    0    0  501 -0.00000000000E+00 -0.00000000000E+00 -0.31388241738E+04  0.31388241738E+04  0.00000000000E+00 0.  1.
         23    2    1    2    0    0  0.41977497411E+03  0.25959627769E+03 -0.87382072287E+03  0.10077047660E+04  0.91131681847E+02 0.  0.
        254    2    1    2    0    0 -0.41977497411E+03 -0.25959627769E+03 -0.20798665410E+04  0.23162563178E+04  0.89196258062E+03 0.  0.
        -24    2    4    4    0    0  0.27059827389E+03 -0.38000285067E+02 -0.69145118016E+03  0.74785316852E+03  0.80698076963E+02 0.  0.
         24    2    4    4    0    0 -0.69037324800E+03 -0.22159599262E+03 -0.13884153608E+04  0.15684031493E+04  0.80443887514E+02 0.  0.
         13    1    3    3    0    0  0.30891451950E+03  0.22911943043E+03 -0.71136266639E+03  0.80867838903E+03  0.00000000000E+00 0.  1.
        -13    1    3    3    0    0  0.11086045461E+03  0.30476847264E+02 -0.16245805648E+03  0.19902637697E+03  0.00000000000E+00 0. -1.
          2    1    6    6  502    0 -0.52712927448E+03 -0.19840481310E+03 -0.11132283103E+04  0.12476005020E+04  0.00000000000E+00 0. -1.
          3    1    5    5  503    0  0.21299371786E+03 -0.51537195259E+01 -0.45734524284E+03  0.50453697171E+03  0.00000000000E+00 0. -1.
         -4    1    5    5    0  503  0.57604556035E+02 -0.32846565541E+02 -0.23410593732E+03  0.24331619681E+03  0.00000000000E+00 0.  1.
         -1    1    6    6    0  502 -0.16324397352E+03 -0.23191179519E+02 -0.27518705053E+03  0.32080264725E+03  0.00000000000E+00 0.  1.
<mgrwt>
<rscale>  0 0.15246143E+04</rscale>
<asrwt>0</asrwt>
<pdfrwt beam="1">  1        1 0.28482604E-01 0.15246143E+04</pdfrwt>
<pdfrwt beam="2">  1       -1 0.48289599E+00 0.15246143E+04</pdfrwt>
<totfact> 0.30770039E-01</totfact>
</mgrwt>
</event>
<event>
12    1  0.1541840E-007  0.1445823E+04  0.7818608E-02  0.8921302E-01
          2   -1    0    0  501    0  0.00000000000E+00  0.00000000000E+00  0.13420371718E+04  0.13420371718E+04  0.00000000000E+00 0. -1.
         -2   -1    0    0    0  501 -0.00000000000E+00 -0.00000000000E+00 -0.38940861629E+03  0.38940861629E+03  0.00000000000E+00 0.  1.
         23    2    1    2    0    0 -0.30576008076E+03  0.11708796391E+03 -0.45151154418E+02  0.34724386963E+03  0.10649347383E+03 0.  0.
        254    2    1    2    0    0  0.30576008076E+03 -0.11708796391E+03  0.99777970991E+03  0.13842019184E+04  0.90180473675E+03 0.  0.
        -24    2    4    4    0    0  0.55552060580E+01 -0.13590652120E+03 -0.13601488853E+03  0.20846775197E+03  0.80357394768E+02 0.  0.
         24    2    4    4    0    0  0.30020487470E+03  0.18818557280E+02  0.11337945984E+04  0.11757341665E+04  0.79897020324E+02 0.  0.
         11    1    3    3    0    0 -0.19646786084E+03  0.11335889436E+03  0.51271732092E+01  0.22688355423E+03  0.00000000000E+00 0.  1.
        -11    1    3    3    0    0 -0.10929221992E+03  0.37290695580E+01 -0.50278327628E+02  0.12036031540E+03  0.00000000000E+00 0. -1.
          2    1    6    6  502    0  0.15124533917E+03  0.80221831544E+00  0.42169252872E+03  0.44799596533E+03  0.00000000000E+00 0. -1.
          3    1    5    5  503    0 -0.45474477542E+01 -0.97139231140E+02 -0.41344511777E+02  0.10566966529E+03  0.00000000000E+00 0. -1.
         -4    1    5    5    0  503  0.10102653812E+02 -0.38767290055E+02 -0.94670376754E+02  0.10279808669E+03  0.00000000000E+00 0.  1.
         -1    1    6    6    0  502  0.14895953554E+03  0.18016338965E+02  0.71210206971E+03  0.72773820113E+03  0.00000000000E+00 0.  1.
<mgrwt>
<rscale>  0 0.14458227E+04</rscale>
<asrwt>0</asrwt>
<pdfrwt beam="1">  1        2 0.20646726E+00 0.14458227E+04</pdfrwt>
<pdfrwt beam="2">  1       -2 0.59909018E-01 0.14458227E+04</pdfrwt>
<totfact> 0.39384330E+01</totfact>
</mgrwt>
</event>
<event>
12    1  0.1541840E-007  0.1982579E+04  0.7818608E-02  0.8614809E-01
          2   -1    0    0  501    0  0.00000000000E+00  0.00000000000E+00  0.15221308267E+04  0.15221308267E+04  0.00000000000E+00 0. -1.
         -2   -1    0    0    0  501 -0.00000000000E+00 -0.00000000000E+00 -0.64557829005E+03  0.64557829005E+03  0.00000000000E+00 0.  1.
         23    2    1    2    0    0 -0.57157827574E+03  0.74072314790E+02  0.94779513841E+03  0.11122011257E+04  0.80543693438E+02 0.  0.
        254    2    1    2    0    0  0.57157827574E+03 -0.74072314790E+02 -0.71242601753E+02  0.10555079910E+04  0.88138140310E+03 0.  0.
        -24    2    4    4    0    0  0.58959991110E+03 -0.39436970553E+03 -0.11079794847E+03  0.72240123351E+03  0.80198734301E+02 0.  0.
         24    2    4    4    0    0 -0.18021635367E+02  0.32029739074E+03  0.39555346721E+02  0.33310675753E+03  0.80500239757E+02 0.  0.
         11    1    3    3    0    0 -0.38334465180E+03  0.84401971689E+02  0.66896553249E+03  0.77562342573E+03  0.00000000000E+00 0. -1.
        -11    1    3    3    0    0 -0.18823362393E+03 -0.10329656900E+02  0.27882960593E+03  0.33657769999E+03  0.00000000000E+00 0.  1.
          4    1    6    6  502    0  0.98350914618E+01  0.28088147699E+03  0.44628469638E+02  0.28457482925E+03  0.00000000000E+00 0. -1.
          3    1    5    5  503    0  0.46462394223E+03 -0.27624660059E+03 -0.10292704299E+03  0.55025591157E+03  0.00000000000E+00 0. -1.
         -4    1    5    5    0  503  0.12497596887E+03 -0.11812310494E+03 -0.78709054806E+01  0.17214532195E+03  0.00000000000E+00 0.  1.
         -3    1    6    6    0  502 -0.27856726829E+02  0.39415913748E+02 -0.50731229167E+01  0.48531928278E+02  0.00000000000E+00 0.  1.
<mgrwt>
<rscale>  0 0.19825787E+04</rscale>
<asrwt>0</asrwt>
<pdfrwt beam="1">  1        2 0.23417397E+00 0.19825787E+04</pdfrwt>
<pdfrwt beam="2">  1       -2 0.99319737E-01 0.19825787E+04</pdfrwt>
<totfact> 0.96338562E+00</totfact>
</mgrwt>
</event>
<event>
12    1  0.1541840E-007  0.1633372E+04  0.7818608E-02  0.8800305E-01
         -2   -1    0    0    0  501 -0.00000000000E+00  0.00000000000E+00  0.34280849286E+03  0.34280849286E+03  0.00000000000E+00 0.  1.
          2   -1    0    0  501    0  0.00000000000E+00 -0.00000000000E+00 -0.19456223531E+04  0.19456223531E+04  0.00000000000E+00 0. -1.
         23    2    1    2    0    0 -0.76595693026E+02 -0.37317883304E+03 -0.11893776188E+04  0.12521755494E+04  0.90527038878E+02 0.  0.
        254    2    1    2    0    0  0.76595693026E+02  0.37317883304E+03 -0.41343624144E+03  0.10362552966E+04  0.87049765786E+03 0.  0.
        -24    2    4    4    0    0 -0.83543460040E+02  0.43618905998E+03 -0.61233667951E+03  0.76069285503E+03  0.80355490563E+02 0.  0.
         24    2    4    4    0    0  0.16013915307E+03 -0.63010226940E+02  0.19890043806E+03  0.27556244155E+03  0.82209718936E+02 0.  0.
         11    1    3    3    0    0  0.84249851210E+01 -0.13367546766E+02 -0.18586776674E+02  0.24395490320E+02  0.00000000000E+00 0.  1.
        -11    1    3    3    0    0 -0.85020678147E+02 -0.35981128628E+03 -0.11707908422E+04  0.12277800591E+04  0.00000000000E+00 0. -1.
          4    1    6    6  502    0  0.16442056721E+03 -0.43689187655E+02  0.16974664459E+03  0.24032642674E+03  0.00000000000E+00 0. -1.
          1    1    5    5  503    0 -0.39967387939E+02  0.30247668702E+03 -0.36079218122E+03  0.47250453576E+03  0.00000000000E+00 0. -1.
         -2    1    5    5    0  503 -0.43576072101E+02  0.13371237296E+03 -0.25154449829E+03  0.28818831927E+03  0.00000000000E+00 0.  1.
         -3    1    6    6    0  502 -0.42814141399E+01 -0.19321039284E+02  0.29153793474E+02  0.35236014814E+02  0.00000000000E+00 0.  1.
<mgrwt>
<rscale>  0 0.16333718E+04</rscale>
<asrwt>0</asrwt>
<pdfrwt beam="1">  1        2 0.29932652E+00 0.16333718E+04</pdfrwt>
<pdfrwt beam="2">  1       -2 0.52739767E-01 0.16333718E+04</pdfrwt>
<totfact> 0.23238687E+01</totfact>
</mgrwt>
</event>
<event>
12    1  0.1541840E-007  0.1275711E+04  0.7818608E-02  0.9049052E-01
         -1   -1    0    0    0  501 -0.00000000000E+00  0.00000000000E+00  0.20762145415E+03  0.20762145415E+03  0.00000000000E+00 0.  1.
          1   -1    0    0  501    0  0.00000000000E+00 -0.00000000000E+00 -0.19596208593E+04  0.19596208593E+04  0.00000000000E+00 0. -1.
         23    2    1    2    0    0 -0.18273930133E+03  0.19595700460E+02  0.69713168903E+01  0.20484882395E+03  0.90204199937E+02 0.  0.
        254    2    1    2    0    0  0.18273930133E+03 -0.19595700460E+02 -0.17589707220E+04  0.19623934895E+04  0.85043081020E+03 0.  0.
        -24    2    4    4    0    0 -0.11116572579E+03  0.30912946186E+03 -0.11921795304E+04  0.12398820808E+04  0.89981658000E+02 0.  0.
         24    2    4    4    0    0  0.29390502712E+03 -0.32872516232E+03 -0.56679119168E+03  0.72251140876E+03  0.79561821952E+02 0.  0.
         13    1    3    3    0    0 -0.31878657010E+02  0.38068883787E+02 -0.13582434300E+02  0.51477871042E+02  0.00000000000E+00 0. -1.
        -13    1    3    3    0    0 -0.15086064432E+03 -0.18473183327E+02  0.20553751191E+02  0.15337095290E+03  0.00000000000E+00 0.  1.
          2    1    6    6  502    0  0.18670492769E+03 -0.25560346585E+03 -0.37181591171E+03  0.48830209295E+03  0.00000000000E+00 0. -1.
          1    1    5    5  503    0 -0.10045468051E+03  0.31268152374E+03 -0.11660933066E+04  0.12114596476E+04  0.00000000000E+00 0. -1.
         -2    1    5    5    0  503 -0.10711045283E+02 -0.35520618860E+01 -0.26086223763E+02  0.28422433128E+02  0.00000000000E+00 0.  1.
         -1    1    6    6    0  502  0.10720009943E+03 -0.73121696465E+02 -0.19497527996E+03  0.23420931580E+03  0.00000000000E+00 0.  1.
<mgrwt>
<rscale>  0 0.12757105E+04</rscale>
<asrwt>0</asrwt>
<pdfrwt beam="1">  1        1 0.30148013E+00 0.12757105E+04</pdfrwt>
<pdfrwt beam="2">  1       -1 0.31941763E-01 0.12757105E+04</pdfrwt>
<totfact> 0.28572846E+01</totfact>
</mgrwt>
</event>
<event>
12    1  0.1541840E-007  0.3145635E+04  0.7818608E-02  0.8203324E-01
         -2   -1    0    0    0  501 -0.00000000000E+00  0.00000000000E+00  0.15501011066E+04  0.15501011066E+04  0.00000000000E+00 0.  1.
          2   -1    0    0  501    0  0.00000000000E+00 -0.00000000000E+00 -0.15958664643E+04  0.15958664643E+04  0.00000000000E+00 0. -1.
         23    2    1    2    0    0 -0.45055815750E+03 -0.11106468094E+04  0.78372525382E+03  0.14353421115E+04  0.97173633003E+02 0.  0.
        254    2    1    2    0    0  0.45055815750E+03  0.11106468094E+04 -0.82949061146E+03  0.17106254595E+04  0.89534674823E+03 0.  0.
        -24    2    4    4    0    0  0.22660643359E+03  0.53441652193E+03  0.97137180099E+02  0.59374460156E+03  0.78393401956E+02 0.  0.
         24    2    4    4    0    0  0.22395172392E+03  0.57623028747E+03 -0.92662779156E+03  0.11168808579E+04  0.81166913419E+02 0.  0.
         13    1    3    3    0    0 -0.41770825192E+03 -0.93885232718E+03  0.66900717090E+03  0.12261706532E+04  0.00000000000E+00 0.  1.
        -13    1    3    3    0    0 -0.32849905583E+02 -0.17179448222E+03  0.11471808292E+03  0.20917145830E+03  0.00000000000E+00 0. -1.
          2    1    6    6  502    0  0.17652417585E+03  0.52302511934E+03 -0.83023826233E+03  0.99700132014E+03  0.00000000000E+00 0. -1.
          1    1    5    5  503    0  0.14438883675E+03  0.35395442951E+03  0.10103222543E+03  0.39539775533E+03  0.00000000000E+00 0. -1.
         -2    1    5    5    0  503  0.82217596838E+02  0.18046209242E+03 -0.38950453285E+01  0.19834684623E+03  0.00000000000E+00 0.  1.
         -1    1    6    6    0  502  0.47427548069E+02  0.53205168130E+02 -0.96389529226E+02  0.11987953777E+03  0.00000000000E+00 0.  1.
<mgrwt>
<rscale>  0 0.31456347E+04</rscale>
<asrwt>0</asrwt>
<pdfrwt beam="1">  1        2 0.24551792E+00 0.31456347E+04</pdfrwt>
<pdfrwt beam="2">  1       -2 0.23847709E+00 0.31456347E+04</pdfrwt>
<totfact> 0.71794423E-01</totfact>
</mgrwt>
</event>
<event>
12    1  0.1541840E-007  0.1272389E+04  0.7818608E-02  0.9051752E-01
          2   -1    0    0  501    0  0.00000000000E+00  0.00000000000E+00  0.19470594806E+04  0.19470594806E+04  0.00000000000E+00 0. -1.
         -2   -1    0    0    0  501 -0.00000000000E+00 -0.00000000000E+00 -0.20787430364E+03  0.20787430364E+03  0.00000000000E+00 0.  1.
         23    2    1    2    0    0  0.26358711966E+03 -0.77992288016E+02  0.20181674280E+03  0.35317686286E+03  0.91885429459E+02 0.  0.
        254    2    1    2    0    0 -0.26358711966E+03  0.77992288016E+02  0.15373684342E+04  0.18017569214E+04  0.89847945707E+03 0.  0.
        -24    2    4    4    0    0 -0.16054630835E+03 -0.15068097796E+03 -0.59159398664E+01  0.23607280131E+03  0.84944069419E+02 0.  0.
         24    2    4    4    0    0 -0.10304081131E+03  0.22867326598E+03  0.15432843741E+04  0.15656841201E+04  0.82044094060E+02 0.  0.
         11    1    3    3    0    0  0.22674731682E+03 -0.98312566910E+02  0.18030317188E+03  0.30592309538E+03  0.00000000000E+00 0.  1.
        -11    1    3    3    0    0  0.36839802842E+02  0.20320278894E+02  0.21513570925E+02  0.47253767487E+02  0.00000000000E+00 0. -1.
          2    1    6    6  502    0  0.33702960199E+01  0.51753018447E+02  0.19942531651E+03  0.20605870687E+03  0.00000000000E+00 0. -1.
          1    1    5    5  503    0 -0.12486857979E+03 -0.95678090194E+02  0.31721530831E+02  0.16047652376E+03  0.00000000000E+00 0. -1.
         -2    1    5    5    0  503 -0.35677728562E+02 -0.55002887767E+02 -0.37637470698E+02  0.75596277545E+02  0.00000000000E+00 0.  1.
         -1    1    6    6    0  502 -0.10641110733E+03  0.17692024753E+03  0.13438590575E+04  0.13596254132E+04  0.00000000000E+00 0.  1.
<mgrwt>
<rscale>  0 0.12723893E+04</rscale>
<asrwt>0</asrwt>
<pdfrwt beam="1">  1        2 0.29954760E+00 0.12723893E+04</pdfrwt>
<pdfrwt beam="2">  1       -2 0.31980663E-01 0.12723893E+04</pdfrwt>
<totfact> 0.63900233E+01</totfact>
</mgrwt>
</event>
<event>
12    1  0.1541840E-007  0.1354646E+04  0.7818608E-02  0.8987319E-01
         -1   -1    0    0    0  501 -0.00000000000E+00  0.00000000000E+00  0.38614661300E+03  0.38614661300E+03  0.00000000000E+00 0.  1.
          1   -1    0    0  501    0  0.00000000000E+00 -0.00000000000E+00 -0.11880621209E+04  0.11880621209E+04  0.00000000000E+00 0. -1.
         23    2    1    2    0    0  0.16621386611E+03 -0.32276169553E+03 -0.13408889843E+03  0.39654580053E+03  0.86409362021E+02 0.  0.
        254    2    1    2    0    0 -0.16621386611E+03  0.32276169553E+03 -0.66782660948E+03  0.11776629334E+04  0.89949732792E+03 0.  0.
        -24    2    4    4    0    0  0.50911376788E+02  0.21821526260E+03  0.17655065140E+03  0.29580062166E+03  0.78217684357E+02 0.  0.
         24    2    4    4    0    0 -0.21712524290E+03  0.10454643293E+03 -0.84437726088E+03  0.88186231172E+03  0.81454591062E+02 0.  0.
         11    1    3    3    0    0  0.11150792901E+02 -0.14062663988E+02  0.11873830055E+02  0.21519445646E+02  0.00000000000E+00 0. -1.
        -11    1    3    3    0    0  0.15506307321E+03 -0.30869903154E+03 -0.14596272849E+03  0.37502635488E+03  0.00000000000E+00 0.  1.
          4    1    6    6  502    0 -0.14164141709E+03  0.28182363144E+02 -0.54508370631E+03  0.56389075494E+03  0.00000000000E+00 0. -1.
          3    1    5    5  503    0  0.58074781806E+02  0.16656678221E+03  0.98801320530E+02  0.20218524712E+03  0.00000000000E+00 0. -1.
         -4    1    5    5    0  503 -0.71634050176E+01  0.51648480390E+02  0.77749330869E+02  0.93615374531E+02  0.00000000000E+00 0.  1.
         -3    1    6    6    0  502 -0.75483825805E+02  0.76364069789E+02 -0.29929355457E+03  0.31797155678E+03  0.00000000000E+00 0.  1.
<mgrwt>
<rscale>  0 0.13546456E+04</rscale>
<asrwt>0</asrwt>
<pdfrwt beam="1">  1        1 0.18277878E+00 0.13546456E+04</pdfrwt>
<pdfrwt beam="2">  1       -1 0.59407173E-01 0.13546456E+04</pdfrwt>
<totfact> 0.30643788E+01</totfact>
</mgrwt>
</event>
<event>
12    1  0.1541840E-007  0.1546612E+04  0.7818608E-02  0.8854035E-01
          2   -1    0    0  501    0  0.00000000000E+00  0.00000000000E+00  0.18407655794E+04  0.18407655794E+04  0.00000000000E+00 0. -1.
         -2   -1    0    0    0  501 -0.00000000000E+00 -0.00000000000E+00 -0.32486611893E+03  0.32486611893E+03  0.00000000000E+00 0.  1.
         23    2    1    2    0    0 -0.37457937162E+03 -0.10050337414E+03  0.96069079663E+03  0.10399537365E+04  0.90367767908E+02 0.  0.
        254    2    1    2    0    0  0.37457937162E+03  0.10050337414E+03  0.55520866380E+03  0.11256779618E+04  0.89915714947E+03 0.  0.
        -24    2    4    4    0    0  0.34974187032E+03  0.24541597849E+03 -0.10283110555E+03  0.44669056343E+03  0.80061506612E+02 0.  0.
         24    2    4    4    0    0  0.24837501304E+02 -0.14491260435E+03  0.65803976934E+03  0.67898739836E+03  0.79943634633E+02 0.  0.
         13    1    3    3    0    0 -0.25699597518E+03 -0.47412210907E+02  0.53977401975E+03  0.59970896391E+03  0.00000000000E+00 0.  1.
        -13    1    3    3    0    0 -0.11758339645E+03 -0.53091163232E+02  0.42091677688E+03  0.44024477259E+03  0.00000000000E+00 0. -1.
          4    1    6    6  502    0  0.24852162157E+02 -0.55726007779E+02  0.42688879394E+03  0.43122738816E+03  0.00000000000E+00 0. -1.
          1    1    5    5  503    0  0.19453202251E+03  0.10458016773E+03 -0.83879263234E+02  0.23625293662E+03  0.00000000000E+00 0. -1.
         -2    1    5    5    0  503  0.15520984781E+03  0.14083581076E+03 -0.18951842311E+02  0.21043762681E+03  0.00000000000E+00 0.  1.
         -3    1    6    6    0  502 -0.14660852386E-01 -0.89186596573E+02  0.23115097541E+03  0.24776001020E+03  0.00000000000E+00 0.  1.
<mgrwt>
<rscale>  0 0.15466123E+04</rscale>
<asrwt>0</asrwt>
<pdfrwt beam="1">  1        2 0.28319470E+00 0.15466123E+04</pdfrwt>
<pdfrwt beam="2">  1       -2 0.49979404E-01 0.15466123E+04</pdfrwt>
<totfact> 0.29868350E+01</totfact>
</mgrwt>
</event>
<event>
12    1  0.1541840E-007  0.1252330E+04  0.7818608E-02  0.9068246E-01
         -2   -1    0    0    0  501 -0.00000000000E+00  0.00000000000E+00  0.52469752286E+03  0.52469752286E+03  0.00000000000E+00 0.  1.
          2   -1    0    0  501    0  0.00000000000E+00 -0.00000000000E+00 -0.74725455400E+03  0.74725455400E+03  0.00000000000E+00 0. -1.
         23    2    1    2    0    0  0.19806224586E+03  0.21124857935E+03 -0.61595562714E+02  0.30918544676E+03  0.89146012973E+02 0.  0.
        254    2    1    2    0    0 -0.19806224586E+03 -0.21124857935E+03 -0.16096146843E+03  0.96276663011E+03  0.90396702054E+03 0.  0.
        -24    2    4    4    0    0 -0.42618018988E+03 -0.37962050140E+03 -0.28549983528E+03  0.64314093048E+03  0.79867522742E+02 0.  0.
         24    2    4    4    0    0  0.22811794403E+03  0.16837192205E+03  0.12453836686E+03  0.31962569963E+03  0.79144693586E+02 0.  0.
         11    1    3    3    0    0  0.16937726669E+03  0.21356842920E+03 -0.45941958751E+02  0.27642502780E+03  0.00000000000E+00 0.  1.
        -11    1    3    3    0    0  0.28684979165E+02 -0.23198498476E+01 -0.15653603963E+02  0.32760418954E+02  0.00000000000E+00 0. -1.
          4    1    6    6  502    0  0.21585312832E+03  0.17718511115E+03  0.11803735544E+03  0.30318303695E+03  0.00000000000E+00 0. -1.
          1    1    5    5  503    0 -0.25410998533E+03 -0.24796790749E+03 -0.13742979509E+03  0.38071894669E+03  0.00000000000E+00 0. -1.
         -2    1    5    5    0  503 -0.17207020455E+03 -0.13165259391E+03 -0.14807004019E+03  0.26242198379E+03  0.00000000000E+00 0.  1.
         -3    1    6    6    0  502  0.12264815707E+02 -0.88131890982E+01  0.65010114151E+01  0.16442662675E+02  0.00000000000E+00 0.  1.
<mgrwt>
<rscale>  0 0.12523300E+04</rscale>
<asrwt>0</asrwt>
<pdfrwt beam="1">  1        2 0.11496224E+00 0.12523300E+04</pdfrwt>
<pdfrwt beam="2">  1       -2 0.80722696E-01 0.12523300E+04</pdfrwt>
<totfact> 0.50212062E+01</totfact>
</mgrwt>
</event>
<event>
12    1  0.1541840E-007  0.1411116E+04  0.7818608E-02  0.8945811E-01
         -1   -1    0    0    0  501 -0.00000000000E+00  0.00000000000E+00  0.32996844592E+03  0.32996844592E+03  0.00000000000E+00 0.  1.
          1   -1    0    0  501    0  0.00000000000E+00 -0.00000000000E+00 -0.15086665746E+04  0.15086665746E+04  0.00000000000E+00 0. -1.
         23    2    1    2    0    0 -0.22684355521E+03 -0.28228149489E+03 -0.55996343175E+03  0.67302163617E+03  0.90874842320E+02 0.  0.
        254    2    1    2    0    0  0.22684355521E+03  0.28228149489E+03 -0.61873469689E+03  0.11656133843E+04  0.91906533806E+03 0.  0.
        -24    2    4    4    0    0  0.28878791923E+03  0.42974323848E+03 -0.19840716535E+01  0.52361481202E+03  0.78043715419E+02 0.  0.
         24    2    4    4    0    0 -0.61944364019E+02 -0.14746174359E+03 -0.61675062523E+03  0.64199857228E+03  0.78732223539E+02 0.  0.
         13    1    3    3    0    0 -0.86886913803E+02 -0.44922327850E+02 -0.14685084353E+03  0.17644410326E+03  0.00000000000E+00 0.  1.
        -13    1    3    3    0    0 -0.13995664141E+03 -0.23735916704E+03 -0.41311258821E+03  0.49657753291E+03  0.00000000000E+00 0. -1.
          2    1    6    6  502    0 -0.10840012936E+02 -0.65971806397E+01 -0.78299457922E+01  0.14910959861E+02  0.00000000000E+00 0. -1.
          1    1    5    5  503    0  0.11432855917E+03  0.14184541494E+03  0.33073448903E+02  0.18516207550E+03  0.00000000000E+00 0. -1.
         -2    1    5    5    0  503  0.17445936006E+03  0.28789782353E+03 -0.35057520556E+02  0.33845273652E+03  0.00000000000E+00 0.  1.
         -1    1    6    6    0  502 -0.51104351083E+02 -0.14086456295E+03 -0.60892067944E+03  0.62708761242E+03  0.00000000000E+00 0.  1.
<mgrwt>
<rscale>  0 0.14111164E+04</rscale>
<asrwt>0</asrwt>
<pdfrwt beam="1">  1        1 0.23210256E+00 0.14111164E+04</pdfrwt>
<pdfrwt beam="2">  1       -1 0.50764375E-01 0.14111164E+04</pdfrwt>
<totfact> 0.24506540E+01</totfact>
</mgrwt>
</event>
<event>
12    1  0.1541840E-007  0.5607133E+04  0.7818608E-02  0.7741117E-01
          2   -1    0    0  501    0  0.00000000000E+00  0.00000000000E+00  0.38820590876E+04  0.38820590876E+04  0.00000000000E+00 0. -1.
         -2   -1    0    0    0  501 -0.00000000000E+00 -0.00000000000E+00 -0.20246948313E+04  0.20246948313E+04  0.00000000000E+00 0.  1.
         23    2    1    2    0    0 -0.21242141470E+04 -0.13127367528E+04 -0.26149436167E+03  0.25130457233E+04  0.10703262024E+03 0.  0.
        254    2    1    2    0    0  0.21242141470E+04  0.13127367528E+04  0.21188586180E+04  0.33937081956E+04  0.89001682539E+03 0.  0.
        -24    2    4    4    0    0  0.13008969863E+04  0.10238738028E+04  0.18352201040E+04  0.24728477424E+04  0.79325869957E+02 0.  0.
         24    2    4    4    0    0  0.82331716070E+03  0.28886294997E+03  0.28363851394E+03  0.92086045322E+03  0.78995042550E+02 0.  0.
         13    1    3    3    0    0 -0.92351966770E+03 -0.56022263427E+03 -0.16569666668E+03  0.10927915455E+04  0.00000000000E+00 0. -1.
        -13    1    3    3    0    0 -0.12006944793E+04 -0.75251411851E+03 -0.95797694986E+02  0.14202541778E+04  0.00000000000E+00 0.  1.
          4    1    6    6  502    0  0.19744220237E+03  0.75280775060E+02  0.34144354545E+02  0.21404778747E+03  0.00000000000E+00 0. -1.
          1    1    5    5  503    0  0.43789159209E+03  0.30511243639E+03  0.62156533176E+03  0.81925948692E+03  0.00000000000E+00 0. -1.
         -2    1    5    5    0  503  0.86300539416E+03  0.71876136643E+03  0.12136547723E+04  0.16535882554E+04  0.00000000000E+00 0.  1.
         -3    1    6    6    0  502  0.62587495833E+03  0.21358217491E+03  0.24949415940E+03  0.70681266576E+03  0.00000000000E+00 0.  1.
<mgrwt>
<rscale>  0 0.56071329E+04</rscale>
<asrwt>0</asrwt>
<pdfrwt beam="1">  1        2 0.59723986E+00 0.56071329E+04</pdfrwt>
<pdfrwt beam="2">  1       -2 0.31149151E+00 0.56071329E+04</pdfrwt>
<totfact> 0.79261325E-03</totfact>
</mgrwt>
</event>
<event>
12    1  0.1541840E-007  0.1530627E+04  0.7818608E-02  0.8864338E-01
          2   -1    0    0  501    0  0.00000000000E+00  0.00000000000E+00  0.27705245130E+04  0.27705245130E+04  0.00000000000E+00 0. -1.
         -2   -1    0    0    0  501 -0.00000000000E+00 -0.00000000000E+00 -0.21140584154E+03  0.21140584154E+03  0.00000000000E+00 0.  1.
         23    2    1    2    0    0 -0.30596626391E+02  0.48209732936E+03  0.10902511190E+04  0.11964067528E+04  0.96889767098E+02 0.  0.
        254    2    1    2    0    0  0.30596626391E+02 -0.48209732936E+03  0.14688675524E+04  0.17855236018E+04  0.89284301947E+03 0.  0.
        -24    2    4    4    0    0 -0.18193182172E+03 -0.66564547874E+03  0.12119575395E+04  0.13968473188E+04  0.78474603805E+02 0.  0.
         24    2    4    4    0    0  0.21252844811E+03  0.18354814938E+03  0.25691001296E+03  0.38867628299E+03  0.78792346068E+02 0.  0.
         11    1    3    3    0    0 -0.16000797823E+02  0.47565471788E+03  0.10654993549E+04  0.11669585731E+04  0.00000000000E+00 0.  1.
        -11    1    3    3    0    0 -0.14595828567E+02  0.64426114824E+01  0.24751764168E+02  0.29448179633E+02  0.00000000000E+00 0. -1.
          4    1    6    6  502    0  0.19582758953E+03  0.12871540586E+03  0.20631547026E+03  0.31222135385E+03  0.00000000000E+00 0. -1.
          1    1    5    5  503    0 -0.15893587984E+03 -0.52206605698E+03  0.89736339579E+03  0.10502736052E+04  0.00000000000E+00 0. -1.
         -2    1    5    5    0  503 -0.22995941879E+02 -0.14357942175E+03  0.31459414369E+03  0.34657371357E+03  0.00000000000E+00 0.  1.
         -3    1    6    6    0  502  0.16700858579E+02  0.54832743514E+02  0.50594542704E+02  0.76454929141E+02  0.00000000000E+00 0.  1.
<mgrwt>
<rscale>  0 0.15306274E+04</rscale>
<asrwt>0</asrwt>
<pdfrwt beam="1">  1        2 0.42623451E+00 0.15306274E+04</pdfrwt>
<pdfrwt beam="2">  1       -2 0.32523978E-01 0.15306274E+04</pdfrwt>
<totfact> 0.20554024E+01</totfact>
</mgrwt>
</event>
<event>
12    1  0.1541840E-007  0.2209461E+04  0.7818608E-02  0.8514501E-01
          2   -1    0    0  501    0  0.00000000000E+00  0.00000000000E+00  0.98862403561E+03  0.98862403561E+03  0.00000000000E+00 0. -1.
         -2   -1    0    0    0  501 -0.00000000000E+00 -0.00000000000E+00 -0.12344728607E+04  0.12344728607E+04  0.00000000000E+00 0.  1.
         23    2    1    2    0    0 -0.66980128143E+03  0.59179351816E+03 -0.14809790406E+03  0.91061544831E+03  0.91837796025E+02 0.  0.
        254    2    1    2    0    0  0.66980128143E+03 -0.59179351816E+03 -0.97750921013E+02  0.13124814480E+04  0.95613753403E+03 0.  0.
        -24    2    4    4    0    0 -0.19459030413E+03 -0.31681296921E+03 -0.12763378317E+03  0.40124788773E+03  0.80458939129E+02 0.  0.
         24    2    4    4    0    0  0.86439158556E+03 -0.27498054896E+03  0.29882862154E+02  0.91123356025E+03  0.81648639784E+02 0.  0.
         13    1    3    3    0    0 -0.60245868575E+02  0.48741553239E+02 -0.39722057654E+02  0.87081258355E+02  0.00000000000E+00 0.  1.
        -13    1    3    3    0    0 -0.60955541285E+03  0.54305196493E+03 -0.10837584640E+03  0.82353418996E+03  0.00000000000E+00 0. -1.
          4    1    6    6  502    0  0.22548476959E+03 -0.34917000737E+02  0.11707880462E+02  0.22847243317E+03  0.00000000000E+00 0. -1.
          1    1    5    5  503    0 -0.15937353701E+03 -0.29403795300E+03 -0.93784126224E+02  0.34735242109E+03  0.00000000000E+00 0. -1.
         -2    1    5    5    0  503 -0.35216767119E+02 -0.22775016201E+02 -0.33849656943E+02  0.53895466641E+02  0.00000000000E+00 0.  1.
         -3    1    6    6    0  502  0.63890681597E+03 -0.24006354822E+03  0.18174981692E+02  0.68276112707E+03  0.00000000000E+00 0.  1.
<mgrwt>
<rscale>  0 0.22094611E+04</rscale>
<asrwt>0</asrwt>
<pdfrwt beam="1">  1        2 0.15209601E+00 0.22094611E+04</pdfrwt>
<pdfrwt beam="2">  1       -2 0.18991890E+00 0.22094611E+04</pdfrwt>
<totfact> 0.36303349E+00</totfact>
</mgrwt>
</event>
<event>
12    1  0.1541840E-007  0.2177697E+04  0.7818608E-02  0.8527769E-01
          2   -1    0    0  501    0  0.00000000000E+00  0.00000000000E+00  0.94076216763E+03  0.94076216763E+03  0.00000000000E+00 0. -1.
         -2   -1    0    0    0  501 -0.00000000000E+00 -0.00000000000E+00 -0.12602451647E+04  0.12602451647E+04  0.00000000000E+00 0.  1.
         23    2    1    2    0    0  0.43847112173E+03 -0.38093572710E+03 -0.82021768015E+03  0.10089284868E+04  0.88378141090E+02 0.  0.
        254    2    1    2    0    0 -0.43847112173E+03  0.38093572710E+03  0.50073468310E+03  0.11920788455E+04  0.91265973853E+03 0.  0.
        -24    2    4    4    0    0 -0.42094235854E+03  0.51866654067E+03  0.65637364929E+01  0.67287828403E+03  0.80713399546E+02 0.  0.
         24    2    4    4    0    0 -0.17528763193E+02 -0.13773081356E+03  0.49417094660E+03  0.51920056150E+03  0.78020920601E+02 0.  0.
         11    1    3    3    0    0  0.30166723249E+03 -0.24908488377E+03 -0.61832248612E+03  0.73168920678E+03  0.00000000000E+00 0.  1.
        -11    1    3    3    0    0  0.13680388924E+03 -0.13185084333E+03 -0.20189519403E+03  0.27723927999E+03  0.00000000000E+00 0. -1.
          4    1    6    6  502    0  0.62824060193E+01 -0.10589234635E+03  0.43615239613E+03  0.44886698508E+03  0.00000000000E+00 0. -1.
          3    1    5    5  503    0 -0.29413551333E+03  0.38902906264E+03 -0.26994997527E+02  0.48845474884E+03  0.00000000000E+00 0. -1.
         -4    1    5    5    0  503 -0.12680684521E+03  0.12963747803E+03  0.33558734020E+02  0.18442353519E+03  0.00000000000E+00 0.  1.
         -3    1    6    6    0  502 -0.23811169212E+02 -0.31838467210E+02  0.58018550473E+02  0.70333576424E+02  0.00000000000E+00 0.  1.
<mgrwt>
<rscale>  0 0.21776969E+04</rscale>
<asrwt>0</asrwt>
<pdfrwt beam="1">  1        2 0.14473264E+00 0.21776969E+04</pdfrwt>
<pdfrwt beam="2">  1       -2 0.19388387E+00 0.21776969E+04</pdfrwt>
<totfact> 0.36799660E+00</totfact>
</mgrwt>
</event>
<event>
12    1  0.1541840E-007  0.1796032E+04  0.7818608E-02  0.8708412E-01
          2   -1    0    0  501    0  0.00000000000E+00  0.00000000000E+00  0.25204249291E+04  0.25204249291E+04  0.00000000000E+00 0. -1.
         -2   -1    0    0    0  501 -0.00000000000E+00 -0.00000000000E+00 -0.31995908597E+03  0.31995908597E+03  0.00000000000E+00 0.  1.
         23    2    1    2    0    0  0.32613941025E+03  0.36587303417E+03  0.10841711724E+03  0.51010870408E+03  0.90700753132E+02 0.  0.
        254    2    1    2    0    0 -0.32613941025E+03 -0.36587303417E+03  0.20920487259E+04  0.23302753110E+04  0.90182324291E+03 0.  0.
        -24    2    4    4    0    0  0.53807434817E+02  0.25681890519E+03  0.38878362557E+03  0.47568164265E+03  0.79177822223E+02 0.  0.
         24    2    4    4    0    0 -0.37994684507E+03 -0.62269193936E+03  0.17032651003E+04  0.18545936683E+04  0.79377681176E+02 0.  0.
         13    1    3    3    0    0  0.24587171275E+03  0.32175265979E+03  0.70769106813E+02  0.41107899446E+03  0.00000000000E+00 0.  1.
        -13    1    3    3    0    0  0.80267697503E+02  0.44120374383E+02  0.37648010430E+02  0.99029709620E+02  0.00000000000E+00 0. -1.
          4    1    6    6  502    0 -0.25564359160E+03 -0.34800903619E+03  0.97093972933E+03  0.10626325297E+04  0.00000000000E+00 0. -1.
          3    1    5    5  503    0  0.65188848069E+02  0.18504068272E+03  0.32155892363E+03  0.37668260053E+03  0.00000000000E+00 0. -1.
         -4    1    5    5    0  503 -0.11381413252E+02  0.71778222479E+02  0.67224701940E+02  0.98999042121E+02  0.00000000000E+00 0.  1.
         -3    1    6    6    0  502 -0.12430325346E+03 -0.27468290317E+03  0.73232537098E+03  0.79196113863E+03  0.00000000000E+00 0.  1.
<mgrwt>
<rscale>  0 0.17960321E+04</rscale>
<asrwt>0</asrwt>
<pdfrwt beam="1">  1        2 0.38775767E+00 0.17960321E+04</pdfrwt>
<pdfrwt beam="2">  1       -2 0.49224477E-01 0.17960321E+04</pdfrwt>
<totfact> 0.12513562E+01</totfact>
</mgrwt>
</event>
<event>
12    1  0.1541840E-007  0.3191341E+04  0.7818608E-02  0.8191108E-01
         -2   -1    0    0    0  501 -0.00000000000E+00  0.00000000000E+00  0.75691937065E+03  0.75691937065E+03  0.00000000000E+00 0.  1.
          2   -1    0    0  501    0  0.00000000000E+00 -0.00000000000E+00 -0.33638512999E+04  0.33638512999E+04  0.00000000000E+00 0. -1.
         23    2    1    2    0    0 -0.61383891311E+03 -0.51364822669E+03  0.39232082209E+03  0.89686475154E+03  0.99086038748E+02 0.  0.
        254    2    1    2    0    0  0.61383891311E+03  0.51364822669E+03 -0.29992527514E+04  0.32239059190E+04  0.87029856723E+03 0.  0.
        -24    2    4    4    0    0  0.60153617907E+03  0.57627045743E+03 -0.14723576398E+04  0.16935159145E+04  0.78903222745E+02 0.  0.
         24    2    4    4    0    0  0.12302734039E+02 -0.62622230742E+02 -0.15268951116E+04  0.15303900045E+04  0.81314100730E+02 0.  0.
         11    1    3    3    0    0 -0.55116706416E+03 -0.42978293881E+03  0.36578776013E+03  0.78885942510E+03  0.00000000000E+00 0.  1.
        -11    1    3    3    0    0 -0.62671848954E+02 -0.83865287883E+02  0.26533061960E+02  0.10800532644E+03  0.00000000000E+00 0. -1.
          2    1    6    6  502    0 -0.20644204845E+02 -0.50113110360E+02 -0.50749801001E+03  0.51038391157E+03  0.00000000000E+00 0. -1.
          1    1    5    5  503    0  0.17992139785E+03  0.15079623911E+03 -0.35229087075E+03  0.42334391781E+03  0.00000000000E+00 0. -1.
         -2    1    5    5    0  503  0.42161478122E+03  0.42547421832E+03 -0.11200667690E+04  0.12701719967E+04  0.00000000000E+00 0.  1.
         -1    1    6    6    0  502  0.32946938883E+02 -0.12509120382E+02 -0.10193971016E+04  0.10200060929E+04  0.00000000000E+00 0.  1.
<mgrwt>
<rscale>  0 0.31913409E+04</rscale>
<asrwt>0</asrwt>
<pdfrwt beam="1">  1        2 0.51751557E+00 0.31913409E+04</pdfrwt>
<pdfrwt beam="2">  1       -2 0.11644914E+00 0.31913409E+04</pdfrwt>
<totfact> 0.48566176E-01</totfact>
</mgrwt>
</event>
<event>
12    1  0.1541840E-007  0.1064779E+04  0.7818608E-02  0.9240218E-01
          2   -1    0    0  501    0  0.00000000000E+00  0.00000000000E+00  0.98913777747E+03  0.98913777747E+03  0.00000000000E+00 0. -1.
         -2   -1    0    0    0  501 -0.00000000000E+00 -0.00000000000E+00 -0.28655098807E+03  0.28655098807E+03  0.00000000000E+00 0.  1.
         23    2    1    2    0    0 -0.30178271463E+02  0.67090708344E+02  0.23360216379E+03  0.26039092283E+03  0.88439643548E+02 0.  0.
        254    2    1    2    0    0  0.30178271463E+02 -0.67090708344E+02  0.46898462561E+03  0.10152978427E+04  0.89748049513E+03 0.  0.
        -24    2    4    4    0    0 -0.39903876087E+03  0.15766606385E+01  0.39500905240E+03  0.56706295507E+03  0.79333630946E+02 0.  0.
         24    2    4    4    0    0  0.42921703234E+03 -0.68667368982E+02  0.73975573212E+02  0.44823488764E+03  0.80620472916E+02 0.  0.
         13    1    3    3    0    0  0.14034286099E+02 -0.10538712840E+02  0.11467996934E+02  0.20965223784E+02  0.00000000000E+00 0.  1.
        -13    1    3    3    0    0 -0.44212557562E+02  0.77629421184E+02  0.22213416685E+03  0.23942569905E+03  0.00000000000E+00 0. -1.
          4    1    6    6  502    0  0.76291003922E+02 -0.43853288169E+02  0.21297963943E+02  0.90537458717E+02  0.00000000000E+00 0. -1.
          3    1    5    5  503    0 -0.35140292730E+03  0.10569341063E+01  0.30536004999E+03  0.46554258082E+03  0.00000000000E+00 0. -1.
         -4    1    5    5    0  503 -0.47635833576E+02  0.51972653228E+00  0.89649002406E+02  0.10152037425E+03  0.00000000000E+00 0.  1.
         -3    1    6    6    0  502  0.35292602842E+03 -0.24814080813E+02  0.52677609269E+02  0.35769742892E+03  0.00000000000E+00 0.  1.
<mgrwt>
<rscale>  0 0.10647787E+04</rscale>
<asrwt>0</asrwt>
<pdfrwt beam="1">  1        2 0.15217504E+00 0.10647787E+04</pdfrwt>
<pdfrwt beam="2">  1       -2 0.44084768E-01 0.10647787E+04</pdfrwt>
<totfact> 0.12420396E+02</totfact>
</mgrwt>
</event>
<event>
12    1  0.1541840E-007  0.1809306E+04  0.7818608E-02  0.8701366E-01
          1   -1    0    0  501    0  0.00000000000E+00  0.00000000000E+00  0.23795417354E+04  0.23795417354E+04  0.00000000000E+00 0. -1.
         -1   -1    0    0    0  501 -0.00000000000E+00 -0.00000000000E+00 -0.34393037054E+03  0.34393037054E+03  0.00000000000E+00 0.  1.
         23    2    1    2    0    0 -0.64986468846E+03  0.15895955204E+03  0.89513550700E+03  0.11213223538E+04  0.92217095723E+02 0.  0.
        254    2    1    2    0    0  0.64986468846E+03 -0.15895955204E+03  0.11404758579E+04  0.16021497522E+04  0.90476869611E+03 0.  0.
        -24    2    4    4    0    0  0.64470036272E+03 -0.78443902809E+02  0.24318475356E+03  0.69782016401E+03  0.77602534421E+02 0.  0.
         24    2    4    4    0    0  0.51643257422E+01 -0.80515649235E+02  0.89729110432E+03  0.90432958816E+03  0.78557228196E+02 0.  0.
         13    1    3    3    0    0 -0.63042523083E+03  0.16991043027E+03  0.86913992707E+03  0.10870647353E+04  0.00000000000E+00 0. -1.
        -13    1    3    3    0    0 -0.19439457631E+02 -0.10950878227E+02  0.25995579925E+02  0.34257618460E+02  0.00000000000E+00 0.  1.
          2    1    6    6  502    0 -0.25594555748E+02 -0.45586942719E+02  0.25220462516E+03  0.25756634792E+03  0.00000000000E+00 0. -1.
          3    1    5    5  503    0  0.23824544454E+03 -0.50340600385E+02  0.58187960249E+02  0.25036155178E+03  0.00000000000E+00 0. -1.
         -4    1    5    5    0  503  0.40645491818E+03 -0.28103302423E+02  0.18499679331E+03  0.44745861223E+03  0.00000000000E+00 0.  1.
         -1    1    6    6    0  502  0.30758881491E+02 -0.34928706516E+02  0.64508647916E+03  0.64676324024E+03  0.00000000000E+00 0.  1.
<mgrwt>
<rscale>  0 0.18093056E+04</rscale>
<asrwt>0</asrwt>
<pdfrwt beam="1">  1        1 0.36608333E+00 0.18093056E+04</pdfrwt>
<pdfrwt beam="2">  1       -1 0.52912366E-01 0.18093056E+04</pdfrwt>
<totfact> 0.55760611E+00</totfact>
</mgrwt>
</event>
<event>
12    1  0.1541840E-007  0.2077323E+04  0.7818608E-02  0.8571299E-01
          1   -1    0    0  501    0  0.00000000000E+00  0.00000000000E+00  0.19711945268E+04  0.19711945268E+04  0.00000000000E+00 0. -1.
         -1   -1    0    0    0  501 -0.00000000000E+00 -0.00000000000E+00 -0.54729155110E+03  0.54729155110E+03  0.00000000000E+00 0.  1.
         23    2    1    2    0    0  0.67415686176E+02  0.53458751876E+02 -0.43292149663E+03  0.45266359081E+03  0.10040214791E+03 0.  0.
        254    2    1    2    0    0 -0.67415686176E+02 -0.53458751876E+02  0.18568244724E+04  0.20658224871E+04  0.90134494739E+03 0.  0.
        -24    2    4    4    0    0  0.18451075974E+03 -0.31812443069E+03  0.35130635504E+03  0.51457246416E+03  0.78238685554E+02 0.  0.
         24    2    4    4    0    0 -0.25192644592E+03  0.26466567881E+03  0.15055181173E+04  0.15512500229E+04  0.79227371738E+02 0.  0.
         13    1    3    3    0    0  0.88514442692E+02  0.63044493114E+02 -0.36908862852E+03  0.38475424674E+03  0.00000000000E+00 0.  1.
        -13    1    3    3    0    0 -0.21098756515E+02 -0.95857412375E+01 -0.63832868109E+02  0.67909344074E+02  0.00000000000E+00 0. -1.
          2    1    6    6  502    0 -0.24324350066E+03  0.26805712713E+03  0.14881410225E+04  0.15315305178E+04  0.00000000000E+00 0. -1.
          3    1    5    5  503    0  0.10485305564E+03 -0.12160213979E+03  0.18587250115E+03  0.24562131496E+03  0.00000000000E+00 0. -1.
         -4    1    5    5    0  503  0.79657704102E+02 -0.19652229090E+03  0.16543385389E+03  0.26895114920E+03  0.00000000000E+00 0.  1.
         -1    1    6    6    0  502 -0.86829452604E+01 -0.33914483159E+01  0.17377094796E+02  0.19719505156E+02  0.00000000000E+00 0.  1.
<mgrwt>
<rscale>  0 0.20773234E+04</rscale>
<asrwt>0</asrwt>
<pdfrwt beam="1">  1        1 0.30326069E+00 0.20773234E+04</pdfrwt>
<pdfrwt beam="2">  1       -1 0.84198701E-01 0.20773234E+04</pdfrwt>
<totfact> 0.40138177E+00</totfact>
</mgrwt>
</event>
<event>
12    1  0.1541840E-007  0.2994589E+04  0.7818608E-02  0.8245278E-01
         -2   -1    0    0    0  501 -0.00000000000E+00  0.00000000000E+00  0.12439247904E+04  0.12439247904E+04  0.00000000000E+00 0.  1.
          2   -1    0    0  501    0  0.00000000000E+00 -0.00000000000E+00 -0.18022721137E+04  0.18022721137E+04  0.00000000000E+00 0. -1.
         23    2    1    2    0    0  0.38288900155E+03  0.62122791162E+03 -0.14200210225E+04  0.15990320381E+04  0.88969932167E+02 0.  0.
        254    2    1    2    0    0 -0.38288900155E+03 -0.62122791162E+03  0.86167369918E+03  0.14471648660E+04  0.90513892842E+03 0.  0.
        -24    2    4    4    0    0 -0.33793623723E+03 -0.73681990713E+03  0.30271895060E+03  0.86897420835E+03  0.79830669275E+02 0.  0.
         24    2    4    4    0    0 -0.44952764314E+02  0.11559199551E+03  0.55895474858E+03  0.57819065761E+03  0.80571490847E+02 0.  0.
         11    1    3    3    0    0  0.37249834170E+03  0.57975415635E+03 -0.13674420046E+04  0.15312633779E+04  0.00000000000E+00 0. -1.
        -11    1    3    3    0    0  0.10390659846E+02  0.41473755279E+02 -0.52579017860E+02  0.67768660220E+02  0.00000000000E+00 0.  1.
          4    1    6    6  502    0 -0.51111587417E+01  0.15866881232E+02  0.11377676665E+02  0.20182502075E+02  0.00000000000E+00 0. -1.
          3    1    5    5  503    0 -0.35230268014E+02 -0.35351389429E+02  0.27035278090E+02  0.56760891292E+02  0.00000000000E+00 0. -1.
         -4    1    5    5    0  503 -0.30270596922E+03 -0.70146851770E+03  0.27568367251E+03  0.81221331706E+03  0.00000000000E+00 0.  1.
         -3    1    6    6    0  502 -0.39841605573E+02  0.99725114274E+02  0.54757707192E+03  0.55800815553E+03  0.00000000000E+00 0.  1.
<mgrwt>
<rscale>  0 0.29945891E+04</rscale>
<asrwt>0</asrwt>
<pdfrwt beam="1">  1        2 0.27727263E+00 0.29945891E+04</pdfrwt>
<pdfrwt beam="2">  1       -2 0.19137305E+00 0.29945891E+04</pdfrwt>
<totfact> 0.11182653E+00</totfact>
</mgrwt>
</event>
<event>
12    1  0.1541840E-007  0.2192240E+04  0.7818608E-02  0.8521665E-01
         -3   -1    0    0    0  501 -0.00000000000E+00  0.00000000000E+00  0.12923081040E+04  0.12923081040E+04  0.00000000000E+00 0.  1.
          3   -1    0    0  501    0  0.00000000000E+00 -0.00000000000E+00 -0.92971578793E+03  0.92971578793E+03  0.00000000000E+00 0. -1.
         23    2    1    2    0    0 -0.62937916150E+03 -0.58894553253E+03  0.44047329091E+03  0.97271004292E+03  0.95776502167E+02 0.  0.
        254    2    1    2    0    0  0.62937916150E+03  0.58894553253E+03 -0.77880974857E+02  0.12493138490E+04  0.90096874409E+03 0.  0.
        -24    2    4    4    0    0  0.42085883629E+03  0.81593058591E+03 -0.22609818590E+01  0.92149866233E+03  0.79308205898E+02 0.  0.
         24    2    4    4    0    0  0.20852032521E+03 -0.22698505339E+03 -0.75619992998E+02  0.32781518666E+03  0.82106472206E+02 0.  0.
         11    1    3    3    0    0 -0.29986686392E+03 -0.32531218180E+03  0.18613436002E+03  0.47999390797E+03  0.00000000000E+00 0. -1.
        -11    1    3    3    0    0 -0.32951229758E+03 -0.26363335073E+03  0.25433893089E+03  0.49271613495E+03  0.00000000000E+00 0.  1.
          4    1    6    6  502    0  0.75646378781E+02 -0.62352113432E+02 -0.61617187106E+02  0.11578790273E+03  0.00000000000E+00 0. -1.
          1    1    5    5  503    0  0.29369254727E+02  0.35890575554E+02 -0.14671682918E+02  0.48640978777E+02  0.00000000000E+00 0. -1.
         -2    1    5    5    0  503  0.39148958157E+03  0.78004001036E+03  0.12410701059E+02  0.87285768355E+03  0.00000000000E+00 0.  1.
         -3    1    6    6    0  502  0.13287394643E+03 -0.16463293996E+03 -0.14002805892E+02  0.21202728393E+03  0.00000000000E+00 0.  1.
<mgrwt>
<rscale>  0 0.21922402E+04</rscale>
<asrwt>0</asrwt>
<pdfrwt beam="1">  1        3 0.14303320E+00 0.21922402E+04</pdfrwt>
<pdfrwt beam="2">  1       -3 0.19881663E+00 0.21922402E+04</pdfrwt>
<totfact> 0.13003161E-01</totfact>
</mgrwt>
</event>
<event>
12    1  0.1541840E-007  0.1235554E+04  0.7818608E-02  0.9082293E-01
          1   -1    0    0  501    0  0.00000000000E+00  0.00000000000E+00  0.22302150032E+04  0.22302150032E+04  0.00000000000E+00 0. -1.
         -1   -1    0    0    0  501 -0.00000000000E+00 -0.00000000000E+00 -0.17112630101E+03  0.17112630101E+03  0.00000000000E+00 0.  1.
         23    2    1    2    0    0 -0.20595346098E+02  0.15460489833E+03  0.39155382989E+02  0.18472604468E+03  0.90905031203E+02 0.  0.
        254    2    1    2    0    0  0.20595346098E+02 -0.15460489833E+03  0.20199333192E+04  0.22166152595E+04  0.89940299748E+03 0.  0.
        -24    2    4    4    0    0  0.44736025546E+03 -0.96974775141E+01  0.10450436498E+04  0.11397256899E+04  0.81444330827E+02 0.  0.
         24    2    4    4    0    0 -0.42676490936E+03 -0.14490742082E+03  0.97488966943E+03  0.10768895696E+04  0.78452719310E+02 0.  0.
         13    1    3    3    0    0  0.82330810147E+01  0.82903212934E+00  0.26498181339E+02  0.27760124847E+02  0.00000000000E+00 0. -1.
        -13    1    3    3    0    0 -0.28828427113E+02  0.15377586620E+03  0.12657201651E+02  0.15696591984E+03  0.00000000000E+00 0.  1.
          4    1    6    6  502    0 -0.20096559999E+03 -0.70761248306E+02  0.55365118928E+03  0.59323179790E+03  0.00000000000E+00 0. -1.
          1    1    5    5  503    0  0.13760303088E+03 -0.17351445763E+02  0.41597753673E+03  0.43848942729E+03  0.00000000000E+00 0. -1.
         -2    1    5    5    0  503  0.30975722458E+03  0.76539682486E+01  0.62906611306E+03  0.70123626262E+03  0.00000000000E+00 0.  1.
         -3    1    6    6    0  502 -0.22579930937E+03 -0.74146172514E+02  0.42123848015E+03  0.48365777175E+03  0.00000000000E+00 0.  1.
<mgrwt>
<rscale>  0 0.12355540E+04</rscale>
<asrwt>0</asrwt>
<pdfrwt beam="1">  1        1 0.34310998E+00 0.12355540E+04</pdfrwt>
<pdfrwt beam="2">  1       -1 0.26327125E-01 0.12355540E+04</pdfrwt>
<totfact> 0.26361968E+01</totfact>
</mgrwt>
</event>
<event>
12    1  0.1541840E-007  0.1600979E+04  0.7818608E-02  0.8819947E-01
         -2   -1    0    0    0  501 -0.00000000000E+00  0.00000000000E+00  0.12188423417E+04  0.12188423417E+04  0.00000000000E+00 0.  1.
          2   -1    0    0  501    0  0.00000000000E+00 -0.00000000000E+00 -0.52573145758E+03  0.52573145758E+03  0.00000000000E+00 0. -1.
         23    2    1    2    0    0  0.73546656186E+02 -0.39254151834E+03 -0.65632409258E+02  0.41474686271E+03  0.90605699182E+02 0.  0.
        254    2    1    2    0    0 -0.73546656186E+02  0.39254151834E+03  0.75874329339E+03  0.13298269366E+04  0.10164892236E+04 0.  0.
        -24    2    4    4    0    0  0.11568335083E+03 -0.30563605114E+03  0.38569388661E+03  0.51193633528E+03  0.80765114936E+02 0.  0.
         24    2    4    4    0    0 -0.18923000701E+03  0.69817756948E+03  0.37304940678E+03  0.81789060131E+03  0.80741945360E+02 0.  0.
         13    1    3    3    0    0  0.69164775663E+02 -0.22815444276E+03 -0.19906834775E+01  0.23841597842E+03  0.00000000000E+00 0. -1.
        -13    1    3    3    0    0  0.43818805235E+01 -0.16438707558E+03 -0.63641725780E+02  0.17633088429E+03  0.00000000000E+00 0.  1.
          2    1    6    6  502    0 -0.14947890282E+03  0.43182032936E+03  0.26062615446E+03  0.52605962745E+03  0.00000000000E+00 0. -1.
          1    1    5    5  503    0  0.10320076668E+03 -0.27039703693E+03  0.37371081861E+03  0.47267825397E+03  0.00000000000E+00 0. -1.
         -2    1    5    5    0  503  0.12482584149E+02 -0.35239014210E+02  0.11983068000E+02  0.39258081310E+02  0.00000000000E+00 0.  1.
         -1    1    6    6    0  502 -0.39751104196E+02  0.26635724011E+03  0.11242325231E+03  0.29183097387E+03  0.00000000000E+00 0.  1.
<mgrwt>
<rscale>  0 0.16009794E+04</rscale>
<asrwt>0</asrwt>
<pdfrwt beam="1">  1        2 0.80881763E-01 0.16009794E+04</pdfrwt>
<pdfrwt beam="2">  1       -2 0.18751421E+00 0.16009794E+04</pdfrwt>
<totfact> 0.89602932E+00</totfact>
</mgrwt>
</event>
<event>
12    1  0.1541840E-007  0.1791859E+04  0.7818608E-02  0.8710641E-01
          1   -1    0    0  501    0  0.00000000000E+00  0.00000000000E+00  0.19277948788E+04  0.19277948788E+04  0.00000000000E+00 0. -1.
         -1   -1    0    0    0  501 -0.00000000000E+00 -0.00000000000E+00 -0.41637690333E+03  0.41637690333E+03  0.00000000000E+00 0.  1.
         23    2    1    2    0    0  0.14004010296E+03  0.46092658973E+03  0.12197501076E+04  0.13146241740E+04  0.91552402405E+02 0.  0.
        254    2    1    2    0    0 -0.14004010296E+03 -0.46092658973E+03  0.29166786786E+03  0.10295476081E+04  0.86187793836E+03 0.  0.
        -24    2    4    4    0    0 -0.18036013242E+03 -0.37490770823E+02  0.50750266374E+03  0.54602684497E+03  0.81553825507E+02 0.  0.
         24    2    4    4    0    0  0.40320029459E+02 -0.42343581891E+03 -0.21583479589E+03  0.48352076312E+03  0.79272137271E+02 0.  0.
         11    1    3    3    0    0  0.21933740187E+02  0.12824367335E+03  0.23659211130E+03  0.27000621446E+03  0.00000000000E+00 0.  1.
        -11    1    3    3    0    0  0.11810636277E+03  0.33268291638E+03  0.98315799626E+03  0.10446179595E+04  0.00000000000E+00 0. -1.
          4    1    6    6  502    0 -0.14338209065E+02 -0.69387531627E+02 -0.13632758094E+02  0.72153072545E+02  0.00000000000E+00 0. -1.
          1    1    5    5  503    0 -0.22967787966E+02 -0.29155299520E+02  0.16313875537E+03  0.16730751411E+03  0.00000000000E+00 0. -1.
         -2    1    5    5    0  503 -0.15739234445E+03 -0.83354713029E+01  0.34436390837E+03  0.37871933086E+03  0.00000000000E+00 0.  1.
         -3    1    6    6    0  502  0.54658238523E+02 -0.35404828728E+03 -0.20220203779E+03  0.41136769058E+03  0.00000000000E+00 0.  1.
<mgrwt>
<rscale>  0 0.17918585E+04</rscale>
<asrwt>0</asrwt>
<pdfrwt beam="1">  1        1 0.29658382E+00 0.17918585E+04</pdfrwt>
<pdfrwt beam="2">  1       -1 0.64057986E-01 0.17918585E+04</pdfrwt>
<totfact> 0.77853796E+00</totfact>
</mgrwt>
</event>
<event>
12    1  0.1541840E-007  0.1361606E+04  0.7818608E-02  0.8982089E-01
         -1   -1    0    0    0  501 -0.00000000000E+00  0.00000000000E+00  0.36440289560E+03  0.36440289560E+03  0.00000000000E+00 0.  1.
          1   -1    0    0  501    0  0.00000000000E+00 -0.00000000000E+00 -0.12719234161E+04  0.12719234161E+04  0.00000000000E+00 0. -1.
         23    2    1    2    0    0  0.16486465672E+03 -0.21588966912E+02 -0.65003521127E+03  0.67747257656E+03  0.93684991160E+02 0.  0.
        254    2    1    2    0    0 -0.16486465672E+03  0.21588966912E+02 -0.25748530919E+03  0.95885373511E+03  0.90854574037E+03 0.  0.
        -24    2    4    4    0    0  0.10035670376E+03  0.27093847106E+03 -0.45002284778E+03  0.53941488240E+03  0.70489210158E+02 0.  0.
         24    2    4    4    0    0 -0.26522136048E+03 -0.24934950414E+03  0.19253753859E+03  0.41943885270E+03  0.79628525809E+02 0.  0.
         13    1    3    3    0    0  0.17042403300E+03 -0.73107288844E+01 -0.62712765213E+03  0.64991298637E+03  0.00000000000E+00 0. -1.
        -13    1    3    3    0    0 -0.55593762789E+01 -0.14278238027E+02 -0.22907559139E+02  0.27559590191E+02  0.00000000000E+00 0.  1.
          2    1    6    6  502    0 -0.24799234650E+03 -0.21347489295E+03  0.19249920978E+03  0.37964151460E+03  0.00000000000E+00 0. -1.
          3    1    5    5  503    0  0.10316542437E+03  0.20222373917E+03 -0.32035513501E+03  0.39263845710E+03  0.00000000000E+00 0. -1.
         -4    1    5    5    0  503 -0.28087206075E+01  0.68714731888E+02 -0.12966771277E+03  0.14677642530E+03  0.00000000000E+00 0.  1.
         -1    1    6    6    0  502 -0.17229013975E+02 -0.35874611198E+02  0.38328808722E-01  0.39797338105E+02  0.00000000000E+00 0.  1.
<mgrwt>
<rscale>  0 0.13616058E+04</rscale>
<asrwt>0</asrwt>
<pdfrwt beam="1">  1        1 0.19568053E+00 0.13616058E+04</pdfrwt>
<pdfrwt beam="2">  1       -1 0.56061984E-01 0.13616058E+04</pdfrwt>
<totfact> 0.29824942E+01</totfact>
</mgrwt>
</event>
<event>
12    1  0.1541840E-007  0.1660248E+04  0.7818608E-02  0.8784367E-01
          2   -1    0    0  501    0  0.00000000000E+00  0.00000000000E+00  0.17326454433E+04  0.17326454433E+04  0.00000000000E+00 0. -1.
         -2   -1    0    0    0  501 -0.00000000000E+00 -0.00000000000E+00 -0.39771874671E+03  0.39771874671E+03  0.00000000000E+00 0.  1.
         23    2    1    2    0    0 -0.22604850168E+03 -0.43600437016E+03  0.87855261792E+03  0.10106658263E+04  0.91613176761E+02 0.  0.
        254    2    1    2    0    0  0.22604850168E+03  0.43600437016E+03  0.45637407867E+03  0.11196983637E+04  0.89679952611E+03 0.  0.
        -24    2    4    4    0    0  0.51594289151E+03  0.35204457615E+03  0.85751707302E+02  0.63533283371E+03  0.78498429162E+02 0.  0.
         24    2    4    4    0    0 -0.28989438983E+03  0.83959794002E+02  0.37062237137E+03  0.48436552996E+03  0.78492166452E+02 0.  0.
         13    1    3    3    0    0 -0.86995986118E+02 -0.14592519121E+03  0.39384298320E+03  0.42892278845E+03  0.00000000000E+00 0. -1.
        -13    1    3    3    0    0 -0.13905251556E+03 -0.29007917894E+03  0.48470963471E+03  0.58174303788E+03  0.00000000000E+00 0.  1.
          4    1    6    6  502    0 -0.70348268079E+01 -0.97367186947E+01  0.26936511381E+02  0.29493526824E+02  0.00000000000E+00 0. -1.
          3    1    5    5  503    0  0.82326777472E+02  0.93799937144E+02  0.19198894595E+02  0.12627241999E+03  0.00000000000E+00 0. -1.
         -4    1    5    5    0  503  0.43361611404E+03  0.25824463901E+03  0.66552812707E+02  0.50906041372E+03  0.00000000000E+00 0.  1.
         -3    1    6    6    0  502 -0.28285956302E+03  0.93696512696E+02  0.34368585999E+03  0.45487200314E+03  0.00000000000E+00 0.  1.
<mgrwt>
<rscale>  0 0.16602477E+04</rscale>
<asrwt>0</asrwt>
<pdfrwt beam="1">  1        2 0.26656083E+00 0.16602477E+04</pdfrwt>
<pdfrwt beam="2">  1       -2 0.61187500E-01 0.16602477E+04</pdfrwt>
<totfact> 0.22301412E+01</totfact>
</mgrwt>
</event>
<event>
12    1  0.1541840E-007  0.2195703E+04  0.7818608E-02  0.8520219E-01
         -1   -1    0    0    0  501 -0.00000000000E+00  0.00000000000E+00  0.47833635257E+03  0.47833635257E+03  0.00000000000E+00 0.  1.
          1   -1    0    0  501    0  0.00000000000E+00 -0.00000000000E+00 -0.25197293107E+04  0.25197293107E+04  0.00000000000E+00 0. -1.
         23    2    1    2    0    0 -0.46253639820E+03  0.67956391150E+03 -0.13818813867E+04  0.16105121310E+04  0.91684935920E+02 0.  0.
        254    2    1    2    0    0  0.46253639820E+03 -0.67956391150E+03 -0.65951157143E+03  0.13875535323E+04  0.90255319112E+03 0.  0.
        -24    2    4    4    0    0 -0.25462280768E+03 -0.28218315430E+03 -0.13642311927E+03  0.41171345867E+03  0.80228410247E+02 0.  0.
         24    2    4    4    0    0  0.71715920588E+03 -0.39738075720E+03 -0.52308845216E+03  0.97584007368E+03  0.80084504404E+02 0.  0.
         11    1    3    3    0    0 -0.13072820178E+03  0.21429136181E+03 -0.34616533813E+03  0.42759921868E+03  0.00000000000E+00 0. -1.
        -11    1    3    3    0    0 -0.33180819642E+03  0.46527254970E+03 -0.10357160486E+04  0.11829129123E+04  0.00000000000E+00 0.  1.
          4    1    6    6  502    0  0.69514370371E+03 -0.38350291443E+03 -0.48711461663E+03  0.93143969419E+03  0.00000000000E+00 0. -1.
          1    1    5    5  503    0 -0.11821350018E+03 -0.10754418082E+03 -0.96081246490E+02  0.18647195065E+03  0.00000000000E+00 0. -1.
         -2    1    5    5    0  503 -0.13640930750E+03 -0.17463897349E+03 -0.40341872779E+02  0.22524150802E+03  0.00000000000E+00 0.  1.
         -1    1    6    6    0  502  0.22015502169E+02 -0.13877842769E+02 -0.35973835533E+02  0.44400379488E+02  0.00000000000E+00 0.  1.
<mgrwt>
<rscale>  0 0.21957032E+04</rscale>
<asrwt>0</asrwt>
<pdfrwt beam="1">  1        1 0.38765065E+00 0.21957032E+04</pdfrwt>
<pdfrwt beam="2">  1       -1 0.73590210E-01 0.21957032E+04</pdfrwt>
<totfact> 0.22272276E+00</totfact>
</mgrwt>
</event>
<event>
12    1  0.1541840E-007  0.1874100E+04  0.7818608E-02  0.8667857E-01
         -2   -1    0    0    0  501 -0.00000000000E+00  0.00000000000E+00  0.35502567144E+03  0.35502567144E+03  0.00000000000E+00 0. -1.
          2   -1    0    0  501    0  0.00000000000E+00 -0.00000000000E+00 -0.24732369152E+04  0.24732369152E+04  0.00000000000E+00 0.  1.
         23    2    1    2    0    0  0.60912303199E+03 -0.35668417309E+01 -0.22232010548E+03  0.65459855387E+03  0.89607181483E+02 0.  0.
        254    2    1    2    0    0 -0.60912303199E+03  0.35668417309E+01 -0.18958911383E+04  0.21736640328E+04  0.87141753982E+03 0.  0.
        -24    2    4    4    0    0 -0.12034454087E+03  0.62436184487E+02 -0.15700511934E+04  0.15778967710E+04  0.79475683618E+02 0.  0.
         24    2    4    4    0    0 -0.48877849111E+03 -0.58869342756E+02 -0.32583994492E+03  0.59576726184E+03  0.79980920745E+02 0.  0.
         13    1    3    3    0    0  0.38320900469E+03  0.61737010999E+01 -0.94061154959E+02  0.39463243244E+03  0.00000000000E+00 0. -1.
        -13    1    3    3    0    0  0.22591402730E+03 -0.97405428307E+01 -0.12825895052E+03  0.25996612143E+03  0.00000000000E+00 0.  1.
          4    1    6    6  502    0 -0.14433220357E+03 -0.54491946424E+02 -0.10293703445E+03  0.18546479524E+03  0.00000000000E+00 0. -1.
          1    1    5    5  503    0 -0.28939572394E+01  0.10327288582E+02 -0.50627612367E+03  0.50638971284E+03  0.00000000000E+00 0. -1.
         -2    1    5    5    0  503 -0.11745058363E+03  0.52108895905E+02 -0.10637750697E+04  0.10715070581E+04  0.00000000000E+00 0.  1.
         -3    1    6    6    0  502 -0.34444628754E+03 -0.43773963317E+01 -0.22290291046E+03  0.41030246659E+03  0.00000000000E+00 0.  1.
<mgrwt>
<rscale>  0 0.18740999E+04</rscale>
<asrwt>0</asrwt>
<pdfrwt beam="1">  1        2 0.38049799E+00 0.18740999E+04</pdfrwt>
<pdfrwt beam="2">  1       -2 0.54619334E-01 0.18740999E+04</pdfrwt>
<totfact> 0.10688196E+01</totfact>
</mgrwt>
</event>
<event>
12    1  0.1541840E-007  0.2386670E+04  0.7818608E-02  0.8444511E-01
          1   -1    0    0  501    0  0.00000000000E+00  0.00000000000E+00  0.83116498853E+03  0.83116498853E+03  0.00000000000E+00 0. -1.
         -1   -1    0    0    0  501 -0.00000000000E+00 -0.00000000000E+00 -0.17133157072E+04  0.17133157072E+04  0.00000000000E+00 0.  1.
         23    2    1    2    0    0 -0.22701740160E+03  0.73036797075E+00  0.68121010153E+03  0.72428171060E+03  0.94864955692E+02 0.  0.
        254    2    1    2    0    0  0.22701740160E+03 -0.73036797075E+00 -0.15633608202E+04  0.18201989851E+04  0.90415145706E+03 0.  0.
        -24    2    4    4    0    0 -0.33660772429E+03  0.80629576062E+02 -0.54345257698E+03  0.64937473731E+03  0.80876185888E+02 0.  0.
         24    2    4    4    0    0  0.56362512589E+03 -0.81359944032E+02 -0.10199082432E+04  0.11708242478E+04  0.79522774623E+02 0.  0.
         11    1    3    3    0    0 -0.20983910489E+03 -0.99589868156E+01  0.66766318710E+03  0.69993268446E+03  0.00000000000E+00 0. -1.
        -11    1    3    3    0    0 -0.17178296710E+02  0.10689354786E+02  0.13546914425E+02  0.24349026142E+02  0.00000000000E+00 0.  1.
          2    1    6    6  502    0  0.72606647605E+01  0.86439474314E+01 -0.23342258807E+02  0.25928673822E+02  0.00000000000E+00 0. -1.
          3    1    5    5  503    0  0.99276541514E+00 -0.71022562288E+00 -0.27011722091E+02  0.27039288710E+02  0.00000000000E+00 0. -1.
         -4    1    5    5    0  503 -0.33760048970E+03  0.81339801685E+02 -0.51644085489E+03  0.62233544860E+03  0.00000000000E+00 0.  1.
         -1    1    6    6    0  502  0.55636446113E+03 -0.90003891464E+02 -0.99656598441E+03  0.11448955740E+04  0.00000000000E+00 0.  1.
<mgrwt>
<rscale>  0 0.23866697E+04</rscale>
<asrwt>0</asrwt>
<pdfrwt beam="1">  1        1 0.12787154E+00 0.23866697E+04</pdfrwt>
<pdfrwt beam="2">  1       -1 0.26358703E+00 0.23866697E+04</pdfrwt>
<totfact> 0.10601422E+00</totfact>
</mgrwt>
</event>
<event>
12    1  0.1541840E-007  0.1087278E+04  0.7818608E-02  0.9217681E-01
          2   -1    0    0  501    0  0.00000000000E+00  0.00000000000E+00  0.10160386420E+04  0.10160386420E+04  0.00000000000E+00 0. -1.
         -2   -1    0    0    0  501 -0.00000000000E+00 -0.00000000000E+00 -0.29087814083E+03  0.29087814083E+03  0.00000000000E+00 0.  1.
         23    2    1    2    0    0 -0.12984631858E+03 -0.11698905412E+03  0.84866541358E+02  0.21475510903E+03  0.91492741666E+02 0.  0.
        254    2    1    2    0    0  0.12984631858E+03  0.11698905412E+03  0.64029395981E+03  0.10921616738E+04  0.86734898486E+03 0.  0.
        -24    2    4    4    0    0  0.38864654004E+03 -0.20464279853E+03  0.21988940969E+03  0.49760881924E+03  0.79613920955E+02 0.  0.
         24    2    4    4    0    0 -0.25880022146E+03  0.32163185265E+03  0.42040455013E+03  0.59455285458E+03  0.79551919217E+02 0.  0.
         11    1    3    3    0    0 -0.54346442767E+02 -0.29488840372E+02 -0.13153281453E+02  0.63215001075E+02  0.00000000000E+00 0.  1.
        -11    1    3    3    0    0 -0.75499875816E+02 -0.87500213745E+02  0.98019822811E+02  0.15154010795E+03  0.00000000000E+00 0. -1.
          4    1    6    6  502    0 -0.22831022866E+03  0.23457819514E+03  0.31194409132E+03  0.45217430959E+03  0.00000000000E+00 0. -1.
          1    1    5    5  503    0  0.28499769869E+03 -0.11450762952E+03  0.17273215090E+03  0.35238059173E+03  0.00000000000E+00 0. -1.
         -2    1    5    5    0  503  0.10364884135E+03 -0.90135169015E+02  0.47157258792E+02  0.14522822750E+03  0.00000000000E+00 0.  1.
         -3    1    6    6    0  502 -0.30489992796E+02  0.87053657514E+02  0.10846045881E+03  0.14237854499E+03  0.00000000000E+00 0.  1.
<mgrwt>
<rscale>  0 0.10872781E+04</rscale>
<asrwt>0</asrwt>
<pdfrwt beam="1">  1        2 0.15631364E+00 0.10872781E+04</pdfrwt>
<pdfrwt beam="2">  1       -2 0.44750484E-01 0.10872781E+04</pdfrwt>
<totfact> 0.11568891E+02</totfact>
</mgrwt>
</event>
<event>
12    1  0.1541840E-007  0.1975528E+04  0.7818608E-02  0.8618148E-01
          2   -1    0    0  501    0  0.00000000000E+00  0.00000000000E+00  0.27253645694E+04  0.27253645694E+04  0.00000000000E+00 0. -1.
         -2   -1    0    0    0  501 -0.00000000000E+00 -0.00000000000E+00 -0.35799886862E+03  0.35799886862E+03  0.00000000000E+00 0.  1.
         23    2    1    2    0    0 -0.27691104477E+03  0.36372127451E+03 -0.37418806596E+02  0.46793885785E+03  0.92702294204E+02 0.  0.
        254    2    1    2    0    0  0.27691104477E+03 -0.36372127451E+03  0.24047845074E+04  0.26154245802E+04  0.92113208359E+03 0.  0.
        -24    2    4    4    0    0 -0.14674650399E+03 -0.49547054847E+03  0.86164935585E+03  0.10077464865E+04  0.78024148661E+02 0.  0.
         24    2    4    4    0    0  0.42365754877E+03  0.13174927396E+03  0.15431351516E+04  0.16076780937E+04  0.80741359891E+02 0.  0.
         13    1    3    3    0    0 -0.59036313477E+02  0.33841431825E+02  0.13386648941E+02  0.69352225536E+02  0.00000000000E+00 0. -1.
        -13    1    3    3    0    0 -0.21787473129E+03  0.32987984269E+03 -0.50805455536E+02  0.39858663232E+03  0.00000000000E+00 0.  1.
          2    1    6    6  502    0  0.40645864483E+03  0.14173108051E+03  0.14903966724E+04  0.15513151099E+04  0.00000000000E+00 0. -1.
          3    1    5    5  503    0 -0.15313128762E+03 -0.43753670179E+03  0.74731151934E+03  0.87941006567E+03  0.00000000000E+00 0. -1.
         -4    1    5    5    0  503  0.63847836256E+01 -0.57933846681E+02  0.11433783652E+03  0.12833642083E+03  0.00000000000E+00 0.  1.
         -1    1    6    6    0  502  0.17198903939E+02 -0.99818065495E+01  0.52738479215E+02  0.56362983852E+02  0.00000000000E+00 0.  1.
<mgrwt>
<rscale>  0 0.19755277E+04</rscale>
<asrwt>0</asrwt>
<pdfrwt beam="1">  1        2 0.41928684E+00 0.19755277E+04</pdfrwt>
<pdfrwt beam="2">  1       -2 0.55076751E-01 0.19755277E+04</pdfrwt>
<totfact> 0.74102575E+00</totfact>
</mgrwt>
</event>
<event>
12    1  0.1541840E-007  0.1306738E+04  0.7818608E-02  0.9024239E-01
         -1   -1    0    0    0  501 -0.00000000000E+00  0.00000000000E+00  0.58291655801E+03  0.58291655801E+03  0.00000000000E+00 0.  1.
          1   -1    0    0  501    0  0.00000000000E+00 -0.00000000000E+00 -0.73233600018E+03  0.73233600018E+03  0.00000000000E+00 0. -1.
         23    2    1    2    0    0  0.93938696296E+02  0.20340799440E+03 -0.29452430652E+03  0.38174764223E+03  0.93741156205E+02 0.  0.
        254    2    1    2    0    0 -0.93938696296E+02 -0.20340799440E+03  0.14510486435E+03  0.93350491597E+03  0.89452597259E+03 0.  0.
        -24    2    4    4    0    0 -0.31744496760E+03 -0.11388615039E+03  0.42987416717E+03  0.55218417240E+03  0.79838574289E+02 0.  0.
         24    2    4    4    0    0  0.22350627131E+03 -0.89521844012E+02 -0.28476930282E+03  0.38132074357E+03  0.79641319537E+02 0.  0.
         11    1    3    3    0    0 -0.37402378595E+01  0.10100063146E+03 -0.13179808528E+03  0.16608989198E+03  0.00000000000E+00 0.  1.
        -11    1    3    3    0    0  0.97678934156E+02  0.10240736294E+03 -0.16272622124E+03  0.21565775025E+03  0.00000000000E+00 0. -1.
          2    1    6    6  502    0  0.18079727337E+02  0.90056643436E+01 -0.51176186409E+02  0.55018002383E+02  0.00000000000E+00 0. -1.
          3    1    5    5  503    0 -0.38632855810E+02 -0.20171706435E+02  0.20675629119E+02  0.48237712715E+02  0.00000000000E+00 0. -1.
         -4    1    5    5    0  503 -0.27881211179E+03 -0.93714443955E+02  0.40919853805E+03  0.50394645969E+03  0.00000000000E+00 0.  1.
         -1    1    6    6    0  502  0.20542654397E+03 -0.98527508356E+02 -0.23359311641E+03  0.32630274119E+03  0.00000000000E+00 0.  1.
<mgrwt>
<rscale>  0 0.13067376E+04</rscale>
<asrwt>0</asrwt>
<pdfrwt beam="1">  1        1 0.11266708E+00 0.13067376E+04</pdfrwt>
<pdfrwt beam="2">  1       -1 0.89679471E-01 0.13067376E+04</pdfrwt>
<totfact> 0.30405313E+01</totfact>
</mgrwt>
</event>
<event>
12    1  0.1541840E-007  0.3299693E+04  0.7818608E-02  0.8162974E-01
          2   -1    0    0  501    0  0.00000000000E+00  0.00000000000E+00  0.32987069761E+04  0.32987069761E+04  0.00000000000E+00 0. -1.
         -2   -1    0    0    0  501 -0.00000000000E+00 -0.00000000000E+00 -0.82516971476E+03  0.82516971476E+03  0.00000000000E+00 0.  1.
         23    2    1    2    0    0 -0.14899136968E+04  0.15397999973E+03  0.77914471600E+03  0.16907791909E+04  0.90083959011E+02 0.  0.
        254    2    1    2    0    0  0.14899136968E+04 -0.15397999973E+03  0.16943925453E+04  0.24330974999E+04  0.89746569964E+03 0.  0.
        -24    2    4    4    0    0  0.93469919094E+03 -0.40810268954E+03  0.62393175591E+03  0.11982021320E+04  0.78658314504E+02 0.  0.
         24    2    4    4    0    0  0.55521450591E+03  0.25412268982E+03  0.10704607894E+04  0.12348953679E+04  0.78985940853E+02 0.  0.
         11    1    3    3    0    0 -0.75178929924E+03  0.61901882452E+02  0.34472770334E+03  0.82937095618E+03  0.00000000000E+00 0.  1.
        -11    1    3    3    0    0 -0.73812439761E+03  0.92078117275E+02  0.43441701265E+03  0.86140823476E+03  0.00000000000E+00 0. -1.
          4    1    6    6  502    0  0.19816824389E+03  0.70490758915E+02  0.43572625535E+03  0.48383568448E+03  0.00000000000E+00 0. -1.
          3    1    5    5  503    0  0.31359656003E+03 -0.10425433719E+03  0.22703557497E+03  0.40094503562E+03  0.00000000000E+00 0. -1.
         -4    1    5    5    0  503  0.62110263091E+03 -0.30384835235E+03  0.39689618093E+03  0.79725709642E+03  0.00000000000E+00 0.  1.
         -3    1    6    6    0  502  0.35704626201E+03  0.18363193090E+03  0.63473453406E+03  0.75105968338E+03  0.00000000000E+00 0.  1.
<mgrwt>
<rscale>  0 0.32996928E+04</rscale>
<asrwt>0</asrwt>
<pdfrwt beam="1">  1        2 0.50749337E+00 0.32996928E+04</pdfrwt>
<pdfrwt beam="2">  1       -2 0.12694919E+00 0.32996928E+04</pdfrwt>
<totfact> 0.42940019E-01</totfact>
</mgrwt>
</event>
<event>
12    1  0.1541840E-007  0.1603732E+04  0.7818608E-02  0.8818259E-01
          2   -1    0    0  501    0  0.00000000000E+00  0.00000000000E+00  0.80122642906E+03  0.80122642906E+03  0.00000000000E+00 0. -1.
         -2   -1    0    0    0  501 -0.00000000000E+00 -0.00000000000E+00 -0.80250609382E+03  0.80250609382E+03  0.00000000000E+00 0.  1.
         23    2    1    2    0    0  0.51339078156E+03 -0.11942042363E+03 -0.13709976857E+03  0.55240517806E+03  0.92324438983E+02 0.  0.
        254    2    1    2    0    0 -0.51339078156E+03  0.11942042363E+03  0.13582010382E+03  0.10513273448E+04  0.89945025054E+03 0.  0.
        -24    2    4    4    0    0 -0.92763338317E+01  0.24767092120E+03  0.38845214254E+03  0.46765012127E+03  0.79841300734E+02 0.  0.
         24    2    4    4    0    0 -0.50411444773E+03 -0.12825049757E+03 -0.25263203873E+03  0.58367722355E+03  0.79224918810E+02 0.  0.
         13    1    3    3    0    0  0.32438936588E+03 -0.72762471169E+02 -0.39968474054E+02  0.33484372001E+03  0.00000000000E+00 0.  1.
        -13    1    3    3    0    0  0.18900141568E+03 -0.46657952463E+02 -0.97131294521E+02  0.21756145806E+03  0.00000000000E+00 0. -1.
          2    1    6    6  502    0 -0.43002478737E+03 -0.13646555929E+03 -0.20804671334E+03  0.49681747307E+03  0.00000000000E+00 0. -1.
          3    1    5    5  503    0  0.21321985600E+02  0.12607782224E+03  0.25038914606E+03  0.28114937097E+03  0.00000000000E+00 0. -1.
         -4    1    5    5    0  503 -0.30598319432E+02  0.12159309896E+03  0.13806299649E+03  0.18650075031E+03  0.00000000000E+00 0.  1.
         -1    1    6    6    0  502 -0.74089660366E+02  0.82150617261E+01 -0.44585325390E+02  0.86859750474E+02  0.00000000000E+00 0.  1.
<mgrwt>
<rscale>  0 0.16037320E+04</rscale>
<asrwt>0</asrwt>
<pdfrwt beam="1">  1        2 0.12326561E+00 0.16037320E+04</pdfrwt>
<pdfrwt beam="2">  1       -2 0.12346247E+00 0.16037320E+04</pdfrwt>
<totfact> 0.16297745E+01</totfact>
</mgrwt>
</event>
<event>
12    1  0.1541840E-007  0.3028806E+04  0.7818608E-02  0.8235553E-01
         -2   -1    0    0    0  501 -0.00000000000E+00  0.00000000000E+00  0.19394010487E+04  0.19394010487E+04  0.00000000000E+00 0. -1.
          2   -1    0    0  501    0  0.00000000000E+00 -0.00000000000E+00 -0.11825384432E+04  0.11825384432E+04  0.00000000000E+00 0.  1.
         23    2    1    2    0    0  0.97599519767E+03 -0.91180228531E+02 -0.65454239835E+03  0.11821509058E+04  0.90413233847E+02 0.  0.
        254    2    1    2    0    0 -0.97599519767E+03  0.91180228531E+02  0.14114050038E+04  0.19397885862E+04  0.89990844768E+03 0.  0.
        -24    2    4    4    0    0 -0.20418903979E+03 -0.36831921268E+03  0.46662873221E+03  0.63372488826E+03  0.80701015371E+02 0.  0.
         24    2    4    4    0    0 -0.77180615788E+03  0.45949944121E+03  0.94477627163E+03  0.13060636979E+04  0.79847966318E+02 0.  0.
         13    1    3    3    0    0  0.15331060971E+03 -0.46009644541E+02 -0.93967001420E+02  0.18560934189E+03  0.00000000000E+00 0. -1.
        -13    1    3    3    0    0  0.82268458796E+03 -0.45170583990E+02 -0.56057539693E+03  0.99654156389E+03  0.00000000000E+00 0.  1.
          4    1    6    6  502    0 -0.13152198321E+03  0.58761767294E+02  0.18781687038E+03  0.23669844563E+03  0.00000000000E+00 0. -1.
          1    1    5    5  503    0 -0.10257932033E+03 -0.10641513645E+03  0.16611371645E+03  0.22235211943E+03  0.00000000000E+00 0. -1.
         -2    1    5    5    0  503 -0.10160971945E+03 -0.26190407623E+03  0.30051501576E+03  0.41137276883E+03  0.00000000000E+00 0.  1.
         -3    1    6    6    0  502 -0.64028417467E+03  0.40073767392E+03  0.75695940124E+03  0.10693652523E+04  0.00000000000E+00 0.  1.
<mgrwt>
<rscale>  0 0.30288059E+04</rscale>
<asrwt>0</asrwt>
<pdfrwt beam="1">  1        2 0.18192899E+00 0.30288059E+04</pdfrwt>
<pdfrwt beam="2">  1       -2 0.29836939E+00 0.30288059E+04</pdfrwt>
<totfact> 0.53887221E-01</totfact>
</mgrwt>
</event>
<event>
12    1  0.1541840E-007  0.1736171E+04  0.7818608E-02  0.8740999E-01
          1   -1    0    0  501    0  0.00000000000E+00  0.00000000000E+00  0.19526323066E+04  0.19526323066E+04  0.00000000000E+00 0. -1.
         -1   -1    0    0    0  501 -0.00000000000E+00 -0.00000000000E+00 -0.38592654783E+03  0.38592654783E+03  0.00000000000E+00 0.  1.
         23    2    1    2    0    0 -0.23213964785E+03  0.80105947699E+02 -0.21598514636E+03  0.33995686699E+03  0.92818688886E+02 0.  0.
        254    2    1    2    0    0  0.23213964785E+03 -0.80105947699E+02  0.17826909051E+04  0.19986019875E+04  0.86955003421E+03 0.  0.
        -24    2    4    4    0    0  0.51567319957E+03 -0.64761926455E+02  0.69422891664E+03  0.87080725880E+03  0.78984412368E+02 0.  0.
         24    2    4    4    0    0 -0.28353355172E+03 -0.15344021245E+02  0.10884619885E+04  0.11277947287E+04  0.80899540266E+02 0.  0.
         11    1    3    3    0    0 -0.67011674487E+02 -0.18189366119E+02 -0.70265381742E+02  0.98785836175E+02  0.00000000000E+00 0. -1.
        -11    1    3    3    0    0 -0.16512797336E+03  0.98295313818E+02 -0.14571976462E+03  0.24117103082E+03  0.00000000000E+00 0.  1.
          2    1    6    6  502    0 -0.23597254890E+01  0.10486210903E+02  0.73787703136E+02  0.74566440559E+02  0.00000000000E+00 0. -1.
          1    1    5    5  503    0  0.21333964200E+03 -0.36192877121E+02  0.35272363352E+03  0.41380875878E+03  0.00000000000E+00 0. -1.
         -2    1    5    5    0  503  0.30233355757E+03 -0.28569049334E+02  0.34150528313E+03  0.45699850002E+03  0.00000000000E+00 0.  1.
         -1    1    6    6    0  502 -0.28117382623E+03 -0.25830232148E+02  0.10146742854E+04  0.10532282881E+04  0.00000000000E+00 0.  1.
<mgrwt>
<rscale>  0 0.17361712E+04</rscale>
<asrwt>0</asrwt>
<pdfrwt beam="1">  1        1 0.30040497E+00 0.17361712E+04</pdfrwt>
<pdfrwt beam="2">  1       -1 0.59373316E-01 0.17361712E+04</pdfrwt>
<totfact> 0.87562188E+00</totfact>
</mgrwt>
</event>
<event>
12    1  0.1541840E-007  0.1700052E+04  0.7818608E-02  0.8761334E-01
         -2   -1    0    0    0  501 -0.00000000000E+00  0.00000000000E+00  0.10215087817E+04  0.10215087817E+04  0.00000000000E+00 0.  1.
          2   -1    0    0  501    0  0.00000000000E+00 -0.00000000000E+00 -0.70733074789E+03  0.70733074789E+03  0.00000000000E+00 0. -1.
         23    2    1    2    0    0 -0.14020026906E+03 -0.12039715194E+03  0.69711400263E+03  0.72708857039E+03  0.92402742889E+02 0.  0.
        254    2    1    2    0    0  0.14020026906E+03  0.12039715194E+03 -0.38293596879E+03  0.10017509592E+04  0.90703552218E+03 0.  0.
        -24    2    4    4    0    0 -0.24048456672E+03  0.36008531743E+03 -0.64910825820E+02  0.44517850889E+03  0.80475007351E+02 0.  0.
         24    2    4    4    0    0  0.38068483578E+03 -0.23968816549E+03 -0.31802514297E+03  0.55657245035E+03  0.79129893605E+02 0.  0.
         11    1    3    3    0    0  0.67423239708E+01 -0.36501911326E+01  0.11959561322E+03  0.11984111786E+03  0.00000000000E+00 0. -1.
        -11    1    3    3    0    0 -0.14694259303E+03 -0.11674696081E+03  0.57751838941E+03  0.60724745253E+03  0.00000000000E+00 0.  1.
          2    1    6    6  502    0  0.15914160796E+03 -0.60181582231E+02 -0.97415076025E+02  0.19605502101E+03  0.00000000000E+00 0. -1.
          1    1    5    5  503    0 -0.65309856911E+02  0.81004981475E+02 -0.49728890309E+02  0.11532626312E+03  0.00000000000E+00 0. -1.
         -2    1    5    5    0  503 -0.17517470981E+03  0.27908033595E+03 -0.15181935510E+02  0.32985224577E+03  0.00000000000E+00 0.  1.
         -1    1    6    6    0  502  0.22154322781E+03 -0.17950658326E+03 -0.22061006694E+03  0.36051742934E+03  0.00000000000E+00 0.  1.
<mgrwt>
<rscale>  0 0.17000524E+04</rscale>
<asrwt>0</asrwt>
<pdfrwt beam="1">  1        2 0.10882012E+00 0.17000524E+04</pdfrwt>
<pdfrwt beam="2">  1       -2 0.15715520E+00 0.17000524E+04</pdfrwt>
<totfact> 0.10169408E+01</totfact>
</mgrwt>
</event>
<event>
12    1  0.1541840E-007  0.1955488E+04  0.7818608E-02  0.8627719E-01
          2   -1    0    0  501    0  0.00000000000E+00  0.00000000000E+00  0.98843618934E+03  0.98843618934E+03  0.00000000000E+00 0. -1.
         -2   -1    0    0    0  501 -0.00000000000E+00 -0.00000000000E+00 -0.96716773685E+03  0.96716773685E+03  0.00000000000E+00 0.  1.
         23    2    1    2    0    0  0.26142416038E+03 -0.28670822718E+03  0.67701546192E+03  0.78557825148E+03  0.90769236867E+02 0.  0.
        254    2    1    2    0    0 -0.26142416038E+03  0.28670822718E+03 -0.65574700943E+03  0.11700256747E+04  0.88792552612E+03 0.  0.
        -24    2    4    4    0    0  0.43992151181E+01  0.79867875411E+02  0.20882375697E+03  0.23881212132E+03  0.83819074182E+02 0.  0.
         24    2    4    4    0    0 -0.26582337550E+03  0.20684035176E+03 -0.86457076639E+03  0.93121355339E+03  0.78937151182E+02 0.  0.
         13    1    3    3    0    0  0.25230633152E+03 -0.29348341443E+03  0.65481338274E+03  0.76063891939E+03  0.00000000000E+00 0. -1.
        -13    1    3    3    0    0  0.91178288608E+01  0.67751872534E+01  0.22202079174E+02  0.24939332090E+02  0.00000000000E+00 0.  1.
          2    1    6    6  502    0 -0.26943508739E+03  0.19352844874E+03 -0.83807706656E+03  0.90134438273E+03  0.00000000000E+00 0. -1.
          1    1    5    5  503    0  0.17431883679E+01  0.18230426281E+02  0.15749755781E+03  0.15855872056E+03  0.00000000000E+00 0. -1.
         -2    1    5    5    0  503  0.26560267502E+01  0.61637449130E+02  0.51326199154E+02  0.80253400756E+02  0.00000000000E+00 0.  1.
         -1    1    6    6    0  502  0.36117118964E+01  0.13311903020E+02 -0.26493699837E+02  0.29869170660E+02  0.00000000000E+00 0.  1.
<mgrwt>
<rscale>  0 0.19554883E+04</rscale>
<asrwt>0</asrwt>
<pdfrwt beam="1">  1        2 0.15206710E+00 0.19554883E+04</pdfrwt>
<pdfrwt beam="2">  1       -2 0.14879504E+00 0.19554883E+04</pdfrwt>
<totfact> 0.73125785E+00</totfact>
</mgrwt>
</event>
<event>
12    1  0.1541840E-007  0.1848362E+04  0.7818608E-02  0.8680996E-01
          2   -1    0    0  501    0  0.00000000000E+00  0.00000000000E+00  0.26142547547E+04  0.26142547547E+04  0.00000000000E+00 0. -1.
         -2   -1    0    0    0  501 -0.00000000000E+00 -0.00000000000E+00 -0.32671281510E+03  0.32671281510E+03  0.00000000000E+00 0.  1.
         23    2    1    2    0    0 -0.64536921990E+03  0.22192522579E+03  0.62489946447E+03  0.93027390792E+03  0.95697268647E+02 0.  0.
        254    2    1    2    0    0  0.64536921990E+03 -0.22192522579E+03  0.16626424752E+04  0.20106936619E+04  0.90153023575E+03 0.  0.
        -24    2    4    4    0    0  0.12399805617E+03  0.15183374852E+03 -0.16035172933E+02  0.21181048327E+03  0.78597385005E+02 0.  0.
         24    2    4    4    0    0  0.52137116374E+03 -0.37375897431E+03  0.16786776481E+04  0.17988831786E+04  0.80612548021E+02 0.  0.
         13    1    3    3    0    0 -0.40514938953E+03  0.15649474526E+03  0.33756075835E+03  0.55007626627E+03  0.00000000000E+00 0. -1.
        -13    1    3    3    0    0 -0.24021983037E+03  0.65430480528E+02  0.28733870612E+03  0.38019764166E+03  0.00000000000E+00 0.  1.
          2    1    6    6  502    0  0.21508020203E+02 -0.20173218074E+02  0.41093934131E+02  0.50579295002E+02  0.00000000000E+00 0. -1.
          1    1    5    5  503    0  0.80804401318E+02  0.38833623473E+02  0.90494214809E+00  0.89656123632E+02  0.00000000000E+00 0. -1.
         -2    1    5    5    0  503  0.43193654849E+02  0.11300012505E+03 -0.16940115081E+02  0.12215435964E+03  0.00000000000E+00 0.  1.
         -1    1    6    6    0  502  0.49986314353E+03 -0.35358575623E+03  0.16375837140E+04  0.17483038836E+04  0.00000000000E+00 0.  1.
<mgrwt>
<rscale>  0 0.18483620E+04</rscale>
<asrwt>0</asrwt>
<pdfrwt beam="1">  1        2 0.40219303E+00 0.18483620E+04</pdfrwt>
<pdfrwt beam="2">  1       -2 0.50263512E-01 0.18483620E+04</pdfrwt>
<totfact> 0.10524570E+01</totfact>
</mgrwt>
</event>
<event>
12    1  0.2846607E-007  0.1546861E+04  0.7818608E-02  0.8853875E-01
          2   -1    0    0  501    0  0.00000000000E+00  0.00000000000E+00  0.13173620136E+04  0.13173620136E+04  0.00000000000E+00 0. -1.
         -2   -1    0    0    0  501 -0.00000000000E+00 -0.00000000000E+00 -0.45408528922E+03  0.45408528922E+03  0.00000000000E+00 0.  1.
         23    2    1    2    0    0  0.36140835759E+03 -0.22368501818E+03  0.59601979011E+03  0.73878891219E+03  0.99591557280E+02 0.  0.
        254    2    1    2    0    0 -0.36140835759E+03  0.22368501818E+03  0.26725693427E+03  0.10326583906E+04  0.90238910373E+03 0.  0.
        -24    2    4    4    0    0 -0.40515533741E+03  0.12782708898E+03  0.56223626172E+03  0.70915764879E+03  0.79399903914E+02 0.  0.
         24    2    4    4    0    0  0.43746979814E+02  0.95857929201E+02 -0.29497932745E+03  0.32350074184E+03  0.80854100154E+02 0.  0.
         11    1    3    3    0    0  0.36157340205E+03 -0.21741632530E+03  0.55430541938E+03  0.69660582939E+03  0.00000000000E+00 0. -1.
        -11    1    3    3    0    0 -0.16504445781E+00 -0.62686928853E+01  0.41714370725E+02  0.42183082808E+02  0.00000000000E+00 0.  1.
          4    1    6    6  502    0  0.52298538880E+02  0.87359128811E+02 -0.29431150234E+03  0.31142577762E+03  0.00000000000E+00 0. -1.
          3    1    5    5  503    0 -0.40647866834E+03  0.12503691035E+03  0.54320457416E+03  0.68987705147E+03  0.00000000000E+00 0. -1.
         -4    1    5    5    0  503  0.13233309294E+01  0.27901786315E+01  0.19031687565E+02  0.19280597322E+02  0.00000000000E+00 0.  1.
         -3    1    6    6    0  502 -0.85515590663E+01  0.84988003900E+01 -0.66782511326E+00  0.12074964220E+02  0.00000000000E+00 0.  1.
<mgrwt>
<rscale>  0 0.15468610E+04</rscale>
<asrwt>0</asrwt>
<pdfrwt beam="1">  1        2 0.20267108E+00 0.15468610E+04</pdfrwt>
<pdfrwt beam="2">  1       -2 0.69859276E-01 0.15468610E+04</pdfrwt>
<totfact> 0.29033801E+01</totfact>
</mgrwt>
</event>
<event>
12    1  0.1541840E-007  0.2386554E+04  0.7818608E-02  0.8444555E-01
          2   -1    0    0  501    0  0.00000000000E+00  0.00000000000E+00  0.15829800560E+04  0.15829800560E+04  0.00000000000E+00 0.  1.
         -2   -1    0    0    0  501 -0.00000000000E+00 -0.00000000000E+00 -0.89951226104E+03  0.89951226104E+03  0.00000000000E+00 0. -1.
         23    2    1    2    0    0  0.37097399367E+03  0.82101460002E+03 -0.20744809627E+03  0.92900760914E+03  0.91289362780E+02 0.  0.
        254    2    1    2    0    0 -0.37097399367E+03 -0.82101460002E+03  0.89091589119E+03  0.15534847079E+04  0.89883087117E+03 0.  0.
        -24    2    4    4    0    0  0.21990716610E+03 -0.13377581769E+03  0.48787946289E+03  0.55838909934E+03  0.86699970316E+02 0.  0.
         24    2    4    4    0    0 -0.59088115977E+03 -0.68723878233E+03  0.40303642830E+03  0.99509560853E+03  0.79619210334E+02 0.  0.
         11    1    3    3    0    0  0.69770467982E+02  0.23149969397E+03 -0.30049833721E+02  0.24364527292E+03  0.00000000000E+00 0. -1.
        -11    1    3    3    0    0  0.30120352569E+03  0.58951490605E+03 -0.17739826255E+03  0.68536233621E+03  0.00000000000E+00 0.  1.
          4    1    6    6  502    0 -0.49580368240E+03 -0.52955332836E+03  0.31179184392E+03  0.78959620882E+03  0.00000000000E+00 0. -1.
          3    1    5    5  503    0  0.12104542047E+03 -0.85522741604E+02  0.36228063645E+03  0.39142482381E+03  0.00000000000E+00 0. -1.
         -4    1    5    5    0  503  0.98861745627E+02 -0.48253076085E+02  0.12559882644E+03  0.16696427553E+03  0.00000000000E+00 0.  1.
         -3    1    6    6    0  502 -0.95077477376E+02 -0.15768545397E+03  0.91244584383E+02  0.20549939970E+03  0.00000000000E+00 0.  1.
<mgrwt>
<rscale>  0 0.23865540E+04</rscale>
<asrwt>0</asrwt>
<pdfrwt beam="1">  1        2 0.24353539E+00 0.23865540E+04</pdfrwt>
<pdfrwt beam="2">  1       -2 0.13838650E+00 0.23865540E+04</pdfrwt>
<totfact> 0.37990119E+00</totfact>
</mgrwt>
</event>
<event>
12    1  0.1541840E-007  0.3398161E+04  0.7818608E-02  0.8138358E-01
          2   -1    0    0  501    0  0.00000000000E+00  0.00000000000E+00  0.14779258141E+04  0.14779258141E+04  0.00000000000E+00 0.  1.
         -2   -1    0    0    0  501 -0.00000000000E+00 -0.00000000000E+00 -0.19533289539E+04  0.19533289539E+04  0.00000000000E+00 0. -1.
         23    2    1    2    0    0 -0.73497952932E+03 -0.13884711594E+04 -0.78723510891E+02  0.15756671395E+04  0.92100350002E+02 0.  0.
        254    2    1    2    0    0  0.73497952932E+03  0.13884711594E+04 -0.39667962891E+03  0.18555876285E+04  0.90432496934E+03 0.  0.
        -24    2    4    4    0    0  0.51907706996E+03  0.14359309590E+04 -0.18859448319E+03  0.15404281686E+04  0.77539279338E+02 0.  0.
         24    2    4    4    0    0  0.21590245936E+03 -0.47459799621E+02 -0.20808514572E+03  0.31515945996E+03  0.84615322443E+02 0.  0.
         13    1    3    3    0    0 -0.70810733387E+03 -0.13658431652E+04 -0.79333278895E+02  0.15405315048E+04  0.00000000000E+00 0. -1.
        -13    1    3    3    0    0 -0.26872195456E+02 -0.22627994167E+02  0.60976800368E+00  0.35135634699E+02  0.00000000000E+00 0.  1.
          4    1    6    6  502    0  0.40825379055E+02 -0.20678533247E+02 -0.93817132368E+02  0.10438375179E+03  0.00000000000E+00 0. -1.
          1    1    5    5  503    0 -0.23157654973E+00  0.25300290391E+02  0.10852999131E+01  0.25324616433E+02  0.00000000000E+00 0. -1.
         -4    1    5    5    0  503  0.51930864651E+03  0.14106306686E+04 -0.18967978310E+03  0.15151035521E+04  0.00000000000E+00 0.  1.
         -3    1    6    6    0  502  0.17507708031E+03 -0.26781266374E+02 -0.11426801336E+03  0.21077570817E+03  0.00000000000E+00 0.  1.
<mgrwt>
<rscale>  0 0.33981614E+04</rscale>
<asrwt>0</asrwt>
<pdfrwt beam="1">  1        2 0.22737320E+00 0.33981614E+04</pdfrwt>
<pdfrwt beam="2">  1       -2 0.30051215E+00 0.33981614E+04</pdfrwt>
<totfact> 0.34153145E-01</totfact>
</mgrwt>
</event>
<event>
12    1  0.1541840E-007  0.1452045E+04  0.7818608E-02  0.8916984E-01
          1   -1    0    0  501    0  0.00000000000E+00  0.00000000000E+00  0.84967168460E+03  0.84967168460E+03  0.00000000000E+00 0. -1.
         -1   -1    0    0    0  501 -0.00000000000E+00 -0.00000000000E+00 -0.62036740059E+03  0.62036740059E+03  0.00000000000E+00 0.  1.
         23    2    1    2    0    0  0.43390596924E+03  0.22197210987E+02  0.17426943512E+03  0.47692665905E+03  0.91225521528E+02 0.  0.
        254    2    1    2    0    0 -0.43390596924E+03 -0.22197210987E+02  0.55034848891E+02  0.99311242614E+03  0.89133402832E+03 0.  0.
        -24    2    4    4    0    0 -0.47718049084E+03  0.16376125069E+03  0.35965334999E+03  0.62467233721E+03  0.79661964933E+02 0.  0.
         24    2    4    4    0    0  0.43274521594E+02 -0.18595846168E+03 -0.30461850109E+03  0.36844008893E+03  0.80637672553E+02 0.  0.
         11    1    3    3    0    0  0.14858780374E+03  0.36821495219E+02  0.26772118527E+02  0.15540561206E+03  0.00000000000E+00 0.  1.
        -11    1    3    3    0    0  0.28531816550E+03 -0.14624284233E+02  0.14749731659E+03  0.32152104699E+03  0.00000000000E+00 0. -1.
          4    1    6    6  502    0  0.20608080719E+01 -0.21205196497E+01 -0.58083998311E+02  0.58159215893E+02  0.00000000000E+00 0. -1.
          3    1    5    5  503    0 -0.11511965707E+03  0.57779394431E+01  0.92470501995E+02  0.14777250680E+03  0.00000000000E+00 0. -1.
         -4    1    5    5    0  503 -0.36206083377E+03  0.15798331125E+03  0.26718284799E+03  0.47689983041E+03  0.00000000000E+00 0.  1.
         -3    1    6    6    0  502  0.41213713522E+02 -0.18383794203E+03 -0.24653450278E+03  0.31028087304E+03  0.00000000000E+00 0.  1.
<mgrwt>
<rscale>  0 0.14520449E+04</rscale>
<asrwt>0</asrwt>
<pdfrwt beam="1">  1        1 0.13071872E+00 0.14520449E+04</pdfrwt>
<pdfrwt beam="2">  1       -1 0.95441139E-01 0.14520449E+04</pdfrwt>
<totfact> 0.20629315E+01</totfact>
</mgrwt>
</event>
<event>
12    1  0.1541840E-007  0.2524646E+04  0.7818608E-02  0.8394258E-01
          2   -1    0    0  501    0  0.00000000000E+00  0.00000000000E+00  0.25276659285E+04  0.25276659285E+04  0.00000000000E+00 0. -1.
         -2   -1    0    0    0  501 -0.00000000000E+00 -0.00000000000E+00 -0.63040717899E+03  0.63040717899E+03  0.00000000000E+00 0.  1.
         23    2    1    2    0    0 -0.89579517775E+03  0.57648308182E+03  0.48046949085E+03  0.11721532385E+04  0.91162157125E+02 0.  0.
        254    2    1    2    0    0  0.89579517775E+03 -0.57648308182E+03  0.14167892587E+04  0.19859198689E+04  0.89543518934E+03 0.  0.
        -24    2    4    4    0    0  0.92959346119E+02  0.12361253212E+03 -0.41008904188E+02  0.17861047024E+03  0.79362911530E+02 0.  0.
         24    2    4    4    0    0  0.80283583163E+03 -0.70009561394E+03  0.14577981629E+04  0.18073093987E+04  0.80700296360E+02 0.  0.
         13    1    3    3    0    0 -0.37089133411E+03  0.19601388712E+03  0.21778420350E+03  0.47266455860E+03  0.00000000000E+00 0. -1.
        -13    1    3    3    0    0 -0.52490384364E+03  0.38046919469E+03  0.26268528735E+03  0.69948867994E+03  0.00000000000E+00 0.  1.
          2    1    6    6  502    0  0.42302563659E+03 -0.41326272572E+03  0.84506794796E+03  0.10314439424E+04  0.00000000000E+00 0. -1.
          1    1    5    5  503    0  0.10598938736E+02  0.78157650697E+02 -0.27735456364E+02  0.83607484141E+02  0.00000000000E+00 0. -1.
         -2    1    5    5    0  503  0.82360407384E+02  0.45454881428E+02 -0.13273447825E+02  0.95002986096E+02  0.00000000000E+00 0.  1.
         -1    1    6    6    0  502  0.37981019504E+03 -0.28683288822E+03  0.61273021490E+03  0.77586545629E+03  0.00000000000E+00 0.  1.
<mgrwt>
<rscale>  0 0.25246455E+04</rscale>
<asrwt>0</asrwt>
<pdfrwt beam="1">  1        2 0.38887168E+00 0.25246455E+04</pdfrwt>
<pdfrwt beam="2">  1       -2 0.96985721E-01 0.25246455E+04</pdfrwt>
<totfact> 0.26505705E+00</totfact>
</mgrwt>
</event>
<event>
12    1  0.1541840E-007  0.2012733E+04  0.7818608E-02  0.8600691E-01
          1   -1    0    0  501    0  0.00000000000E+00  0.00000000000E+00  0.70861933623E+03  0.70861933623E+03  0.00000000000E+00 0. -1.
         -1   -1    0    0    0  501 -0.00000000000E+00 -0.00000000000E+00 -0.14292204752E+04  0.14292204752E+04  0.00000000000E+00 0.  1.
         23    2    1    2    0    0 -0.19399518118E+03  0.72067424482E+03  0.27945288964E+02  0.75223965427E+03  0.89878032972E+02 0.  0.
        254    2    1    2    0    0  0.19399518118E+03 -0.72067424482E+03 -0.74854642790E+03  0.13856001571E+04  0.89585743467E+03 0.  0.
        -24    2    4    4    0    0  0.21509268261E+03  0.49269587195E+01  0.11365376950E+03  0.25571228913E+03  0.78628610931E+02 0.  0.
         24    2    4    4    0    0 -0.21097501433E+02 -0.72560120354E+03 -0.86220019740E+03  0.11298878680E+04  0.79468249640E+02 0.  0.
         11    1    3    3    0    0 -0.19502665155E+03  0.71872017403E+03  0.21059952993E+02  0.74500845968E+03  0.00000000000E+00 0. -1.
        -11    1    3    3    0    0  0.10314703672E+01  0.19540707900E+01  0.68853359715E+01  0.72311945908E+01  0.00000000000E+00 0.  1.
          4    1    6    6  502    0  0.23966363958E+01 -0.65673870484E+03 -0.79078771208E+03  0.10279380701E+04  0.00000000000E+00 0. -1.
          3    1    5    5  503    0  0.14623450532E+03 -0.32280549591E+02  0.86064554164E+02  0.17272426555E+03  0.00000000000E+00 0. -1.
         -4    1    5    5    0  503  0.68858177293E+02  0.37207508310E+02  0.27589215336E+02  0.82988023580E+02  0.00000000000E+00 0.  1.
         -3    1    6    6    0  502 -0.23494137829E+02 -0.68862498701E+02 -0.71412485318E+02  0.10194979793E+03  0.00000000000E+00 0.  1.
<mgrwt>
<rscale>  0 0.20127327E+04</rscale>
<asrwt>0</asrwt>
<pdfrwt beam="1">  1        1 0.10901836E+00 0.20127327E+04</pdfrwt>
<pdfrwt beam="2">  1       -1 0.21988007E+00 0.20127327E+04</pdfrwt>
<totfact> 0.27315056E+00</totfact>
</mgrwt>
</event>
<event>
12    1  0.1541840E-007  0.1393403E+04  0.7818608E-02  0.8958608E-01
         -2   -1    0    0    0  501 -0.00000000000E+00  0.00000000000E+00  0.14761922711E+03  0.14761922711E+03  0.00000000000E+00 0. -1.
          2   -1    0    0  501    0  0.00000000000E+00 -0.00000000000E+00 -0.32881405709E+04  0.32881405709E+04  0.00000000000E+00 0.  1.
         23    2    1    2    0    0 -0.15842212005E+03 -0.36688011395E+03 -0.98362005499E+03  0.10657088310E+04  0.92348869859E+02 0.  0.
        254    2    1    2    0    0  0.15842212005E+03  0.36688011395E+03 -0.21569012889E+04  0.23700509671E+04  0.89734042060E+03 0.  0.
        -24    2    4    4    0    0  0.55496559404E+02 -0.15244494021E+03 -0.15501260269E+04  0.15607478203E+04  0.81998361410E+02 0.  0.
         24    2    4    4    0    0  0.10292556064E+03  0.51932505415E+03 -0.60677526195E+03  0.80930314679E+03  0.80642308892E+02 0.  0.
         13    1    3    3    0    0 -0.16731312830E+01 -0.16880591924E+02 -0.11437729851E+03  0.11562837094E+03  0.00000000000E+00 0. -1.
        -13    1    3    3    0    0 -0.15674898876E+03 -0.34999952202E+03 -0.86924275649E+03  0.95008046007E+03  0.00000000000E+00 0.  1.
          2    1    6    6  502    0  0.90567158842E+02  0.49270264894E+03 -0.54123844284E+03  0.73749397458E+03  0.00000000000E+00 0. -1.
          3    1    5    5  503    0  0.50338237185E+02 -0.90425659869E+02 -0.12477075420E+04  0.12519923516E+04  0.00000000000E+00 0. -1.
         -4    1    5    5    0  503  0.51583222197E+01 -0.62019280338E+02 -0.30241848485E+03  0.30875546862E+03  0.00000000000E+00 0.  1.
         -1    1    6    6    0  502  0.12358401801E+02  0.26622405210E+02 -0.65536819104E+02  0.71809172203E+02  0.00000000000E+00 0.  1.
<mgrwt>
<rscale>  0 0.13934027E+04</rscale>
<asrwt>0</asrwt>
<pdfrwt beam="1">  1        2 0.50586775E+00 0.13934027E+04</pdfrwt>
<pdfrwt beam="2">  1       -2 0.22710652E-01 0.13934027E+04</pdfrwt>
<totfact> 0.19101404E+01</totfact>
</mgrwt>
</event>
<event>
12    1  0.1541840E-007  0.2033213E+04  0.7818608E-02  0.8591248E-01
          1   -1    0    0  501    0  0.00000000000E+00  0.00000000000E+00  0.24002216130E+04  0.24002216130E+04  0.00000000000E+00 0. -1.
         -1   -1    0    0    0  501 -0.00000000000E+00 -0.00000000000E+00 -0.43058052763E+03  0.43058052763E+03  0.00000000000E+00 0.  1.
         23    2    1    2    0    0 -0.68689094456E+03  0.14542514031E+03  0.13747870386E+04  0.15464770923E+04  0.92651790318E+02 0.  0.
        254    2    1    2    0    0  0.68689094456E+03 -0.14542514031E+03  0.59485404680E+03  0.12843250484E+04  0.89591955654E+03 0.  0.
        -24    2    4    4    0    0 -0.44872982485E+02  0.19803303442E+03  0.38776967595E+03  0.44597536966E+03  0.85428575332E+02 0.  0.
         24    2    4    4    0    0  0.73176392705E+03 -0.34345817473E+03  0.20708437086E+03  0.83834967874E+03  0.80649144252E+02 0.  0.
         11    1    3    3    0    0 -0.37262978948E+02  0.38664971318E+01  0.37391115178E+02  0.52929905483E+02  0.00000000000E+00 0.  1.
        -11    1    3    3    0    0 -0.64962796561E+03  0.14155864318E+03  0.13373959234E+04  0.14935471868E+04  0.00000000000E+00 0. -1.
          4    1    6    6  502    0  0.58191210195E+03 -0.27557735989E+03  0.13082063016E+03  0.65702253611E+03  0.00000000000E+00 0. -1.
          3    1    5    5  503    0 -0.69592904548E+01  0.53395684975E+02  0.19334519323E+03  0.20070349933E+03  0.00000000000E+00 0. -1.
         -4    1    5    5    0  503 -0.37913692030E+02  0.14463734944E+03  0.19442448272E+03  0.24527187034E+03  0.00000000000E+00 0.  1.
         -3    1    6    6    0  502  0.14985182510E+03 -0.67880814839E+02  0.76263740698E+02  0.18132714263E+03  0.00000000000E+00 0.  1.
<mgrwt>
<rscale>  0 0.20332129E+04</rscale>
<asrwt>0</asrwt>
<pdfrwt beam="1">  1        1 0.36926485E+00 0.20332129E+04</pdfrwt>
<pdfrwt beam="2">  1       -1 0.66243160E-01 0.20332129E+04</pdfrwt>
<totfact> 0.33933850E+00</totfact>
</mgrwt>
</event>
<event>
12    1  0.1541840E-007  0.2099645E+04  0.7818608E-02  0.8561400E-01
          2   -1    0    0  501    0  0.00000000000E+00  0.00000000000E+00  0.16565820483E+04  0.16565820483E+04  0.00000000000E+00 0. -1.
         -2   -1    0    0    0  501 -0.00000000000E+00 -0.00000000000E+00 -0.66530170172E+03  0.66530170172E+03  0.00000000000E+00 0.  1.
         23    2    1    2    0    0 -0.47059809326E+03 -0.71937279618E+03  0.40047242961E+03  0.95270281304E+03  0.91130114882E+02 0.  0.
        254    2    1    2    0    0  0.47059809326E+03  0.71937279618E+03  0.59080791695E+03  0.13691809370E+04  0.88692877850E+03 0.  0.
        -24    2    4    4    0    0 -0.26712122500E+00  0.61860772995E+03  0.28481488102E+02  0.62449456840E+03  0.80663969003E+02 0.  0.
         24    2    4    4    0    0  0.47086521448E+03  0.10076506623E+03  0.56232642885E+03  0.74468636855E+03  0.80493019204E+02 0.  0.
         13    1    3    3    0    0 -0.33530215647E+03 -0.44501360041E+03  0.28377691801E+03  0.62529511423E+03  0.00000000000E+00 0. -1.
        -13    1    3    3    0    0 -0.13529593679E+03 -0.27435919577E+03  0.11669551160E+03  0.32740769882E+03  0.00000000000E+00 0.  1.
          4    1    6    6  502    0  0.24108948802E+03  0.19108703233E+02  0.31770837218E+03  0.39928422649E+03  0.00000000000E+00 0. -1.
          3    1    5    5  503    0  0.53847109320E+01  0.53784072159E+03 -0.23098478132E+01  0.53787263577E+03  0.00000000000E+00 0. -1.
         -4    1    5    5    0  503 -0.56518321570E+01  0.80767008361E+02  0.30791335916E+02  0.86621932637E+02  0.00000000000E+00 0.  1.
         -3    1    6    6    0  502  0.22977572646E+03  0.81656363001E+02  0.24461805668E+03  0.34540214206E+03  0.00000000000E+00 0.  1.
<mgrwt>
<rscale>  0 0.20996446E+04</rscale>
<asrwt>0</asrwt>
<pdfrwt beam="1">  1        2 0.25485878E+00 0.20996446E+04</pdfrwt>
<pdfrwt beam="2">  1       -2 0.10235411E+00 0.20996446E+04</pdfrwt>
<totfact> 0.74677101E+00</totfact>
</mgrwt>
</event>
<event>
12    1  0.1541840E-007  0.1902004E+04  0.7818608E-02  0.8653860E-01
         -1   -1    0    0    0  501 -0.00000000000E+00  0.00000000000E+00  0.89763234755E+03  0.89763234755E+03  0.00000000000E+00 0.  1.
          1   -1    0    0  501    0  0.00000000000E+00 -0.00000000000E+00 -0.10075446676E+04  0.10075446676E+04  0.00000000000E+00 0. -1.
         23    2    1    2    0    0 -0.42687985905E+02  0.68966675568E+03  0.20862093073E+03  0.72747095706E+03  0.90712747762E+02 0.  0.
        254    2    1    2    0    0  0.42687985905E+02 -0.68966675568E+03 -0.31853325074E+03  0.11777060581E+04  0.89892470727E+03 0.  0.
        -24    2    4    4    0    0 -0.27895320271E+03 -0.63291197243E+03  0.25428328723E+02  0.69670368844E+03  0.79730643006E+02 0.  0.
         24    2    4    4    0    0  0.32164118862E+03 -0.56754783247E+02 -0.34396157946E+03  0.48100236962E+03  0.79872096470E+02 0.  0.
         11    1    3    3    0    0  0.11637671850E+02  0.27805065566E+02 -0.34613301092E+01  0.30340367225E+02  0.00000000000E+00 0. -1.
        -11    1    3    3    0    0 -0.54325657755E+02  0.66186169011E+03  0.21208226084E+03  0.69713058984E+03  0.00000000000E+00 0.  1.
          2    1    6    6  502    0  0.64285140285E+02 -0.45230917147E+02 -0.78329236182E+02  0.11096794298E+03  0.00000000000E+00 0. -1.
          1    1    5    5  503    0 -0.10483520168E+03 -0.15098130634E+03  0.83946010827E+01  0.18400066224E+03  0.00000000000E+00 0. -1.
         -2    1    5    5    0  503 -0.17411800103E+03 -0.48193066609E+03  0.17033727640E+02  0.51270302620E+03  0.00000000000E+00 0.  1.
         -1    1    6    6    0  502  0.25735604833E+03 -0.11523866100E+02 -0.26563234328E+03  0.37003442664E+03  0.00000000000E+00 0.  1.
<mgrwt>
<rscale>  0 0.19020039E+04</rscale>
<asrwt>0</asrwt>
<pdfrwt beam="1">  1        1 0.15500687E+00 0.19020039E+04</pdfrwt>
<pdfrwt beam="2">  1       -1 0.13809729E+00 0.19020039E+04</pdfrwt>
<totfact> 0.60666086E+00</totfact>
</mgrwt>
</event>
<event>
12    1  0.1541840E-007  0.1579276E+04  0.7818608E-02  0.8833382E-01
         -1   -1    0    0    0  501 -0.00000000000E+00  0.00000000000E+00  0.53143688053E+03  0.53143688053E+03  0.00000000000E+00 0.  1.
          1   -1    0    0  501    0  0.00000000000E+00 -0.00000000000E+00 -0.11732869755E+04  0.11732869755E+04  0.00000000000E+00 0. -1.
         23    2    1    2    0    0  0.20163323293E+03 -0.43390156579E+03  0.14532082586E+02  0.48734003284E+03  0.91447234878E+02 0.  0.
        254    2    1    2    0    0 -0.20163323293E+03  0.43390156579E+03 -0.65638217758E+03  0.12173838232E+04  0.90678513472E+03 0.  0.
        -24    2    4    4    0    0 -0.48918211829E+03  0.45979035724E+03 -0.26857993026E+03  0.72738553345E+03  0.79045669480E+02 0.  0.
         24    2    4    4    0    0  0.28754888536E+03 -0.25888791450E+02 -0.38780224732E+03  0.48999828976E+03  0.79706649322E+02 0.  0.
         13    1    3    3    0    0  0.28225260781E+02 -0.10712638560E+03 -0.29898081940E+02  0.11474590687E+03  0.00000000000E+00 0.  1.
        -13    1    3    3    0    0  0.17340797215E+03 -0.32677518019E+03  0.44430164526E+02  0.37259412598E+03  0.00000000000E+00 0. -1.
          4    1    6    6  502    0  0.23278539587E+03 -0.51792195399E+02 -0.29804217589E+03  0.38170749357E+03  0.00000000000E+00 0. -1.
          3    1    5    5  503    0 -0.28704881298E+03  0.30466139430E+03 -0.19760221781E+03  0.46288467537E+03  0.00000000000E+00 0. -1.
         -4    1    5    5    0  503 -0.20213330531E+03  0.15512896294E+03 -0.70977712454E+02  0.26450085808E+03  0.00000000000E+00 0.  1.
         -3    1    6    6    0  502  0.54763489489E+02  0.25903403949E+02 -0.89760071426E+02  0.10829079619E+03  0.00000000000E+00 0.  1.
<mgrwt>
<rscale>  0 0.15792757E+04</rscale>
<asrwt>0</asrwt>
<pdfrwt beam="1">  1        1 0.18050569E+00 0.15792757E+04</pdfrwt>
<pdfrwt beam="2">  1       -1 0.81759520E-01 0.15792757E+04</pdfrwt>
<totfact> 0.16001335E+01</totfact>
</mgrwt>
</event>
<event>
12    1  0.1541840E-007  0.2361405E+04  0.7818608E-02  0.8454096E-01
         -1   -1    0    0    0  501 -0.00000000000E+00  0.00000000000E+00  0.99098441364E+03  0.99098441364E+03  0.00000000000E+00 0.  1.
          1   -1    0    0  501    0  0.00000000000E+00 -0.00000000000E+00 -0.14067404117E+04  0.14067404117E+04  0.00000000000E+00 0. -1.
         23    2    1    2    0    0 -0.90683901820E+03  0.42578628077E+03 -0.95989213296E+02  0.10105150820E+04  0.90971643973E+02 0.  0.
        254    2    1    2    0    0  0.90683901820E+03 -0.42578628077E+03 -0.31976678481E+03  0.13872097434E+04  0.90468177483E+03 0.  0.
        -24    2    4    4    0    0  0.31601448375E+03  0.26808809328E+03 -0.98894710279E+01  0.42138736012E+03  0.75717408366E+02 0.  0.
         24    2    4    4    0    0  0.59082453445E+03 -0.69387437405E+03 -0.30987731378E+03  0.96582238329E+03  0.79080016407E+02 0.  0.
         13    1    3    3    0    0 -0.69971757469E+03  0.33901204648E+03 -0.37316963570E+02  0.77841274897E+03  0.00000000000E+00 0.  1.
        -13    1    3    3    0    0 -0.20712144351E+03  0.86774234286E+02 -0.58672249726E+02  0.23210233300E+03  0.00000000000E+00 0. -1.
          4    1    6    6  502    0  0.20328329559E+02 -0.29867582962E+02 -0.29347476845E+02  0.46546620627E+02  0.00000000000E+00 0. -1.
          3    1    5    5  503    0  0.15785775057E+03  0.16332128836E+03 -0.35703930642E+02  0.22992973559E+03  0.00000000000E+00 0. -1.
         -4    1    5    5    0  503  0.15815673317E+03  0.10476680493E+03  0.25814459614E+02  0.19145762452E+03  0.00000000000E+00 0.  1.
         -3    1    6    6    0  502  0.57049620489E+03 -0.66400679109E+03 -0.28052983694E+03  0.91927576267E+03  0.00000000000E+00 0.  1.
<mgrwt>
<rscale>  0 0.23614045E+04</rscale>
<asrwt>0</asrwt>
<pdfrwt beam="1">  1        1 0.21642160E+00 0.23614045E+04</pdfrwt>
<pdfrwt beam="2">  1       -1 0.15245914E+00 0.23614045E+04</pdfrwt>
<totfact> 0.22813307E+00</totfact>
</mgrwt>
</event>
<event>
12    1  0.1541840E-007  0.2182834E+04  0.7818608E-02  0.8525607E-01
          1   -1    0    0  501    0  0.00000000000E+00  0.00000000000E+00  0.12957032556E+04  0.12957032556E+04  0.00000000000E+00 0. -1.
         -1   -1    0    0    0  501 -0.00000000000E+00 -0.00000000000E+00 -0.91933962342E+03  0.91933962342E+03  0.00000000000E+00 0.  1.
         23    2    1    2    0    0  0.89868724886E+03  0.80760122009E+02  0.20431004760E+03  0.92948075348E+03  0.89615327750E+02 0.  0.
        254    2    1    2    0    0 -0.89868724886E+03 -0.80760122009E+02  0.17205358453E+03  0.12855621255E+04  0.89939233595E+03 0.  0.
        -24    2    4    4    0    0 -0.35620604089E+03 -0.45691808218E+03  0.20472516619E+03  0.61950547562E+03  0.78852794914E+02 0.  0.
         24    2    4    4    0    0 -0.54248120798E+03  0.37615796017E+03 -0.32671581656E+02  0.66605664987E+03  0.82361135122E+02 0.  0.
         13    1    3    3    0    0  0.28635313102E+03  0.14957774984E+02  0.10660448755E+03  0.30591889030E+03  0.00000000000E+00 0.  1.
        -13    1    3    3    0    0  0.61233411785E+03  0.65802347025E+02  0.97705560051E+02  0.62356186319E+03  0.00000000000E+00 0. -1.
          4    1    6    6  502    0 -0.45521199624E+03  0.28012178522E+03 -0.40702614740E+02  0.53604372855E+03  0.00000000000E+00 0. -1.
          3    1    5    5  503    0 -0.25319682003E+03 -0.31731068891E+03  0.18071060773E+03  0.44435461820E+03  0.00000000000E+00 0. -1.
         -4    1    5    5    0  503 -0.10300922086E+03 -0.13960739327E+03  0.24014558460E+02  0.17515085742E+03  0.00000000000E+00 0.  1.
         -3    1    6    6    0  502 -0.87269211738E+02  0.96036174951E+02  0.80310330839E+01  0.13001292132E+03  0.00000000000E+00 0.  1.
<mgrwt>
<rscale>  0 0.21828343E+04</rscale>
<asrwt>0</asrwt>
<pdfrwt beam="1">  1        1 0.19933896E+00 0.21828343E+04</pdfrwt>
<pdfrwt beam="2">  1       -1 0.14143686E+00 0.21828343E+04</pdfrwt>
<totfact> 0.33946737E+00</totfact>
</mgrwt>
</event>
<event>
12    1  0.1541840E-007  0.1886974E+04  0.7818608E-02  0.8661368E-01
         -1   -1    0    0    0  501 -0.00000000000E+00  0.00000000000E+00  0.35467339540E+03  0.35467339540E+03  0.00000000000E+00 0.  1.
          1   -1    0    0  501    0  0.00000000000E+00 -0.00000000000E+00 -0.25098227258E+04  0.25098227258E+04  0.00000000000E+00 0. -1.
         23    2    1    2    0    0  0.46041765661E+03  0.37406277588E+03 -0.14493518579E+04  0.15688355530E+04  0.93363834186E+02 0.  0.
        254    2    1    2    0    0 -0.46041765661E+03 -0.37406277588E+03 -0.70579747247E+03  0.12956605682E+04  0.91031799771E+03 0.  0.
        -24    2    4    4    0    0 -0.37037222207E+03  0.21076428087E+03 -0.99801022623E+02  0.44490036568E+03  0.79868180714E+02 0.  0.
         24    2    4    4    0    0 -0.90045434542E+02 -0.58482705675E+03 -0.60599644985E+03  0.85076020250E+03  0.80189515099E+02 0.  0.
         11    1    3    3    0    0  0.12256231329E+02  0.13147274541E+02 -0.15154471101E+02  0.23510083552E+02  0.00000000000E+00 0. -1.
        -11    1    3    3    0    0  0.44816142528E+03  0.36091550134E+03 -0.14341973868E+04  0.15453254695E+04  0.00000000000E+00 0.  1.
          4    1    6    6  502    0  0.74264821136E+01 -0.14437096054E+03 -0.17327809864E+03  0.22566219523E+03  0.00000000000E+00 0. -1.
          1    1    5    5  503    0 -0.97525144985E+02  0.18672640304E+02 -0.32652611886E+02  0.10452757752E+03  0.00000000000E+00 0. -1.
         -2    1    5    5    0  503 -0.27284707709E+03  0.19209164057E+03 -0.67148410737E+02  0.34037278815E+03  0.00000000000E+00 0.  1.
         -3    1    6    6    0  502 -0.97471916656E+02 -0.44045609621E+03 -0.43271835121E+03  0.62509800727E+03  0.00000000000E+00 0.  1.
<mgrwt>
<rscale>  0 0.18869736E+04</rscale>
<asrwt>0</asrwt>
<pdfrwt beam="1">  1        1 0.38612658E+00 0.18869736E+04</pdfrwt>
<pdfrwt beam="2">  1       -1 0.54565137E-01 0.18869736E+04</pdfrwt>
<totfact> 0.42417894E+00</totfact>
</mgrwt>
</event>
<event>
12    1  0.1541840E-007  0.1487538E+04  0.7818608E-02  0.8892782E-01
          2   -1    0    0  501    0  0.00000000000E+00  0.00000000000E+00  0.30510704081E+03  0.30510704081E+03  0.00000000000E+00 0.  1.
         -2   -1    0    0    0  501 -0.00000000000E+00 -0.00000000000E+00 -0.18131096721E+04  0.18131096721E+04  0.00000000000E+00 0. -1.
         23    2    1    2    0    0 -0.14726067843E+03  0.88879850116E+02  0.13197101400E+03  0.23589007830E+03  0.92964753201E+02 0.  0.
        254    2    1    2    0    0  0.14726067843E+03 -0.88879850116E+02 -0.16399736452E+04  0.18823266346E+04  0.90777456836E+03 0.  0.
        -24    2    4    4    0    0  0.23169911833E+03  0.28575272166E+03 -0.13305352311E+04  0.13828376236E+04  0.81097427914E+02 0.  0.
         24    2    4    4    0    0 -0.84438439899E+02 -0.37463257177E+03 -0.30943841419E+03  0.49948901097E+03  0.79105789524E+02 0.  0.
         11    1    3    3    0    0 -0.52760572675E+02  0.20684624019E+02  0.10017443405E+03  0.11509321847E+03  0.00000000000E+00 0.  1.
        -11    1    3    3    0    0 -0.94500105752E+02  0.68195226097E+02  0.31796579947E+02  0.12079685983E+03  0.00000000000E+00 0. -1.
          4    1    6    6  502    0 -0.64210346294E+02 -0.27053280953E+03 -0.17610723792E+03  0.32912722290E+03  0.00000000000E+00 0. -1.
          1    1    5    5  503    0  0.39504282868E+02  0.97550850661E+02 -0.44925489192E+03  0.46141815606E+03  0.00000000000E+00 0. -1.
         -2    1    5    5    0  503  0.19219483546E+03  0.18820187100E+03 -0.88128033914E+03  0.92141946755E+03  0.00000000000E+00 0.  1.
         -3    1    6    6    0  502 -0.20228093606E+02 -0.10409976224E+03 -0.13333117626E+03  0.17036178807E+03  0.00000000000E+00 0.  1.
<mgrwt>
<rscale>  0 0.14875383E+04</rscale>
<asrwt>0</asrwt>
<pdfrwt beam="1">  1        2 0.46939546E-01 0.14875383E+04</pdfrwt>
<pdfrwt beam="2">  1       -2 0.27893994E+00 0.14875383E+04</pdfrwt>
<totfact> 0.44644442E+00</totfact>
</mgrwt>
</event>
<event>
12    1  0.1541840E-007  0.2054537E+04  0.7818608E-02  0.8581539E-01
         -1   -1    0    0    0  501 -0.00000000000E+00  0.00000000000E+00  0.49418045068E+03  0.49418045068E+03  0.00000000000E+00 0.  1.
          1   -1    0    0  501    0  0.00000000000E+00 -0.00000000000E+00 -0.21354152963E+04  0.21354152963E+04  0.00000000000E+00 0. -1.
         23    2    1    2    0    0 -0.22453398468E+03 -0.36743115952E+03 -0.15636526639E+04  0.16243995167E+04  0.90790798615E+02 0.  0.
        254    2    1    2    0    0  0.22453398468E+03  0.36743115952E+03 -0.77582181682E+02  0.10051962303E+04  0.90497475059E+03 0.  0.
        -24    2    4    4    0    0  0.47995949176E+03  0.19387154509E+03 -0.31158412105E+03  0.60977553244E+03  0.82427214838E+02 0.  0.
         24    2    4    4    0    0 -0.25542550707E+03  0.17355961444E+03  0.23400193937E+03  0.39542069785E+03  0.78965126700E+02 0.  0.
         13    1    3    3    0    0 -0.84490970939E+02 -0.10783921393E+03 -0.36142910542E+03  0.38652169211E+03  0.00000000000E+00 0.  1.
        -13    1    3    3    0    0 -0.14004301375E+03 -0.25959194559E+03 -0.12022235585E+04  0.12378778246E+04  0.00000000000E+00 0. -1.
          2    1    6    6  502    0 -0.17495022629E+03  0.83069686728E+02  0.11297743697E+03  0.22421430774E+03  0.00000000000E+00 0. -1.
          3    1    5    5  503    0  0.30263510962E+03  0.14758949766E+03 -0.16425648248E+03  0.37463430360E+03  0.00000000000E+00 0. -1.
         -4    1    5    5    0  503  0.17732438213E+03  0.46282047429E+02 -0.14732763857E+03  0.23514122884E+03  0.00000000000E+00 0.  1.
         -1    1    6    6    0  502 -0.80475280784E+02  0.90489927709E+02  0.12102450240E+03  0.17120639011E+03  0.00000000000E+00 0.  1.
<mgrwt>
<rscale>  0 0.20545369E+04</rscale>
<asrwt>0</asrwt>
<pdfrwt beam="1">  1        1 0.32852543E+00 0.20545369E+04</pdfrwt>
<pdfrwt beam="2">  1       -1 0.76027761E-01 0.20545369E+04</pdfrwt>
<totfact> 0.38675940E+00</totfact>
</mgrwt>
</event>
<event>
12    1  0.1541840E-007  0.2064263E+04  0.7818608E-02  0.8577151E-01
         -2   -1    0    0    0  501 -0.00000000000E+00  0.00000000000E+00  0.84376764472E+03  0.84376764472E+03  0.00000000000E+00 0.  1.
          2   -1    0    0  501    0  0.00000000000E+00 -0.00000000000E+00 -0.12625455593E+04  0.12625455593E+04  0.00000000000E+00 0. -1.
         23    2    1    2    0    0  0.44033464363E+03  0.40394689614E+03  0.41036264056E+03  0.73064847648E+03  0.91553296727E+02 0.  0.
        254    2    1    2    0    0 -0.44033464363E+03 -0.40394689614E+03 -0.82914055516E+03  0.13756647276E+04  0.92082120369E+03 0.  0.
        -24    2    4    4    0    0 -0.59658762779E+03 -0.49901158299E+03 -0.87225648535E+03  0.11711072189E+04  0.75705906353E+02 0.  0.
         24    2    4    4    0    0  0.15625298417E+03  0.95064686851E+02  0.43115930187E+02  0.20455750870E+03  0.80823889921E+02 0.  0.
         11    1    3    3    0    0  0.19168070305E+03  0.12708121609E+03  0.12545055873E+03  0.26197131540E+03  0.00000000000E+00 0.  1.
        -11    1    3    3    0    0  0.24865394058E+03  0.27686568004E+03  0.28491208183E+03  0.46867716108E+03  0.00000000000E+00 0. -1.
          4    1    6    6  502    0  0.11814768979E+02  0.43676998976E+02  0.20184623261E+02  0.49544808221E+02  0.00000000000E+00 0. -1.
          3    1    5    5  503    0 -0.42687277139E+03 -0.39354581949E+03 -0.67461776038E+03  0.89006055840E+03  0.00000000000E+00 0. -1.
         -2    1    5    5    0  503 -0.16971485641E+03 -0.10546576350E+03 -0.19763872496E+03  0.28104666047E+03  0.00000000000E+00 0.  1.
         -3    1    6    6    0  502  0.14443821519E+03  0.51387687875E+02  0.22931306926E+02  0.15501270048E+03  0.00000000000E+00 0.  1.
<mgrwt>
<rscale>  0 0.20642627E+04</rscale>
<asrwt>0</asrwt>
<pdfrwt beam="1">  1        2 0.19423778E+00 0.20642627E+04</pdfrwt>
<pdfrwt beam="2">  1       -2 0.12981041E+00 0.20642627E+04</pdfrwt>
<totfact> 0.70068263E+00</totfact>
</mgrwt>
</event>
<event>
12    1  0.1541840E-007  0.1685291E+04  0.7818608E-02  0.8769798E-01
          2   -1    0    0  501    0  0.00000000000E+00  0.00000000000E+00  0.37706823398E+04  0.37706823398E+04  0.00000000000E+00 0. -1.
         -2   -1    0    0    0  501 -0.00000000000E+00 -0.00000000000E+00 -0.18830858199E+03  0.18830858199E+03  0.00000000000E+00 0.  1.
         23    2    1    2    0    0  0.37786233558E+03  0.77827637754E+01  0.19947999703E+03  0.43918520152E+03  0.10124651086E+03 0.  0.
        254    2    1    2    0    0 -0.37786233558E+03 -0.77827637754E+01  0.33828937608E+04  0.35198057203E+04  0.89566823974E+03 0.  0.
        -24    2    4    4    0    0  0.12845749913E+03  0.21505545206E+03  0.21509432146E+04  0.21669941084E+04  0.80972692207E+02 0.  0.
         24    2    4    4    0    0 -0.50631983471E+03 -0.22283821584E+03  0.12319505462E+04  0.13528116119E+04  0.79877803647E+02 0.  0.
         13    1    3    3    0    0  0.26554345806E+03  0.41961392277E+02  0.10549571401E+03  0.28879652393E+03  0.00000000000E+00 0.  1.
        -13    1    3    3    0    0  0.11231887752E+03 -0.34178628501E+02  0.93984283024E+02  0.15038867760E+03  0.00000000000E+00 0. -1.
          4    1    6    6  502    0 -0.49541651398E+03 -0.22250498230E+03  0.12246956949E+04  0.13397109892E+04  0.00000000000E+00 0. -1.
          1    1    5    5  503    0  0.12399643975E+03  0.16072741577E+03  0.18548256650E+04  0.18659010335E+04  0.00000000000E+00 0. -1.
         -2    1    5    5    0  503  0.44610593764E+01  0.54328036296E+02  0.29611754963E+03  0.30109307494E+03  0.00000000000E+00 0.  1.
         -3    1    6    6    0  502 -0.10903320725E+02 -0.33323354046E+00  0.72548513024E+01  0.13100622690E+02  0.00000000000E+00 0.  1.
<mgrwt>
<rscale>  0 0.16852915E+04</rscale>
<asrwt>0</asrwt>
<pdfrwt beam="1">  1        2 0.58010492E+00 0.16852915E+04</pdfrwt>
<pdfrwt beam="2">  1       -2 0.28970554E-01 0.16852915E+04</pdfrwt>
<totfact> 0.54646944E+00</totfact>
</mgrwt>
</event>
<event>
12    1  0.1541840E-007  0.1331152E+04  0.7818608E-02  0.9005220E-01
          2   -1    0    0  501    0  0.00000000000E+00  0.00000000000E+00  0.82326341050E+03  0.82326341050E+03  0.00000000000E+00 0. -1.
         -2   -1    0    0    0  501 -0.00000000000E+00 -0.00000000000E+00 -0.53809200631E+03  0.53809200631E+03  0.00000000000E+00 0.  1.
         23    2    1    2    0    0  0.14628327108E+03  0.31151808962E+03  0.28823990102E+02  0.35766775947E+03  0.93021976975E+02 0.  0.
        254    2    1    2    0    0 -0.14628327108E+03 -0.31151808962E+03  0.25634741409E+03  0.10036876573E+04  0.90732166359E+03 0.  0.
        -24    2    4    4    0    0 -0.16643838251E+03 -0.46625278524E+03 -0.18043842531E+03  0.53300836738E+03  0.80290095585E+02 0.  0.
         24    2    4    4    0    0  0.20155111431E+02  0.15473469562E+03  0.43678583940E+03  0.47067928996E+03  0.80050421336E+02 0.  0.
         13    1    3    3    0    0  0.12344214485E+03  0.19448997823E+03 -0.14479599854E+02  0.23081155424E+03  0.00000000000E+00 0.  1.
        -13    1    3    3    0    0  0.22841126229E+02  0.11702811139E+03  0.43303589956E+02  0.12685620524E+03  0.00000000000E+00 0. -1.
          2    1    6    6  502    0  0.27570175230E+02  0.84856298890E+01  0.66332747073E+02  0.72333628494E+02  0.00000000000E+00 0. -1.
          1    1    5    5  503    0 -0.11150109114E+03 -0.20675589778E+03 -0.65028738991E+02  0.24374009003E+03  0.00000000000E+00 0. -1.
         -2    1    5    5    0  503 -0.54937291374E+02 -0.25949688746E+03 -0.11540968632E+03  0.28926827735E+03  0.00000000000E+00 0.  1.
         -1    1    6    6    0  502 -0.74150637987E+01  0.14624906573E+03  0.37045309232E+03  0.39834566147E+03  0.00000000000E+00 0.  1.
<mgrwt>
<rscale>  0 0.13311521E+04</rscale>
<asrwt>0</asrwt>
<pdfrwt beam="1">  1        2 0.12665591E+00 0.13311521E+04</pdfrwt>
<pdfrwt beam="2">  1       -2 0.82783385E-01 0.13311521E+04</pdfrwt>
<totfact> 0.41497139E+01</totfact>
</mgrwt>
</event>
<event>
12    1  0.1541840E-007  0.1808728E+04  0.7818608E-02  0.8701672E-01
         -1   -1    0    0    0  501 -0.00000000000E+00  0.00000000000E+00  0.39980541562E+03  0.39980541562E+03  0.00000000000E+00 0.  1.
          1   -1    0    0  501    0  0.00000000000E+00 -0.00000000000E+00 -0.20456808805E+04  0.20456808805E+04  0.00000000000E+00 0. -1.
         23    2    1    2    0    0  0.59615481964E+03 -0.24238597104E+03 -0.35420282410E+03  0.74045636961E+03  0.93083117430E+02 0.  0.
        254    2    1    2    0    0 -0.59615481964E+03  0.24238597104E+03 -0.12916726408E+04  0.17050299265E+04  0.90805138148E+03 0.  0.
        -24    2    4    4    0    0 -0.27114803085E+03 -0.25164914005E+03 -0.13213253421E+03  0.40090524970E+03  0.80109102632E+02 0.  0.
         24    2    4    4    0    0 -0.32500678879E+03  0.49403511109E+03 -0.11595401066E+04  0.13041246768E+04  0.80670999428E+02 0.  0.
         13    1    3    3    0    0  0.54792305658E+03 -0.19303312325E+03 -0.30948307491E+03  0.65822582466E+03  0.00000000000E+00 0.  1.
        -13    1    3    3    0    0  0.48231763063E+02 -0.49352847794E+02 -0.44719749196E+02  0.82230544943E+02  0.00000000000E+00 0. -1.
          4    1    6    6  502    0 -0.32082410401E+03  0.45711672073E+03 -0.11053683083E+04  0.12384356661E+04  0.00000000000E+00 0. -1.
          1    1    5    5  503    0 -0.24578283789E+03 -0.19930451328E+03 -0.13167016445E+03  0.34273681538E+03  0.00000000000E+00 0. -1.
         -2    1    5    5    0  503 -0.25365192960E+02 -0.52344626769E+02 -0.46236975948E+00  0.58168434321E+02  0.00000000000E+00 0.  1.
         -3    1    6    6    0  502 -0.41826847790E+01  0.36918390356E+02 -0.54171798280E+02  0.65689010705E+02  0.00000000000E+00 0.  1.
<mgrwt>
<rscale>  0 0.18087281E+04</rscale>
<asrwt>0</asrwt>
<pdfrwt beam="1">  1        1 0.31472013E+00 0.18087281E+04</pdfrwt>
<pdfrwt beam="2">  1       -1 0.61508526E-01 0.18087281E+04</pdfrwt>
<totfact> 0.70146145E+00</totfact>
</mgrwt>
</event>
<event>
12    1  0.1541840E-007  0.1281591E+04  0.7818608E-02  0.9044292E-01
         -2   -1    0    0    0  501 -0.00000000000E+00  0.00000000000E+00  0.12711325235E+04  0.12711325235E+04  0.00000000000E+00 0.  1.
          2   -1    0    0  501    0  0.00000000000E+00 -0.00000000000E+00 -0.32303387073E+03  0.32303387073E+03  0.00000000000E+00 0. -1.
         23    2    1    2    0    0 -0.16021236644E+03  0.22154660351E+03  0.39688030820E+03  0.49060901598E+03  0.91827706241E+02 0.  0.
        254    2    1    2    0    0  0.16021236644E+03 -0.22154660351E+03  0.55121834458E+03  0.11035573783E+04  0.91610388266E+03 0.  0.
        -24    2    4    4    0    0  0.17969115342E+03  0.10477341689E+03  0.70029317234E+03  0.73510487413E+03  0.81867388096E+02 0.  0.
         24    2    4    4    0    0 -0.19478786981E+02 -0.32632002040E+03 -0.14907482776E+03  0.36845250413E+03  0.81668627227E+02 0.  0.
         13    1    3    3    0    0 -0.25559572707E+02  0.36028203533E+02  0.17836801454E+02  0.47639003903E+02  0.00000000000E+00 0. -1.
        -13    1    3    3    0    0 -0.13465279373E+03  0.18551839998E+03  0.37904350674E+03  0.44297001207E+03  0.00000000000E+00 0.  1.
          4    1    6    6  502    0  0.13056094338E+02 -0.48168106681E+02  0.25892355971E+01  0.49973315295E+02  0.00000000000E+00 0. -1.
          3    1    5    5  503    0  0.35887631214E+02  0.17685805526E+02  0.27320600653E+03  0.27611995907E+03  0.00000000000E+00 0. -1.
         -4    1    5    5    0  503  0.14380352220E+03  0.87087611362E+02  0.42708716581E+03  0.45898491506E+03  0.00000000000E+00 0.  1.
         -3    1    6    6    0  502 -0.32534881319E+02 -0.27815191372E+03 -0.15166406336E+03  0.31847918884E+03  0.00000000000E+00 0.  1.
<mgrwt>
<rscale>  0 0.12815910E+04</rscale>
<asrwt>0</asrwt>
<pdfrwt beam="1">  1        2 0.49697519E-01 0.12815910E+04</pdfrwt>
<pdfrwt beam="2">  1       -2 0.19555885E+00 0.12815910E+04</pdfrwt>
<totfact> 0.14103604E+01</totfact>
</mgrwt>
</event>
<event>
12    1  0.1541840E-007  0.2776824E+04  0.7818608E-02  0.8310500E-01
         -1   -1    0    0    0  501 -0.00000000000E+00  0.00000000000E+00  0.66912350887E+03  0.66912350887E+03  0.00000000000E+00 0.  1.
          1   -1    0    0  501    0  0.00000000000E+00 -0.00000000000E+00 -0.28809148893E+04  0.28809148893E+04  0.00000000000E+00 0. -1.
         23    2    1    2    0    0 -0.28812913187E+03  0.99459590319E+03 -0.11796074796E+03  0.10462519424E+04  0.92135669684E+02 0.  0.
        254    2    1    2    0    0  0.28812913187E+03 -0.99459590319E+03 -0.20938306324E+04  0.25037864557E+04  0.90143246633E+03 0.  0.
        -24    2    4    4    0    0  0.21493286643E+03 -0.51323388882E+02 -0.34178540575E+02  0.23582365531E+03  0.74929276308E+02 0.  0.
         24    2    4    4    0    0  0.73196265441E+02 -0.94327251431E+03 -0.20596520919E+04  0.22679628004E+04  0.79798465674E+02 0.  0.
         13    1    3    3    0    0 -0.83378710117E+01  0.10100739889E+02  0.75271976719E+01  0.15106414006E+02  0.00000000000E+00 0. -1.
        -13    1    3    3    0    0 -0.27979126086E+03  0.98449516330E+03 -0.12548794563E+03  0.10311455284E+04  0.00000000000E+00 0.  1.
          4    1    6    6  502    0  0.11331578299E+02 -0.55451335049E+03 -0.12600893856E+04  0.13767493309E+04  0.00000000000E+00 0. -1.
          1    1    5    5  503    0  0.10109740236E+03 -0.59536439264E+02 -0.32245280391E+02  0.12167592396E+03  0.00000000000E+00 0. -1.
         -2    1    5    5    0  503  0.11383546407E+03  0.82130503818E+01 -0.19332601836E+01  0.11414773134E+03  0.00000000000E+00 0.  1.
         -1    1    6    6    0  502  0.61864687143E+02 -0.38875916381E+03 -0.79956270627E+03  0.89121346950E+03  0.00000000000E+00 0.  1.
<mgrwt>
<rscale>  0 0.27768240E+04</rscale>
<asrwt>0</asrwt>
<pdfrwt beam="1">  1        1 0.44321768E+00 0.27768240E+04</pdfrwt>
<pdfrwt beam="2">  1       -1 0.10294208E+00 0.27768240E+04</pdfrwt>
<totfact> 0.56357960E-01</totfact>
</mgrwt>
</event>
<event>
12    1  0.1541840E-007  0.1670265E+04  0.7818608E-02  0.8778507E-01
          2   -1    0    0  501    0  0.00000000000E+00  0.00000000000E+00  0.19005950198E+04  0.19005950198E+04  0.00000000000E+00 0. -1.
         -2   -1    0    0    0  501 -0.00000000000E+00 -0.00000000000E+00 -0.36696225614E+03  0.36696225614E+03  0.00000000000E+00 0.  1.
         23    2    1    2    0    0  0.32478628308E+03 -0.38064728145E+03  0.12020816214E+03  0.52317443780E+03  0.94249708593E+02 0.  0.
        254    2    1    2    0    0 -0.32478628308E+03  0.38064728145E+03  0.14134246015E+04  0.17443828381E+04  0.89147288193E+03 0.  0.
        -24    2    4    4    0    0 -0.38326014084E+03  0.41904136480E+03  0.34390328500E+03  0.66964911374E+03  0.87615438882E+02 0.  0.
         24    2    4    4    0    0  0.58473857769E+02 -0.38394083342E+02  0.10695213165E+04  0.10747337244E+04  0.79268115644E+02 0.  0.
         13    1    3    3    0    0  0.26525055176E+03 -0.31489653355E+03  0.13490922839E+03  0.43326456346E+03  0.00000000000E+00 0.  1.
        -13    1    3    3    0    0  0.59535731320E+02 -0.65750747909E+02 -0.14701066257E+02  0.89909874338E+02  0.00000000000E+00 0. -1.
          2    1    6    6  502    0  0.29869670238E+02  0.28232374330E+00  0.10930244791E+03  0.11331064392E+03  0.00000000000E+00 0. -1.
          3    1    5    5  503    0 -0.22170225487E+03  0.19164703922E+03  0.20795760874E+03  0.35934223866E+03  0.00000000000E+00 0. -1.
         -4    1    5    5    0  503 -0.16155788598E+03  0.22739432558E+03  0.13594567625E+03  0.31030687508E+03  0.00000000000E+00 0.  1.
         -1    1    6    6    0  502  0.28604187531E+02 -0.38676407085E+02  0.96021886860E+03  0.96142308046E+03  0.00000000000E+00 0.  1.
<mgrwt>
<rscale>  0 0.16702654E+04</rscale>
<asrwt>0</asrwt>
<pdfrwt beam="1">  1        2 0.29239923E+00 0.16702654E+04</pdfrwt>
<pdfrwt beam="2">  1       -2 0.56455733E-01 0.16702654E+04</pdfrwt>
<totfact> 0.21305270E+01</totfact>
</mgrwt>
</event>
<event>
12    1  0.1644621E-007  0.2211582E+04  0.7818608E-02  0.8513623E-01
         -1   -1    0    0    0  501 -0.00000000000E+00  0.00000000000E+00  0.72404069906E+03  0.72404069906E+03  0.00000000000E+00 0.  1.
          1   -1    0    0  501    0  0.00000000000E+00 -0.00000000000E+00 -0.16888195371E+04  0.16888195371E+04  0.00000000000E+00 0. -1.
         23    2    1    2    0    0  0.38849311176E+03 -0.76435569298E+03 -0.76734801158E+03  0.11544400080E+04  0.93499935757E+02 0.  0.
        254    2    1    2    0    0 -0.38849311176E+03  0.76435569298E+03 -0.19743082644E+03  0.12584202281E+04  0.89970885070E+03 0.  0.
        -24    2    4    4    0    0  0.15496755138E+03  0.40413072376E+03 -0.37536257521E+03  0.57856911589E+03  0.80675740608E+02 0.  0.
         24    2    4    4    0    0 -0.54346066314E+03  0.36022496922E+03  0.17793174877E+03  0.67985111222E+03  0.73663469533E+02 0.  0.
         11    1    3    3    0    0 -0.12161454938E+01 -0.32110033104E+02 -0.19420383983E+02  0.37545766071E+02  0.00000000000E+00 0.  1.
        -11    1    3    3    0    0  0.38970925725E+03 -0.73224565987E+03 -0.74792762760E+03  0.11168942420E+04  0.00000000000E+00 0. -1.
          2    1    6    6  502    0 -0.64513966156E+02  0.16418154360E+02  0.19360195455E+02  0.69328383725E+02  0.00000000000E+00 0. -1.
          1    1    5    5  503    0  0.23257511515E+02  0.11020364427E+03 -0.59213209908E+02  0.12724762976E+03  0.00000000000E+00 0. -1.
         -2    1    5    5    0  503  0.13171003987E+03  0.29392707950E+03 -0.31614936530E+03  0.45132148613E+03  0.00000000000E+00 0.  1.
         -1    1    6    6    0  502 -0.47894669698E+03  0.34380681486E+03  0.15857155331E+03  0.61052272850E+03  0.00000000000E+00 0.  1.
<mgrwt>
<rscale>  0 0.22115823E+04</rscale>
<asrwt>0</asrwt>
<pdfrwt beam="1">  1        1 0.25981839E+00 0.22115823E+04</pdfrwt>
<pdfrwt beam="2">  1       -1 0.11139088E+00 0.22115823E+04</pdfrwt>
<totfact> 0.32723081E+00</totfact>
</mgrwt>
</event>
<event>
12    1  0.1541840E-007  0.1370315E+04  0.7818608E-02  0.8975591E-01
          2   -1    0    0  501    0  0.00000000000E+00  0.00000000000E+00  0.16310344776E+04  0.16310344776E+04  0.00000000000E+00 0. -1.
         -2   -1    0    0    0  501 -0.00000000000E+00 -0.00000000000E+00 -0.28781791865E+03  0.28781791865E+03  0.00000000000E+00 0.  1.
         23    2    1    2    0    0 -0.68691451345E+02 -0.28012301137E+03  0.72227163348E+03  0.78291840383E+03  0.89986096313E+02 0.  0.
        254    2    1    2    0    0  0.68691451345E+02  0.28012301137E+03  0.62094492551E+03  0.11359339925E+04  0.90641382257E+03 0.  0.
        -24    2    4    4    0    0  0.20884176342E+03  0.77559231617E+02 -0.17775973573E+03  0.29603317365E+03  0.80042486825E+02 0.  0.
         24    2    4    4    0    0 -0.14015031208E+03  0.20256377976E+03  0.79870466124E+03  0.83990081882E+03  0.82644145157E+02 0.  0.
         11    1    3    3    0    0 -0.77760755592E+01  0.51517907483E+01  0.12972251156E+02  0.15977721961E+02  0.00000000000E+00 0.  1.
        -11    1    3    3    0    0 -0.60915375786E+02 -0.28527480212E+03  0.70929938233E+03  0.76694068186E+03  0.00000000000E+00 0. -1.
          4    1    6    6  502    0 -0.16209532248E+02  0.92958274912E+02  0.28854408253E+03  0.30358141803E+03  0.00000000000E+00 0. -1.
          3    1    5    5  503    0  0.15966879886E+02  0.13421911256E+02  0.63328807527E+01  0.21798952583E+02  0.00000000000E+00 0. -1.
         -4    1    5    5    0  503  0.19287488354E+03  0.64137320361E+02 -0.18409261648E+03  0.27423422107E+03  0.00000000000E+00 0.  1.
         -3    1    6    6    0  502 -0.12394077983E+03  0.10960550484E+03  0.51016057871E+03  0.53631940079E+03  0.00000000000E+00 0.  1.
<mgrwt>
<rscale>  0 0.13703152E+04</rscale>
<asrwt>0</asrwt>
<pdfrwt beam="1">  1        2 0.25092838E+00 0.13703152E+04</pdfrwt>
<pdfrwt beam="2">  1       -2 0.44279681E-01 0.13703152E+04</pdfrwt>
<totfact> 0.50539017E+01</totfact>
</mgrwt>
</event>
<event>
12    1  0.1541840E-007  0.1965866E+04  0.7818608E-02  0.8622748E-01
          2   -1    0    0  501    0  0.00000000000E+00  0.00000000000E+00  0.13618518575E+04  0.13618518575E+04  0.00000000000E+00 0. -1.
         -2   -1    0    0    0  501 -0.00000000000E+00 -0.00000000000E+00 -0.70944394341E+03  0.70944394341E+03  0.00000000000E+00 0.  1.
         23    2    1    2    0    0  0.42261154124E+03 -0.50523894867E+03  0.68301470949E+03  0.95315949198E+03  0.90205397521E+02 0.  0.
        254    2    1    2    0    0 -0.42261154124E+03  0.50523894867E+03 -0.30606795390E+02  0.11181363089E+04  0.90300892544E+03 0.  0.
        -24    2    4    4    0    0 -0.23254968147E+03 -0.24071675841E+03 -0.11406194094E+01  0.34370475435E+03  0.78152063442E+02 0.  0.
         24    2    4    4    0    0 -0.19006185976E+03  0.74595570707E+03 -0.29466175980E+02  0.77443155459E+03  0.79388599736E+02 0.  0.
         13    1    3    3    0    0  0.59524811947E+02 -0.12700550302E+03  0.13324666017E+03  0.19346388160E+03  0.00000000000E+00 0.  1.
        -13    1    3    3    0    0  0.36308672929E+03 -0.37823344564E+03  0.54976804931E+03  0.75969561038E+03  0.00000000000E+00 0. -1.
          4    1    6    6  502    0  0.59889352437E+01  0.99008020348E+01  0.32287149106E+01  0.12013235462E+02  0.00000000000E+00 0. -1.
          1    1    5    5  503    0 -0.97572876622E+02 -0.14955816479E+03 -0.20226207113E+02  0.17971424641E+03  0.00000000000E+00 0. -1.
         -2    1    5    5    0  503 -0.13497680485E+03 -0.91158593620E+02  0.19085587703E+02  0.16399050795E+03  0.00000000000E+00 0.  1.
         -3    1    6    6    0  502 -0.19605079501E+03  0.73605490504E+03 -0.32694890891E+02  0.76241831913E+03  0.00000000000E+00 0.  1.
<mgrwt>
<rscale>  0 0.19658663E+04</rscale>
<asrwt>0</asrwt>
<pdfrwt beam="1">  1        2 0.20951567E+00 0.19658663E+04</pdfrwt>
<pdfrwt beam="2">  1       -2 0.10914522E+00 0.19658663E+04</pdfrwt>
<totfact> 0.94954732E+00</totfact>
</mgrwt>
</event>
<event>
12    1  0.1541840E-007  0.1434950E+04  0.7818608E-02  0.8928901E-01
         -2   -1    0    0    0  501 -0.00000000000E+00  0.00000000000E+00  0.39441032542E+03  0.39441032542E+03  0.00000000000E+00 0.  1.
          2   -1    0    0  501    0  0.00000000000E+00 -0.00000000000E+00 -0.13051653021E+04  0.13051653021E+04  0.00000000000E+00 0. -1.
         23    2    1    2    0    0 -0.28653640042E+03  0.19856634001E+03  0.20100167839E+02  0.36087325220E+03  0.91070232541E+02 0.  0.
        254    2    1    2    0    0  0.28653640042E+03 -0.19856634001E+03 -0.93085514453E+03  0.13387023753E+04  0.89671681676E+03 0.  0.
        -24    2    4    4    0    0  0.51882990566E+03 -0.38720772391E+03 -0.61381808007E+03  0.89549388643E+03  0.77603948015E+02 0.  0.
         24    2    4    4    0    0 -0.23229350524E+03  0.18864138390E+03 -0.31703706446E+03  0.44320848890E+03  0.79846227804E+02 0.  0.
         11    1    3    3    0    0 -0.10569104137E+03  0.61700421048E+02  0.49823223537E+02  0.13213588379E+03  0.00000000000E+00 0. -1.
        -11    1    3    3    0    0 -0.18084535905E+03  0.13686591896E+03 -0.29723055698E+02  0.22873736840E+03  0.00000000000E+00 0.  1.
          2    1    6    6  502    0 -0.14489249176E+03  0.15426075789E+03 -0.25142177618E+03  0.32863828920E+03  0.00000000000E+00 0. -1.
          1    1    5    5  503    0  0.44889552824E+03 -0.30951294586E+03 -0.48635496942E+03  0.73064807891E+03  0.00000000000E+00 0. -1.
         -2    1    5    5    0  503  0.69934377418E+02 -0.77694778050E+02 -0.12746311065E+03  0.16484580752E+03  0.00000000000E+00 0.  1.
         -1    1    6    6    0  502 -0.87401013481E+02  0.34380626015E+02 -0.65615288276E+02  0.11457019970E+03  0.00000000000E+00 0.  1.
<mgrwt>
<rscale>  0 0.14349504E+04</rscale>
<asrwt>0</asrwt>
<pdfrwt beam="1">  1        2 0.20079466E+00 0.14349504E+04</pdfrwt>
<pdfrwt beam="2">  1       -2 0.60678511E-01 0.14349504E+04</pdfrwt>
<totfact> 0.40305002E+01</totfact>
</mgrwt>
</event>
<event>
12    1  0.1541840E-007  0.1377100E+04  0.7818608E-02  0.8970564E-01
         -1   -1    0    0    0  501 -0.00000000000E+00  0.00000000000E+00  0.12414521615E+03  0.12414521615E+03  0.00000000000E+00 0.  1.
          1   -1    0    0  501    0  0.00000000000E+00 -0.00000000000E+00 -0.38189219144E+04  0.38189219144E+04  0.00000000000E+00 0. -1.
         23    2    1    2    0    0 -0.14078588453E+03  0.20629359513E+03 -0.21637451190E+03  0.34298000449E+03  0.91867520940E+02 0.  0.
        254    2    1    2    0    0  0.14078588453E+03 -0.20629359513E+03 -0.34784021864E+04  0.36000871261E+04  0.89385000564E+03 0.  0.
        -24    2    4    4    0    0  0.85526590348E+02 -0.35736730698E+03 -0.33655111686E+04  0.33863271075E+04  0.74294434692E+02 0.  0.
         24    2    4    4    0    0  0.55259294181E+02  0.15107371185E+03 -0.11289101780E+03  0.21376001865E+03  0.84095824312E+02 0.  0.
         13    1    3    3    0    0  0.92758697803E+01  0.27857311148E+02 -0.44556034687E+02  0.53360207755E+02  0.00000000000E+00 0. -1.
        -13    1    3    3    0    0 -0.15006175431E+03  0.17843628398E+03 -0.17181847722E+03  0.28961979673E+03  0.00000000000E+00 0.  1.
          4    1    6    6  502    0  0.20638673702E+02  0.11849199070E+03 -0.11467890854E+03  0.16618531456E+03  0.00000000000E+00 0. -1.
          3    1    5    5  503    0  0.23631481426E+02 -0.53814050360E+02 -0.34504167057E+03  0.35001164746E+03  0.00000000000E+00 0. -1.
         -4    1    5    5    0  503  0.61895108922E+02 -0.30355325662E+03 -0.30204694980E+04  0.30363154600E+04  0.00000000000E+00 0.  1.
         -3    1    6    6    0  502  0.34620620479E+02  0.32581721153E+02  0.17878907399E+01  0.47574704087E+02  0.00000000000E+00 0.  1.
<mgrwt>
<rscale>  0 0.13770997E+04</rscale>
<asrwt>0</asrwt>
<pdfrwt beam="1">  1        1 0.58752634E+00 0.13770997E+04</pdfrwt>
<pdfrwt beam="2">  1       -1 0.19099267E-01 0.13770997E+04</pdfrwt>
<totfact> 0.30275946E+00</totfact>
</mgrwt>
</event>
<event>
12    1  0.1541840E-007  0.2440145E+04  0.7818608E-02  0.8424625E-01
         -1   -1    0    0    0  501 -0.00000000000E+00  0.00000000000E+00  0.62850523415E+03  0.62850523415E+03  0.00000000000E+00 0.  1.
          1   -1    0    0  501    0  0.00000000000E+00 -0.00000000000E+00 -0.23684403205E+04  0.23684403205E+04  0.00000000000E+00 0. -1.
         23    2    1    2    0    0 -0.15936073218E+03 -0.12411122086E+03  0.51534724389E+03  0.56089052322E+03  0.90641928231E+02 0.  0.
        254    2    1    2    0    0  0.15936073218E+03  0.12411122086E+03 -0.22552823303E+04  0.24360550314E+04  0.89847998806E+03 0.  0.
        -24    2    4    4    0    0  0.27616501343E+03 -0.21758177223E+03 -0.37754921870E+03  0.52221375361E+03  0.80962026090E+02 0.  0.
         24    2    4    4    0    0 -0.11680428125E+03  0.34169299309E+03 -0.18777331116E+04  0.19138412778E+04  0.80681205120E+02 0.  0.
         11    1    3    3    0    0 -0.12795662752E+03 -0.13549084880E+03  0.40982771756E+03  0.45021042493E+03  0.00000000000E+00 0.  1.
        -11    1    3    3    0    0 -0.31404104655E+02  0.11379627940E+02  0.10551952633E+03  0.11068009830E+03  0.00000000000E+00 0. -1.
          2    1    6    6  502    0 -0.45237567534E+02  0.84157438212E+02 -0.34546984336E+03  0.35843873199E+03  0.00000000000E+00 0. -1.
          1    1    5    5  503    0  0.38240917291E+02 -0.23844243645E+02 -0.94832336904E+02  0.10499565626E+03  0.00000000000E+00 0. -1.
         -2    1    5    5    0  503  0.23792409613E+03 -0.19373752859E+03 -0.28271688179E+03  0.41721809735E+03  0.00000000000E+00 0.  1.
         -1    1    6    6    0  502 -0.71566713713E+02  0.25753555488E+03 -0.15322632682E+04  0.15554025458E+04  0.00000000000E+00 0.  1.
<mgrwt>
<rscale>  0 0.24401452E+04</rscale>
<asrwt>0</asrwt>
<pdfrwt beam="1">  1        1 0.36437542E+00 0.24401452E+04</pdfrwt>
<pdfrwt beam="2">  1       -1 0.96693116E-01 0.24401452E+04</pdfrwt>
<totfact> 0.15342757E+00</totfact>
</mgrwt>
</event>
<event>
12    1  0.1541840E-007  0.2013059E+04  0.7818608E-02  0.8600539E-01
          2   -1    0    0  501    0  0.00000000000E+00  0.00000000000E+00  0.30088341798E+04  0.30088341798E+04  0.00000000000E+00 0. -1.
         -2   -1    0    0    0  501 -0.00000000000E+00 -0.00000000000E+00 -0.33670907603E+03  0.33670907603E+03  0.00000000000E+00 0.  1.
         23    2    1    2    0    0  0.66918818197E+03 -0.40681628090E+03  0.13489440938E+04  0.15624003157E+04  0.90179093789E+02 0.  0.
        254    2    1    2    0    0 -0.66918818197E+03  0.40681628090E+03  0.13231810100E+04  0.17831429402E+04  0.90303845466E+03 0.  0.
        -24    2    4    4    0    0 -0.82914152894E+03  0.15442168738E+03  0.11509717923E+04  0.14288533981E+04  0.74593794885E+02 0.  0.
         24    2    4    4    0    0  0.15995334697E+03  0.25239459352E+03  0.17220921772E+03  0.35428954203E+03  0.81098464105E+02 0.  0.
         13    1    3    3    0    0  0.37717577262E+03 -0.27946011464E+03  0.78175401189E+03  0.91186559000E+03  0.00000000000E+00 0. -1.
        -13    1    3    3    0    0  0.29201240935E+03 -0.12735616626E+03  0.56719008188E+03  0.65053472566E+03  0.00000000000E+00 0.  1.
          2    1    6    6  502    0  0.29035305058E+02  0.73225561150E+01  0.60553952536E+01  0.30550557762E+02  0.00000000000E+00 0. -1.
          1    1    5    5  503    0 -0.30147001136E+03  0.87658858744E+02  0.45857173677E+03  0.55574839724E+03  0.00000000000E+00 0. -1.
         -4    1    5    5    0  503 -0.52767151758E+03  0.66762828638E+02  0.69240005551E+03  0.87310500091E+03  0.00000000000E+00 0.  1.
         -1    1    6    6    0  502  0.13091804191E+03  0.24507203740E+03  0.16615382247E+03  0.32373898427E+03  0.00000000000E+00 0.  1.
<mgrwt>
<rscale>  0 0.20130591E+04</rscale>
<asrwt>0</asrwt>
<pdfrwt beam="1">  1        2 0.46289755E+00 0.20130591E+04</pdfrwt>
<pdfrwt beam="2">  1       -2 0.51801398E-01 0.20130591E+04</pdfrwt>
<totfact> 0.56281401E+00</totfact>
</mgrwt>
</event>
<event>
12    1  0.1541840E-007  0.1668972E+04  0.7818608E-02  0.8779261E-01
         -1   -1    0    0    0  501 -0.00000000000E+00  0.00000000000E+00  0.12236100352E+04  0.12236100352E+04  0.00000000000E+00 0. -1.
          1   -1    0    0  501    0  0.00000000000E+00 -0.00000000000E+00 -0.56910856423E+03  0.56910856423E+03  0.00000000000E+00 0.  1.
         23    2    1    2    0    0 -0.27282744534E+03  0.34425997468E+02  0.78104788274E+03  0.83317125852E+03  0.92296189792E+02 0.  0.
        254    2    1    2    0    0  0.27282744534E+03 -0.34425997468E+02 -0.12654641177E+03  0.95954734091E+03  0.91054771478E+03 0.  0.
        -24    2    4    4    0    0  0.13404150039E+03 -0.46276932945E+03 -0.11606584229E+03  0.50227949581E+03  0.81797530890E+02 0.  0.
         24    2    4    4    0    0  0.13878594495E+03  0.42834333199E+03 -0.10480569483E+02  0.45726784510E+03  0.79022093444E+02 0.  0.
         13    1    3    3    0    0 -0.22822499598E+03  0.47271089804E+02  0.54730765158E+03  0.59486710297E+03  0.00000000000E+00 0. -1.
        -13    1    3    3    0    0 -0.44602449363E+02 -0.12845092336E+02  0.23374023116E+03  0.23830415555E+03  0.00000000000E+00 0.  1.
          2    1    6    6  502    0  0.14196399134E+03  0.34826977530E+03  0.24149450370E+01  0.37610031000E+03  0.00000000000E+00 0. -1.
          1    1    5    5  503    0  0.10300344042E+03 -0.37636796464E+03 -0.12573229266E+03  0.40996483137E+03  0.00000000000E+00 0. -1.
         -2    1    5    5    0  503  0.31038059968E+02 -0.86401364816E+02  0.96664503675E+01  0.92314664444E+02  0.00000000000E+00 0.  1.
         -1    1    6    6    0  502 -0.31780463844E+01  0.80073556684E+02 -0.12895514520E+02  0.81167535096E+02  0.00000000000E+00 0.  1.
<mgrwt>
<rscale>  0 0.16689721E+04</rscale>
<asrwt>0</asrwt>
<pdfrwt beam="1">  1        1 0.87555164E-01 0.16689721E+04</pdfrwt>
<pdfrwt beam="2">  1       -1 0.18824770E+00 0.16689721E+04</pdfrwt>
<totfact> 0.64081143E+00</totfact>
</mgrwt>
</event>
<event>
12    1  0.1541840E-007  0.1452519E+04  0.7818608E-02  0.8916656E-01
         -2   -1    0    0    0  501 -0.00000000000E+00  0.00000000000E+00  0.80918638424E+03  0.80918638424E+03  0.00000000000E+00 0.  1.
          2   -1    0    0  501    0  0.00000000000E+00 -0.00000000000E+00 -0.65183146061E+03  0.65183146061E+03  0.00000000000E+00 0. -1.
         23    2    1    2    0    0  0.13546563187E+03  0.34720343216E+03 -0.18875012528E+03  0.42946133825E+03  0.99545319019E+02 0.  0.
        254    2    1    2    0    0 -0.13546563187E+03 -0.34720343216E+03  0.34610504892E+03  0.10315565066E+04  0.89745136955E+03 0.  0.
        -24    2    4    4    0    0  0.84259689516E+02 -0.17971016137E+03 -0.27396302487E+03  0.34789312155E+03  0.81107630016E+02 0.  0.
         24    2    4    4    0    0 -0.21972532139E+03 -0.16749327079E+03  0.62006807380E+03  0.68366338505E+03  0.81104841402E+02 0.  0.
         11    1    3    3    0    0  0.13308330131E+03  0.21174230128E+03 -0.12875927613E+03  0.28129151859E+03  0.00000000000E+00 0. -1.
        -11    1    3    3    0    0  0.23823305611E+01  0.13546113088E+03 -0.59990849151E+02  0.14816981966E+03  0.00000000000E+00 0.  1.
          4    1    6    6  502    0 -0.16502316551E+03 -0.92981541656E+02  0.34638779954E+03  0.39479452873E+03  0.00000000000E+00 0. -1.
          1    1    5    5  503    0  0.86954800503E+02 -0.14316162011E+03 -0.17444519472E+03  0.24184191688E+03  0.00000000000E+00 0. -1.
         -2    1    5    5    0  503 -0.26951109877E+01 -0.36548541258E+02 -0.99517830159E+02  0.10605120466E+03  0.00000000000E+00 0.  1.
         -3    1    6    6    0  502 -0.54702155879E+02 -0.74511729133E+02  0.27368027426E+03  0.28886885632E+03  0.00000000000E+00 0.  1.
<mgrwt>
<rscale>  0 0.14525194E+04</rscale>
<asrwt>0</asrwt>
<pdfrwt beam="1">  1        2 0.10028176E+00 0.14525194E+04</pdfrwt>
<pdfrwt beam="2">  1       -2 0.12449021E+00 0.14525194E+04</pdfrwt>
<totfact> 0.21040026E+01</totfact>
</mgrwt>
</event>
<event>
12    1  0.1541840E-007  0.2040425E+04  0.7818608E-02  0.8587950E-01
         -2   -1    0    0    0  501 -0.00000000000E+00  0.00000000000E+00  0.23914442598E+03  0.23914442598E+03  0.00000000000E+00 0.  1.
          2   -1    0    0  501    0  0.00000000000E+00 -0.00000000000E+00 -0.43523227534E+04  0.43523227534E+04  0.00000000000E+00 0. -1.
         23    2    1    2    0    0 -0.74264673023E+03  0.24043259591E+03 -0.21128116079E+04  0.22542715227E+04  0.91843389549E+02 0.  0.
        254    2    1    2    0    0  0.74264673023E+03 -0.24043259591E+03 -0.20003667195E+04  0.23371956567E+04  0.92286755618E+03 0.  0.
        -24    2    4    4    0    0  0.38465532314E+03  0.30484760079E+03 -0.12168456455E+04  0.13145330800E+04  0.79950710790E+02 0.  0.
         24    2    4    4    0    0  0.35799140709E+03 -0.54528019670E+03 -0.78352107395E+03  0.10226625767E+04  0.80281579007E+02 0.  0.
         13    1    3    3    0    0 -0.54452708746E+03  0.16543287051E+03 -0.16470074652E+04  0.17425588582E+04  0.00000000000E+00 0. -1.
        -13    1    3    3    0    0 -0.19811964277E+03  0.74999725404E+02 -0.46580414271E+03  0.51171266451E+03  0.00000000000E+00 0.  1.
          4    1    6    6  502    0  0.14691236503E+03 -0.15904423257E+03 -0.23886548474E+03  0.32238956359E+03  0.00000000000E+00 0. -1.
          1    1    5    5  503    0  0.17450470618E+03  0.18267172363E+03 -0.67213634537E+03  0.71804464893E+03  0.00000000000E+00 0. -1.
         -2    1    5    5    0  503  0.21015061696E+03  0.12217587716E+03 -0.54470930016E+03  0.59648843111E+03  0.00000000000E+00 0.  1.
         -3    1    6    6    0  502  0.21107904206E+03 -0.38623596413E+03 -0.54465558921E+03  0.70027301308E+03  0.00000000000E+00 0.  1.
<mgrwt>
<rscale>  0 0.20404252E+04</rscale>
<asrwt>0</asrwt>
<pdfrwt beam="1">  1        2 0.66958804E+00 0.20404252E+04</pdfrwt>
<pdfrwt beam="2">  1       -2 0.36791454E-01 0.20404252E+04</pdfrwt>
<totfact> 0.11104846E+00</totfact>
</mgrwt>
</event>
<event>
12    1  0.1541840E-007  0.1593305E+04  0.7818608E-02  0.8824672E-01
          2   -1    0    0  501    0  0.00000000000E+00  0.00000000000E+00  0.16400053038E+04  0.16400053038E+04  0.00000000000E+00 0. -1.
         -2   -1    0    0    0  501 -0.00000000000E+00 -0.00000000000E+00 -0.38698342392E+03  0.38698342392E+03  0.00000000000E+00 0.  1.
         23    2    1    2    0    0  0.17599943688E+03 -0.36414103745E+02  0.10476438379E+04  0.10669710937E+04  0.92563032396E+02 0.  0.
        254    2    1    2    0    0 -0.17599943688E+03  0.36414103745E+02  0.20537804200E+03  0.96001763405E+03  0.92040856625E+03 0.  0.
        -24    2    4    4    0    0 -0.29990873208E+03  0.33020501633E+02  0.52331488900E+03  0.60993561373E+03  0.84423804279E+02 0.  0.
         24    2    4    4    0    0  0.12390929521E+03  0.33936021121E+01 -0.31793684700E+03  0.35008202033E+03  0.78157228074E+02 0.  0.
         11    1    3    3    0    0  0.17974985911E+03 -0.34556944413E+02  0.10468242393E+04  0.10627065363E+04  0.00000000000E+00 0. -1.
        -11    1    3    3    0    0 -0.37504222265E+01 -0.18571593324E+01  0.81959852645E+00  0.42645573519E+01  0.00000000000E+00 0.  1.
          4    1    6    6  502    0  0.33947985945E+02  0.35617905228E+02 -0.83521931653E+02  0.96938196752E+02  0.00000000000E+00 0. -1.
          3    1    5    5  503    0 -0.13838336751E+03 -0.16095366436E+02  0.18251224300E+03  0.22960778748E+03  0.00000000000E+00 0. -1.
         -4    1    5    5    0  503 -0.16152536457E+03  0.49115868069E+02  0.34080264600E+03  0.38032782625E+03  0.00000000000E+00 0.  1.
         -3    1    6    6    0  502  0.89961309260E+02 -0.32224303116E+02 -0.23441491535E+03  0.25314382357E+03  0.00000000000E+00 0.  1.
<mgrwt>
<rscale>  0 0.15933046E+04</rscale>
<asrwt>0</asrwt>
<pdfrwt beam="1">  1        2 0.25230850E+00 0.15933046E+04</pdfrwt>
<pdfrwt beam="2">  1       -2 0.59535912E-01 0.15933046E+04</pdfrwt>
<totfact> 0.26752077E+01</totfact>
</mgrwt>
</event>
<event>
12    1  0.1541840E-007  0.1761175E+04  0.7818608E-02  0.8727223E-01
          2   -1    0    0  501    0  0.00000000000E+00  0.00000000000E+00  0.13932960771E+04  0.13932960771E+04  0.00000000000E+00 0.  1.
         -2   -1    0    0    0  501 -0.00000000000E+00 -0.00000000000E+00 -0.55654655326E+03  0.55654655326E+03  0.00000000000E+00 0. -1.
         23    2    1    2    0    0  0.28351277679E+03  0.36693848267E+03  0.71291300067E+03  0.85478709976E+03  0.85980781120E+02 0.  0.
        254    2    1    2    0    0 -0.28351277679E+03 -0.36693848267E+03  0.12383652321E+03  0.10950555307E+04  0.98427017940E+03 0.  0.
        -24    2    4    4    0    0 -0.24964861817E+03  0.28721618794E+03  0.18734955676E+03  0.43220010021E+03  0.82942745515E+02 0.  0.
         24    2    4    4    0    0 -0.33864158615E+02 -0.65415467061E+03 -0.63513033550E+02  0.66285543044E+03  0.79235736387E+02 0.  0.
         11    1    3    3    0    0  0.13097270572E+03  0.12625112435E+03  0.33834571341E+03  0.38414973360E+03  0.00000000000E+00 0.  1.
        -11    1    3    3    0    0  0.15254007106E+03  0.24068735833E+03  0.37456728726E+03  0.47063736616E+03  0.00000000000E+00 0. -1.
          2    1    6    6  502    0  0.50449007099E+01 -0.11201003651E+03  0.16934483889E+02  0.11339522056E+03  0.00000000000E+00 0. -1.
          3    1    5    5  503    0 -0.92307861229E+02  0.56455846699E+02  0.72300641145E+02  0.13013603106E+03  0.00000000000E+00 0. -1.
         -4    1    5    5    0  503 -0.15734075694E+03  0.23076034124E+03  0.11504891562E+03  0.30206406914E+03  0.00000000000E+00 0.  1.
         -1    1    6    6    0  502 -0.38909059325E+02 -0.54214463410E+03 -0.80447517439E+02  0.54946020988E+03  0.00000000000E+00 0.  1.
<mgrwt>
<rscale>  0 0.17611748E+04</rscale>
<asrwt>0</asrwt>
<pdfrwt beam="1">  1        2 0.21435324E+00 0.17611748E+04</pdfrwt>
<pdfrwt beam="2">  1       -2 0.85622547E-01 0.17611748E+04</pdfrwt>
<totfact> 0.16384215E+01</totfact>
</mgrwt>
</event>
<event>
12    1  0.1541840E-007  0.1085697E+04  0.7818608E-02  0.9219246E-01
          2   -1    0    0  501    0  0.00000000000E+00  0.00000000000E+00  0.22983030171E+04  0.22983030171E+04  0.00000000000E+00 0. -1.
         -2   -1    0    0    0  501 -0.00000000000E+00 -0.00000000000E+00 -0.12821826132E+03  0.12821826132E+03  0.00000000000E+00 0.  1.
         23    2    1    2    0    0  0.21296110045E+03  0.13119992590E+03  0.34650055384E+03  0.43694815169E+03  0.91078002797E+02 0.  0.
        254    2    1    2    0    0 -0.21296110045E+03 -0.13119992590E+03  0.18235842019E+04  0.19895731267E+04  0.75523243716E+03 0.  0.
        -24    2    4    4    0    0 -0.43622602301E+03 -0.18205640897E+03  0.15575578013E+04  0.16296915994E+04  0.80440820878E+02 0.  0.
         24    2    4    4    0    0  0.22326492255E+03  0.50856483074E+02  0.26602640063E+03  0.35988152728E+03  0.79442182323E+02 0.  0.
         13    1    3    3    0    0  0.10755742424E+03  0.40495119748E+02  0.22340662738E+03  0.25123490082E+03  0.00000000000E+00 0. -1.
        -13    1    3    3    0    0  0.10540367621E+03  0.90704806149E+02  0.12309392646E+03  0.18571325087E+03  0.00000000000E+00 0.  1.
          2    1    6    6  502    0  0.19068477751E+03  0.13372949888E+02  0.22669247071E+03  0.29652823886E+03  0.00000000000E+00 0. -1.
          3    1    5    5  503    0 -0.27540853872E+03 -0.72355196963E+02  0.93800404048E+03  0.98027379731E+03  0.00000000000E+00 0. -1.
         -4    1    5    5    0  503 -0.16081748429E+03 -0.10970121201E+03  0.61955376081E+03  0.64941780212E+03  0.00000000000E+00 0.  1.
         -1    1    6    6    0  502  0.32580145044E+02  0.37483533187E+02  0.39333929920E+02  0.63353288424E+02  0.00000000000E+00 0.  1.
<mgrwt>
<rscale>  0 0.10856969E+04</rscale>
<asrwt>0</asrwt>
<pdfrwt beam="1">  1        2 0.35358505E+00 0.10856969E+04</pdfrwt>
<pdfrwt beam="2">  1       -2 0.19725888E-01 0.10856969E+04</pdfrwt>
<totfact> 0.99473573E+01</totfact>
</mgrwt>
</event>
<event>
12    1  0.1541840E-007  0.1020590E+04  0.7818608E-02  0.9286246E-01
         -1   -1    0    0    0  501 -0.00000000000E+00  0.00000000000E+00  0.93549554661E+02  0.93549554661E+02  0.00000000000E+00 0.  1.
          1   -1    0    0  501    0  0.00000000000E+00 -0.00000000000E+00 -0.27835635226E+04  0.27835635226E+04  0.00000000000E+00 0. -1.
         23    2    1    2    0    0 -0.71090723742E+02 -0.21542602894E+02 -0.33580458315E+03  0.35705395395E+03  0.95941822109E+02 0.  0.
        254    2    1    2    0    0  0.71090723742E+02  0.21542602894E+02 -0.23542093848E+04  0.25200591233E+04  0.89603469954E+03 0.  0.
        -24    2    4    4    0    0  0.37552127149E+03  0.97958284285E+02 -0.20047371194E+04  0.20435405556E+04  0.80467593415E+02 0.  0.
         24    2    4    4    0    0 -0.30443054775E+03 -0.76415681391E+02 -0.34947226536E+03  0.47651856769E+03  0.80135924155E+02 0.  0.
         11    1    3    3    0    0 -0.93281304878E+02 -0.29379789997E+02 -0.26937320900E+03  0.28657721407E+03  0.00000000000E+00 0. -1.
        -11    1    3    3    0    0  0.22190581136E+02  0.78371871030E+01 -0.66431374150E+02  0.70476739881E+02  0.00000000000E+00 0.  1.
          4    1    6    6  502    0 -0.18243188996E+02  0.13429121795E+01 -0.15742164377E+00  0.18293226600E+02  0.00000000000E+00 0. -1.
          3    1    5    5  503    0  0.30502669562E+03  0.73585559842E+02 -0.17577396784E+04  0.17855265040E+04  0.00000000000E+00 0. -1.
         -4    1    5    5    0  503  0.70494575869E+02  0.24372724443E+02 -0.24699744105E+03  0.25801405157E+03  0.00000000000E+00 0.  1.
         -3    1    6    6    0  502 -0.28618735875E+03 -0.77758593571E+02 -0.34931484371E+03  0.45822534109E+03  0.00000000000E+00 0.  1.
<mgrwt>
<rscale>  0 0.10205903E+04</rscale>
<asrwt>0</asrwt>
<pdfrwt beam="1">  1        1 0.42824044E+00 0.10205903E+04</pdfrwt>
<pdfrwt beam="2">  1       -1 0.14392243E-01 0.10205903E+04</pdfrwt>
<totfact> 0.30695752E+01</totfact>
</mgrwt>
</event>
<event>
12    1  0.1541840E-007  0.2459343E+04  0.7818608E-02  0.8417615E-01
          2   -1    0    0  501    0  0.00000000000E+00  0.00000000000E+00  0.10151984055E+04  0.10151984055E+04  0.00000000000E+00 0.  1.
         -2   -1    0    0    0  501 -0.00000000000E+00 -0.00000000000E+00 -0.14894550594E+04  0.14894550594E+04  0.00000000000E+00 0. -1.
         23    2    1    2    0    0  0.38786783472E+03  0.98729492825E+03 -0.12815821154E+03  0.10720857082E+04  0.88036957601E+02 0.  0.
        254    2    1    2    0    0 -0.38786783472E+03 -0.98729492825E+03 -0.34609844232E+03  0.14325677567E+04  0.89848400836E+03 0.  0.
        -24    2    4    4    0    0 -0.59990157514E+03 -0.32143155075E+03 -0.13521158870E+03  0.69841260535E+03  0.79359006478E+02 0.  0.
         24    2    4    4    0    0  0.21203374042E+03 -0.66586337750E+03 -0.21088685363E+03  0.73415515138E+03  0.78601378523E+02 0.  0.
         11    1    3    3    0    0  0.25878680394E+03  0.59364419274E+03 -0.42085222787E+02  0.64896471664E+03  0.00000000000E+00 0.  1.
        -11    1    3    3    0    0  0.12908103079E+03  0.39365073551E+03 -0.86072988750E+02  0.42312099152E+03  0.00000000000E+00 0. -1.
          2    1    6    6  502    0  0.84659152915E+02 -0.15584317071E+03 -0.46097173156E+02  0.18324632439E+03  0.00000000000E+00 0. -1.
          3    1    5    5  503    0 -0.44361170761E+03 -0.19718598988E+03 -0.90997463568E+02  0.49391719965E+03  0.00000000000E+00 0. -1.
         -2    1    5    5    0  503 -0.15628986753E+03 -0.12424556087E+03 -0.44214125130E+02  0.20449540569E+03  0.00000000000E+00 0.  1.
         -1    1    6    6    0  502  0.12737458750E+03 -0.51002020679E+03 -0.16478968047E+03  0.55090882700E+03  0.00000000000E+00 0.  1.
<mgrwt>
<rscale>  0 0.24593433E+04</rscale>
<asrwt>0</asrwt>
<pdfrwt beam="1">  1        2 0.15618437E+00 0.24593433E+04</pdfrwt>
<pdfrwt beam="2">  1       -2 0.22914693E+00 0.24593433E+04</pdfrwt>
<totfact> 0.19074154E+00</totfact>
</mgrwt>
</event>
<event>
12    1  0.1541840E-007  0.1439288E+04  0.7818608E-02  0.8925861E-01
          2   -1    0    0  501    0  0.00000000000E+00  0.00000000000E+00  0.11978042691E+04  0.11978042691E+04  0.00000000000E+00 0. -1.
         -2   -1    0    0    0  501 -0.00000000000E+00 -0.00000000000E+00 -0.43236415252E+03  0.43236415252E+03  0.00000000000E+00 0.  1.
         23    2    1    2    0    0  0.32028078967E+03  0.97469910400E+02 -0.73582028713E+02  0.35463636963E+03  0.90953131085E+02 0.  0.
        254    2    1    2    0    0 -0.32028078967E+03 -0.97469910400E+02  0.83902214530E+03  0.12755320520E+04  0.90052411833E+03 0.  0.
        -24    2    4    4    0    0 -0.27357212712E+03  0.20820369012E+03 -0.25898756232E+02  0.35351106340E+03  0.78159075362E+02 0.  0.
         24    2    4    4    0    0 -0.46708662550E+02 -0.30567360052E+03  0.86492090153E+03  0.92202098859E+03  0.80102985478E+02 0.  0.
         11    1    3    3    0    0  0.15235321925E+02  0.24400268657E+02 -0.23168821970E+02  0.36936194392E+02  0.00000000000E+00 0.  1.
        -11    1    3    3    0    0  0.30504546774E+03  0.73069641743E+02 -0.50413206742E+02  0.31770017524E+03  0.00000000000E+00 0. -1.
          2    1    6    6  502    0 -0.35119286215E+02 -0.22368704940E+03  0.51747315405E+03  0.56484309812E+03  0.00000000000E+00 0. -1.
          1    1    5    5  503    0 -0.18211423494E+03  0.15898336989E+03  0.14235176067E+02  0.24216512281E+03  0.00000000000E+00 0. -1.
         -2    1    5    5    0  503 -0.91457892171E+02  0.49220320231E+02 -0.40133932299E+02  0.11134594059E+03  0.00000000000E+00 0.  1.
         -1    1    6    6    0  502 -0.11589376335E+02 -0.81986551112E+02  0.34744774749E+03  0.35717789047E+03  0.00000000000E+00 0.  1.
<mgrwt>
<rscale>  0 0.14392882E+04</rscale>
<asrwt>0</asrwt>
<pdfrwt beam="1">  1        2 0.18427758E+00 0.14392882E+04</pdfrwt>
<pdfrwt beam="2">  1       -2 0.66517562E-01 0.14392882E+04</pdfrwt>
<totfact> 0.38301049E+01</totfact>
</mgrwt>
</event>
<event>
12    1  0.1541840E-007  0.1705329E+04  0.7818608E-02  0.8758331E-01
          1   -1    0    0  501    0  0.00000000000E+00  0.00000000000E+00  0.22066628293E+04  0.22066628293E+04  0.00000000000E+00 0. -1.
         -1   -1    0    0    0  501 -0.00000000000E+00 -0.00000000000E+00 -0.32947344325E+03  0.32947344325E+03  0.00000000000E+00 0.  1.
         23    2    1    2    0    0  0.55502471614E+03  0.21429084454E+02  0.10866630157E+04  0.12238231032E+04  0.91623344027E+02 0.  0.
        254    2    1    2    0    0 -0.55502471614E+03 -0.21429084454E+02  0.79052637041E+03  0.13123131694E+04  0.88810037213E+03 0.  0.
        -24    2    4    4    0    0  0.12529783419E+03  0.21789064604E+03  0.42393752427E+03  0.49947043268E+03  0.81066687066E+02 0.  0.
         24    2    4    4    0    0 -0.68032255033E+03 -0.23931973049E+03  0.36658884614E+03  0.81284273668E+03  0.78824022751E+02 0.  0.
         11    1    3    3    0    0  0.42203837551E+03  0.38643662960E+02  0.89052187710E+03  0.98622458735E+03  0.00000000000E+00 0. -1.
        -11    1    3    3    0    0  0.13298634064E+03 -0.17214578506E+02  0.19614113856E+03  0.23759851587E+03  0.00000000000E+00 0.  1.
          2    1    6    6  502    0 -0.10217218601E+03 -0.66029998869E+02  0.69864992676E+02  0.14028625573E+03  0.00000000000E+00 0. -1.
          1    1    5    5  503    0 -0.80430608846E+01  0.83535669350E+01  0.44412471734E+02  0.45901422139E+02  0.00000000000E+00 0. -1.
         -2    1    5    5    0  503  0.13334089508E+03  0.20953707910E+03  0.37952505254E+03  0.45356901054E+03  0.00000000000E+00 0.  1.
         -1    1    6    6    0  502 -0.57815036433E+03 -0.17328973162E+03  0.29672385346E+03  0.67255648095E+03  0.00000000000E+00 0.  1.
<mgrwt>
<rscale>  0 0.17053291E+04</rscale>
<asrwt>0</asrwt>
<pdfrwt beam="1">  1        1 0.33948658E+00 0.17053291E+04</pdfrwt>
<pdfrwt beam="2">  1       -1 0.50688223E-01 0.17053291E+04</pdfrwt>
<totfact> 0.80240610E+00</totfact>
</mgrwt>
</event>
<event>
12    1  0.1541840E-007  0.1484375E+04  0.7818608E-02  0.8894911E-01
         -1   -1    0    0    0  501 -0.00000000000E+00  0.00000000000E+00  0.75941985081E+03  0.75941985081E+03  0.00000000000E+00 0.  1.
          1   -1    0    0  501    0  0.00000000000E+00 -0.00000000000E+00 -0.72534585633E+03  0.72534585633E+03  0.00000000000E+00 0. -1.
         23    2    1    2    0    0 -0.17539964371E+03  0.29006945140E+03  0.31929025795E+03  0.47487503623E+03  0.93030691513E+02 0.  0.
        254    2    1    2    0    0  0.17539964371E+03 -0.29006945140E+03 -0.28521626347E+03  0.10098906709E+04  0.90753816923E+03 0.  0.
        -24    2    4    4    0    0  0.18681085518E+03  0.79875229986E+02 -0.52009246934E+03  0.56421106070E+03  0.80991335184E+02 0.  0.
         24    2    4    4    0    0 -0.11411211473E+02 -0.36994468138E+03  0.23487620587E+03  0.44567961021E+03  0.80462412596E+02 0.  0.
         11    1    3    3    0    0 -0.45441254748E+02  0.13024022672E+03  0.81304082646E+02  0.16011801318E+03  0.00000000000E+00 0. -1.
        -11    1    3    3    0    0 -0.12995838896E+03  0.15982922467E+03  0.23798617531E+03  0.31475702305E+03  0.00000000000E+00 0.  1.
          2    1    6    6  502    0  0.78204400306E+01 -0.10359789691E+03  0.10858724251E+03  0.15028264292E+03  0.00000000000E+00 0. -1.
          3    1    5    5  503    0  0.44280598399E+02  0.45548981475E+01 -0.48524726784E+02  0.65849583152E+02  0.00000000000E+00 0. -1.
         -4    1    5    5    0  503  0.14253025678E+03  0.75320331839E+02 -0.47156774256E+03  0.49836147755E+03  0.00000000000E+00 0.  1.
         -1    1    6    6    0  502 -0.19231651504E+02 -0.26634678447E+03  0.12628896336E+03  0.29539696729E+03  0.00000000000E+00 0.  1.
<mgrwt>
<rscale>  0 0.14843747E+04</rscale>
<asrwt>0</asrwt>
<pdfrwt beam="1">  1        1 0.11159167E+00 0.14843747E+04</pdfrwt>
<pdfrwt beam="2">  1       -1 0.11683382E+00 0.14843747E+04</pdfrwt>
<totfact> 0.16515361E+01</totfact>
</mgrwt>
</event>
<event>
12    1  0.1541840E-007  0.1660062E+04  0.7818608E-02  0.8784476E-01
          2   -1    0    0  501    0  0.00000000000E+00  0.00000000000E+00  0.22651343645E+04  0.22651343645E+04  0.00000000000E+00 0. -1.
         -2   -1    0    0    0  501 -0.00000000000E+00 -0.00000000000E+00 -0.30415495146E+03  0.30415495146E+03  0.00000000000E+00 0.  1.
         23    2    1    2    0    0 -0.50454754641E+03 -0.30032542050E+03  0.59598363929E+03  0.84168090818E+03  0.92014499438E+02 0.  0.
        254    2    1    2    0    0  0.50454754641E+03  0.30032542050E+03  0.13649957737E+04  0.17276084077E+04  0.88127961708E+03 0.  0.
        -24    2    4    4    0    0 -0.72650776124E+02 -0.13216138127E+03 -0.10547395426E+02  0.17235949832E+03  0.82775498428E+02 0.  0.
         24    2    4    4    0    0  0.57719832254E+03  0.43248680177E+03  0.13755431691E+04  0.15552489094E+04  0.80482438234E+02 0.  0.
         11    1    3    3    0    0 -0.28040217594E+03 -0.13857898842E+03  0.37121144561E+03  0.48541472336E+03  0.00000000000E+00 0. -1.
        -11    1    3    3    0    0 -0.22414537047E+03 -0.16174643208E+03  0.22477219368E+03  0.35626618482E+03  0.00000000000E+00 0.  1.
          2    1    6    6  502    0  0.57838788603E+03  0.42635260441E+03  0.13694944161E+04  0.15465523094E+04  0.00000000000E+00 0. -1.
          3    1    5    5  503    0 -0.33978199622E+02 -0.45205551238E+02 -0.43821183294E+02  0.71542686681E+02  0.00000000000E+00 0. -1.
         -4    1    5    5    0  503 -0.38672576502E+02 -0.86955830034E+02  0.33273787867E+02  0.10081681164E+03  0.00000000000E+00 0.  1.
         -1    1    6    6    0  502 -0.11895634976E+01  0.61341973602E+01  0.60487530277E+01  0.86966000114E+01  0.00000000000E+00 0.  1.
<mgrwt>
<rscale>  0 0.16600624E+04</rscale>
<asrwt>0</asrwt>
<pdfrwt beam="1">  1        2 0.34848220E+00 0.16600624E+04</pdfrwt>
<pdfrwt beam="2">  1       -2 0.46793071E-01 0.16600624E+04</pdfrwt>
<totfact> 0.19623491E+01</totfact>
</mgrwt>
</event>
<event>
12    1  0.1541840E-007  0.1464201E+04  0.7818608E-02  0.8908614E-01
          1   -1    0    0  501    0  0.00000000000E+00  0.00000000000E+00  0.15866878853E+04  0.15866878853E+04  0.00000000000E+00 0. -1.
         -1   -1    0    0    0  501 -0.00000000000E+00 -0.00000000000E+00 -0.33779247960E+03  0.33779247960E+03  0.00000000000E+00 0.  1.
         23    2    1    2    0    0 -0.36934226588E-01 -0.31125592132E+03 -0.32362553658E+02  0.32503466496E+03  0.87863238187E+02 0.  0.
        254    2    1    2    0    0  0.36934226588E-01  0.31125592132E+03  0.12812579593E+04  0.15994456999E+04  0.90538629253E+03 0.  0.
        -24    2    4    4    0    0  0.28381302811E+03 -0.18643482956E+03  0.29486621453E+03  0.45597752812E+03  0.75243877392E+02 0.  0.
         24    2    4    4    0    0 -0.28377609388E+03  0.49769075088E+03  0.98639174481E+03  0.11434681718E+04  0.79535091009E+02 0.  0.
         13    1    3    3    0    0 -0.25706493266E+02 -0.17738261828E+03  0.17045892913E+02  0.18004438211E+03  0.00000000000E+00 0. -1.
        -13    1    3    3    0    0  0.25669559039E+02 -0.13387330304E+03 -0.49408446572E+02  0.14499028285E+03  0.00000000000E+00 0.  1.
          2    1    6    6  502    0 -0.32694249727E+02  0.69206228383E+02  0.85484494145E+02  0.11474325580E+03  0.00000000000E+00 0. -1.
          3    1    5    5  503    0  0.14351356525E+03 -0.13876551181E+03  0.16954397219E+03  0.26191061296E+03  0.00000000000E+00 0. -1.
         -4    1    5    5    0  503  0.14029946286E+03 -0.47669317753E+02  0.12532224234E+03  0.19406691516E+03  0.00000000000E+00 0.  1.
         -1    1    6    6    0  502 -0.25108184416E+03  0.42848452250E+03  0.90090725066E+03  0.10287249160E+04  0.00000000000E+00 0.  1.
<mgrwt>
<rscale>  0 0.14642011E+04</rscale>
<asrwt>0</asrwt>
<pdfrwt beam="1">  1        1 0.24410583E+00 0.14642011E+04</pdfrwt>
<pdfrwt beam="2">  1       -1 0.51968074E-01 0.14642011E+04</pdfrwt>
<totfact> 0.20610766E+01</totfact>
</mgrwt>
</event>
<event>
12    1  0.1541840E-007  0.1979651E+04  0.7818608E-02  0.8616194E-01
          2   -1    0    0  501    0  0.00000000000E+00  0.00000000000E+00  0.12245683568E+04  0.12245683568E+04  0.00000000000E+00 0.  1.
         -2   -1    0    0    0  501 -0.00000000000E+00 -0.00000000000E+00 -0.80008149038E+03  0.80008149038E+03  0.00000000000E+00 0. -1.
         23    2    1    2    0    0  0.37654682308E+03 -0.66770291192E+03 -0.23361725770E+01  0.77033328565E+03  0.76113236167E+02 0.  0.
        254    2    1    2    0    0 -0.37654682308E+03  0.66770291192E+03  0.42682303901E+03  0.12543165615E+04  0.89639134387E+03 0.  0.
        -24    2    4    4    0    0 -0.14565055135E+03  0.42776675910E+03 -0.22976984968E+03  0.51384161182E+03  0.83907895426E+02 0.  0.
         24    2    4    4    0    0 -0.23089627174E+03  0.23993615281E+03  0.65659288869E+03  0.74047494972E+03  0.79413373988E+02 0.  0.
         11    1    3    3    0    0  0.44231463326E+02 -0.42379949984E+02  0.10097237807E+02  0.62084110044E+02  0.00000000000E+00 0.  1.
        -11    1    3    3    0    0  0.33231535976E+03 -0.62532296193E+03 -0.12433410384E+02  0.70824917560E+03  0.00000000000E+00 0. -1.
          2    1    6    6  502    0 -0.49914891339E+02  0.74080793885E+02  0.25049613539E+03  0.26594693877E+03  0.00000000000E+00 0. -1.
          3    1    5    5  503    0  0.82590428098E+01  0.21345359093E+02 -0.23440823505E+02  0.32761385037E+02  0.00000000000E+00 0. -1.
         -4    1    5    5    0  503 -0.15390959415E+03  0.40642140001E+03 -0.20632902617E+03  0.48108022678E+03  0.00000000000E+00 0.  1.
         -1    1    6    6    0  502 -0.18098138040E+03  0.16585535893E+03  0.40609675330E+03  0.47452801095E+03  0.00000000000E+00 0.  1.
<mgrwt>
<rscale>  0 0.19796510E+04</rscale>
<asrwt>0</asrwt>
<pdfrwt beam="1">  1        2 0.18839513E+00 0.19796510E+04</pdfrwt>
<pdfrwt beam="2">  1       -2 0.12308946E+00 0.19796510E+04</pdfrwt>
<totfact> 0.84940793E+00</totfact>
</mgrwt>
</event>
<event>
12    1  0.1541840E-007  0.1448164E+04  0.7818608E-02  0.8919674E-01
         -2   -1    0    0    0  501 -0.00000000000E+00  0.00000000000E+00  0.48806852257E+03  0.48806852257E+03  0.00000000000E+00 0.  1.
          2   -1    0    0  501    0  0.00000000000E+00 -0.00000000000E+00 -0.10742242154E+04  0.10742242154E+04  0.00000000000E+00 0. -1.
         23    2    1    2    0    0  0.70847857748E+02 -0.29355232171E+03 -0.54910487598E+03  0.63328621542E+03  0.91339374239E+02 0.  0.
        254    2    1    2    0    0 -0.70847857748E+02  0.29355232171E+03 -0.37050816893E+02  0.92900652259E+03  0.87777444225E+03 0.  0.
        -24    2    4    4    0    0  0.49319311110E+02  0.43581461381E+02  0.39561841785E+03  0.40891221224E+03  0.79771715245E+02 0.  0.
         24    2    4    4    0    0 -0.12016716886E+03  0.24997086033E+03 -0.43266923475E+03  0.52009431035E+03  0.79811311733E+02 0.  0.
         11    1    3    3    0    0  0.16733284801E+02 -0.22392460613E+03 -0.35450306413E+03  0.41963633604E+03  0.00000000000E+00 0. -1.
        -11    1    3    3    0    0  0.54114572947E+02 -0.69627715582E+02 -0.19460181185E+03  0.21364987938E+03  0.00000000000E+00 0.  1.
          4    1    6    6  502    0 -0.99094814639E+01  0.13403288089E+02 -0.77881625866E+02  0.79645424238E+02  0.00000000000E+00 0. -1.
          3    1    5    5  503    0  0.33760394249E+02  0.12209421912E+02  0.50160446225E+02  0.61683908507E+02  0.00000000000E+00 0. -1.
         -2    1    5    5    0  503  0.15558916861E+02  0.31372039470E+02  0.34545797163E+03  0.34722830374E+03  0.00000000000E+00 0.  1.
         -3    1    6    6    0  502 -0.11025768739E+03  0.23656757224E+03 -0.35478760888E+03  0.44044888611E+03  0.00000000000E+00 0.  1.
<mgrwt>
<rscale>  0 0.14481644E+04</rscale>
<asrwt>0</asrwt>
<pdfrwt beam="1">  1        2 0.16526526E+00 0.14481644E+04</pdfrwt>
<pdfrwt beam="2">  1       -2 0.75087465E-01 0.14481644E+04</pdfrwt>
<totfact> 0.34924591E+01</totfact>
</mgrwt>
</event>
<event>
12    1  0.1541840E-007  0.1431565E+04  0.7818608E-02  0.8931282E-01
          1   -1    0    0  501    0  0.00000000000E+00  0.00000000000E+00  0.12842124946E+04  0.12842124946E+04  0.00000000000E+00 0. -1.
         -1   -1    0    0    0  501 -0.00000000000E+00 -0.00000000000E+00 -0.39895629963E+03  0.39895629963E+03  0.00000000000E+00 0.  1.
         23    2    1    2    0    0  0.47158915436E+02  0.41232447617E+03  0.17083462700E+03  0.45774212028E+03  0.90044111134E+02 0.  0.
        254    2    1    2    0    0 -0.47158915436E+02 -0.41232447617E+03  0.71442156797E+03  0.12254266739E+04  0.90500658531E+03 0.  0.
        -24    2    4    4    0    0 -0.44398842199E+03 -0.24168032889E+03  0.20031726572E+03  0.54918497673E+03  0.77084573579E+02 0.  0.
         24    2    4    4    0    0  0.39682950656E+03 -0.17064414728E+03  0.51410430224E+03  0.67624169721E+03  0.80040722020E+02 0.  0.
         13    1    3    3    0    0  0.36755039950E+02  0.30781071303E+03  0.83239301677E+02  0.32097842508E+03  0.00000000000E+00 0.  1.
        -13    1    3    3    0    0  0.10403875486E+02  0.10451376313E+03  0.87595325320E+02  0.13676369521E+03  0.00000000000E+00 0. -1.
          4    1    6    6  502    0  0.52821619387E+02 -0.15834677014E+02  0.30866102229E+02  0.63194752453E+02  0.00000000000E+00 0. -1.
          3    1    5    5  503    0 -0.13972161372E+03 -0.91678711729E+02  0.10285185902E+03  0.19622849036E+03  0.00000000000E+00 0. -1.
         -4    1    5    5    0  503 -0.30426680827E+03 -0.15000161716E+03  0.97465406702E+02  0.35295648637E+03  0.00000000000E+00 0.  1.
         -3    1    6    6    0  502  0.34400788717E+03 -0.15480947027E+03  0.48323820002E+03  0.61304694475E+03  0.00000000000E+00 0.  1.
<mgrwt>
<rscale>  0 0.14315651E+04</rscale>
<asrwt>0</asrwt>
<pdfrwt beam="1">  1        1 0.19757115E+00 0.14315651E+04</pdfrwt>
<pdfrwt beam="2">  1       -1 0.61377893E-01 0.14315651E+04</pdfrwt>
<totfact> 0.24311331E+01</totfact>
</mgrwt>
</event>
<event>
12    1  0.1541840E-007  0.1396086E+04  0.7818608E-02  0.8956657E-01
         -2   -1    0    0    0  501 -0.00000000000E+00  0.00000000000E+00  0.18792065327E+03  0.18792065327E+03  0.00000000000E+00 0.  1.
          2   -1    0    0  501    0  0.00000000000E+00 -0.00000000000E+00 -0.25929227814E+04  0.25929227814E+04  0.00000000000E+00 0. -1.
         23    2    1    2    0    0 -0.18311444710E+03  0.20286961239E+03 -0.69953904379E+03  0.75776514015E+03  0.10082734490E+03 0.  0.
        254    2    1    2    0    0  0.18311444710E+03 -0.20286961239E+03 -0.17054630843E+04  0.20230782945E+04  0.10533539165E+04 0.  0.
        -24    2    4    4    0    0 -0.26566195375E+03  0.22940371149E+03 -0.10750400676E+04  0.11337222883E+04  0.80079607931E+02 0.  0.
         24    2    4    4    0    0  0.44877640085E+03 -0.43227332388E+03 -0.63042301670E+03  0.88935600615E+03  0.72528898922E+02 0.  0.
         11    1    3    3    0    0 -0.17444038025E+03  0.14275071384E+03 -0.60249920936E+03  0.64328260496E+03  0.00000000000E+00 0. -1.
        -11    1    3    3    0    0 -0.86740668579E+01  0.60118898553E+02 -0.97039834424E+02  0.11448253519E+03  0.00000000000E+00 0.  1.
          4    1    6    6  502    0  0.48138360199E+02 -0.82080777587E+02 -0.99386456239E+02  0.13759441651E+03  0.00000000000E+00 0. -1.
          1    1    5    5  503    0 -0.13171835804E+03  0.16249716618E+03 -0.58195251492E+03  0.61840422418E+03  0.00000000000E+00 0. -1.
         -2    1    5    5    0  503 -0.13394359571E+03  0.66906545312E+02 -0.49308755268E+03  0.51531806416E+03  0.00000000000E+00 0.  1.
         -1    1    6    6    0  502  0.40063804065E+03 -0.35019254630E+03 -0.53103656046E+03  0.75176158963E+03  0.00000000000E+00 0.  1.
<mgrwt>
<rscale>  0 0.13960856E+04</rscale>
<asrwt>0</asrwt>
<pdfrwt beam="1">  1        2 0.39891118E+00 0.13960856E+04</pdfrwt>
<pdfrwt beam="2">  1       -2 0.28910871E-01 0.13960856E+04</pdfrwt>
<totfact> 0.33012054E+01</totfact>
</mgrwt>
</event>
<event>
12    1  0.1541840E-007  0.2587128E+04  0.7818608E-02  0.8372587E-01
         -2   -1    0    0    0  501 -0.00000000000E+00  0.00000000000E+00  0.88894837932E+03  0.88894837932E+03  0.00000000000E+00 0. -1.
          2   -1    0    0  501    0  0.00000000000E+00 -0.00000000000E+00 -0.18823450999E+04  0.18823450999E+04  0.00000000000E+00 0.  1.
         23    2    1    2    0    0 -0.11193565861E+04 -0.12353098054E+03 -0.59538492914E+03  0.12774097463E+04  0.95254271113E+02 0.  0.
        254    2    1    2    0    0  0.11193565861E+04  0.12353098054E+03 -0.39801179143E+03  0.14938837329E+04  0.89724921369E+03 0.  0.
        -24    2    4    4    0    0  0.27594316797E+03 -0.33678332238E+03 -0.27647518736E+03  0.52208230073E+03  0.81017043495E+02 0.  0.
         24    2    4    4    0    0  0.84341341809E+03  0.46031430292E+03 -0.12153660407E+03  0.97180143219E+03  0.79946395684E+02 0.  0.
         13    1    3    3    0    0 -0.43919911659E+03 -0.73390691230E+02 -0.28007127381E+03  0.52604370160E+03  0.00000000000E+00 0. -1.
        -13    1    3    3    0    0 -0.68015746947E+03 -0.50140289309E+02 -0.31531365533E+03  0.75136604470E+03  0.00000000000E+00 0.  1.
          4    1    6    6  502    0  0.20280537883E+03  0.12504128679E+03 -0.62727422196E+02  0.24637385125E+03  0.00000000000E+00 0. -1.
          1    1    5    5  503    0  0.18878932504E+03 -0.20235715142E+03 -0.21514178014E+03  0.35053646249E+03  0.00000000000E+00 0. -1.
         -2    1    5    5    0  503  0.87153842932E+02 -0.13442617096E+03 -0.61333407221E+02  0.17154583824E+03  0.00000000000E+00 0.  1.
         -1    1    6    6    0  502  0.64060803927E+03  0.33527301613E+03 -0.58809181877E+02  0.72542758094E+03  0.00000000000E+00 0.  1.
<mgrwt>
<rscale>  0 0.25871278E+04</rscale>
<asrwt>0</asrwt>
<pdfrwt beam="1">  1        2 0.28959155E+00 0.25871278E+04</pdfrwt>
<pdfrwt beam="2">  1       -2 0.13676129E+00 0.25871278E+04</pdfrwt>
<totfact> 0.26248808E+00</totfact>
</mgrwt>
</event>
<event>
12    1  0.1541840E-007  0.1384845E+04  0.7818608E-02  0.8964862E-01
         -2   -1    0    0    0  501 -0.00000000000E+00  0.00000000000E+00  0.88595254962E+03  0.88595254962E+03  0.00000000000E+00 0.  1.
          2   -1    0    0  501    0  0.00000000000E+00 -0.00000000000E+00 -0.54116769516E+03  0.54116769516E+03  0.00000000000E+00 0. -1.
         23    2    1    2    0    0  0.84398636585E+01  0.14486486040E+03  0.47723675623E+03  0.50699365959E+03  0.90722600815E+02 0.  0.
        254    2    1    2    0    0 -0.84398636585E+01 -0.14486486040E+03 -0.13245190177E+03  0.92012658519E+03  0.89890620612E+03 0.  0.
        -24    2    4    4    0    0  0.41957613078E+03 -0.19183409990E+03 -0.28174481980E+02  0.46988287481E+03  0.84567506726E+02 0.  0.
         24    2    4    4    0    0 -0.42801599444E+03  0.46969239508E+02 -0.10427741979E+03  0.45024371038E+03  0.80260933824E+02 0.  0.
         11    1    3    3    0    0  0.48347486359E+02  0.77477759820E+02  0.28991886188E+03  0.30396254569E+03  0.00000000000E+00 0.  1.
        -11    1    3    3    0    0 -0.39907622700E+02  0.67387100576E+02  0.18731789434E+03  0.20303111391E+03  0.00000000000E+00 0. -1.
          4    1    6    6  502    0 -0.41547963078E+03  0.29553934251E+02 -0.98381432070E+02  0.42799026250E+03  0.00000000000E+00 0. -1.
          1    1    5    5  503    0  0.38535436023E+03 -0.19442073009E+03 -0.40265417202E+02  0.43349591354E+03  0.00000000000E+00 0. -1.
         -2    1    5    5    0  503  0.34221770559E+02  0.25866301842E+01  0.12090935222E+02  0.36386961270E+02  0.00000000000E+00 0.  1.
         -3    1    6    6    0  502 -0.12536363663E+02  0.17415305256E+02 -0.58959877220E+01  0.22253447874E+02  0.00000000000E+00 0.  1.
<mgrwt>
<rscale>  0 0.13848450E+04</rscale>
<asrwt>0</asrwt>
<pdfrwt beam="1">  1        2 0.83256569E-01 0.13848450E+04</pdfrwt>
<pdfrwt beam="2">  1       -2 0.13630039E+00 0.13848450E+04</pdfrwt>
<totfact> 0.21035785E+01</totfact>
</mgrwt>
</event>
<event>
12    1  0.1541840E-007  0.1311146E+04  0.7818608E-02  0.9020773E-01
         -2   -1    0    0    0  501 -0.00000000000E+00  0.00000000000E+00  0.10097831418E+04  0.10097831418E+04  0.00000000000E+00 0. -1.
          2   -1    0    0  501    0  0.00000000000E+00 -0.00000000000E+00 -0.42561213608E+03  0.42561213608E+03  0.00000000000E+00 0.  1.
         23    2    1    2    0    0  0.16030544062E+03 -0.24561663926E+03 -0.16016912114E+02  0.30801256624E+03  0.92681345018E+02 0.  0.
        254    2    1    2    0    0 -0.16030544062E+03  0.24561663926E+03  0.60018791786E+03  0.11273827117E+04  0.90815245089E+03 0.  0.
        -24    2    4    4    0    0  0.21375873729E+03  0.18972898758E+01  0.63393848244E+03  0.67379242169E+03  0.80136324618E+02 0.  0.
         24    2    4    4    0    0 -0.37406417791E+03  0.24371934938E+03 -0.33750564585E+02  0.45359028999E+03  0.72676819572E+02 0.  0.
         11    1    3    3    0    0 -0.37227242583E+01 -0.57109403963E+02  0.37375709314E+01  0.57352525083E+02  0.00000000000E+00 0. -1.
        -11    1    3    3    0    0  0.16402816488E+03 -0.18850723529E+03 -0.19754483046E+02  0.25066004115E+03  0.00000000000E+00 0.  1.
          4    1    6    6  502    0 -0.29793233632E+02  0.79079611810E+01  0.13468655511E+02  0.33638925392E+02  0.00000000000E+00 0. -1.
          1    1    5    5  503    0 -0.50953259167E+01  0.50226699675E+01  0.43623558740E+02  0.44206384572E+02  0.00000000000E+00 0. -1.
         -2    1    5    5    0  503  0.21885406321E+03 -0.31253800917E+01  0.59031492371E+03  0.62958603712E+03  0.00000000000E+00 0.  1.
         -3    1    6    6    0  502 -0.34427094428E+03  0.23581138820E+03 -0.47219220095E+02  0.41995136459E+03  0.00000000000E+00 0.  1.
<mgrwt>
<rscale>  0 0.13111460E+04</rscale>
<asrwt>0</asrwt>
<pdfrwt beam="1">  1        2 0.65478790E-01 0.13111460E+04</pdfrwt>
<pdfrwt beam="2">  1       -2 0.15535125E+00 0.13111460E+04</pdfrwt>
<totfact> 0.19785555E+01</totfact>
</mgrwt>
</event>
<event>
12    1  0.1541840E-007  0.1768051E+04  0.7818608E-02  0.8723477E-01
          1   -1    0    0  501    0  0.00000000000E+00  0.00000000000E+00  0.16521576593E+04  0.16521576593E+04  0.00000000000E+00 0. -1.
         -1   -1    0    0    0  501 -0.00000000000E+00 -0.00000000000E+00 -0.47301833474E+03  0.47301833474E+03  0.00000000000E+00 0.  1.
         23    2    1    2    0    0 -0.36491867097E+03 -0.42022705670E+03  0.37692060319E+02  0.56500326194E+03  0.89730591101E+02 0.  0.
        254    2    1    2    0    0  0.36491867097E+03  0.42022705670E+03  0.11414472643E+04  0.15601727321E+04  0.90635571459E+03 0.  0.
        -24    2    4    4    0    0  0.35104993209E+03  0.14739966867E+03  0.12069069305E+04  0.12680531159E+04  0.79822606378E+02 0.  0.
         24    2    4    4    0    0  0.13868738881E+02  0.27282738804E+03 -0.65459666286E+02  0.29211961627E+03  0.80135988917E+02 0.  0.
         13    1    3    3    0    0 -0.23452205120E+03 -0.25839118895E+03 -0.19345819419E+02  0.34948656591E+03  0.00000000000E+00 0. -1.
        -13    1    3    3    0    0 -0.13039661977E+03 -0.16183586776E+03  0.57037879737E+02  0.21551669602E+03  0.00000000000E+00 0.  1.
          2    1    6    6  502    0 -0.12637939092E+02  0.23886712586E+03 -0.68831666999E+02  0.24890765297E+03  0.00000000000E+00 0. -1.
          3    1    5    5  503    0  0.32009575926E+03  0.13412536865E+03  0.10021568048E+04  0.10605513524E+04  0.00000000000E+00 0. -1.
         -4    1    5    5    0  503  0.30954172835E+02  0.13274300017E+02  0.20475012573E+03  0.20750176347E+03  0.00000000000E+00 0.  1.
         -1    1    6    6    0  502  0.26506677973E+02  0.33960262172E+02  0.33720007132E+01  0.43211963306E+02  0.00000000000E+00 0.  1.
<mgrwt>
<rscale>  0 0.17680508E+04</rscale>
<asrwt>0</asrwt>
<pdfrwt beam="1">  1        1 0.25417810E+00 0.17680508E+04</pdfrwt>
<pdfrwt beam="2">  1       -1 0.72772052E-01 0.17680508E+04</pdfrwt>
<totfact> 0.92572263E+00</totfact>
</mgrwt>
</event>
<event>
12    1  0.1541840E-007  0.1600353E+04  0.7818608E-02  0.8820331E-01
         -2   -1    0    0    0  501 -0.00000000000E+00  0.00000000000E+00  0.43489555886E+03  0.43489555886E+03  0.00000000000E+00 0.  1.
          2   -1    0    0  501    0  0.00000000000E+00 -0.00000000000E+00 -0.14722677048E+04  0.14722677048E+04  0.00000000000E+00 0. -1.
         23    2    1    2    0    0 -0.12181899213E+03  0.29337672099E+03 -0.85409944936E+03  0.91582933520E+03  0.91365937565E+02 0.  0.
        254    2    1    2    0    0  0.12181899213E+03 -0.29337672099E+03 -0.18327269658E+03  0.99133392847E+03  0.92100179650E+03 0.  0.
        -24    2    4    4    0    0  0.18564534512E+02 -0.54739426364E+03 -0.35511604341E+03  0.65783220073E+03  0.81551690434E+02 0.  0.
         24    2    4    4    0    0  0.10325445762E+03  0.25401754265E+03  0.17184334684E+03  0.33350172774E+03  0.80665181842E+02 0.  0.
         11    1    3    3    0    0 -0.85532942542E+02  0.22375295098E+03 -0.51836906718E+03  0.57104094174E+03  0.00000000000E+00 0. -1.
        -11    1    3    3    0    0 -0.36286049586E+02  0.69623770012E+02 -0.33573038218E+03  0.34478839346E+03  0.00000000000E+00 0.  1.
          4    1    6    6  502    0  0.64028989084E+02  0.72759388060E+02  0.35083637826E+02  0.10307522320E+03  0.00000000000E+00 0. -1.
          3    1    5    5  503    0 -0.30220393501E+02 -0.15753841440E+03 -0.91174496758E+02  0.18451128164E+03  0.00000000000E+00 0. -1.
         -4    1    5    5    0  503  0.48784928013E+02 -0.38985584925E+03 -0.26394154666E+03  0.47332091909E+03  0.00000000000E+00 0.  1.
         -3    1    6    6    0  502  0.39225468532E+02  0.18125815459E+03  0.13675970901E+03  0.23042650455E+03  0.00000000000E+00 0.  1.
<mgrwt>
<rscale>  0 0.16003533E+04</rscale>
<asrwt>0</asrwt>
<pdfrwt beam="1">  1        2 0.22650272E+00 0.16003533E+04</pdfrwt>
<pdfrwt beam="2">  1       -2 0.66907009E-01 0.16003533E+04</pdfrwt>
<totfact> 0.25882542E+01</totfact>
</mgrwt>
</event>
<event>
12    1  0.1541840E-007  0.2437451E+04  0.7818608E-02  0.8425614E-01
          2   -1    0    0  501    0  0.00000000000E+00  0.00000000000E+00  0.13859081038E+04  0.13859081038E+04  0.00000000000E+00 0. -1.
         -2   -1    0    0    0  501 -0.00000000000E+00 -0.00000000000E+00 -0.10717103019E+04  0.10717103019E+04  0.00000000000E+00 0.  1.
         23    2    1    2    0    0 -0.53131672035E+03 -0.31229157158E+03 -0.72504488236E+03  0.95549716200E+03  0.86378597679E+02 0.  0.
        254    2    1    2    0    0  0.53131672035E+03  0.31229157158E+03  0.10392426843E+04  0.15021212437E+04  0.89247935052E+03 0.  0.
        -24    2    4    4    0    0  0.74933334957E+03  0.10837199928E+03  0.84217868734E+03  0.11354942992E+04  0.82688591040E+02 0.  0.
         24    2    4    4    0    0 -0.21801662921E+03  0.20391957231E+03  0.19706399692E+03  0.36662694455E+03  0.80415514708E+02 0.  0.
         13    1    3    3    0    0 -0.18892707141E+03 -0.11519378297E+03 -0.19882012653E+03  0.29747687080E+03  0.00000000000E+00 0. -1.
        -13    1    3    3    0    0 -0.34238964894E+03 -0.19709778861E+03 -0.52622475583E+03  0.65802029120E+03  0.00000000000E+00 0.  1.
          4    1    6    6  502    0 -0.86720293723E+02  0.10070468454E+03  0.43740461699E+02  0.13991093889E+03  0.00000000000E+00 0. -1.
          1    1    5    5  503    0  0.40370238272E+03  0.63701269111E+02  0.51511793096E+03  0.65755604194E+03  0.00000000000E+00 0. -1.
         -2    1    5    5    0  503  0.34563096685E+03  0.44670730167E+02  0.32706075637E+03  0.47793825725E+03  0.00000000000E+00 0.  1.
         -3    1    6    6    0  502 -0.13129633549E+03  0.10321488777E+03  0.15332353522E+03  0.22671600566E+03  0.00000000000E+00 0.  1.
<mgrwt>
<rscale>  0 0.24374511E+04</rscale>
<asrwt>0</asrwt>
<pdfrwt beam="1">  1        2 0.21321663E+00 0.24374511E+04</pdfrwt>
<pdfrwt beam="2">  1       -2 0.16487851E+00 0.24374511E+04</pdfrwt>
<totfact> 0.30664297E+00</totfact>
</mgrwt>
</event>
<event>
12    1  0.1541840E-007  0.1848767E+04  0.7818608E-02  0.8680787E-01
          1   -1    0    0  501    0  0.00000000000E+00  0.00000000000E+00  0.13186957733E+04  0.13186957733E+04  0.00000000000E+00 0. -1.
         -1   -1    0    0    0  501 -0.00000000000E+00 -0.00000000000E+00 -0.64797703137E+03  0.64797703137E+03  0.00000000000E+00 0.  1.
         23    2    1    2    0    0 -0.37296284691E+03  0.57132459379E+03  0.47621437115E+03  0.83726347978E+03  0.93364504179E+02 0.  0.
        254    2    1    2    0    0  0.37296284691E+03 -0.57132459379E+03  0.19450437077E+03  0.11294093249E+04  0.87876071614E+03 0.  0.
        -24    2    4    4    0    0  0.53300015186E+03 -0.33199777071E+03 -0.17292837508E+03  0.65583518754E+03  0.76836766335E+02 0.  0.
         24    2    4    4    0    0 -0.16003730495E+03 -0.23932682308E+03  0.36743274585E+03  0.47357413734E+03  0.79852198588E+02 0.  0.
         11    1    3    3    0    0 -0.27726853083E+03  0.40659373430E+03  0.29191767928E+03  0.57219947085E+03  0.00000000000E+00 0.  1.
        -11    1    3    3    0    0 -0.95694316087E+02  0.16473085948E+03  0.18429669187E+03  0.26506400893E+03  0.00000000000E+00 0. -1.
          4    1    6    6  502    0 -0.85022222861E+02 -0.11479986898E+03  0.11988022068E+03  0.18649143575E+03  0.00000000000E+00 0. -1.
          3    1    5    5  503    0  0.12992030586E+03 -0.64615083812E+02 -0.10058301429E+02  0.14544952512E+03  0.00000000000E+00 0. -1.
         -4    1    5    5    0  503  0.40307984600E+03 -0.26738268689E+03 -0.16287007365E+03  0.51038566241E+03  0.00000000000E+00 0.  1.
         -3    1    6    6    0  502 -0.75015082090E+02 -0.12452695410E+03  0.24755252516E+03  0.28708270159E+03  0.00000000000E+00 0.  1.
<mgrwt>
<rscale>  0 0.18487667E+04</rscale>
<asrwt>0</asrwt>
<pdfrwt beam="1">  1        1 0.20287627E+00 0.18487667E+04</pdfrwt>
<pdfrwt beam="2">  1       -1 0.99688775E-01 0.18487667E+04</pdfrwt>
<totfact> 0.79129042E+00</totfact>
</mgrwt>
</event>
<event>
12    1  0.1541840E-007  0.1882955E+04  0.7818608E-02  0.8663388E-01
          2   -1    0    0  501    0  0.00000000000E+00  0.00000000000E+00  0.76817144609E+03  0.76817144609E+03  0.00000000000E+00 0. -1.
         -2   -1    0    0    0  501 -0.00000000000E+00 -0.00000000000E+00 -0.11538829328E+04  0.11538829328E+04  0.00000000000E+00 0.  1.
         23    2    1    2    0    0  0.56277257331E+03  0.37099008447E+03  0.11096328633E+03  0.68916844037E+03  0.91069623046E+02 0.  0.
        254    2    1    2    0    0 -0.56277257331E+03 -0.37099008447E+03 -0.49667477303E+03  0.12328859385E+04  0.90497253835E+03 0.  0.
        -24    2    4    4    0    0 -0.55032997395E+03  0.89328079129E+02 -0.51860505131E+03  0.76487585086E+03  0.72396699081E+02 0.  0.
         24    2    4    4    0    0 -0.12442599361E+02 -0.46031816360E+03  0.21930278275E+02  0.46801008765E+03  0.80652805397E+02 0.  0.
         11    1    3    3    0    0  0.28210260469E+03  0.15773693378E+03  0.92533213507E+02  0.33619222991E+03  0.00000000000E+00 0. -1.
        -11    1    3    3    0    0  0.28066996863E+03  0.21325315069E+03  0.18430072828E+02  0.35297621047E+03  0.00000000000E+00 0.  1.
          4    1    6    6  502    0  0.12876226068E+02 -0.39596814285E+03  0.34681306186E+02  0.39769254500E+03  0.00000000000E+00 0. -1.
          3    1    5    5  503    0 -0.52011528055E+03  0.99249718154E+02 -0.49860087156E+03  0.72730546591E+03  0.00000000000E+00 0. -1.
         -4    1    5    5    0  503 -0.30214693404E+02 -0.99216390252E+01 -0.20004179746E+02  0.37570384956E+02  0.00000000000E+00 0.  1.
         -3    1    6    6    0  502 -0.25318825429E+02 -0.64350020753E+02 -0.12751027911E+02  0.70317542654E+02  0.00000000000E+00 0.  1.
<mgrwt>
<rscale>  0 0.18829550E+04</rscale>
<asrwt>0</asrwt>
<pdfrwt beam="1">  1        2 0.11818022E+00 0.18829550E+04</pdfrwt>
<pdfrwt beam="2">  1       -2 0.17752045E+00 0.18829550E+04</pdfrwt>
<totfact> 0.64270786E+00</totfact>
</mgrwt>
</event>
<event>
12    1  0.2521787E-007  0.1634223E+04  0.7818608E-02  0.8799795E-01
          2   -1    0    0  501    0  0.00000000000E+00  0.00000000000E+00  0.19284650850E+04  0.19284650850E+04  0.00000000000E+00 0.  1.
         -2   -1    0    0    0  501 -0.00000000000E+00 -0.00000000000E+00 -0.34621895075E+03  0.34621895075E+03  0.00000000000E+00 0. -1.
         23    2    1    2    0    0  0.18526740815E+02  0.47767694445E+03  0.93372751292E+03  0.10527119722E+04  0.88526406256E+02 0.  0.
        254    2    1    2    0    0 -0.18526740815E+02 -0.47767694445E+03  0.64851862137E+03  0.12219720636E+04  0.91876047945E+03 0.  0.
        -24    2    4    4    0    0  0.23094238236E+03 -0.17820239530E+03  0.75212486586E+03  0.81104501604E+03  0.83736052799E+02 0.  0.
         24    2    4    4    0    0 -0.24946912318E+03 -0.29947454916E+03 -0.10360624449E+03  0.41092704758E+03  0.78784107037E+02 0.  0.
         13    1    3    3    0    0 -0.12465583711E+02  0.39316015048E+02  0.43616264828E+02  0.60029312623E+02  0.00000000000E+00 0. -1.
        -13    1    3    3    0    0  0.30992324526E+02  0.43836092940E+03  0.89011124809E+03  0.99268265955E+03  0.00000000000E+00 0.  1.
          4    1    6    6  502    0 -0.23439510201E+03 -0.29716812840E+03 -0.11036545312E+03  0.39424674206E+03  0.00000000000E+00 0. -1.
          1    1    5    5  503    0  0.21335566800E+03 -0.16682228664E+03  0.73705755934E+03  0.78524146743E+03  0.00000000000E+00 0. -1.
         -2    1    5    5    0  503  0.17586714365E+02 -0.11380108659E+02  0.15067306517E+02  0.25803548611E+02  0.00000000000E+00 0.  1.
         -3    1    6    6    0  502 -0.15074021168E+02 -0.23064207612E+01  0.67592086320E+01  0.16680305520E+02  0.00000000000E+00 0.  1.
<mgrwt>
<rscale>  0 0.16342229E+04</rscale>
<asrwt>0</asrwt>
<pdfrwt beam="1">  1        2 0.29668693E+00 0.16342229E+04</pdfrwt>
<pdfrwt beam="2">  1       -2 0.53264455E-01 0.16342229E+04</pdfrwt>
<totfact> 0.23271296E+01</totfact>
</mgrwt>
</event>
<event>
12    1  0.1541840E-007  0.2411361E+04  0.7818608E-02  0.8435262E-01
          2   -1    0    0  501    0  0.00000000000E+00  0.00000000000E+00  0.15475574612E+04  0.15475574612E+04  0.00000000000E+00 0.  1.
         -2   -1    0    0    0  501 -0.00000000000E+00 -0.00000000000E+00 -0.93932870120E+03  0.93932870120E+03  0.00000000000E+00 0. -1.
         23    2    1    2    0    0  0.53315364304E+03  0.27420878512E+03 -0.60895169784E+03  0.85914186284E+03  0.88652722756E+02 0.  0.
        254    2    1    2    0    0 -0.53315364304E+03 -0.27420878512E+03  0.12171804578E+04  0.16277442995E+04  0.89921074997E+03 0.  0.
        -24    2    4    4    0    0 -0.49546961906E+03  0.19458928007E+03  0.36346873821E+03  0.64978412270E+03  0.82187292974E+02 0.  0.
         24    2    4    4    0    0 -0.37684023979E+02 -0.46879806519E+03  0.85371171960E+03  0.97796017683E+03  0.79941826966E+02 0.  0.
         11    1    3    3    0    0  0.44399571223E+03  0.22605529431E+03 -0.45433998961E+03  0.67428333415E+03  0.00000000000E+00 0. -1.
        -11    1    3    3    0    0  0.89157930812E+02  0.48153490813E+02 -0.15461170823E+03  0.18485852868E+03  0.00000000000E+00 0.  1.
          4    1    6    6  502    0 -0.37933172292E+02 -0.10499041199E+03  0.23610993577E+03  0.26117008623E+03  0.00000000000E+00 0. -1.
          1    1    5    5  503    0 -0.22041634939E+03  0.13061415592E+03  0.17060652925E+03  0.30781489995E+03  0.00000000000E+00 0. -1.
         -2    1    5    5    0  503 -0.27505326967E+03  0.63975124146E+02  0.19286220896E+03  0.34196922275E+03  0.00000000000E+00 0.  1.
         -3    1    6    6    0  502  0.24914831312E+00 -0.36380765320E+03  0.61760178383E+03  0.71679009060E+03  0.00000000000E+00 0.  1.
<mgrwt>
<rscale>  0 0.24113607E+04</rscale>
<asrwt>0</asrwt>
<pdfrwt beam="1">  1        2 0.23808576E+00 0.24113607E+04</pdfrwt>
<pdfrwt beam="2">  1       -2 0.14451211E+00 0.24113607E+04</pdfrwt>
<totfact> 0.35449542E+00</totfact>
</mgrwt>
</event>
<event>
12    1  0.1541840E-007  0.1704107E+04  0.7818608E-02  0.8759025E-01
         -2   -1    0    0    0  501 -0.00000000000E+00  0.00000000000E+00  0.31098396771E+03  0.31098396771E+03  0.00000000000E+00 0. -1.
          2   -1    0    0  501    0  0.00000000000E+00 -0.00000000000E+00 -0.23345101394E+04  0.23345101394E+04  0.00000000000E+00 0.  1.
         23    2    1    2    0    0 -0.40734915640E+03 -0.40410647147E+03 -0.41423522138E+03  0.71372290822E+03  0.92596952361E+02 0.  0.
        254    2    1    2    0    0  0.40734915640E+03  0.40410647147E+03 -0.16092909503E+04  0.19317711989E+04  0.90149166753E+03 0.  0.
        -24    2    4    4    0    0  0.14166182135E+03  0.51136396182E+03 -0.35686655683E+03  0.64457711181E+03  0.81023086885E+02 0.  0.
         24    2    4    4    0    0  0.26568733505E+03 -0.10725749036E+03 -0.12524243935E+04  0.12871940871E+04  0.78789765703E+02 0.  0.
         13    1    3    3    0    0 -0.20641638897E+03 -0.22391029798E+03 -0.27356307105E+03  0.40936573014E+03  0.00000000000E+00 0.  1.
        -13    1    3    3    0    0 -0.20093276744E+03 -0.18019617349E+03 -0.14067215033E+03  0.30435717808E+03  0.00000000000E+00 0. -1.
          4    1    6    6  502    0  0.10150847327E+03 -0.43907548433E+02 -0.32729318237E+03  0.34547455794E+03  0.00000000000E+00 0. -1.
          1    1    5    5  503    0  0.13638658974E+02  0.18374335842E+03 -0.13932386437E+03  0.23099518169E+03  0.00000000000E+00 0. -1.
         -2    1    5    5    0  503  0.12802316237E+03  0.32762060341E+03 -0.21754269246E+03  0.41358193012E+03  0.00000000000E+00 0.  1.
         -3    1    6    6    0  502  0.16417886179E+03 -0.63349941924E+02 -0.92513121114E+03  0.94171952917E+03  0.00000000000E+00 0.  1.
<mgrwt>
<rscale>  0 0.17041071E+04</rscale>
<asrwt>0</asrwt>
<pdfrwt beam="1">  1        2 0.35915540E+00 0.17041071E+04</pdfrwt>
<pdfrwt beam="2">  1       -2 0.47843687E-01 0.17041071E+04</pdfrwt>
<totfact> 0.17078404E+01</totfact>
</mgrwt>
</event>
<event>
12    1  0.1541840E-007  0.1697968E+04  0.7818608E-02  0.8762524E-01
         -2   -1    0    0    0  501 -0.00000000000E+00  0.00000000000E+00  0.10832653531E+04  0.10832653531E+04  0.00000000000E+00 0.  1.
          2   -1    0    0  501    0  0.00000000000E+00 -0.00000000000E+00 -0.66537181915E+03  0.66537181915E+03  0.00000000000E+00 0. -1.
         23    2    1    2    0    0  0.16183858746E+03  0.57280416484E+03  0.32794732755E+03  0.68578498810E+03  0.91952491048E+02 0.  0.
        254    2    1    2    0    0 -0.16183858746E+03 -0.57280416484E+03  0.89946206443E+02  0.10628521842E+04  0.87593841435E+03 0.  0.
        -24    2    4    4    0    0 -0.41829098681E+03 -0.29850754355E+03 -0.22452315950E+03  0.56654894949E+03  0.80578904289E+02 0.  0.
         24    2    4    4    0    0  0.25645239935E+03 -0.27429662129E+03  0.31446936595E+03  0.49630323470E+03  0.80121464464E+02 0.  0.
         11    1    3    3    0    0  0.61426032435E+02  0.32290750147E+03  0.13944390677E+03  0.35705323847E+03  0.00000000000E+00 0.  1.
        -11    1    3    3    0    0  0.10041255503E+03  0.24989666337E+03  0.18850342078E+03  0.32873174963E+03  0.00000000000E+00 0. -1.
          4    1    6    6  502    0 -0.36430959557E+01 -0.14865362404E+02  0.54260265987E+01  0.16238624086E+02  0.00000000000E+00 0. -1.
          1    1    5    5  503    0 -0.99663493227E+02 -0.46724699419E+02 -0.77645528119E+02  0.13470277449E+03  0.00000000000E+00 0. -1.
         -2    1    5    5    0  503 -0.31862749358E+03 -0.25178284413E+03 -0.14687763138E+03  0.43184617501E+03  0.00000000000E+00 0.  1.
         -3    1    6    6    0  502  0.26009549530E+03 -0.25943125889E+03  0.30904333935E+03  0.48006461061E+03  0.00000000000E+00 0.  1.
<mgrwt>
<rscale>  0 0.16979685E+04</rscale>
<asrwt>0</asrwt>
<pdfrwt beam="1">  1        2 0.10236490E+00 0.16979685E+04</pdfrwt>
<pdfrwt beam="2">  1       -2 0.16665621E+00 0.16979685E+04</pdfrwt>
<totfact> 0.93541790E+00</totfact>
</mgrwt>
</event>
<event>
12    1  0.1541840E-007  0.1226973E+04  0.7818608E-02  0.9089569E-01
         -2   -1    0    0    0  501 -0.00000000000E+00  0.00000000000E+00  0.42689627879E+03  0.42689627879E+03  0.00000000000E+00 0.  1.
          2   -1    0    0  501    0  0.00000000000E+00 -0.00000000000E+00 -0.88163237706E+03  0.88163237706E+03  0.00000000000E+00 0. -1.
         23    2    1    2    0    0  0.10365396011E+02  0.10591347259E+03  0.17254612270E+03  0.22125306745E+03  0.88632106394E+02 0.  0.
        254    2    1    2    0    0 -0.10365396011E+02 -0.10591347259E+03 -0.62728222098E+03  0.10872755884E+04  0.88168027952E+03 0.  0.
        -24    2    4    4    0    0  0.56197612209E+01  0.86278555741E+02  0.20149513225E+03  0.23258333727E+03  0.77583178321E+02 0.  0.
         24    2    4    4    0    0 -0.15985157232E+02 -0.19219202833E+03 -0.82877735322E+03  0.85469225114E+03  0.80209986511E+02 0.  0.
         13    1    3    3    0    0 -0.27474173542E+02  0.53508946533E+02  0.13171340982E+03  0.14479799687E+03  0.00000000000E+00 0.  1.
        -13    1    3    3    0    0  0.37839569553E+02  0.52404526059E+02  0.40832712880E+02  0.76455070574E+02  0.00000000000E+00 0. -1.
          4    1    6    6  502    0  0.22665333791E+02 -0.14829768176E+03 -0.57296391852E+03  0.59227828906E+03  0.00000000000E+00 0. -1.
          1    1    5    5  503    0  0.94016352384E+01  0.10075632119E+03  0.17454534951E+03  0.20175803835E+03  0.00000000000E+00 0. -1.
         -2    1    5    5    0  503 -0.37818740175E+01 -0.14477765450E+02  0.26949782740E+02  0.30825298916E+02  0.00000000000E+00 0.  1.
         -3    1    6    6    0  502 -0.38650491022E+02 -0.43894346571E+02 -0.25581343471E+03  0.26241396208E+03  0.00000000000E+00 0.  1.
<mgrwt>
<rscale>  0 0.12269728E+04</rscale>
<asrwt>0</asrwt>
<pdfrwt beam="1">  1        2 0.13563575E+00 0.12269728E+04</pdfrwt>
<pdfrwt beam="2">  1       -2 0.65676350E-01 0.12269728E+04</pdfrwt>
<totfact> 0.63485936E+01</totfact>
</mgrwt>
</event>
<event>
12    1  0.2503677E-007  0.3906500E+04  0.7818608E-02  0.8023679E-01
          2   -1    0    0  501    0  0.00000000000E+00  0.00000000000E+00  0.16535485025E+04  0.16535485025E+04  0.00000000000E+00 0.  1.
         -2   -1    0    0    0  501 -0.00000000000E+00 -0.00000000000E+00 -0.23072714639E+04  0.23072714639E+04  0.00000000000E+00 0. -1.
         23    2    1    2    0    0  0.10900172461E+04  0.14555756924E+03 -0.17894009105E+04  0.21023142520E+04  0.91896641440E+02 0.  0.
        254    2    1    2    0    0 -0.10900172461E+04 -0.14555756924E+03  0.11356779492E+04  0.18585057144E+04  0.97721772568E+03 0.  0.
        -24    2    4    4    0    0  0.11353643376E+03 -0.44289040484E+02  0.43655909258E+03  0.46031678175E+03  0.80347105433E+02 0.  0.
         24    2    4    4    0    0 -0.12035536799E+04 -0.10126852876E+03  0.69911885657E+03  0.13981889326E+04  0.85839037809E+02 0.  0.
         13    1    3    3    0    0  0.98023694799E+03  0.11248820544E+03 -0.15596075342E+04  0.18455063618E+04  0.00000000000E+00 0. -1.
        -13    1    3    3    0    0  0.10978029816E+03  0.33069363805E+02 -0.22979337631E+03  0.25680789022E+03  0.00000000000E+00 0.  1.
          4    1    6    6  502    0 -0.15301897439E+03 -0.72067985024E+01  0.12235244590E+03  0.19605322105E+03  0.00000000000E+00 0. -1.
          1    1    5    5  503    0  0.35351599411E+01  0.25021287829E+01 -0.26857885027E+01  0.50962205738E+01  0.00000000000E+00 0. -1.
         -4    1    5    5    0  503  0.11000127382E+03 -0.46791169267E+02  0.43924488108E+03  0.45522056118E+03  0.00000000000E+00 0.  1.
         -3    1    6    6    0  502 -0.10505347055E+04 -0.94061730258E+02  0.57676641068E+03  0.12021357116E+04  0.00000000000E+00 0.  1.
<mgrwt>
<rscale>  0 0.39064999E+04</rscale>
<asrwt>0</asrwt>
<pdfrwt beam="1">  1        2 0.25439208E+00 0.39064999E+04</pdfrwt>
<pdfrwt beam="2">  1       -2 0.35496484E+00 0.39064999E+04</pdfrwt>
<totfact> 0.11971472E-01</totfact>
</mgrwt>
</event>
<event>
12    1  0.1541840E-007  0.1867871E+04  0.7818608E-02  0.8671016E-01
          1   -1    0    0  501    0  0.00000000000E+00  0.00000000000E+00  0.91825527276E+03  0.91825527276E+03  0.00000000000E+00 0. -1.
         -1   -1    0    0    0  501 -0.00000000000E+00 -0.00000000000E+00 -0.94988353476E+03  0.94988353476E+03  0.00000000000E+00 0.  1.
         23    2    1    2    0    0 -0.26847951024E+03 -0.64915367072E+03  0.63472942244E+02  0.71099238569E+03  0.89440608684E+02 0.  0.
        254    2    1    2    0    0  0.26847951024E+03  0.64915367072E+03 -0.95101204242E+02  0.11571464218E+04  0.91458289229E+03 0.  0.
        -24    2    4    4    0    0  0.42346534180E+03  0.80483478215E+03 -0.12362074688E+03  0.92127587845E+03  0.79907652292E+02 0.  0.
         24    2    4    4    0    0 -0.15498583156E+03 -0.15568111143E+03  0.28519542638E+02  0.23587054337E+03  0.81020568241E+02 0.  0.
         13    1    3    3    0    0 -0.89675699831E+02 -0.20828630855E+03 -0.21237582467E+02  0.22776293021E+03  0.00000000000E+00 0. -1.
        -13    1    3    3    0    0 -0.17880381041E+03 -0.44086736217E+03  0.84710524711E+02  0.48322945548E+03  0.00000000000E+00 0.  1.
          4    1    6    6  502    0 -0.81114703555E+02 -0.12964777964E+03  0.36239179393E+02  0.15716685408E+03  0.00000000000E+00 0. -1.
          3    1    5    5  503    0  0.76675075542E+02  0.21857769278E+03 -0.38920890825E+02  0.23488318530E+03  0.00000000000E+00 0. -1.
         -4    1    5    5    0  503  0.34679026626E+03  0.58625708937E+03 -0.84699856054E+02  0.68639269316E+03  0.00000000000E+00 0.  1.
         -1    1    6    6    0  502 -0.73871128002E+02 -0.26033331792E+02 -0.77196367553E+01  0.78703689291E+02  0.00000000000E+00 0.  1.
<mgrwt>
<rscale>  0 0.18678710E+04</rscale>
<asrwt>0</asrwt>
<pdfrwt beam="1">  1        1 0.14127004E+00 0.18678710E+04</pdfrwt>
<pdfrwt beam="2">  1       -1 0.14613593E+00 0.18678710E+04</pdfrwt>
<totfact> 0.61733280E+00</totfact>
</mgrwt>
</event>
<event>
12    1  0.1541840E-007  0.2923230E+04  0.7818608E-02  0.8265999E-01
          2   -1    0    0  501    0  0.00000000000E+00  0.00000000000E+00  0.18647376088E+04  0.18647376088E+04  0.00000000000E+00 0. -1.
         -2   -1    0    0    0  501 -0.00000000000E+00 -0.00000000000E+00 -0.11456405535E+04  0.11456405535E+04  0.00000000000E+00 0.  1.
         23    2    1    2    0    0  0.21073647472E+03  0.12670622521E+04  0.12437028212E+02  0.12879290333E+04  0.93540914790E+02 0.  0.
        254    2    1    2    0    0 -0.21073647472E+03 -0.12670622521E+04  0.70666002706E+03  0.17224491290E+04  0.90421567974E+03 0.  0.
        -24    2    4    4    0    0 -0.16093492329E+03  0.76831201354E+02  0.21397833842E+03  0.28797434876E+03  0.73071288476E+02 0.  0.
         24    2    4    4    0    0 -0.49801551436E+02 -0.13438934535E+04  0.49268168864E+03  0.14344747802E+04  0.80329570498E+02 0.  0.
         13    1    3    3    0    0  0.21374998616E+02  0.34854475242E+03 -0.17251869191E+02  0.34962545959E+03  0.00000000000E+00 0.  1.
        -13    1    3    3    0    0  0.18936147611E+03  0.91851749969E+03  0.29688897403E+02  0.93830357374E+03  0.00000000000E+00 0. -1.
          4    1    6    6  502    0 -0.89590814328E+01 -0.17353602270E+03  0.92928955009E+02  0.19705533993E+03  0.00000000000E+00 0. -1.
          1    1    5    5  503    0 -0.86328826384E+02  0.44052890605E+02  0.60636198007E+02  0.11432441535E+03  0.00000000000E+00 0. -1.
         -2    1    5    5    0  503 -0.74606096904E+02  0.32778310749E+02  0.15334214041E+03  0.17364993342E+03  0.00000000000E+00 0.  1.
         -3    1    6    6    0  502 -0.40842470004E+02 -0.11703574308E+04  0.39975273363E+03  0.12374194403E+04  0.00000000000E+00 0.  1.
<mgrwt>
<rscale>  0 0.29232304E+04</rscale>
<asrwt>0</asrwt>
<pdfrwt beam="1">  1        2 0.28688271E+00 0.29232304E+04</pdfrwt>
<pdfrwt beam="2">  1       -2 0.17625239E+00 0.29232304E+04</pdfrwt>
<totfact> 0.13177048E+00</totfact>
</mgrwt>
</event>
<event>
12    1  0.1541840E-007  0.1800756E+04  0.7818608E-02  0.8705897E-01
          1   -1    0    0  501    0  0.00000000000E+00  0.00000000000E+00  0.15725587139E+04  0.15725587139E+04  0.00000000000E+00 0. -1.
         -1   -1    0    0    0  501 -0.00000000000E+00 -0.00000000000E+00 -0.51551699267E+03  0.51551699267E+03  0.00000000000E+00 0.  1.
         23    2    1    2    0    0  0.31101068851E+03 -0.58861777854E+02  0.10820055332E+04  0.11309788880E+04  0.90470514843E+02 0.  0.
        254    2    1    2    0    0 -0.31101068851E+03  0.58861777854E+02 -0.24963811907E+02  0.95709681860E+03  0.90289466219E+03 0.  0.
        -24    2    4    4    0    0 -0.47508190801E+03  0.50537264956E+02 -0.34088941656E+03  0.59221369525E+03  0.79086231804E+02 0.  0.
         24    2    4    4    0    0  0.16407121950E+03  0.83245128979E+01  0.31592560465E+03  0.36488312334E+03  0.79636947727E+02 0.  0.
         11    1    3    3    0    0  0.10638813015E+03 -0.52610041827E+02  0.50415245755E+03  0.51793431165E+03  0.00000000000E+00 0.  1.
        -11    1    3    3    0    0  0.20462255836E+03 -0.62517360271E+01  0.57785307562E+03  0.61304457635E+03  0.00000000000E+00 0. -1.
          4    1    6    6  502    0  0.37433984108E+02 -0.20493024571E+02  0.13901612485E+03  0.14541922222E+03  0.00000000000E+00 0. -1.
          3    1    5    5  503    0 -0.31701021793E+02  0.22977613416E+02 -0.37873992435E+02  0.54473523881E+02  0.00000000000E+00 0. -1.
         -4    1    5    5    0  503 -0.44338088621E+03  0.27559651541E+02 -0.30301542412E+03  0.53774017137E+03  0.00000000000E+00 0.  1.
         -3    1    6    6    0  502  0.12663723539E+03  0.28817537469E+02  0.17690947980E+03  0.21946390113E+03  0.00000000000E+00 0.  1.
<mgrwt>
<rscale>  0 0.18007562E+04</rscale>
<asrwt>0</asrwt>
<pdfrwt beam="1">  1        1 0.24193211E+00 0.18007562E+04</pdfrwt>
<pdfrwt beam="2">  1       -1 0.79310307E-01 0.18007562E+04</pdfrwt>
<totfact> 0.87371508E+00</totfact>
</mgrwt>
</event>
<event>
12    1  0.1541840E-007  0.1711919E+04  0.7818608E-02  0.8754596E-01
         -1   -1    0    0    0  501 -0.00000000000E+00  0.00000000000E+00  0.67737907402E+03  0.67737907402E+03  0.00000000000E+00 0.  1.
          1   -1    0    0  501    0  0.00000000000E+00 -0.00000000000E+00 -0.10816197670E+04  0.10816197670E+04  0.00000000000E+00 0. -1.
         23    2    1    2    0    0  0.15333922744E+03  0.54825142970E+03 -0.33410458203E+03  0.66627606308E+03  0.90583506560E+02 0.  0.
        254    2    1    2    0    0 -0.15333922744E+03 -0.54825142970E+03 -0.70136110942E+02  0.10927227779E+04  0.93007066748E+03 0.  0.
        -24    2    4    4    0    0  0.29630178289E+03 -0.12903348934E+03  0.22926609339E+03  0.40434857728E+03  0.80563282300E+02 0.  0.
         24    2    4    4    0    0 -0.44964101033E+03 -0.41921794036E+03 -0.29940220433E+03  0.68837420065E+03  0.79351373461E+02 0.  0.
         11    1    3    3    0    0  0.15953103278E+03  0.50920996247E+03 -0.29105368627E+03  0.60782989774E+03  0.00000000000E+00 0. -1.
        -11    1    3    3    0    0 -0.61918053397E+01  0.39041467229E+02 -0.43050895765E+02  0.58446165340E+02  0.00000000000E+00 0.  1.
          2    1    6    6  502    0 -0.28922075446E+03 -0.31446387969E+03 -0.18829411094E+03  0.46689490108E+03  0.00000000000E+00 0. -1.
          1    1    5    5  503    0  0.46316409581E+02 -0.53064157420E+02  0.34258559434E+02  0.78324092677E+02  0.00000000000E+00 0. -1.
         -2    1    5    5    0  503  0.24998537331E+03 -0.75969331918E+02  0.19500753396E+03  0.32602448461E+03  0.00000000000E+00 0.  1.
         -1    1    6    6    0  502 -0.16042025587E+03 -0.10475406067E+03 -0.11110809339E+03  0.22147929957E+03  0.00000000000E+00 0.  1.
<mgrwt>
<rscale>  0 0.17119189E+04</rscale>
<asrwt>0</asrwt>
<pdfrwt beam="1">  1        1 0.16640304E+00 0.17119189E+04</pdfrwt>
<pdfrwt beam="2">  1       -1 0.10421217E+00 0.17119189E+04</pdfrwt>
<totfact> 0.10784917E+01</totfact>
</mgrwt>
</event>
<event>
12    1  0.1541840E-007  0.2034137E+04  0.7818608E-02  0.8590825E-01
         -2   -1    0    0    0  501 -0.00000000000E+00  0.00000000000E+00  0.73121571790E+03  0.73121571790E+03  0.00000000000E+00 0.  1.
          2   -1    0    0  501    0  0.00000000000E+00 -0.00000000000E+00 -0.14146688748E+04  0.14146688748E+04  0.00000000000E+00 0. -1.
         23    2    1    2    0    0  0.33246851065E+03  0.53341611246E+03 -0.84064529981E+03  0.10538532166E+04  0.94095815025E+02 0.  0.
        254    2    1    2    0    0 -0.33246851065E+03 -0.53341611246E+03  0.15719214288E+03  0.10920313761E+04  0.87906489924E+03 0.  0.
        -24    2    4    4    0    0 -0.75702345177E+02 -0.73509423131E+03  0.86779280835E+02  0.74833440914E+03  0.79870960627E+02 0.  0.
         24    2    4    4    0    0 -0.25676616547E+03  0.20167811885E+03  0.70412862046E+02  0.34369696700E+03  0.81035218432E+02 0.  0.
         13    1    3    3    0    0  0.16574787259E+03  0.20386500479E+03 -0.29590770934E+03  0.39572044412E+03  0.00000000000E+00 0.  1.
        -13    1    3    3    0    0  0.16672063806E+03  0.32955110768E+03 -0.54473759047E+03  0.65813277247E+03  0.00000000000E+00 0. -1.
          2    1    6    6  502    0 -0.14458988837E+03  0.72359793816E+02  0.94041882400E+01  0.16195868095E+03  0.00000000000E+00 0. -1.
          3    1    5    5  503    0 -0.15258489839E+01 -0.14251164383E+03  0.45904595383E+02  0.14973018640E+03  0.00000000000E+00 0. -1.
         -4    1    5    5    0  503 -0.74176496193E+02 -0.59258258748E+03  0.40874685452E+02  0.59860422274E+03  0.00000000000E+00 0.  1.
         -1    1    6    6    0  502 -0.11217627711E+03  0.12931832503E+03  0.61008673806E+02  0.18173828604E+03  0.00000000000E+00 0.  1.
<mgrwt>
<rscale>  0 0.20341368E+04</rscale>
<asrwt>0</asrwt>
<pdfrwt beam="1">  1        2 0.21764136E+00 0.20341368E+04</pdfrwt>
<pdfrwt beam="2">  1       -2 0.11249473E+00 0.20341368E+04</pdfrwt>
<totfact> 0.81833241E+00</totfact>
</mgrwt>
</event>
<event>
12    1  0.1541840E-007  0.1547484E+04  0.7818608E-02  0.8853476E-01
          2   -1    0    0  501    0  0.00000000000E+00  0.00000000000E+00  0.65678325700E+03  0.65678325700E+03  0.00000000000E+00 0. -1.
         -2   -1    0    0    0  501 -0.00000000000E+00 -0.00000000000E+00 -0.91152853884E+03  0.91152853884E+03  0.00000000000E+00 0.  1.
         23    2    1    2    0    0 -0.60863067734E+02 -0.45063578148E+02  0.41820835200E+03  0.43443204559E+03  0.89988540729E+02 0.  0.
        254    2    1    2    0    0  0.60863067734E+02  0.45063578148E+02 -0.67295363384E+03  0.11338797503E+04  0.90944029801E+03 0.  0.
        -24    2    4    4    0    0 -0.37737263905E+03  0.18930077660E+03 -0.22263734103E+03  0.48445108999E+03  0.82949263057E+02 0.  0.
         24    2    4    4    0    0  0.43823570678E+03 -0.14423719846E+03 -0.45031629281E+03  0.64942866027E+03  0.78217115067E+02 0.  0.
         13    1    3    3    0    0 -0.81609819923E+02 -0.21275451939E+02  0.33456394392E+03  0.34503020177E+03  0.00000000000E+00 0. -1.
        -13    1    3    3    0    0  0.20746752189E+02 -0.23788126209E+02  0.83644408081E+02  0.89401843818E+02  0.00000000000E+00 0.  1.
          4    1    6    6  502    0  0.18099248938E+02 -0.19791305133E+02 -0.11130954268E+02  0.29037505298E+02  0.00000000000E+00 0. -1.
          1    1    5    5  503    0 -0.65219744111E+02  0.13545636193E+01 -0.24394766833E+02  0.69645922445E+02  0.00000000000E+00 0. -1.
         -2    1    5    5    0  503 -0.31215289494E+03  0.18794621298E+03 -0.19824257420E+03  0.41480516754E+03  0.00000000000E+00 0.  1.
         -3    1    6    6    0  502  0.42013645784E+03 -0.12444589332E+03 -0.43918533854E+03  0.62039115497E+03  0.00000000000E+00 0.  1.
<mgrwt>
<rscale>  0 0.15474840E+04</rscale>
<asrwt>0</asrwt>
<pdfrwt beam="1">  1        2 0.10104358E+00 0.15474840E+04</pdfrwt>
<pdfrwt beam="2">  1       -2 0.14023516E+00 0.15474840E+04</pdfrwt>
<totfact> 0.15273605E+01</totfact>
</mgrwt>
</event>
<event>
12    1  0.1541840E-007  0.1625278E+04  0.7818608E-02  0.8805167E-01
         -1   -1    0    0    0  501 -0.00000000000E+00  0.00000000000E+00  0.37230671612E+03  0.37230671612E+03  0.00000000000E+00 0.  1.
          1   -1    0    0  501    0  0.00000000000E+00 -0.00000000000E+00 -0.17737589998E+04  0.17737589998E+04  0.00000000000E+00 0. -1.
         23    2    1    2    0    0 -0.52383184737E+03  0.18835813865E+03 -0.50535553365E+03  0.75726308899E+03  0.90468656687E+02 0.  0.
        254    2    1    2    0    0  0.52383184737E+03 -0.18835813865E+03 -0.89609675004E+03  0.13888026269E+04  0.90327446464E+03 0.  0.
        -24    2    4    4    0    0  0.14887294727E+03 -0.49864346432E+03 -0.65420611328E+03  0.83959320709E+03  0.78247401208E+02 0.  0.
         24    2    4    4    0    0  0.37495890010E+03  0.31028532567E+03 -0.24189063676E+03  0.54920941986E+03  0.79049014073E+02 0.  0.
         11    1    3    3    0    0 -0.42324392159E+03  0.12313355282E+03 -0.36200606930E+03  0.57039081620E+03  0.00000000000E+00 0.  1.
        -11    1    3    3    0    0 -0.10058792578E+03  0.65224585836E+02 -0.14334946435E+03  0.18687227279E+03  0.00000000000E+00 0. -1.
          2    1    6    6  502    0  0.22308772778E+03  0.15048604079E+03 -0.16537438978E+03  0.31585261049E+03  0.00000000000E+00 0. -1.
          1    1    5    5  503    0  0.73673883748E+02 -0.17226116758E+03 -0.18675342433E+03  0.26453467164E+03  0.00000000000E+00 0. -1.
         -2    1    5    5    0  503  0.75199063521E+02 -0.32638229674E+03 -0.46745268895E+03  0.57505853544E+03  0.00000000000E+00 0.  1.
         -3    1    6    6    0  502  0.15187117231E+03  0.15979928487E+03 -0.76516246980E+02  0.23335680937E+03  0.00000000000E+00 0.  1.
<mgrwt>
<rscale>  0 0.16252783E+04</rscale>
<asrwt>0</asrwt>
<pdfrwt beam="1">  1        1 0.27288600E+00 0.16252783E+04</pdfrwt>
<pdfrwt beam="2">  1       -1 0.57277956E-01 0.16252783E+04</pdfrwt>
<totfact> 0.12547192E+01</totfact>
</mgrwt>
</event>
<event>
12    1  0.1541840E-007  0.1144286E+04  0.7818608E-02  0.9163072E-01
          4   -1    0    0  501    0  0.00000000000E+00  0.00000000000E+00  0.24679795682E+03  0.24679795682E+03  0.00000000000E+00 0.  1.
         -4   -1    0    0    0  501 -0.00000000000E+00 -0.00000000000E+00 -0.13263780688E+04  0.13263780688E+04  0.00000000000E+00 0. -1.
         23    2    1    2    0    0 -0.92105938968E+02 -0.10538502937E+03 -0.28097762787E+03  0.32778708427E+03  0.94373920335E+02 0.  0.
        254    2    1    2    0    0  0.92105938968E+02  0.10538502937E+03 -0.79860248413E+03  0.12453889414E+04  0.94532437779E+03 0.  0.
        -24    2    4    4    0    0  0.65571912498E+02  0.82727406115E+02  0.20169554411E+03  0.24120592040E+03  0.79722669848E+02 0.  0.
         24    2    4    4    0    0  0.26534026470E+02  0.22657623258E+02 -0.10002980282E+04  0.10041830210E+04  0.81055362958E+02 0.  0.
         13    1    3    3    0    0 -0.13376001892E+02 -0.19790503667E+02 -0.21088739760E+00  0.23887777952E+02  0.00000000000E+00 0.  1.
        -13    1    3    3    0    0 -0.78729937076E+02 -0.85594525707E+02 -0.28076674047E+03  0.30389930632E+03  0.00000000000E+00 0. -1.
          2    1    6    6  502    0  0.18999713414E+02 -0.12193422875E+02 -0.82431821945E+03  0.82462730708E+03  0.00000000000E+00 0. -1.
          3    1    5    5  503    0  0.19078824979E+02  0.93783199496E+01  0.12035647333E+03  0.12221961839E+03  0.00000000000E+00 0. -1.
         -4    1    5    5    0  503  0.46493087519E+02  0.73349086166E+02  0.81339070782E+02  0.11898630200E+03  0.00000000000E+00 0.  1.
         -1    1    6    6    0  502  0.75343130561E+01  0.34851046133E+02 -0.17597980880E+03  0.17955571390E+03  0.00000000000E+00 0.  1.
<mgrwt>
<rscale>  0 0.11442856E+04</rscale>
<asrwt>0</asrwt>
<pdfrwt beam="1">  1        4 0.37968917E-01 0.11442856E+04</pdfrwt>
<pdfrwt beam="2">  1       -4 0.20405816E+00 0.11442856E+04</pdfrwt>
<totfact> 0.16577260E+00</totfact>
</mgrwt>
</event>
<event>
12    1  0.1541840E-007  0.1853786E+04  0.7818608E-02  0.8678208E-01
         -2   -1    0    0    0  501 -0.00000000000E+00  0.00000000000E+00  0.64283717194E+03  0.64283717194E+03  0.00000000000E+00 0.  1.
          2   -1    0    0  501    0  0.00000000000E+00 -0.00000000000E+00 -0.13364671232E+04  0.13364671232E+04  0.00000000000E+00 0. -1.
         23    2    1    2    0    0 -0.15105528081E+02 -0.58854037150E+03 -0.66127176732E+03  0.89010679232E+03  0.91661363860E+02 0.  0.
        254    2    1    2    0    0  0.15105528081E+02  0.58854037150E+03 -0.32358183952E+02  0.10891975028E+04  0.91580358279E+03 0.  0.
        -24    2    4    4    0    0  0.19149230841E+03  0.34466953379E+03  0.39311755596E+03  0.56248107375E+03  0.79857083741E+02 0.  0.
         24    2    4    4    0    0 -0.17638678033E+03  0.24387083771E+03 -0.42547573992E+03  0.52671642908E+03  0.76258177559E+02 0.  0.
         11    1    3    3    0    0  0.18070821936E+00 -0.23717402270E+03 -0.20129170085E+03  0.31107860507E+03  0.00000000000E+00 0. -1.
        -11    1    3    3    0    0 -0.15286236301E+02 -0.35136634879E+03 -0.45998006647E+03  0.57902818725E+03  0.00000000000E+00 0.  1.
          2    1    6    6  502    0 -0.34852345368E+02  0.54123214410E+02 -0.15169067600E+03  0.16478491891E+03  0.00000000000E+00 0. -1.
          3    1    5    5  503    0 -0.36585568770E+01  0.26737946368E+02  0.13236753080E+02  0.30058517037E+02  0.00000000000E+00 0. -1.
         -4    1    5    5    0  503  0.19515086529E+03  0.31793158742E+03  0.37988080288E+03  0.53242255672E+03  0.00000000000E+00 0.  1.
         -1    1    6    6    0  502 -0.14153443496E+03  0.18974762330E+03 -0.27378506391E+03  0.36193151017E+03  0.00000000000E+00 0.  1.
<mgrwt>
<rscale>  0 0.18537861E+04</rscale>
<asrwt>0</asrwt>
<pdfrwt beam="1">  1        2 0.20561033E+00 0.18537861E+04</pdfrwt>
<pdfrwt beam="2">  1       -2 0.98898026E-01 0.18537861E+04</pdfrwt>
<totfact> 0.12550759E+01</totfact>
</mgrwt>
</event>
<event>
12    1  0.1541840E-007  0.1137157E+04  0.7818608E-02  0.9169714E-01
          2   -1    0    0  501    0  0.00000000000E+00  0.00000000000E+00  0.13013887125E+04  0.13013887125E+04  0.00000000000E+00 0.  1.
         -2   -1    0    0    0  501 -0.00000000000E+00 -0.00000000000E+00 -0.24841287457E+03  0.24841287457E+03  0.00000000000E+00 0. -1.
         23    2    1    2    0    0 -0.81203601467E+02 -0.31721155451E+02  0.43107684161E+03  0.44845221563E+03  0.87646390328E+02 0.  0.
        254    2    1    2    0    0  0.81203601467E+02  0.31721155451E+02  0.62189899634E+03  0.11013493715E+04  0.90477169483E+03 0.  0.
        -24    2    4    4    0    0 -0.38061365824E+03 -0.75766544259E+02  0.42647672261E+03  0.58229797021E+03  0.81124627023E+02 0.  0.
         24    2    4    4    0    0  0.46181725971E+03  0.10748769971E+03  0.19542227373E+03  0.51905140125E+03  0.79973152483E+02 0.  0.
         13    1    3    3    0    0 -0.81876938893E+02 -0.12921839582E+02  0.19844420356E+03  0.21506024502E+03  0.00000000000E+00 0. -1.
        -13    1    3    3    0    0  0.67333742631E+00 -0.18799315868E+02  0.23263263805E+03  0.23339197061E+03  0.00000000000E+00 0.  1.
          4    1    6    6  502    0  0.46266205354E+03  0.10130483697E+03  0.19640965856E+03  0.51273345878E+03  0.00000000000E+00 0. -1.
          3    1    5    5  503    0 -0.20240582996E+03 -0.41850010068E+02  0.28595847043E+03  0.35283394134E+03  0.00000000000E+00 0. -1.
         -4    1    5    5    0  503 -0.17820782828E+03 -0.33916534191E+02  0.14051825218E+03  0.22946402887E+03  0.00000000000E+00 0.  1.
         -3    1    6    6    0  502 -0.84479382787E+00  0.61828627425E+01 -0.98738482813E+00  0.63179424739E+01  0.00000000000E+00 0.  1.
<mgrwt>
<rscale>  0 0.11371574E+04</rscale>
<asrwt>0</asrwt>
<pdfrwt beam="1">  1        2 0.20021364E+00 0.11371574E+04</pdfrwt>
<pdfrwt beam="2">  1       -2 0.38217366E-01 0.11371574E+04</pdfrwt>
<totfact> 0.10559337E+02</totfact>
</mgrwt>
</event>
<event>
12    1  0.1541840E-007  0.2265608E+04  0.7818608E-02  0.8491606E-01
         -1   -1    0    0    0  501 -0.00000000000E+00  0.00000000000E+00  0.96269534117E+03  0.96269534117E+03  0.00000000000E+00 0.  1.
          1   -1    0    0  501    0  0.00000000000E+00 -0.00000000000E+00 -0.13329709272E+04  0.13329709272E+04  0.00000000000E+00 0. -1.
         23    2    1    2    0    0 -0.35771239248E+03 -0.12966627201E+03  0.72306524680E+03  0.82205092218E+03  0.90403925224E+02 0.  0.
        254    2    1    2    0    0  0.35771239248E+03  0.12966627201E+03 -0.10933408328E+04  0.14736153462E+04  0.91179850511E+03 0.  0.
        -24    2    4    4    0    0 -0.54590674870E+02  0.31041614281E+03 -0.93489171020E+03  0.98983868594E+03  0.80123597440E+02 0.  0.
         24    2    4    4    0    0  0.41230306735E+03 -0.18074987080E+03 -0.15844912263E+03  0.48377666025E+03  0.79179526359E+02 0.  0.
         11    1    3    3    0    0 -0.21393136162E+03 -0.12292269060E+03  0.47461514307E+03  0.53491695559E+03  0.00000000000E+00 0.  1.
        -11    1    3    3    0    0 -0.14378103086E+03 -0.67435814152E+01  0.24845010374E+03  0.28713396659E+03  0.00000000000E+00 0. -1.
          2    1    6    6  502    0  0.62023471420E+02 -0.40760696905E+02  0.10478561925E+01  0.74225625102E+02  0.00000000000E+00 0. -1.
          3    1    5    5  503    0 -0.72099976437E+01 -0.27346273232E+01 -0.13681942360E+02  0.15705343019E+02  0.00000000000E+00 0. -1.
         -4    1    5    5    0  503 -0.47380677226E+02  0.31315077014E+03 -0.92120976784E+03  0.97413334292E+03  0.00000000000E+00 0.  1.
         -1    1    6    6    0  502  0.35027959593E+03 -0.13998917390E+03 -0.15949697882E+03  0.40955103514E+03  0.00000000000E+00 0.  1.
<mgrwt>
<rscale>  0 0.22656080E+04</rscale>
<asrwt>0</asrwt>
<pdfrwt beam="1">  1        1 0.20507245E+00 0.22656080E+04</pdfrwt>
<pdfrwt beam="2">  1       -1 0.14810698E+00 0.22656080E+04</pdfrwt>
<totfact> 0.28047788E+00</totfact>
</mgrwt>
</event>
<event>
12    1  0.1541840E-007  0.1346317E+04  0.7818608E-02  0.8993621E-01
          2   -1    0    0  501    0  0.00000000000E+00  0.00000000000E+00  0.10203233075E+04  0.10203233075E+04  0.00000000000E+00 0. -1.
         -2   -1    0    0    0  501 -0.00000000000E+00 -0.00000000000E+00 -0.44411661303E+03  0.44411661303E+03  0.00000000000E+00 0.  1.
         23    2    1    2    0    0 -0.22669019043E+03  0.28976375917E+03  0.15421137779E+03  0.40927990303E+03  0.91528200106E+02 0.  0.
        254    2    1    2    0    0  0.22669019043E+03 -0.28976375917E+03  0.42199531666E+03  0.10551600175E+04  0.89438869439E+03 0.  0.
        -24    2    4    4    0    0 -0.30735478488E+03 -0.59550260972E+02 -0.14557501818E+02  0.32367825023E+03  0.80885668979E+02 0.  0.
         24    2    4    4    0    0  0.53404497531E+03 -0.23021349820E+03  0.43655281848E+03  0.73148176726E+03  0.79277500614E+02 0.  0.
         11    1    3    3    0    0 -0.11941344749E+03  0.10896460878E+03  0.27969773314E+02  0.16405842138E+03  0.00000000000E+00 0. -1.
        -11    1    3    3    0    0 -0.10727674295E+03  0.18079915040E+03  0.12624160448E+03  0.24522148165E+03  0.00000000000E+00 0.  1.
          4    1    6    6  502    0  0.52591843632E+03 -0.23423104026E+03  0.43638136905E+03  0.72241475700E+03  0.00000000000E+00 0. -1.
          1    1    5    5  503    0 -0.21519652598E+03 -0.78939183520E+01 -0.28095296151E+02  0.21716630587E+03  0.00000000000E+00 0. -1.
         -2    1    5    5    0  503 -0.92158258894E+02 -0.51656342620E+02  0.13537794333E+02  0.10651194436E+03  0.00000000000E+00 0.  1.
         -3    1    6    6    0  502  0.81265389918E+01  0.40175420582E+01  0.17144943545E+00  0.90670102615E+01  0.00000000000E+00 0.  1.
<mgrwt>
<rscale>  0 0.13463172E+04</rscale>
<asrwt>0</asrwt>
<pdfrwt beam="1">  1        2 0.15697282E+00 0.13463172E+04</pdfrwt>
<pdfrwt beam="2">  1       -2 0.68325633E-01 0.13463172E+04</pdfrwt>
<totfact> 0.46813470E+01</totfact>
</mgrwt>
</event>
<event>
12    1  0.1541840E-007  0.1401429E+04  0.7818608E-02  0.8952784E-01
         -3   -1    0    0    0  501 -0.00000000000E+00  0.00000000000E+00  0.18962760313E+04  0.18962760313E+04  0.00000000000E+00 0.  1.
          3   -1    0    0  501    0  0.00000000000E+00 -0.00000000000E+00 -0.25892914905E+03  0.25892914905E+03  0.00000000000E+00 0. -1.
         23    2    1    2    0    0  0.23760764734E+03  0.76262662572E+02  0.86202129915E+03  0.90202283750E+03  0.91055430345E+02 0.  0.
        254    2    1    2    0    0 -0.23760764734E+03 -0.76262662572E+02  0.77532558310E+03  0.12531823429E+04  0.95239846538E+03 0.  0.
        -24    2    4    4    0    0  0.15678351112E+03  0.17738067878E+02 -0.15361545876E+03  0.23648479498E+03  0.86206964195E+02 0.  0.
         24    2    4    4    0    0 -0.39439115845E+03 -0.94000730450E+02  0.92894104186E+03  0.10166975479E+04  0.79761653814E+02 0.  0.
         13    1    3    3    0    0  0.16637568595E+03  0.24046555425E+02  0.66829596900E+03  0.68911436488E+03  0.00000000000E+00 0.  1.
        -13    1    3    3    0    0  0.71231961387E+02  0.52216107147E+02  0.19372533016E+03  0.21290847262E+03  0.00000000000E+00 0. -1.
          4    1    6    6  502    0 -0.14765630356E+03 -0.28654520298E+02  0.25517707667E+03  0.29620736988E+03  0.00000000000E+00 0. -1.
          3    1    5    5  503    0  0.14247095914E+03  0.57088971446E+01 -0.86405275421E+02  0.16672263592E+03  0.00000000000E+00 0. -1.
         -4    1    5    5    0  503  0.14312551971E+02  0.12029170734E+02 -0.67210183340E+02  0.69762159062E+02  0.00000000000E+00 0.  1.
         -3    1    6    6    0  502 -0.24673485489E+03 -0.65346210152E+02  0.67376396519E+03  0.72049017799E+03  0.00000000000E+00 0.  1.
<mgrwt>
<rscale>  0 0.14014295E+04</rscale>
<asrwt>0</asrwt>
<pdfrwt beam="1">  1        3 0.39835255E-01 0.14014295E+04</pdfrwt>
<pdfrwt beam="2">  1       -3 0.29173476E+00 0.14014295E+04</pdfrwt>
<totfact> 0.67923297E-01</totfact>
</mgrwt>
</event>
<event>
12    1  0.1541840E-007  0.1286067E+04  0.7818608E-02  0.9040687E-01
         -2   -1    0    0    0  501 -0.00000000000E+00  0.00000000000E+00  0.13009660509E+03  0.13009660509E+03  0.00000000000E+00 0.  1.
          2   -1    0    0  501    0  0.00000000000E+00 -0.00000000000E+00 -0.31783484269E+04  0.31783484269E+04  0.00000000000E+00 0. -1.
         23    2    1    2    0    0  0.17386914537E+03 -0.85920159752E+01 -0.14062192998E+04  0.14200926447E+04  0.94372125708E+02 0.  0.
        254    2    1    2    0    0 -0.17386914537E+03  0.85920159752E+01 -0.16420325220E+04  0.18883523872E+04  0.91613297756E+03 0.  0.
        -24    2    4    4    0    0 -0.69140414022E+02 -0.44463896253E+03 -0.88978069316E+03  0.10002603677E+04  0.79541922178E+02 0.  0.
         24    2    4    4    0    0 -0.10472873135E+03  0.45323097850E+03 -0.75225182881E+03  0.88809201951E+03  0.80238358207E+02 0.  0.
         11    1    3    3    0    0  0.22881228174E+02  0.11051229277E+02 -0.53969877823E+03  0.54029663288E+03  0.00000000000E+00 0. -1.
        -11    1    3    3    0    0  0.15098791720E+03 -0.19643245252E+02 -0.86652052156E+03  0.87979601187E+03  0.00000000000E+00 0.  1.
          4    1    6    6  502    0 -0.88087590507E+02  0.43102313413E+03 -0.67217380600E+03  0.80334176490E+03  0.00000000000E+00 0. -1.
          3    1    5    5  503    0 -0.58953593243E+02 -0.40920478830E+03 -0.85435725043E+03  0.94913139042E+03  0.00000000000E+00 0. -1.
         -4    1    5    5    0  503 -0.10186820779E+02 -0.35434174225E+02 -0.35423442736E+02  0.51128977262E+02  0.00000000000E+00 0.  1.
         -3    1    6    6    0  502 -0.16641140841E+02  0.22207844377E+02 -0.80078022808E+02  0.84750254615E+02  0.00000000000E+00 0.  1.
<mgrwt>
<rscale>  0 0.12860674E+04</rscale>
<asrwt>0</asrwt>
<pdfrwt beam="1">  1        2 0.48897667E+00 0.12860674E+04</pdfrwt>
<pdfrwt beam="2">  1       -2 0.20014863E-01 0.12860674E+04</pdfrwt>
<totfact> 0.28477399E+01</totfact>
</mgrwt>
</event>
<event>
12    1  0.1541840E-007  0.1127758E+04  0.7818608E-02  0.9178552E-01
         -1   -1    0    0    0  501 -0.00000000000E+00  0.00000000000E+00  0.18632978787E+03  0.18632978787E+03  0.00000000000E+00 0.  1.
          1   -1    0    0  501    0  0.00000000000E+00 -0.00000000000E+00 -0.17064341821E+04  0.17064341821E+04  0.00000000000E+00 0. -1.
         23    2    1    2    0    0  0.37549229304E+02 -0.16101627590E+03 -0.14617040115E+03  0.23701164495E+03  0.86443900556E+02 0.  0.
        254    2    1    2    0    0 -0.37549229304E+02  0.16101627590E+03 -0.13739339931E+04  0.16557523250E+04  0.90911218160E+03 0.  0.
        -24    2    4    4    0    0  0.38501739652E+03  0.25369528156E+03 -0.55234411446E+03  0.72406436405E+03  0.81151038146E+02 0.  0.
         24    2    4    4    0    0 -0.42256662582E+03 -0.92679005668E+02 -0.82158987859E+03  0.93168796094E+03  0.76684917827E+02 0.  0.
         13    1    3    3    0    0  0.79865866683E+01 -0.13789669166E+03 -0.14382118772E+03  0.19940866875E+03  0.00000000000E+00 0. -1.
        -13    1    3    3    0    0  0.29562642636E+02 -0.23119584237E+02 -0.23492134318E+01  0.37602976194E+02  0.00000000000E+00 0.  1.
          2    1    6    6  502    0 -0.19295330811E+03 -0.80783247709E+02 -0.40716891258E+03  0.45775914584E+03  0.00000000000E+00 0. -1.
          1    1    5    5  503    0  0.37637925699E+03  0.26001142976E+03 -0.54053337337E+03  0.70812683639E+03  0.00000000000E+00 0. -1.
         -2    1    5    5    0  503  0.86381395302E+01 -0.63161481928E+01 -0.11810741100E+02  0.15937527658E+02  0.00000000000E+00 0.  1.
         -1    1    6    6    0  502 -0.22961331771E+03 -0.11895757959E+02 -0.41442096600E+03  0.47392881511E+03  0.00000000000E+00 0.  1.
<mgrwt>
<rscale>  0 0.11277580E+04</rscale>
<asrwt>0</asrwt>
<pdfrwt beam="1">  1        1 0.26252833E+00 0.11277580E+04</pdfrwt>
<pdfrwt beam="2">  1       -1 0.28666122E-01 0.11277580E+04</pdfrwt>
<totfact> 0.51889044E+01</totfact>
</mgrwt>
</event>
<event>
12    1  0.1541840E-007  0.1427245E+04  0.7818608E-02  0.8934330E-01
          2   -1    0    0  501    0  0.00000000000E+00  0.00000000000E+00  0.34540687628E+04  0.34540687628E+04  0.00000000000E+00 0. -1.
         -2   -1    0    0    0  501 -0.00000000000E+00 -0.00000000000E+00 -0.14743676766E+03  0.14743676766E+03  0.00000000000E+00 0.  1.
         23    2    1    2    0    0 -0.85421479014E+02 -0.63427470712E+02 -0.20071893596E+02  0.15006734375E+03  0.10391079651E+03 0.  0.
        254    2    1    2    0    0  0.85421479014E+02  0.63427470712E+02  0.33267038887E+04  0.34514381867E+04  0.91331644038E+03 0.  0.
        -24    2    4    4    0    0 -0.19460378647E+02  0.40184519820E+03  0.26610777507E+04  0.26925719770E+04  0.82163171354E+02 0.  0.
         24    2    4    4    0    0  0.10488185766E+03 -0.33841772748E+03  0.66562613809E+03  0.75886620971E+03  0.85399099460E+02 0.  0.
         13    1    3    3    0    0 -0.12083174813E+02 -0.38433753214E+02  0.36316158246E+02  0.54240389466E+02  0.00000000000E+00 0. -1.
        -13    1    3    3    0    0 -0.73338304201E+02 -0.24993717499E+02 -0.56388051843E+02  0.95826954288E+02  0.00000000000E+00 0.  1.
          2    1    6    6  502    0  0.43932904200E+02 -0.43466362104E+02  0.89499117329E+02  0.10876358172E+03  0.00000000000E+00 0. -1.
          3    1    5    5  503    0  0.21002069193E+01  0.70225531392E+00  0.11797100808E+01  0.25091328192E+01  0.00000000000E+00 0. -1.
         -4    1    5    5    0  503 -0.21560585566E+02  0.40114294288E+03  0.26598980406E+04  0.26900628442E+04  0.00000000000E+00 0.  1.
         -1    1    6    6    0  502  0.60948953461E+02 -0.29495136538E+03  0.57612702076E+03  0.65010262799E+03  0.00000000000E+00 0.  1.
<mgrwt>
<rscale>  0 0.14272445E+04</rscale>
<asrwt>0</asrwt>
<pdfrwt beam="1">  1        2 0.53139513E+00 0.14272445E+04</pdfrwt>
<pdfrwt beam="2">  1       -2 0.22682582E-01 0.14272445E+04</pdfrwt>
<totfact> 0.14761034E+01</totfact>
</mgrwt>
</event>
<event>
12    1  0.1541840E-007  0.1341930E+04  0.7818608E-02  0.8996960E-01
         -1   -1    0    0    0  501 -0.00000000000E+00  0.00000000000E+00  0.53276908938E+03  0.53276908938E+03  0.00000000000E+00 0.  1.
          1   -1    0    0  501    0  0.00000000000E+00 -0.00000000000E+00 -0.84500759332E+03  0.84500759332E+03  0.00000000000E+00 0. -1.
         23    2    1    2    0    0  0.96956746590E+02 -0.35215536805E+03 -0.55794070980E+01  0.37652494344E+03  0.91246311130E+02 0.  0.
        254    2    1    2    0    0 -0.96956746590E+02  0.35215536805E+03 -0.30665909684E+03  0.10012517393E+04  0.88036993913E+03 0.  0.
        -24    2    4    4    0    0  0.84433994240E+02  0.61344374014E+03 -0.18443938651E+03  0.65126202474E+03  0.81743598382E+02 0.  0.
         24    2    4    4    0    0 -0.18139074083E+03 -0.26128837209E+03 -0.12221971033E+03  0.34998971451E+03  0.79880713710E+02 0.  0.
         13    1    3    3    0    0 -0.76824361244E+01  0.76720562452E+00 -0.33341679706E+01  0.84098219560E+01  0.00000000000E+00 0.  1.
        -13    1    3    3    0    0  0.10463918271E+03 -0.35292257367E+03 -0.22452391275E+01  0.36811512149E+03  0.00000000000E+00 0. -1.
          2    1    6    6  502    0 -0.51380902605E+02 -0.25154395118E+02 -0.10336652840E+02  0.58134216587E+02  0.00000000000E+00 0. -1.
          1    1    5    5  503    0  0.20631524596E+02  0.28923901719E+02 -0.18639290411E+01  0.35577044977E+02  0.00000000000E+00 0. -1.
         -2    1    5    5    0  503  0.63802469644E+02  0.58451983842E+03 -0.18257545747E+03  0.61568497976E+03  0.00000000000E+00 0.  1.
         -1    1    6    6    0  502 -0.13000983823E+03 -0.23613397697E+03 -0.11188305749E+03  0.29185549792E+03  0.00000000000E+00 0.  1.
<mgrwt>
<rscale>  0 0.13419298E+04</rscale>
<asrwt>0</asrwt>
<pdfrwt beam="1">  1        1 0.13000117E+00 0.13419298E+04</pdfrwt>
<pdfrwt beam="2">  1       -1 0.81964476E-01 0.13419298E+04</pdfrwt>
<totfact> 0.29345351E+01</totfact>
</mgrwt>
</event>
<event>
12    1  0.1541840E-007  0.2466332E+04  0.7818608E-02  0.8415079E-01
          2   -1    0    0  501    0  0.00000000000E+00  0.00000000000E+00  0.16081034736E+04  0.16081034736E+04  0.00000000000E+00 0.  1.
         -2   -1    0    0    0  501 -0.00000000000E+00 -0.00000000000E+00 -0.94564727518E+03  0.94564727518E+03  0.00000000000E+00 0. -1.
         23    2    1    2    0    0  0.24069136787E+03 -0.35743542594E+03 -0.72386861269E+03  0.84752383641E+03  0.92835696615E+02 0.  0.
        254    2    1    2    0    0 -0.24069136787E+03  0.35743542594E+03  0.13863248111E+04  0.17062269124E+04  0.89644931609E+03 0.  0.
        -24    2    4    4    0    0 -0.25366739679E+02  0.23641585039E+03  0.14213041946E+04  0.14432560568E+04  0.79664961582E+02 0.  0.
         24    2    4    4    0    0 -0.21532462819E+03  0.12101957555E+03 -0.34979383500E+02  0.26297085557E+03  0.83184616589E+02 0.  0.
         11    1    3    3    0    0  0.12269747148E+03 -0.25725460916E+03 -0.49592916035E+03  0.57199679678E+03  0.00000000000E+00 0. -1.
        -11    1    3    3    0    0  0.11799389639E+03 -0.10018081679E+03 -0.22793945234E+03  0.27552703963E+03  0.00000000000E+00 0.  1.
          4    1    6    6  502    0 -0.49753183544E+02 -0.75912431561E+01  0.52759038148E+00  0.50331745420E+02  0.00000000000E+00 0. -1.
          3    1    5    5  503    0 -0.27391811357E+02  0.62816109319E+02  0.25274428285E+03  0.26186990555E+03  0.00000000000E+00 0. -1.
         -4    1    5    5    0  503  0.20250716786E+01  0.17359974107E+03  0.11685599117E+04  0.11813861512E+04  0.00000000000E+00 0.  1.
         -3    1    6    6    0  502 -0.16557144464E+03  0.12861081871E+03 -0.35506973882E+02  0.21263911015E+03  0.00000000000E+00 0.  1.
<mgrwt>
<rscale>  0 0.24663322E+04</rscale>
<asrwt>0</asrwt>
<pdfrwt beam="1">  1        2 0.24740053E+00 0.24663322E+04</pdfrwt>
<pdfrwt beam="2">  1       -2 0.14548420E+00 0.24663322E+04</pdfrwt>
<totfact> 0.32065162E+00</totfact>
</mgrwt>
</event>
<event>
12    1  0.1541840E-007  0.1636402E+04  0.7818608E-02  0.8798492E-01
          2   -1    0    0  501    0  0.00000000000E+00  0.00000000000E+00  0.31575192484E+04  0.31575192484E+04  0.00000000000E+00 0.  1.
         -2   -1    0    0    0  501 -0.00000000000E+00 -0.00000000000E+00 -0.21201867250E+03  0.21201867250E+03  0.00000000000E+00 0. -1.
         23    2    1    2    0    0  0.25023800439E+03  0.11560383143E+03  0.20024547790E+04  0.20234803481E+04  0.93082073030E+02 0.  0.
        254    2    1    2    0    0 -0.25023800439E+03 -0.11560383143E+03  0.94304579685E+03  0.13460575728E+04  0.92008277325E+03 0.  0.
        -24    2    4    4    0    0  0.48853395204E+02 -0.14211208258E+03  0.10132858799E+04  0.10273505401E+04  0.78219944467E+02 0.  0.
         24    2    4    4    0    0 -0.29909139959E+03  0.26508251145E+02 -0.70240083040E+02  0.31870703265E+03  0.80511804771E+02 0.  0.
         13    1    3    3    0    0  0.19586067646E+03  0.68556790299E+02  0.11999673537E+04  0.12177779305E+04  0.00000000000E+00 0.  1.
        -13    1    3    3    0    0  0.54377327930E+02  0.47047041133E+02  0.80248742533E+03  0.80570241758E+03  0.00000000000E+00 0. -1.
          4    1    6    6  502    0 -0.15462475191E+03 -0.25213037132E+02 -0.46600691349E+02  0.16345071300E+03  0.00000000000E+00 0. -1.
          3    1    5    5  503    0  0.29982877281E+01  0.51407886658E+01  0.16829557905E+03  0.16840077009E+03  0.00000000000E+00 0. -1.
         -4    1    5    5    0  503  0.45855107476E+02 -0.14725287124E+03  0.84499030083E+03  0.85894977005E+03  0.00000000000E+00 0.  1.
         -3    1    6    6    0  502 -0.14446664768E+03  0.51721288277E+02 -0.23639391691E+02  0.15525631965E+03  0.00000000000E+00 0.  1.
<mgrwt>
<rscale>  0 0.16364022E+04</rscale>
<asrwt>0</asrwt>
<pdfrwt beam="1">  1        2 0.48577216E+00 0.16364022E+04</pdfrwt>
<pdfrwt beam="2">  1       -2 0.32618260E-01 0.16364022E+04</pdfrwt>
<totfact> 0.11660024E+01</totfact>
</mgrwt>
</event>
<event>
12    1  0.1541840E-007  0.2045249E+04  0.7818608E-02  0.8585753E-01
         -2   -1    0    0    0  501 -0.00000000000E+00  0.00000000000E+00  0.83307613337E+03  0.83307613337E+03  0.00000000000E+00 0.  1.
          2   -1    0    0  501    0  0.00000000000E+00 -0.00000000000E+00 -0.12552998949E+04  0.12552998949E+04  0.00000000000E+00 0. -1.
         23    2    1    2    0    0  0.30465926131E+03 -0.63528257083E+03  0.25573896626E+03  0.75485814009E+03  0.89482861469E+02 0.  0.
        254    2    1    2    0    0 -0.30465926131E+03  0.63528257083E+03 -0.67796272780E+03  0.13335178882E+04  0.90677190489E+03 0.  0.
        -24    2    4    4    0    0 -0.57988503370E+03  0.62620854531E+03 -0.55841046289E+03  0.10228745791E+04  0.77758375804E+02 0.  0.
         24    2    4    4    0    0  0.27522577239E+03  0.90740255157E+01 -0.11955226491E+03  0.31064330906E+03  0.79843332174E+02 0.  0.
         11    1    3    3    0    0  0.27706581196E+03 -0.57965173640E+03  0.20413319985E+03  0.67411568959E+03  0.00000000000E+00 0.  1.
        -11    1    3    3    0    0  0.27593449355E+02 -0.55630834429E+02  0.51605766412E+02  0.80742450505E+02  0.00000000000E+00 0. -1.
          4    1    6    6  502    0  0.14908206328E+03  0.44163896935E+02 -0.57842768034E+02  0.16589664614E+03  0.00000000000E+00 0. -1.
          1    1    5    5  503    0 -0.54296813525E+03  0.61007377281E+03 -0.53118978100E+03  0.97425201443E+03  0.00000000000E+00 0. -1.
         -4    1    5    5    0  503 -0.36916898447E+02  0.16134772498E+02 -0.27220681890E+02  0.48622564691E+02  0.00000000000E+00 0.  1.
         -3    1    6    6    0  502  0.12614370911E+03 -0.35089871419E+02 -0.61709496872E+02  0.14474666292E+03  0.00000000000E+00 0.  1.
<mgrwt>
<rscale>  0 0.20452485E+04</rscale>
<asrwt>0</asrwt>
<pdfrwt beam="1">  1        2 0.19312306E+00 0.20452485E+04</pdfrwt>
<pdfrwt beam="2">  1       -2 0.12816556E+00 0.20452485E+04</pdfrwt>
<totfact> 0.73193897E+00</totfact>
</mgrwt>
</event>
<event>
12    1  0.1541840E-007  0.2315703E+04  0.7818608E-02  0.8471755E-01
         -2   -1    0    0    0  501 -0.00000000000E+00  0.00000000000E+00  0.48200040603E+03  0.48200040603E+03  0.00000000000E+00 0.  1.
          2   -1    0    0  501    0  0.00000000000E+00 -0.00000000000E+00 -0.27813670876E+04  0.27813670876E+04  0.00000000000E+00 0. -1.
         23    2    1    2    0    0 -0.11633264152E+03  0.28587504776E+03  0.33277526774E+03  0.46293662744E+03  0.91176289603E+02 0.  0.
        254    2    1    2    0    0  0.11633264152E+03 -0.28587504776E+03 -0.26321419494E+04  0.28004308662E+04  0.90497733042E+03 0.  0.
        -24    2    4    4    0    0 -0.20933594250E+03 -0.18939897073E+03 -0.22897725930E+03  0.37210210704E+03  0.79598277950E+02 0.  0.
         24    2    4    4    0    0  0.32566858402E+03 -0.96476077026E+02 -0.24031646901E+04  0.24283287592E+04  0.78818621668E+02 0.  0.
         13    1    3    3    0    0 -0.70198124710E+02  0.93032790928E+02  0.78623309966E+02  0.14058627874E+03  0.00000000000E+00 0. -1.
        -13    1    3    3    0    0 -0.46134516812E+02  0.19284225683E+03  0.25415195778E+03  0.32235034869E+03  0.00000000000E+00 0.  1.
          4    1    6    6  502    0  0.14244421814E+03 -0.83199572885E+02 -0.11487388351E+04  0.11605229147E+04  0.00000000000E+00 0. -1.
          1    1    5    5  503    0 -0.10575904287E+03 -0.96313248693E+02 -0.65426882161E+02  0.15729556234E+03  0.00000000000E+00 0. -1.
         -2    1    5    5    0  503 -0.10357689962E+03 -0.93085722042E+02 -0.16355037714E+03  0.21480654470E+03  0.00000000000E+00 0.  1.
         -3    1    6    6    0  502  0.18322436588E+03 -0.13276504141E+02 -0.12544258550E+04  0.12678058445E+04  0.00000000000E+00 0.  1.
<mgrwt>
<rscale>  0 0.23157030E+04</rscale>
<asrwt>0</asrwt>
<pdfrwt beam="1">  1        2 0.42790263E+00 0.23157030E+04</pdfrwt>
<pdfrwt beam="2">  1       -2 0.74153909E-01 0.23157030E+04</pdfrwt>
<totfact> 0.35196654E+00</totfact>
</mgrwt>
</event>
<event>
12    1  0.1541840E-007  0.1753235E+04  0.7818608E-02  0.8731572E-01
         -1   -1    0    0    0  501 -0.00000000000E+00  0.00000000000E+00  0.32199779764E+03  0.32199779764E+03  0.00000000000E+00 0.  1.
          1   -1    0    0  501    0  0.00000000000E+00 -0.00000000000E+00 -0.23865319844E+04  0.23865319844E+04  0.00000000000E+00 0. -1.
         23    2    1    2    0    0 -0.18462325232E+03 -0.51164820559E+03 -0.12917801565E+04  0.14045751986E+04  0.90916908618E+02 0.  0.
        254    2    1    2    0    0  0.18462325232E+03  0.51164820559E+03 -0.77275403025E+03  0.13039545834E+04  0.89848713554E+03 0.  0.
        -24    2    4    4    0    0  0.52314588904E+03  0.19350956380E+03 -0.30866019393E+03  0.64242113069E+03  0.79411720456E+02 0.  0.
         24    2    4    4    0    0 -0.33852263671E+03  0.31813864179E+03 -0.46409383632E+03  0.66153345271E+03  0.80210031678E+02 0.  0.
         13    1    3    3    0    0 -0.12674101024E+02 -0.14621165063E+03 -0.37983035529E+03  0.40719722300E+03  0.00000000000E+00 0.  1.
        -13    1    3    3    0    0 -0.17194915130E+03 -0.36543655496E+03 -0.91194980122E+03  0.99737797563E+03  0.00000000000E+00 0. -1.
          4    1    6    6  502    0 -0.30168074335E+03  0.31057434325E+03 -0.43706460301E+03  0.61521797827E+03  0.00000000000E+00 0. -1.
          1    1    5    5  503    0  0.40988239725E+03  0.15205032425E+03 -0.27762646888E+03  0.51787965484E+03  0.00000000000E+00 0. -1.
         -2    1    5    5    0  503  0.11326349179E+03  0.41459239548E+02 -0.31033725050E+02  0.12454147585E+03  0.00000000000E+00 0.  1.
         -3    1    6    6    0  502 -0.36841893367E+02  0.75642985496E+01 -0.27029233313E+02  0.46315474443E+02  0.00000000000E+00 0.  1.
<mgrwt>
<rscale>  0 0.17532348E+04</rscale>
<asrwt>0</asrwt>
<pdfrwt beam="1">  1        1 0.36715876E+00 0.17532348E+04</pdfrwt>
<pdfrwt beam="2">  1       -1 0.49538124E-01 0.17532348E+04</pdfrwt>
<totfact> 0.62877599E+00</totfact>
</mgrwt>
</event>
<event>
12    1  0.1541840E-007  0.2513454E+04  0.7818608E-02  0.8398208E-01
          2   -1    0    0  501    0  0.00000000000E+00  0.00000000000E+00  0.22754907937E+04  0.22754907937E+04  0.00000000000E+00 0. -1.
         -2   -1    0    0    0  501 -0.00000000000E+00 -0.00000000000E+00 -0.69407572582E+03  0.69407572582E+03  0.00000000000E+00 0.  1.
         23    2    1    2    0    0  0.35882853816E+02 -0.38485872386E+03  0.18983819841E+04  0.19393907340E+04  0.89322143339E+02 0.  0.
        254    2    1    2    0    0 -0.35882853816E+02  0.38485872386E+03 -0.31696691621E+03  0.10301757855E+04  0.90077206133E+03 0.  0.
        -24    2    4    4    0    0 -0.18081765637E+02 -0.26721516163E+03  0.39567100554E+02  0.28233740627E+03  0.80112188090E+02 0.  0.
         24    2    4    4    0    0 -0.17801088179E+02  0.65207388549E+03 -0.35653401677E+03  0.74783837920E+03  0.81415633716E+02 0.  0.
         11    1    3    3    0    0 -0.23136341985E+02 -0.35424333625E+02  0.19648271940E+03  0.20098664821E+03  0.00000000000E+00 0.  1.
        -11    1    3    3    0    0  0.59019195801E+02 -0.34943439024E+03  0.17018992647E+04  0.17384040858E+04  0.00000000000E+00 0. -1.
          2    1    6    6  502    0 -0.31245592525E+02  0.58538029751E+03 -0.29569361235E+03  0.65656765999E+03  0.00000000000E+00 0. -1.
          1    1    5    5  503    0 -0.36111419571E+02 -0.24684218125E+03  0.47601676831E+02  0.25397050361E+03  0.00000000000E+00 0. -1.
         -2    1    5    5    0  503  0.18029653934E+02 -0.20372980378E+02 -0.80345762772E+01  0.28366902658E+02  0.00000000000E+00 0.  1.
         -1    1    6    6    0  502  0.13444504346E+02  0.66693587986E+02 -0.60840404419E+02  0.91270719212E+02  0.00000000000E+00 0.  1.
<mgrwt>
<rscale>  0 0.25134541E+04</rscale>
<asrwt>0</asrwt>
<pdfrwt beam="1">  1        2 0.35007550E+00 0.25134541E+04</pdfrwt>
<pdfrwt beam="2">  1       -2 0.10678088E+00 0.25134541E+04</pdfrwt>
<totfact> 0.29434842E+00</totfact>
</mgrwt>
</event>
<event>
12    1  0.1541840E-007  0.1482660E+04  0.7818608E-02  0.8896067E-01
         -2   -1    0    0    0  501 -0.00000000000E+00  0.00000000000E+00  0.38308109857E+03  0.38308109857E+03  0.00000000000E+00 0.  1.
          2   -1    0    0  501    0  0.00000000000E+00 -0.00000000000E+00 -0.14346046510E+04  0.14346046510E+04  0.00000000000E+00 0. -1.
         23    2    1    2    0    0 -0.41827438262E+03  0.16238960703E+03 -0.20098145376E+03  0.50025034252E+03  0.92374329777E+02 0.  0.
        254    2    1    2    0    0  0.41827438262E+03 -0.16238960703E+03 -0.85054209863E+03  0.13174354070E+04  0.90049450108E+03 0.  0.
        -24    2    4    4    0    0 -0.68468076359E+02  0.96405550134E+02  0.12764789895E+03  0.19170181879E+03  0.80459266998E+02 0.  0.
         24    2    4    4    0    0  0.48674245898E+03 -0.25879515717E+03 -0.97818999758E+03  0.11257335882E+04  0.80791618011E+02 0.  0.
         11    1    3    3    0    0 -0.62866160284E+02  0.71627721357E+01 -0.61125588637E+02  0.87976116076E+02  0.00000000000E+00 0.  1.
        -11    1    3    3    0    0 -0.35540822234E+03  0.15522683490E+03 -0.13985586512E+03  0.41227422644E+03  0.00000000000E+00 0. -1.
          4    1    6    6  502    0  0.11315017296E+03 -0.85781329103E+02 -0.30854096466E+03  0.33964529282E+03  0.00000000000E+00 0. -1.
          3    1    5    5  503    0 -0.13346166363E+02  0.38985230526E+02 -0.75742452513E-01  0.41206481198E+02  0.00000000000E+00 0. -1.
         -4    1    5    5    0  503 -0.55121909995E+02  0.57420319608E+02  0.12772364140E+03  0.15049533760E+03  0.00000000000E+00 0.  1.
         -3    1    6    6    0  502  0.37359228602E+03 -0.17301382806E+03 -0.66964903292E+03  0.78608829540E+03  0.00000000000E+00 0.  1.
<mgrwt>
<rscale>  0 0.14826597E+04</rscale>
<asrwt>0</asrwt>
<pdfrwt beam="1">  1        2 0.22070841E+00 0.14826597E+04</pdfrwt>
<pdfrwt beam="2">  1       -2 0.58935554E-01 0.14826597E+04</pdfrwt>
<totfact> 0.35974820E+01</totfact>
</mgrwt>
</event>
<event>
12    1  0.1541840E-007  0.1360749E+04  0.7818608E-02  0.8982731E-01
          2   -1    0    0  501    0  0.00000000000E+00  0.00000000000E+00  0.14073049883E+04  0.14073049883E+04  0.00000000000E+00 0. -1.
         -2   -1    0    0    0  501 -0.00000000000E+00 -0.00000000000E+00 -0.32893313660E+03  0.32893313660E+03  0.00000000000E+00 0.  1.
         23    2    1    2    0    0 -0.21826571323E+03  0.60856065981E+02  0.69014623874E+03  0.73214790281E+03  0.91626079276E+02 0.  0.
        254    2    1    2    0    0  0.21826571323E+03 -0.60856065981E+02  0.38822561296E+03  0.10040902221E+04  0.89785002379E+03 0.  0.
        -24    2    4    4    0    0 -0.25539929933E+03 -0.10114826959E+03 -0.11349685182E+03  0.30801704505E+03  0.80828151837E+02 0.  0.
         24    2    4    4    0    0  0.47366501256E+03  0.40292203614E+02  0.50172246478E+03  0.69607317705E+03  0.82525331504E+02 0.  0.
         13    1    3    3    0    0  0.46746198255E+01 -0.51406719747E+01  0.48211868965E+01  0.84570929967E+01  0.00000000000E+00 0.  1.
        -13    1    3    3    0    0 -0.22294033306E+03  0.65996737956E+02  0.68532505185E+03  0.72369080982E+03  0.00000000000E+00 0. -1.
          4    1    6    6  502    0  0.57587377776E+02 -0.21896084403E+02  0.57936119448E+02  0.84571499501E+02  0.00000000000E+00 0. -1.
          1    1    5    5  503    0 -0.22553761661E+02  0.13388871459E+02 -0.16515285459E+02  0.30994978590E+02  0.00000000000E+00 0. -1.
         -2    1    5    5    0  503 -0.23284553767E+03 -0.11453714105E+03 -0.96981566360E+02  0.27702206646E+03  0.00000000000E+00 0.  1.
         -3    1    6    6    0  502  0.41607763479E+03  0.62188288017E+02  0.44378634533E+03  0.61150167755E+03  0.00000000000E+00 0.  1.
<mgrwt>
<rscale>  0 0.13607487E+04</rscale>
<asrwt>0</asrwt>
<pdfrwt beam="1">  1        2 0.21650846E+00 0.13607487E+04</pdfrwt>
<pdfrwt beam="2">  1       -2 0.50605099E-01 0.13607487E+04</pdfrwt>
<totfact> 0.51636548E+01</totfact>
</mgrwt>
</event>
<event>
12    1  0.1541840E-007  0.4390190E+04  0.7818608E-02  0.7930148E-01
          1   -1    0    0  501    0  0.00000000000E+00  0.00000000000E+00  0.35450740295E+04  0.35450740295E+04  0.00000000000E+00 0. -1.
         -1   -1    0    0    0  501 -0.00000000000E+00 -0.00000000000E+00 -0.13591934337E+04  0.13591934337E+04  0.00000000000E+00 0.  1.
         23    2    1    2    0    0 -0.20168570170E+04  0.56156729693E+02  0.38213400458E+03  0.20555061916E+04  0.90628368089E+02 0.  0.
        254    2    1    2    0    0  0.20168570170E+04 -0.56156729693E+02  0.18037465912E+04  0.28487612716E+04  0.88942296579E+03 0.  0.
        -24    2    4    4    0    0  0.13315753742E+04  0.31875221702E+03  0.14227575217E+04  0.19761215443E+04  0.78239628696E+02 0.  0.
         24    2    4    4    0    0  0.68528164276E+03 -0.37490894672E+03  0.38098906951E+03  0.87263972724E+03  0.78611540061E+02 0.  0.
         11    1    3    3    0    0 -0.50567387530E+03  0.53860021224E+01  0.56961690715E+02  0.50890049262E+03  0.00000000000E+00 0. -1.
        -11    1    3    3    0    0 -0.15111831416E+04  0.50770727570E+02  0.32517231387E+03  0.15466056990E+04  0.00000000000E+00 0.  1.
          4    1    6    6  502    0  0.35395383051E+03 -0.23632496722E+03  0.19385531198E+03  0.46766728157E+03  0.00000000000E+00 0. -1.
          3    1    5    5  503    0  0.54173791893E+03  0.13569484589E+03  0.52595409990E+03  0.76715107978E+03  0.00000000000E+00 0. -1.
         -4    1    5    5    0  503  0.78983745526E+03  0.18305737114E+03  0.89680342177E+03  0.12089704646E+04  0.00000000000E+00 0.  1.
         -3    1    6    6    0  502  0.33132781225E+03 -0.13858397949E+03  0.18713375753E+03  0.40497244567E+03  0.00000000000E+00 0.  1.
<mgrwt>
<rscale>  0 0.43901897E+04</rscale>
<asrwt>0</asrwt>
<pdfrwt beam="1">  1        1 0.54539600E+00 0.43901897E+04</pdfrwt>
<pdfrwt beam="2">  1       -1 0.20910668E+00 0.43901897E+04</pdfrwt>
<totfact> 0.22714648E-02</totfact>
</mgrwt>
</event>
<event>
12    1  0.1541840E-007  0.1892182E+04  0.7818608E-02  0.8658758E-01
          2   -1    0    0  501    0  0.00000000000E+00  0.00000000000E+00  0.10506969321E+04  0.10506969321E+04  0.00000000000E+00 0.  1.
         -2   -1    0    0    0  501 -0.00000000000E+00 -0.00000000000E+00 -0.85189930030E+03  0.85189930030E+03  0.00000000000E+00 0. -1.
         23    2    1    2    0    0  0.96432314818E+02  0.50680757837E+02 -0.64465570653E+03  0.66016046376E+03  0.91450136088E+02 0.  0.
        254    2    1    2    0    0 -0.96432314818E+02 -0.50680757837E+02  0.84345333830E+03  0.12424357686E+04  0.90574023577E+03 0.  0.
        -24    2    4    4    0    0  0.27823603464E+03 -0.32973319534E+03  0.38484683398E+03  0.58313572194E+03  0.76163728194E+02 0.  0.
         24    2    4    4    0    0 -0.37466834946E+03  0.27905243750E+03  0.45860650431E+03  0.65930004668E+03  0.78166430028E+02 0.  0.
         11    1    3    3    0    0  0.70178739667E+02  0.39984808447E+02 -0.21664235995E+03  0.23120932623E+03  0.00000000000E+00 0.  1.
        -11    1    3    3    0    0  0.26253575151E+02  0.10695949390E+02 -0.42801334657E+03  0.42895113753E+03  0.00000000000E+00 0. -1.
          2    1    6    6  502    0 -0.23197810399E+02 -0.24909778666E+01  0.22811434992E+02  0.32629816800E+02  0.00000000000E+00 0. -1.
          3    1    5    5  503    0  0.92303856258E+02 -0.11151066332E+03  0.17895151435E+03  0.23017009884E+03  0.00000000000E+00 0. -1.
         -2    1    5    5    0  503  0.18593217838E+03 -0.21822253202E+03  0.20589531963E+03  0.35296562310E+03  0.00000000000E+00 0.  1.
         -1    1    6    6    0  502 -0.35147053906E+03  0.28154341537E+03  0.43579506932E+03  0.62667022988E+03  0.00000000000E+00 0.  1.
<mgrwt>
<rscale>  0 0.18921818E+04</rscale>
<asrwt>0</asrwt>
<pdfrwt beam="1">  1        2 0.16164568E+00 0.18921818E+04</pdfrwt>
<pdfrwt beam="2">  1       -2 0.13106143E+00 0.18921818E+04</pdfrwt>
<totfact> 0.93237701E+00</totfact>
</mgrwt>
</event>
<event>
12    1  0.1541840E-007  0.2364538E+04  0.7818608E-02  0.8452901E-01
          2   -1    0    0  501    0  0.00000000000E+00  0.00000000000E+00  0.36309637724E+04  0.36309637724E+04  0.00000000000E+00 0. -1.
         -2   -1    0    0    0  501 -0.00000000000E+00 -0.00000000000E+00 -0.38495559179E+03  0.38495559179E+03  0.00000000000E+00 0.  1.
         23    2    1    2    0    0 -0.77316343820E+03  0.71965497787E+02  0.24629404742E+04  0.25840684449E+04  0.91505266868E+02 0.  0.
        254    2    1    2    0    0  0.77316343820E+03 -0.71965497787E+02  0.78306770645E+03  0.14318509193E+04  0.91325860907E+03 0.  0.
        -24    2    4    4    0    0  0.45063092840E+03 -0.47038984509E+03  0.57560557335E+03  0.87293465217E+03  0.79738891961E+02 0.  0.
         24    2    4    4    0    0  0.32253250979E+03  0.39842434730E+03  0.20746213310E+03  0.55891626708E+03  0.81102876265E+02 0.  0.
         11    1    3    3    0    0 -0.67792829710E+03  0.81545436111E+02  0.22310787935E+04  0.23332271679E+04  0.00000000000E+00 0. -1.
        -11    1    3    3    0    0 -0.95235141092E+02 -0.95799383241E+01  0.23186168069E+03  0.25084127709E+03  0.00000000000E+00 0.  1.
          2    1    6    6  502    0  0.19723436300E+03  0.18281650405E+03  0.93296252941E+02  0.28465322572E+03  0.00000000000E+00 0. -1.
          1    1    5    5  503    0  0.39277355679E+03 -0.43789293341E+03  0.53499151635E+03  0.79513345459E+03  0.00000000000E+00 0. -1.
         -2    1    5    5    0  503  0.57857371615E+02 -0.32496911681E+02  0.40614057001E+02  0.77801197581E+02  0.00000000000E+00 0.  1.
         -1    1    6    6    0  502  0.12529814679E+03  0.21560784326E+03  0.11416588016E+03  0.27426304136E+03  0.00000000000E+00 0.  1.
<mgrwt>
<rscale>  0 0.23645378E+04</rscale>
<asrwt>0</asrwt>
<pdfrwt beam="1">  1        2 0.55860979E+00 0.23645378E+04</pdfrwt>
<pdfrwt beam="2">  1       -2 0.59223940E-01 0.23645378E+04</pdfrwt>
<totfact> 0.15788535E+00</totfact>
</mgrwt>
</event>
<event>
12    1  0.1541840E-007  0.1536289E+04  0.7818608E-02  0.8860673E-01
         -2   -1    0    0    0  501 -0.00000000000E+00  0.00000000000E+00  0.36925513871E+03  0.36925513871E+03  0.00000000000E+00 0. -1.
          2   -1    0    0  501    0  0.00000000000E+00 -0.00000000000E+00 -0.15979357194E+04  0.15979357194E+04  0.00000000000E+00 0.  1.
         23    2    1    2    0    0  0.42202747181E+03  0.83230766728E+02 -0.75251203986E+03  0.87154891708E+03  0.91041733485E+02 0.  0.
        254    2    1    2    0    0 -0.42202747181E+03 -0.83230766728E+02 -0.47616854086E+03  0.10956419411E+04  0.88806544590E+03 0.  0.
        -24    2    4    4    0    0 -0.49154008521E+02  0.53017093605E+02  0.24549671025E+03  0.26813320874E+03  0.79999088232E+02 0.  0.
         24    2    4    4    0    0 -0.37287346328E+03 -0.13624786033E+03 -0.72166525111E+03  0.82750873231E+03  0.79823983434E+02 0.  0.
         13    1    3    3    0    0  0.23315395947E+03  0.37031176301E+02 -0.49926471982E+03  0.55226564015E+03  0.00000000000E+00 0.  1.
        -13    1    3    3    0    0  0.18887351233E+03  0.46199590427E+02 -0.25324732004E+03  0.31928327693E+03  0.00000000000E+00 0. -1.
          4    1    6    6  502    0 -0.34020393078E+03 -0.14606522652E+03 -0.64752304621E+03  0.74589534138E+03  0.00000000000E+00 0. -1.
          1    1    5    5  503    0 -0.64245730663E+02  0.52339214897E+02  0.23638981983E+03  0.25049362116E+03  0.00000000000E+00 0. -1.
         -2    1    5    5    0  503  0.15091722142E+02  0.67787870804E+00  0.91068904207E+01  0.17639587577E+02  0.00000000000E+00 0.  1.
         -3    1    6    6    0  502 -0.32669532507E+02  0.98173661857E+01 -0.74142204900E+02  0.81613390939E+02  0.00000000000E+00 0.  1.
<mgrwt>
<rscale>  0 0.15362890E+04</rscale>
<asrwt>0</asrwt>
<pdfrwt beam="1">  1        2 0.24583627E+00 0.15362890E+04</pdfrwt>
<pdfrwt beam="2">  1       -2 0.56808483E-01 0.15362890E+04</pdfrwt>
<totfact> 0.31303678E+01</totfact>
</mgrwt>
</event>
<event>
12    1  0.1541840E-007  0.2436901E+04  0.7818608E-02  0.8425816E-01
          2   -1    0    0  501    0  0.00000000000E+00  0.00000000000E+00  0.12350198924E+04  0.12350198924E+04  0.00000000000E+00 0.  1.
         -2   -1    0    0    0  501 -0.00000000000E+00 -0.00000000000E+00 -0.12021036882E+04  0.12021036882E+04  0.00000000000E+00 0. -1.
         23    2    1    2    0    0  0.52180527900E+03 -0.63458367655E+03 -0.65421547120E+03  0.10535359358E+04  0.83443954388E+02 0.  0.
        254    2    1    2    0    0 -0.52180527900E+03  0.63458367655E+03  0.68713167539E+03  0.13835876448E+04  0.87589248182E+03 0.  0.
        -24    2    4    4    0    0  0.93272155580E+02  0.56252579368E+03  0.34157768080E+03  0.66957079806E+03  0.80714174976E+02 0.  0.
         24    2    4    4    0    0 -0.61507743458E+03  0.72057882869E+02  0.34555399459E+03  0.71401684671E+03  0.83065667933E+02 0.  0.
         11    1    3    3    0    0  0.30249086124E+03 -0.39000423444E+03 -0.34322118344E+03  0.60116953081E+03  0.00000000000E+00 0. -1.
        -11    1    3    3    0    0  0.21931441776E+03 -0.24457944211E+03 -0.31099428776E+03  0.45236640499E+03  0.00000000000E+00 0.  1.
          4    1    6    6  502    0 -0.32235267883E+03  0.18837552827E+02  0.13746801888E+03  0.35094666142E+03  0.00000000000E+00 0. -1.
          1    1    5    5  503    0  0.62204853932E+02  0.51258772778E+03  0.31653169888E+03  0.60564671131E+03  0.00000000000E+00 0. -1.
         -2    1    5    5    0  503  0.31067301648E+02  0.49938065900E+02  0.25045981916E+02  0.63924086757E+02  0.00000000000E+00 0.  1.
         -3    1    6    6    0  502 -0.29272475576E+03  0.53220330042E+02  0.20808597571E+03  0.36307018529E+03  0.00000000000E+00 0.  1.
<mgrwt>
<rscale>  0 0.24369013E+04</rscale>
<asrwt>0</asrwt>
<pdfrwt beam="1">  1        2 0.19000306E+00 0.24369013E+04</pdfrwt>
<pdfrwt beam="2">  1       -2 0.18493903E+00 0.24369013E+04</pdfrwt>
<totfact> 0.27143547E+00</totfact>
</mgrwt>
</event>
<event>
12    1  0.1541840E-007  0.1408418E+04  0.7818608E-02  0.8947748E-01
         -1   -1    0    0    0  501 -0.00000000000E+00  0.00000000000E+00  0.14051044554E+04  0.14051044554E+04  0.00000000000E+00 0.  1.
          1   -1    0    0  501    0  0.00000000000E+00 -0.00000000000E+00 -0.35293472024E+03  0.35293472024E+03  0.00000000000E+00 0. -1.
         23    2    1    2    0    0 -0.40970535279E+03 -0.74264613218E+02  0.28977545888E+03  0.51489949289E+03  0.88192756691E+02 0.  0.
        254    2    1    2    0    0  0.40970535279E+03  0.74264613218E+02  0.76239427626E+03  0.12431396827E+04  0.88925672861E+03 0.  0.
        -24    2    4    4    0    0  0.17010662483E+02  0.34246539146E+01 -0.19100053555E+03  0.20653075922E+03  0.76633276260E+02 0.  0.
         24    2    4    4    0    0  0.39269469031E+03  0.70839959303E+02  0.95339481181E+03  0.10366089235E+04  0.79805848577E+02 0.  0.
         11    1    3    3    0    0 -0.40492127400E+03 -0.79766074620E+02  0.26837080275E+03  0.49228726630E+03  0.00000000000E+00 0.  1.
        -11    1    3    3    0    0 -0.47840787955E+01  0.55014614021E+01  0.21404656129E+02  0.22612226593E+02  0.00000000000E+00 0. -1.
          4    1    6    6  502    0  0.47580692404E+02  0.14255093511E+02  0.64621695381E+02  0.81505174649E+02  0.00000000000E+00 0. -1.
          1    1    5    5  503    0 -0.68391583449E+01 -0.30531046722E+02 -0.45429202261E+02  0.55160958284E+02  0.00000000000E+00 0. -1.
         -2    1    5    5    0  503  0.23849820828E+02  0.33955700636E+02 -0.14557133329E+03  0.15136980093E+03  0.00000000000E+00 0.  1.
         -3    1    6    6    0  502  0.34511399790E+03  0.56584865793E+02  0.88877311642E+03  0.95510374885E+03  0.00000000000E+00 0.  1.
<mgrwt>
<rscale>  0 0.14084178E+04</rscale>
<asrwt>0</asrwt>
<pdfrwt beam="1">  1        1 0.54297650E-01 0.14084178E+04</pdfrwt>
<pdfrwt beam="2">  1       -1 0.21616991E+00 0.14084178E+04</pdfrwt>
<totfact> 0.80607733E+00</totfact>
</mgrwt>
</event>
<event>
12    1  0.1541840E-007  0.1616207E+04  0.7818608E-02  0.8810653E-01
          1   -1    0    0  501    0  0.00000000000E+00  0.00000000000E+00  0.10217840066E+04  0.10217840066E+04  0.00000000000E+00 0. -1.
         -1   -1    0    0    0  501 -0.00000000000E+00 -0.00000000000E+00 -0.63910855238E+03  0.63910855238E+03  0.00000000000E+00 0.  1.
         23    2    1    2    0    0 -0.29621877260E+03 -0.41057789699E+03  0.35088763033E+03  0.62198943239E+03  0.86191380954E+02 0.  0.
        254    2    1    2    0    0  0.29621877260E+03  0.41057789699E+03  0.31787823916E+02  0.10389031266E+04  0.90663634937E+03 0.  0.
        -24    2    4    4    0    0 -0.89692550280E+02  0.40864413331E+03 -0.30239124548E+03  0.52223063644E+03  0.79054354867E+02 0.  0.
         24    2    4    4    0    0  0.38591132288E+03  0.19337636732E+01  0.33417906940E+03  0.51667249017E+03  0.79646237233E+02 0.  0.
         11    1    3    3    0    0 -0.22976034412E+03 -0.32333744269E+03  0.31524688769E+03  0.50667298899E+03  0.00000000000E+00 0.  1.
        -11    1    3    3    0    0 -0.66458428486E+02 -0.87240454296E+02  0.35640742642E+02  0.11531644340E+03  0.00000000000E+00 0. -1.
          2    1    6    6  502    0  0.25669124084E+03  0.36285437071E+02  0.23843925325E+03  0.35222195212E+03  0.00000000000E+00 0. -1.
          3    1    5    5  503    0 -0.98901275547E+02  0.35370827365E+03 -0.24074322260E+03  0.43914496966E+03  0.00000000000E+00 0. -1.
         -4    1    5    5    0  503  0.92087252669E+01  0.54935859664E+02 -0.61648022885E+02  0.83085666776E+02  0.00000000000E+00 0.  1.
         -1    1    6    6    0  502  0.12922008204E+03 -0.34351673397E+02  0.95739816151E+02  0.16445053805E+03  0.00000000000E+00 0.  1.
<mgrwt>
<rscale>  0 0.16162065E+04</rscale>
<asrwt>0</asrwt>
<pdfrwt beam="1">  1        1 0.15719754E+00 0.16162065E+04</pdfrwt>
<pdfrwt beam="2">  1       -1 0.98324393E-01 0.16162065E+04</pdfrwt>
<totfact> 0.13815419E+01</totfact>
</mgrwt>
</event>
<event>
12    1  0.1541840E-007  0.1449743E+04  0.7818608E-02  0.8918578E-01
         -1   -1    0    0    0  501 -0.00000000000E+00  0.00000000000E+00  0.12596482951E+04  0.12596482951E+04  0.00000000000E+00 0.  1.
          1   -1    0    0  501    0  0.00000000000E+00 -0.00000000000E+00 -0.41713144376E+03  0.41713144376E+03  0.00000000000E+00 0. -1.
         23    2    1    2    0    0 -0.18532290556E+03  0.21598840576E+03  0.65405590320E+03  0.71940028614E+03  0.93552533058E+02 0.  0.
        254    2    1    2    0    0  0.18532290556E+03 -0.21598840576E+03  0.18846094819E+03  0.95737945276E+03  0.89446202649E+03 0.  0.
        -24    2    4    4    0    0  0.32877205145E+02 -0.31848241724E+02  0.52678432654E+03  0.53571475169E+03  0.85984576344E+02 0.  0.
         24    2    4    4    0    0  0.15244570041E+03 -0.18414016404E+03 -0.33832337836E+03  0.42166470107E+03  0.78683671745E+02 0.  0.
         11    1    3    3    0    0  0.33403778401E+01  0.41547687068E+02  0.72902038789E+02  0.83976637730E+02  0.00000000000E+00 0. -1.
        -11    1    3    3    0    0 -0.18866328340E+03  0.17444071869E+03  0.58115386441E+03  0.63542364841E+03  0.00000000000E+00 0.  1.
          2    1    6    6  502    0  0.12478653941E+03 -0.97741368670E+02 -0.18605595597E+03  0.24442150953E+03  0.00000000000E+00 0. -1.
          3    1    5    5  503    0 -0.15423605478E+02 -0.34593816050E+01  0.34797140238E+03  0.34833023383E+03  0.00000000000E+00 0. -1.
         -4    1    5    5    0  503  0.48300810623E+02 -0.28388860119E+02  0.17881292416E+03  0.18738451786E+03  0.00000000000E+00 0.  1.
         -1    1    6    6    0  502  0.27659161005E+02 -0.86398795365E+02 -0.15226742239E+03  0.17724319155E+03  0.00000000000E+00 0.  1.
<mgrwt>
<rscale>  0 0.14497433E+04</rscale>
<asrwt>0</asrwt>
<pdfrwt beam="1">  1        1 0.64174069E-01 0.14497433E+04</pdfrwt>
<pdfrwt beam="2">  1       -1 0.19379204E+00 0.14497433E+04</pdfrwt>
<totfact> 0.91555362E+00</totfact>
</mgrwt>
</event>
<event>
12    1  0.1541840E-007  0.1421604E+04  0.7818608E-02  0.8938328E-01
         -1   -1    0    0    0  501 -0.00000000000E+00  0.00000000000E+00  0.19679722313E+04  0.19679722313E+04  0.00000000000E+00 0. -1.
          1   -1    0    0  501    0  0.00000000000E+00 -0.00000000000E+00 -0.25673086984E+03  0.25673086984E+03  0.00000000000E+00 0.  1.
         23    2    1    2    0    0  0.35437926265E+02 -0.17736996266E+03 -0.75050267147E+02  0.21665766397E+03  0.92693314154E+02 0.  0.
        254    2    1    2    0    0 -0.35437926265E+02  0.17736996266E+03  0.17862916286E+04  0.20080454371E+04  0.89927345398E+03 0.  0.
        -24    2    4    4    0    0  0.15472247910E+03  0.47055500625E+03  0.13626049009E+04  0.14519999047E+04  0.79060406615E+02 0.  0.
         24    2    4    4    0    0 -0.19016040537E+03 -0.29318504359E+03  0.42368672769E+03  0.55604553244E+03  0.86935271151E+02 0.  0.
         11    1    3    3    0    0 -0.23208632934E+02 -0.20837626196E+02 -0.30591173485E+02  0.43688295954E+02  0.00000000000E+00 0. -1.
        -11    1    3    3    0    0  0.58646559199E+02 -0.15653233646E+03 -0.44459093662E+02  0.17296936802E+03  0.00000000000E+00 0.  1.
          2    1    6    6  502    0 -0.96828228850E+02 -0.81161715370E+02  0.12154944493E+03  0.17532027124E+03  0.00000000000E+00 0. -1.
          1    1    5    5  503    0  0.37167776523E+02  0.14307959630E+03  0.31134354490E+03  0.34465637589E+03  0.00000000000E+00 0. -1.
         -2    1    5    5    0  503  0.11755470258E+03  0.32747540995E+03  0.10512613560E+04  0.11073435288E+04  0.00000000000E+00 0.  1.
         -1    1    6    6    0  502 -0.93332176517E+02 -0.21202332822E+03  0.30213728276E+03  0.38072526120E+03  0.00000000000E+00 0.  1.
<mgrwt>
<rscale>  0 0.14216036E+04</rscale>
<asrwt>0</asrwt>
<pdfrwt beam="1">  1        1 0.39497058E-01 0.14216036E+04</pdfrwt>
<pdfrwt beam="2">  1       -1 0.30276495E+00 0.14216036E+04</pdfrwt>
<totfact> 0.33250434E+00</totfact>
</mgrwt>
</event>
<event>
12    1  0.1541840E-007  0.1563925E+04  0.7818608E-02  0.8843022E-01
         -2   -1    0    0    0  501 -0.00000000000E+00  0.00000000000E+00  0.24693280460E+03  0.24693280460E+03  0.00000000000E+00 0. -1.
          2   -1    0    0  501    0  0.00000000000E+00 -0.00000000000E+00 -0.24762412858E+04  0.24762412858E+04  0.00000000000E+00 0.  1.
         23    2    1    2    0    0 -0.14575606148E+03  0.29056053760E+03 -0.42207212148E+02  0.33930409505E+03  0.87610300145E+02 0.  0.
        254    2    1    2    0    0  0.14575606148E+03 -0.29056053760E+03 -0.21871012691E+04  0.23838699954E+04  0.89092869421E+03 0.  0.
        -24    2    4    4    0    0  0.48468514758E+03 -0.32340288846E+03 -0.15424832097E+04  0.16506995955E+04  0.77753339990E+02 0.  0.
         24    2    4    4    0    0 -0.33892908610E+03  0.32842350859E+02 -0.64461805939E+03  0.73317039987E+03  0.77812899567E+02 0.  0.
         13    1    3    3    0    0 -0.13878576998E+03  0.28623997700E+03 -0.23618627769E+02  0.31898691816E+03  0.00000000000E+00 0. -1.
        -13    1    3    3    0    0 -0.69702915060E+01  0.43205606040E+01 -0.18588584380E+02  0.20317176892E+02  0.00000000000E+00 0.  1.
          2    1    6    6  502    0 -0.60234291550E+02 -0.75378186323E+01 -0.66045029433E+02  0.89704707241E+02  0.00000000000E+00 0. -1.
          3    1    5    5  503    0  0.58400752103E+02 -0.43443170336E+02 -0.13035543456E+03  0.14930002081E+03  0.00000000000E+00 0. -1.
         -2    1    5    5    0  503  0.42628439548E+03 -0.27995971813E+03 -0.14121277751E+04  0.15013995747E+04  0.00000000000E+00 0.  1.
         -1    1    6    6    0  502 -0.27869479455E+03  0.40380169491E+02 -0.57857302996E+03  0.64346569263E+03  0.00000000000E+00 0.  1.
<mgrwt>
<rscale>  0 0.15639248E+04</rscale>
<asrwt>0</asrwt>
<pdfrwt beam="1">  1        2 0.38096020E+00 0.15639248E+04</pdfrwt>
<pdfrwt beam="2">  1       -2 0.37989662E-01 0.15639248E+04</pdfrwt>
<totfact> 0.22647840E+01</totfact>
</mgrwt>
</event>
<event>
12    1  0.1541840E-007  0.1719795E+04  0.7818608E-02  0.8750154E-01
         -1   -1    0    0    0  501 -0.00000000000E+00  0.00000000000E+00  0.22877281784E+03  0.22877281784E+03  0.00000000000E+00 0.  1.
          1   -1    0    0  501    0  0.00000000000E+00 -0.00000000000E+00 -0.32321317386E+04  0.32321317386E+04  0.00000000000E+00 0. -1.
         23    2    1    2    0    0  0.27576491629E+03  0.55614857417E+03 -0.12506546474E+04  0.13991433233E+04  0.90096984234E+02 0.  0.
        254    2    1    2    0    0 -0.27576491629E+03 -0.55614857417E+03 -0.17527042734E+04  0.20617612332E+04  0.89080838956E+03 0.  0.
        -24    2    4    4    0    0  0.31066877488E+03 -0.16184447924E+03 -0.43565139842E+03  0.56498518207E+03  0.81898668296E+02 0.  0.
         24    2    4    4    0    0 -0.58643369117E+03 -0.39430409493E+03 -0.13170528750E+04  0.14967760511E+04  0.79561788365E+02 0.  0.
         11    1    3    3    0    0  0.48849884121E+02  0.75040635319E+02 -0.25561738042E+03  0.27084618015E+03  0.00000000000E+00 0. -1.
        -11    1    3    3    0    0  0.22691503217E+03  0.48110793885E+03 -0.99503726694E+03  0.11282971431E+04  0.00000000000E+00 0.  1.
          4    1    6    6  502    0 -0.53415884153E+03 -0.38319136649E+03 -0.12290418312E+04  0.13938095689E+04  0.00000000000E+00 0. -1.
          3    1    5    5  503    0  0.26690354627E+03 -0.13936127166E+03 -0.41225580942E+03  0.51050359397E+03  0.00000000000E+00 0. -1.
         -4    1    5    5    0  503  0.43765228607E+02 -0.22483207572E+02 -0.23395589005E+02  0.54481588106E+02  0.00000000000E+00 0.  1.
         -3    1    6    6    0  502 -0.52274849637E+02 -0.11112728447E+02 -0.88011043756E+02  0.10296648222E+03  0.00000000000E+00 0.  1.
<mgrwt>
<rscale>  0 0.17197952E+04</rscale>
<asrwt>0</asrwt>
<pdfrwt beam="1">  1        1 0.49725101E+00 0.17197952E+04</pdfrwt>
<pdfrwt beam="2">  1       -1 0.35195820E-01 0.17197952E+04</pdfrwt>
<totfact> 0.29504070E+00</totfact>
</mgrwt>
</event>
<event>
12    1  0.1541840E-007  0.2025502E+04  0.7818608E-02  0.8594790E-01
          3   -1    0    0  501    0  0.00000000000E+00  0.00000000000E+00  0.15094794959E+04  0.15094794959E+04  0.00000000000E+00 0. -1.
         -3   -1    0    0    0  501 -0.00000000000E+00 -0.00000000000E+00 -0.67948227693E+03  0.67948227693E+03  0.00000000000E+00 0.  1.
         23    2    1    2    0    0 -0.27206479179E+03 -0.40470947646E+02 -0.48588304940E+03  0.56552601590E+03  0.89889868336E+02 0.  0.
        254    2    1    2    0    0  0.27206479179E+03  0.40470947646E+02  0.13158802683E+04  0.16234357569E+04  0.91013495024E+03 0.  0.
        -24    2    4    4    0    0 -0.57432016693E+02 -0.58946064218E+02  0.12606883207E+04  0.12659624893E+04  0.80950029058E+02 0.  0.
         24    2    4    4    0    0  0.32949680849E+03  0.99417011864E+02  0.55191947595E+02  0.35747326761E+03  0.79303826693E+02 0.  0.
         11    1    3    3    0    0 -0.55685341364E+02  0.12245725834E+02 -0.49107988292E+02  0.75248983768E+02  0.00000000000E+00 0. -1.
        -11    1    3    3    0    0 -0.21637945043E+03 -0.52716673480E+02 -0.43677506111E+03  0.49027703213E+03  0.00000000000E+00 0.  1.
          4    1    6    6  502    0  0.25938550928E+03  0.10309925189E+03  0.22507311818E+02  0.28003013632E+03  0.00000000000E+00 0. -1.
          3    1    5    5  503    0 -0.72677326079E+02 -0.26659403610E+02  0.97125796809E+03  0.97433811283E+03  0.00000000000E+00 0. -1.
         -4    1    5    5    0  503  0.15245309386E+02 -0.32286660608E+02  0.28943035266E+03  0.29162437647E+03  0.00000000000E+00 0.  1.
         -3    1    6    6    0  502  0.70111299210E+02 -0.36822400242E+01  0.32684635778E+02  0.77443131293E+02  0.00000000000E+00 0.  1.
<mgrwt>
<rscale>  0 0.20255020E+04</rscale>
<asrwt>0</asrwt>
<pdfrwt beam="1">  1        3 0.23222761E+00 0.20255020E+04</pdfrwt>
<pdfrwt beam="2">  1       -3 0.10453574E+00 0.20255020E+04</pdfrwt>
<totfact> 0.17879724E-01</totfact>
</mgrwt>
</event>
<event>
12    1  0.1541840E-007  0.1553127E+04  0.7818608E-02  0.8849873E-01
          4   -1    0    0  501    0  0.00000000000E+00  0.00000000000E+00  0.23511269779E+04  0.23511269779E+04  0.00000000000E+00 0.  1.
         -4   -1    0    0    0  501 -0.00000000000E+00 -0.00000000000E+00 -0.25649422594E+03  0.25649422594E+03  0.00000000000E+00 0. -1.
         23    2    1    2    0    0  0.11653200555E+03 -0.48863904389E+03  0.48914264675E+03  0.70702059649E+03  0.90938283770E+02 0.  0.
        254    2    1    2    0    0 -0.11653200555E+03  0.48863904389E+03  0.16054901052E+04  0.19006006073E+04  0.88449780505E+03 0.  0.
        -24    2    4    4    0    0  0.37842543696E+03  0.16489105087E+03  0.65494209206E+03  0.77824450283E+03  0.79501523437E+02 0.  0.
         24    2    4    4    0    0 -0.49495744252E+03  0.32374799302E+03  0.95054801310E+03  0.11223561045E+04  0.79662206466E+02 0.  0.
         13    1    3    3    0    0  0.13733471414E+00 -0.67114185313E+02  0.10684012608E+03  0.12617109523E+03  0.00000000000E+00 0.  1.
        -13    1    3    3    0    0  0.11639467084E+03 -0.42152485858E+03  0.38230252067E+03  0.58084950126E+03  0.00000000000E+00 0. -1.
          4    1    6    6  502    0 -0.10083321361E+03  0.81775752654E+02  0.15539058737E+03  0.20248665470E+03  0.00000000000E+00 0. -1.
          3    1    5    5  503    0  0.81090402862E+01 -0.48449903248E+01  0.38142471710E+01  0.10187195251E+02  0.00000000000E+00 0. -1.
         -4    1    5    5    0  503  0.37031639668E+03  0.16973604120E+03  0.65112784489E+03  0.76805730757E+03  0.00000000000E+00 0.  1.
         -3    1    6    6    0  502 -0.39412422891E+03  0.24197224037E+03  0.79515742573E+03  0.91986944977E+03  0.00000000000E+00 0.  1.
<mgrwt>
<rscale>  0 0.15531265E+04</rscale>
<asrwt>0</asrwt>
<pdfrwt beam="1">  1        4 0.36171183E+00 0.15531265E+04</pdfrwt>
<pdfrwt beam="2">  1       -4 0.39460652E-01 0.15531265E+04</pdfrwt>
<totfact> 0.15148481E-01</totfact>
</mgrwt>
</event>
<event>
12    1  0.1541840E-007  0.1342237E+04  0.7818608E-02  0.8996725E-01
          1   -1    0    0  501    0  0.00000000000E+00  0.00000000000E+00  0.11742718809E+04  0.11742718809E+04  0.00000000000E+00 0. -1.
         -1   -1    0    0    0  501 -0.00000000000E+00 -0.00000000000E+00 -0.38355687845E+03  0.38355687845E+03  0.00000000000E+00 0.  1.
         23    2    1    2    0    0 -0.10313996509E+03  0.25587834407E+03 -0.48828124252E+02  0.29468400560E+03  0.91339466154E+02 0.  0.
        254    2    1    2    0    0  0.10313996509E+03 -0.25587834407E+03  0.83954312666E+03  0.12631447537E+04  0.90254663475E+03 0.  0.
        -24    2    4    4    0    0 -0.24125882064E+03 -0.96769801397E+01 -0.64662291021E+02  0.26170273819E+03  0.77509024070E+02 0.  0.
         24    2    4    4    0    0  0.34439878573E+03 -0.24620136393E+03  0.90420541768E+03  0.10014420155E+04  0.77929698128E+02 0.  0.
         11    1    3    3    0    0 -0.10814347316E+02  0.12615022322E+03  0.46993529370E+01  0.12670009015E+03  0.00000000000E+00 0. -1.
        -11    1    3    3    0    0 -0.92325617770E+02  0.12972812085E+03 -0.53527477189E+02  0.16798391545E+03  0.00000000000E+00 0.  1.
          4    1    6    6  502    0  0.19141120768E+03 -0.89038013678E+02  0.44907095168E+03  0.49621642249E+03  0.00000000000E+00 0. -1.
          1    1    5    5  503    0 -0.60776813259E+00 -0.12095389100E+02  0.12548617227E+01  0.12175487568E+02  0.00000000000E+00 0. -1.
         -2    1    5    5    0  503 -0.24065105251E+03  0.24184089598E+01 -0.65917152743E+02  0.24952725062E+03  0.00000000000E+00 0.  1.
         -3    1    6    6    0  502  0.15298757805E+03 -0.15716335025E+03  0.45513446600E+03  0.50522559302E+03  0.00000000000E+00 0.  1.
<mgrwt>
<rscale>  0 0.13422370E+04</rscale>
<asrwt>0</asrwt>
<pdfrwt beam="1">  1        1 0.18065721E+00 0.13422370E+04</pdfrwt>
<pdfrwt beam="2">  1       -1 0.59008751E-01 0.13422370E+04</pdfrwt>
<totfact> 0.31818358E+01</totfact>
</mgrwt>
</event>
<event>
12    1  0.1541840E-007  0.3024965E+04  0.7818608E-02  0.8236638E-01
          2   -1    0    0  501    0  0.00000000000E+00  0.00000000000E+00  0.15282809269E+04  0.15282809269E+04  0.00000000000E+00 0. -1.
         -2   -1    0    0    0  501 -0.00000000000E+00 -0.00000000000E+00 -0.14968473399E+04  0.14968473399E+04  0.00000000000E+00 0.  1.
         23    2    1    2    0    0 -0.38321847423E+03 -0.24537521445E+03 -0.12860308106E+04  0.13683847591E+04  0.10740674201E+03 0.  0.
        254    2    1    2    0    0  0.38321847423E+03  0.24537521445E+03  0.13174643976E+04  0.16567435078E+04  0.89555637272E+03 0.  0.
        -24    2    4    4    0    0  0.50209525755E+03  0.25200599636E+03  0.13863575829E+04  0.14980126815E+04  0.80299292622E+02 0.  0.
         24    2    4    4    0    0 -0.11887678333E+03 -0.66307819118E+01 -0.68893185275E+02  0.15873082629E+03  0.79205728044E+02 0.  0.
         11    1    3    3    0    0 -0.25236049605E+02 -0.23513365201E+02 -0.21099242772E+03  0.21379322042E+03  0.00000000000E+00 0. -1.
        -11    1    3    3    0    0 -0.35798242462E+03 -0.22186184924E+03 -0.10750383829E+04  0.11545915387E+04  0.00000000000E+00 0.  1.
          4    1    6    6  502    0 -0.22970298396E+02  0.31363530868E+02 -0.27297146099E+02  0.47501998506E+02  0.00000000000E+00 0. -1.
          1    1    5    5  503    0  0.14972684227E+03  0.11335190185E+03  0.50309213622E+03  0.53699951441E+03  0.00000000000E+00 0. -1.
         -2    1    5    5    0  503  0.35236841528E+03  0.13865409451E+03  0.88326544666E+03  0.96101316707E+03  0.00000000000E+00 0.  1.
         -3    1    6    6    0  502 -0.95906484931E+02 -0.37994312780E+02 -0.41596039176E+02  0.11122882779E+03  0.00000000000E+00 0.  1.
<mgrwt>
<rscale>  0 0.30249650E+04</rscale>
<asrwt>0</asrwt>
<pdfrwt beam="1">  1        2 0.23512014E+00 0.30249650E+04</pdfrwt>
<pdfrwt beam="2">  1       -2 0.23028420E+00 0.30249650E+04</pdfrwt>
<totfact> 0.89008130E-01</totfact>
</mgrwt>
</event>
<event>
12    1  0.1541840E-007  0.1466259E+04  0.7818608E-02  0.8907206E-01
         -2   -1    0    0    0  501 -0.00000000000E+00  0.00000000000E+00  0.22583945855E+03  0.22583945855E+03  0.00000000000E+00 0.  1.
          2   -1    0    0  501    0  0.00000000000E+00 -0.00000000000E+00 -0.23799154166E+04  0.23799154166E+04  0.00000000000E+00 0. -1.
         23    2    1    2    0    0  0.75983875233E+02  0.45287103954E+03 -0.10509212544E+04  0.11505631260E+04  0.92164506483E+02 0.  0.
        254    2    1    2    0    0 -0.75983875233E+02 -0.45287103954E+03 -0.11031547037E+04  0.14551917491E+04  0.83052212422E+03 0.  0.
        -24    2    4    4    0    0  0.35547364425E+03 -0.33579413290E+03 -0.56355108498E+03  0.75067552859E+03  0.82490680606E+02 0.  0.
         24    2    4    4    0    0 -0.43145751948E+03 -0.11707690664E+03 -0.53960361868E+03  0.70451622056E+03  0.72859086990E+02 0.  0.
         11    1    3    3    0    0  0.89372387377E+02  0.43739871956E+03 -0.98299726649E+03  0.10796243279E+04  0.00000000000E+00 0.  1.
        -11    1    3    3    0    0 -0.13388512144E+02  0.15472319983E+02 -0.67923987906E+02  0.70938798101E+02  0.00000000000E+00 0. -1.
          2    1    6    6  502    0 -0.26771078122E+03 -0.38662904254E+02 -0.34462512768E+03  0.43809857473E+03  0.00000000000E+00 0. -1.
          3    1    5    5  503    0  0.27382317038E+03 -0.20638214942E+03 -0.38890029630E+03  0.51847484095E+03  0.00000000000E+00 0. -1.
         -4    1    5    5    0  503  0.81650473869E+02 -0.12941198348E+03 -0.17465078869E+03  0.23220068764E+03  0.00000000000E+00 0.  1.
         -1    1    6    6    0  502 -0.16374673826E+03 -0.78414002383E+02 -0.19497849100E+03  0.26641764584E+03  0.00000000000E+00 0.  1.
<mgrwt>
<rscale>  0 0.14662589E+04</rscale>
<asrwt>0</asrwt>
<pdfrwt beam="1">  1        2 0.36614083E+00 0.14662589E+04</pdfrwt>
<pdfrwt beam="2">  1       -2 0.34744532E-01 0.14662589E+04</pdfrwt>
<totfact> 0.30788454E+01</totfact>
</mgrwt>
</event>
<event>
12    1  0.1541840E-007  0.2257622E+04  0.7818608E-02  0.8494820E-01
          1   -1    0    0  501    0  0.00000000000E+00  0.00000000000E+00  0.77621767571E+03  0.77621767571E+03  0.00000000000E+00 0. -1.
         -1   -1    0    0    0  501 -0.00000000000E+00 -0.00000000000E+00 -0.16415676613E+04  0.16415676613E+04  0.00000000000E+00 0.  1.
         23    2    1    2    0    0 -0.83121660715E+03  0.25960543733E+02 -0.84407814859E+03  0.11883749872E+04  0.90400174520E+02 0.  0.
        254    2    1    2    0    0  0.83121660715E+03 -0.25960543733E+02 -0.21271837032E+02  0.12294103498E+04  0.90520843970E+03 0.  0.
        -24    2    4    4    0    0  0.77127334078E+03 -0.37289117761E+03  0.48417377218E+02  0.86184627273E+03  0.80773503512E+02 0.  0.
         24    2    4    4    0    0  0.59943266372E+02  0.34693063387E+03 -0.69689214250E+02  0.36756407706E+03  0.79326567178E+02 0.  0.
         11    1    3    3    0    0 -0.81861667325E+02 -0.56974017949E+00 -0.48594191635E+02  0.95200066396E+02  0.00000000000E+00 0. -1.
        -11    1    3    3    0    0 -0.74935493983E+03  0.26530283912E+02 -0.79548395695E+03  0.10931749209E+04  0.00000000000E+00 0.  1.
          2    1    6    6  502    0 -0.18914612614E+02  0.96398722373E+02 -0.17708611668E+02  0.99820194213E+02  0.00000000000E+00 0. -1.
          3    1    5    5  503    0  0.70515978643E+03 -0.31386698669E+03  0.43793258387E+02  0.77309809159E+03  0.00000000000E+00 0. -1.
         -4    1    5    5    0  503  0.66113554354E+02 -0.59024190913E+02  0.46241188309E+01  0.88748181149E+02  0.00000000000E+00 0.  1.
         -1    1    6    6    0  502  0.78857878985E+02  0.25053191150E+03 -0.51980602583E+02  0.26774388285E+03  0.00000000000E+00 0.  1.
<mgrwt>
<rscale>  0 0.22576216E+04</rscale>
<asrwt>0</asrwt>
<pdfrwt beam="1">  1        1 0.11941811E+00 0.22576216E+04</pdfrwt>
<pdfrwt beam="2">  1       -1 0.25254887E+00 0.22576216E+04</pdfrwt>
<totfact> 0.14122463E+00</totfact>
</mgrwt>
</event>
<event>
12    1  0.1541840E-007  0.1548716E+04  0.7818608E-02  0.8852688E-01
          1   -1    0    0  501    0  0.00000000000E+00  0.00000000000E+00  0.19678319967E+04  0.19678319967E+04  0.00000000000E+00 0. -1.
         -1   -1    0    0    0  501 -0.00000000000E+00 -0.00000000000E+00 -0.30471623038E+03  0.30471623038E+03  0.00000000000E+00 0.  1.
         23    2    1    2    0    0 -0.26084159478E+03  0.23961329006E+03  0.10911503072E+04  0.11508261926E+04  0.91318487586E+02 0.  0.
        254    2    1    2    0    0  0.26084159478E+03 -0.23961329006E+03  0.57196545907E+03  0.11217220345E+04  0.89758730493E+03 0.  0.
        -24    2    4    4    0    0 -0.18850229540E+03 -0.29224040849E+03  0.55657861637E+03  0.66166606798E+03  0.84170408002E+02 0.  0.
         24    2    4    4    0    0  0.44934389018E+03  0.52627118428E+02  0.15386842701E+02  0.46005596653E+03  0.82068216583E+02 0.  0.
         11    1    3    3    0    0 -0.19090101947E+03  0.18901331689E+03  0.92984138337E+03  0.96787097871E+03  0.00000000000E+00 0. -1.
        -11    1    3    3    0    0 -0.69940575304E+02  0.50599973173E+02  0.16130892386E+03  0.18295521385E+03  0.00000000000E+00 0.  1.
          2    1    6    6  502    0  0.10051315552E+03  0.26075951175E+02  0.35229744124E+02  0.10965393077E+03  0.00000000000E+00 0. -1.
          3    1    5    5  503    0 -0.48959958437E+02 -0.32357981605E+02  0.13431382774E+03  0.14657530769E+03  0.00000000000E+00 0. -1.
         -4    1    5    5    0  503 -0.13954233696E+03 -0.25988242689E+03  0.42226478863E+03  0.51509076028E+03  0.00000000000E+00 0.  1.
         -1    1    6    6    0  502  0.34883073466E+03  0.26551167253E+02 -0.19842901423E+02  0.35040203576E+03  0.00000000000E+00 0.  1.
<mgrwt>
<rscale>  0 0.15487160E+04</rscale>
<asrwt>0</asrwt>
<pdfrwt beam="1">  1        1 0.30274338E+00 0.15487160E+04</pdfrwt>
<pdfrwt beam="2">  1       -1 0.46879421E-01 0.15487160E+04</pdfrwt>
<totfact> 0.13700279E+01</totfact>
</mgrwt>
</event>
<event>
12    1  0.1541840E-007  0.3559782E+04  0.7818608E-02  0.8099767E-01
          2   -1    0    0  501    0  0.00000000000E+00  0.00000000000E+00  0.18312084835E+04  0.18312084835E+04  0.00000000000E+00 0.  1.
         -2   -1    0    0    0  501 -0.00000000000E+00 -0.00000000000E+00 -0.17300112934E+04  0.17300112934E+04  0.00000000000E+00 0. -1.
         23    2    1    2    0    0  0.16536260417E+04 -0.17844013457E+03  0.33563182033E+02  0.16660522526E+04  0.91014579399E+02 0.  0.
        254    2    1    2    0    0 -0.16536260417E+04  0.17844013457E+03  0.67634008157E+02  0.18951675243E+04  0.90596115743E+03 0.  0.
        -24    2    4    4    0    0 -0.12345253911E+04  0.21131027234E+03 -0.34422244995E+03  0.13012805840E+04  0.78339586418E+02 0.  0.
         24    2    4    4    0    0 -0.41910065061E+03 -0.32870137769E+02  0.41185645811E+03  0.59388694032E+03  0.79687856686E+02 0.  0.
         13    1    3    3    0    0  0.29318533528E+03  0.19143044509E+01 -0.33940397752E+01  0.29321122914E+03  0.00000000000E+00 0.  1.
        -13    1    3    3    0    0  0.13604407064E+04 -0.18035443902E+03  0.36957221808E+02  0.13728410234E+04  0.00000000000E+00 0. -1.
          2    1    6    6  502    0 -0.80752499247E+01 -0.85207078425E+01  0.32794051097E+00  0.11743920489E+02  0.00000000000E+00 0. -1.
          1    1    5    5  503    0 -0.16479137753E+03  0.55090822868E+02 -0.42289360847E+02  0.17882837279E+03  0.00000000000E+00 0. -1.
         -2    1    5    5    0  503 -0.10697340136E+04  0.15621944947E+03 -0.30193308911E+03  0.11224522112E+04  0.00000000000E+00 0.  1.
         -1    1    6    6    0  502 -0.41102540068E+03 -0.24349429927E+02  0.41152851760E+03  0.58214301983E+03  0.00000000000E+00 0.  1.
<mgrwt>
<rscale>  0 0.35597817E+04</rscale>
<asrwt>0</asrwt>
<pdfrwt beam="1">  1        2 0.28172438E+00 0.35597817E+04</pdfrwt>
<pdfrwt beam="2">  1       -2 0.26615559E+00 0.35597817E+04</pdfrwt>
<totfact> 0.34688276E-01</totfact>
</mgrwt>
</event>
<event>
12    1  0.1541840E-007  0.1164838E+04  0.7818608E-02  0.9144203E-01
          2   -1    0    0  501    0  0.00000000000E+00  0.00000000000E+00  0.91694858925E+03  0.91694858925E+03  0.00000000000E+00 0. -1.
         -2   -1    0    0    0  501 -0.00000000000E+00 -0.00000000000E+00 -0.36993542607E+03  0.36993542607E+03  0.00000000000E+00 0.  1.
         23    2    1    2    0    0  0.10691853540E+03  0.29122444702E+02  0.19455241750E+03  0.24409037402E+03  0.97209966238E+02 0.  0.
        254    2    1    2    0    0 -0.10691853540E+03 -0.29122444702E+02  0.35246074568E+03  0.10427936413E+04  0.97514630241E+03 0.  0.
        -24    2    4    4    0    0 -0.26104767802E+02  0.40730379219E+03  0.41612651046E+03  0.58829203782E+03  0.79676916546E+02 0.  0.
         24    2    4    4    0    0 -0.80813767595E+02 -0.43642623689E+03 -0.63665764775E+02  0.45450160348E+03  0.74294365087E+02 0.  0.
         11    1    3    3    0    0  0.42125872496E+02 -0.62559443021E+01  0.15417167394E+03  0.15994571272E+03  0.00000000000E+00 0.  1.
        -11    1    3    3    0    0  0.64792662901E+02  0.35378389004E+02  0.40380743562E+02  0.84144661298E+02  0.00000000000E+00 0. -1.
          4    1    6    6  502    0 -0.51130504493E+02 -0.10085698718E+03 -0.19320166504E+02  0.11471586284E+03  0.00000000000E+00 0. -1.
          3    1    5    5  503    0 -0.19666131026E+02  0.51788872426E+02  0.90707855437E+02  0.10628621291E+03  0.00000000000E+00 0. -1.
         -4    1    5    5    0  503 -0.64386367761E+01  0.35551491976E+03  0.32541865502E+03  0.48200582491E+03  0.00000000000E+00 0.  1.
         -3    1    6    6    0  502 -0.29683263102E+02 -0.33556924971E+03 -0.44345598271E+02  0.33978574064E+03  0.00000000000E+00 0.  1.
<mgrwt>
<rscale>  0 0.11648378E+04</rscale>
<asrwt>0</asrwt>
<pdfrwt beam="1">  1        2 0.14106901E+00 0.11648378E+04</pdfrwt>
<pdfrwt beam="2">  1       -2 0.56913143E-01 0.11648378E+04</pdfrwt>
<totfact> 0.81768505E+01</totfact>
</mgrwt>
</event>
<event>
12    1  0.1541840E-007  0.1903244E+04  0.7818608E-02  0.8653243E-01
         -1   -1    0    0    0  501 -0.00000000000E+00  0.00000000000E+00  0.31239382780E+03  0.31239382780E+03  0.00000000000E+00 0.  1.
          1   -1    0    0  501    0  0.00000000000E+00 -0.00000000000E+00 -0.28988550702E+04  0.28988550702E+04  0.00000000000E+00 0. -1.
         23    2    1    2    0    0  0.43282694638E+03  0.22913730224E+03 -0.19901173648E+04  0.20528656287E+04  0.11767367911E+03 0.  0.
        254    2    1    2    0    0 -0.43282694638E+03 -0.22913730224E+03 -0.59634387756E+03  0.11583832693E+04  0.86393443591E+03 0.  0.
        -24    2    4    4    0    0 -0.63145153156E+03 -0.25118589794E+03 -0.21089662602E+03  0.71620028834E+03  0.81486649964E+02 0.  0.
         24    2    4    4    0    0  0.19862458518E+03  0.22048595700E+02 -0.38544725154E+03  0.44218298098E+03  0.83775524695E+02 0.  0.
         13    1    3    3    0    0  0.88890194549E+02  0.36478670843E+01 -0.45482016953E+03  0.46343948929E+03  0.00000000000E+00 0.  1.
        -13    1    3    3    0    0  0.34393675183E+03  0.22548943516E+03 -0.15352971953E+04  0.15894261394E+04  0.00000000000E+00 0. -1.
          2    1    6    6  502    0  0.34737036355E+02 -0.27772346407E+02 -0.96976812349E+02  0.10668864538E+03  0.00000000000E+00 0. -1.
          3    1    5    5  503    0 -0.13709972904E+03 -0.79777969050E+02 -0.23105604941E+02  0.16029575486E+03  0.00000000000E+00 0. -1.
         -4    1    5    5    0  503 -0.49435180252E+03 -0.17140792889E+03 -0.18779102108E+03  0.55590453348E+03  0.00000000000E+00 0.  1.
         -1    1    6    6    0  502  0.16388754883E+03  0.49820942107E+02 -0.28847043919E+03  0.33549433560E+03  0.00000000000E+00 0.  1.
<mgrwt>
<rscale>  0 0.19032440E+04</rscale>
<asrwt>0</asrwt>
<pdfrwt beam="1">  1        1 0.44597772E+00 0.19032440E+04</pdfrwt>
<pdfrwt beam="2">  1       -1 0.48060588E-01 0.19032440E+04</pdfrwt>
<totfact> 0.28706815E+00</totfact>
</mgrwt>
</event>
<event>
12    1  0.1541840E-007  0.1208433E+04  0.7818608E-02  0.9105507E-01
         -2   -1    0    0    0  501 -0.00000000000E+00  0.00000000000E+00  0.30451488177E+03  0.30451488177E+03  0.00000000000E+00 0. -1.
          2   -1    0    0  501    0  0.00000000000E+00 -0.00000000000E+00 -0.11988826651E+04  0.11988826651E+04  0.00000000000E+00 0.  1.
         23    2    1    2    0    0  0.21134403290E+03  0.10110495256E+03 -0.39809275718E+02  0.25303775960E+03  0.86918454177E+02 0.  0.
        254    2    1    2    0    0 -0.21134403290E+03 -0.10110495256E+03 -0.85455850759E+03  0.12503597873E+04  0.88217959794E+03 0.  0.
        -24    2    4    4    0    0 -0.13752880887E+03 -0.11543105563E+03  0.14543227224E+03  0.24435629583E+03  0.79504412639E+02 0.  0.
         24    2    4    4    0    0 -0.73815224030E+02  0.14326103073E+02 -0.99999077983E+03  0.10060034914E+04  0.80047114316E+02 0.  0.
         11    1    3    3    0    0  0.21301192937E+03  0.10080065099E+03 -0.51503911159E+02  0.24122086592E+03  0.00000000000E+00 0. -1.
        -11    1    3    3    0    0 -0.16678964693E+01  0.30430157410E+00  0.11694635441E+02  0.11816893677E+02  0.00000000000E+00 0.  1.
          2    1    6    6  502    0 -0.77487079280E+02 -0.60788654376E+01 -0.92310409520E+03  0.92637053636E+03  0.00000000000E+00 0. -1.
          1    1    5    5  503    0 -0.13365288188E+03 -0.11811474370E+03  0.11204485558E+03  0.21063768698E+03  0.00000000000E+00 0. -1.
         -2    1    5    5    0  503 -0.38759269837E+01  0.26836880609E+01  0.33387416658E+02  0.33718608848E+02  0.00000000000E+00 0.  1.
         -1    1    6    6    0  502  0.36718552500E+01  0.20404968511E+02 -0.76886684625E+02  0.79632955072E+02  0.00000000000E+00 0.  1.
<mgrwt>
<rscale>  0 0.12084331E+04</rscale>
<asrwt>0</asrwt>
<pdfrwt beam="1">  1        2 0.18444349E+00 0.12084331E+04</pdfrwt>
<pdfrwt beam="2">  1       -2 0.46848443E-01 0.12084331E+04</pdfrwt>
<totfact> 0.80771664E+01</totfact>
</mgrwt>
</event>
<event>
12    1  0.1541840E-007  0.1521560E+04  0.7818608E-02  0.8870241E-01
         -2   -1    0    0    0  501 -0.00000000000E+00  0.00000000000E+00  0.53685907729E+03  0.53685907729E+03  0.00000000000E+00 0.  1.
          2   -1    0    0  501    0  0.00000000000E+00 -0.00000000000E+00 -0.10780967019E+04  0.10780967019E+04  0.00000000000E+00 0. -1.
         23    2    1    2    0    0 -0.27224603848E+03 -0.33224584567E+03 -0.43970148221E+03  0.62144905256E+03  0.91412931415E+02 0.  0.
        254    2    1    2    0    0  0.27224603848E+03  0.33224584567E+03 -0.10153614242E+03  0.99350672666E+03  0.89007910899E+03 0.  0.
        -24    2    4    4    0    0  0.19763724953E+02  0.60283094030E+03 -0.48424872911E+02  0.60922409440E+03  0.70804530041E+02 0.  0.
         24    2    4    4    0    0  0.25248231353E+03 -0.27058509464E+03 -0.53111269508E+02  0.38428263225E+03  0.88818480164E+02 0.  0.
         11    1    3    3    0    0 -0.26665196699E+03 -0.31098167649E+03 -0.43750398120E+03  0.59935182337E+03  0.00000000000E+00 0. -1.
        -11    1    3    3    0    0 -0.55940714862E+01 -0.21264169183E+02 -0.21975010083E+01  0.22097229182E+02  0.00000000000E+00 0.  1.
          2    1    6    6  502    0  0.35949407938E+02 -0.32911529581E+01  0.68672466528E+00  0.36106276597E+02  0.00000000000E+00 0. -1.
          3    1    5    5  503    0 -0.15608372776E+02  0.63171631718E+02 -0.18173052366E+02  0.67561351281E+02  0.00000000000E+00 0. -1.
         -4    1    5    5    0  503  0.35372097730E+02  0.53965930859E+03 -0.30251820546E+02  0.54166274312E+03  0.00000000000E+00 0.  1.
         -1    1    6    6    0  502  0.21653290559E+03 -0.26729394168E+03 -0.53797994174E+02  0.34817635566E+03  0.00000000000E+00 0.  1.
<mgrwt>
<rscale>  0 0.15215597E+04</rscale>
<asrwt>0</asrwt>
<pdfrwt beam="1">  1        2 0.16586103E+00 0.15215597E+04</pdfrwt>
<pdfrwt beam="2">  1       -2 0.82593705E-01 0.15215597E+04</pdfrwt>
<totfact> 0.27894598E+01</totfact>
</mgrwt>
</event>
<event>
12    1  0.1541840E-007  0.1549869E+04  0.7818608E-02  0.8851952E-01
          1   -1    0    0  501    0  0.00000000000E+00  0.00000000000E+00  0.18727875571E+04  0.18727875571E+04  0.00000000000E+00 0. -1.
         -1   -1    0    0    0  501 -0.00000000000E+00 -0.00000000000E+00 -0.32065739814E+03  0.32065739814E+03  0.00000000000E+00 0.  1.
         23    2    1    2    0    0  0.45936830593E+03  0.90999803867E+02  0.24737729265E+03  0.53738628042E+03  0.91040016835E+02 0.  0.
        254    2    1    2    0    0 -0.45936830593E+03 -0.90999803867E+02  0.13047528663E+04  0.16560586748E+04  0.90600777452E+03 0.  0.
        -24    2    4    4    0    0  0.69065208320E+02  0.21432204438E+03  0.87047408558E+03  0.90261239058E+03  0.79246780652E+02 0.  0.
         24    2    4    4    0    0 -0.52843351425E+03 -0.30532184824E+03  0.43427878074E+03  0.75344628425E+03  0.81362361405E+02 0.  0.
         11    1    3    3    0    0  0.30774370300E+03  0.49353809825E+02  0.20982606916E+03  0.37572458607E+03  0.00000000000E+00 0.  1.
        -11    1    3    3    0    0  0.15162460293E+03  0.41645994042E+02  0.37551223494E+02  0.16166169434E+03  0.00000000000E+00 0. -1.
          2    1    6    6  502    0 -0.26881983042E+03 -0.11076222898E+03  0.22081779243E+03  0.36509296083E+03  0.00000000000E+00 0. -1.
          1    1    5    5  503    0  0.14502417023E+02  0.16079793637E+03  0.62484663761E+03  0.64536781526E+03  0.00000000000E+00 0. -1.
         -2    1    5    5    0  503  0.54562791297E+02  0.53524108007E+02  0.24562744798E+03  0.25724457532E+03  0.00000000000E+00 0.  1.
         -1    1    6    6    0  502 -0.25961368383E+03 -0.19455961927E+03  0.21346098831E+03  0.38835332343E+03  0.00000000000E+00 0.  1.
<mgrwt>
<rscale>  0 0.15498686E+04</rscale>
<asrwt>0</asrwt>
<pdfrwt beam="1">  1        1 0.28812116E+00 0.15498686E+04</pdfrwt>
<pdfrwt beam="2">  1       -1 0.49331909E-01 0.15498686E+04</pdfrwt>
<totfact> 0.14427877E+01</totfact>
</mgrwt>
</event>
<event>
12    1  0.1541840E-007  0.3479272E+04  0.7818608E-02  0.8118720E-01
          2   -1    0    0  501    0  0.00000000000E+00  0.00000000000E+00  0.12038908646E+04  0.12038908646E+04  0.00000000000E+00 0. -1.
         -2   -1    0    0    0  501 -0.00000000000E+00 -0.00000000000E+00 -0.25137941981E+04  0.25137941981E+04  0.00000000000E+00 0.  1.
         23    2    1    2    0    0 -0.40046769076E+03  0.11725550445E+04  0.50897138013E+03  0.13425721178E+04  0.90489348184E+02 0.  0.
        254    2    1    2    0    0  0.40046769076E+03 -0.11725550445E+04 -0.18188747136E+04  0.23751129449E+04  0.89308262423E+03 0.  0.
        -24    2    4    4    0    0  0.19213374168E+02 -0.76635420014E+03 -0.44368359661E+03  0.88924742861E+03  0.78980640511E+02 0.  0.
         24    2    4    4    0    0  0.38125431660E+03 -0.40620084432E+03 -0.13751911170E+04  0.14858655163E+04  0.79320517221E+02 0.  0.
         13    1    3    3    0    0 -0.36947210986E+03  0.11209667434E+04  0.46758743364E+03  0.12695330196E+04  0.00000000000E+00 0. -1.
        -13    1    3    3    0    0 -0.30995580900E+02  0.51588301067E+02  0.41383946486E+02  0.73039098221E+02  0.00000000000E+00 0.  1.
          4    1    6    6  502    0  0.10792999822E+03 -0.17043328875E+03 -0.49886330348E+03  0.53810871206E+03  0.00000000000E+00 0. -1.
          3    1    5    5  503    0 -0.26361120404E+02 -0.13796562700E+03 -0.87765947299E+02  0.16562694349E+03  0.00000000000E+00 0. -1.
         -2    1    5    5    0  503  0.45574494572E+02 -0.62838857314E+03 -0.35591764931E+03  0.72362048512E+03  0.00000000000E+00 0.  1.
         -3    1    6    6    0  502  0.27332431838E+03 -0.23576755558E+03 -0.87632781348E+03  0.94775680423E+03  0.00000000000E+00 0.  1.
<mgrwt>
<rscale>  0 0.34792723E+04</rscale>
<asrwt>0</asrwt>
<pdfrwt beam="1">  1        2 0.18521398E+00 0.34792723E+04</pdfrwt>
<pdfrwt beam="2">  1       -2 0.38673756E+00 0.34792723E+04</pdfrwt>
<totfact> 0.14032476E-01</totfact>
</mgrwt>
</event>
<event>
12    1  0.1541840E-007  0.1825567E+04  0.7818608E-02  0.8692820E-01
         -2   -1    0    0    0  501 -0.00000000000E+00  0.00000000000E+00  0.45689415026E+03  0.45689415026E+03  0.00000000000E+00 0.  1.
          2   -1    0    0  501    0  0.00000000000E+00 -0.00000000000E+00 -0.18235587848E+04  0.18235587848E+04  0.00000000000E+00 0. -1.
         23    2    1    2    0    0 -0.60947967397E+03  0.12705952751E+03 -0.15289797681E+03  0.64720287959E+03  0.88792902406E+02 0.  0.
        254    2    1    2    0    0  0.60947967397E+03 -0.12705952751E+03 -0.12137666577E+04  0.16332500555E+04  0.89814622850E+03 0.  0.
        -24    2    4    4    0    0 -0.23877557353E+01  0.30590735924E+03 -0.52109737836E+03  0.60960799811E+03  0.80587963229E+02 0.  0.
         24    2    4    4    0    0  0.61186742971E+03 -0.43296688676E+03 -0.69266927935E+03  0.10236420573E+04  0.78805167622E+02 0.  0.
         11    1    3    3    0    0 -0.53802179737E+03  0.84834283204E+02 -0.14610242945E+03  0.56392395759E+03  0.00000000000E+00 0.  1.
        -11    1    3    3    0    0 -0.71457876599E+02  0.42225244311E+02 -0.67955473669E+01  0.83278921998E+02  0.00000000000E+00 0. -1.
          2    1    6    6  502    0  0.61260133111E+03 -0.42493409750E+03 -0.68371887043E+03  0.10115932344E+04  0.00000000000E+00 0. -1.
          1    1    5    5  503    0 -0.38352696106E+02  0.20339602121E+03 -0.32160941381E+03  0.38245716857E+03  0.00000000000E+00 0. -1.
         -2    1    5    5    0  503  0.35964940371E+02  0.10251133803E+03 -0.19948796455E+03  0.22715082954E+03  0.00000000000E+00 0.  1.
         -1    1    6    6    0  502 -0.73390140593E+00 -0.80327892561E+01 -0.89504089280E+01  0.12048822950E+02  0.00000000000E+00 0.  1.
<mgrwt>
<rscale>  0 0.18255666E+04</rscale>
<asrwt>0</asrwt>
<pdfrwt beam="1">  1        2 0.28054750E+00 0.18255666E+04</pdfrwt>
<pdfrwt beam="2">  1       -2 0.70291409E-01 0.18255666E+04</pdfrwt>
<totfact> 0.14529679E+01</totfact>
</mgrwt>
</event>
<event>
12    1  0.1541840E-007  0.3594758E+04  0.7818608E-02  0.8091693E-01
         -2   -1    0    0    0  501 -0.00000000000E+00  0.00000000000E+00  0.16414651007E+04  0.16414651007E+04  0.00000000000E+00 0.  1.
          2   -1    0    0  501    0  0.00000000000E+00 -0.00000000000E+00 -0.19681027940E+04  0.19681027940E+04  0.00000000000E+00 0. -1.
         23    2    1    2    0    0  0.11361390916E+04 -0.12292816293E+04 -0.29784349346E+03  0.17025665018E+04  0.89869832100E+02 0.  0.
        254    2    1    2    0    0 -0.11361390916E+04  0.12292816293E+04 -0.28794199784E+02  0.19070013929E+04  0.91317021798E+03 0.  0.
        -24    2    4    4    0    0 -0.76685460013E+03  0.19221209370E+03  0.71287592861E+02  0.79869701633E+03  0.88450756262E+02 0.  0.
         24    2    4    4    0    0 -0.36928449151E+03  0.10370695356E+04 -0.10008179265E+03  0.11083043766E+04  0.80236953203E+02 0.  0.
         13    1    3    3    0    0  0.26876751619E+03 -0.23660573517E+03 -0.62301741827E+02  0.36345530497E+03  0.00000000000E+00 0.  1.
        -13    1    3    3    0    0  0.86737157545E+03 -0.99267589411E+03 -0.23554175164E+03  0.13391111968E+04  0.00000000000E+00 0. -1.
          2    1    6    6  502    0 -0.14069488776E+03  0.36175075888E+03  0.14707561772E+01  0.38815051992E+03  0.00000000000E+00 0. -1.
          1    1    5    5  503    0 -0.27904980891E+02 -0.27527624079E+01 -0.10834153336E+02  0.30060680929E+02  0.00000000000E+00 0. -1.
         -2    1    5    5    0  503 -0.73894961924E+03  0.19496485611E+03  0.82121746197E+02  0.76863633540E+03  0.00000000000E+00 0.  1.
         -1    1    6    6    0  502 -0.22858960375E+03  0.67531877670E+03 -0.10155254882E+03  0.72015385667E+03  0.00000000000E+00 0.  1.
<mgrwt>
<rscale>  0 0.35947584E+04</rscale>
<asrwt>0</asrwt>
<pdfrwt beam="1">  1        2 0.30278505E+00 0.35947584E+04</pdfrwt>
<pdfrwt beam="2">  1       -2 0.25253309E+00 0.35947584E+04</pdfrwt>
<totfact> 0.35185270E-01</totfact>
</mgrwt>
</event>
<event>
12    1  0.1541840E-007  0.1705928E+04  0.7818608E-02  0.8757991E-01
          1   -1    0    0  501    0  0.00000000000E+00  0.00000000000E+00  0.87637713693E+03  0.87637713693E+03  0.00000000000E+00 0. -1.
         -1   -1    0    0    0  501 -0.00000000000E+00 -0.00000000000E+00 -0.83017602488E+03  0.83017602488E+03  0.00000000000E+00 0.  1.
         23    2    1    2    0    0 -0.21985489551E+03 -0.54227695250E+03 -0.18970408892E+03  0.62178731311E+03  0.90726804750E+02 0.  0.
        254    2    1    2    0    0  0.21985489551E+03  0.54227695250E+03  0.23590520096E+03  0.10847658487E+04  0.88242008950E+03 0.  0.
        -24    2    4    4    0    0  0.40918662954E+02  0.25425158928E+03 -0.32564111583E+03  0.42307960896E+03  0.81461718445E+02 0.  0.
         24    2    4    4    0    0  0.17893623256E+03  0.28802536322E+03  0.56154631679E+03  0.66168623973E+03  0.86704260383E+02 0.  0.
         11    1    3    3    0    0 -0.13989194443E+02 -0.22634784272E+02  0.97381168863E+01  0.28334818523E+02  0.00000000000E+00 0. -1.
        -11    1    3    3    0    0 -0.20586570107E+03 -0.51964216823E+03 -0.19944220580E+03  0.59345249459E+03  0.00000000000E+00 0.  1.
          2    1    6    6  502    0  0.14786450146E+03  0.16933699349E+03  0.32439345627E+03  0.39467713720E+03  0.00000000000E+00 0. -1.
          1    1    5    5  503    0  0.14353133497E+02  0.17117658390E+03 -0.15468488733E+03  0.23115979253E+03  0.00000000000E+00 0. -1.
         -2    1    5    5    0  503  0.26565529457E+02  0.83075005376E+02 -0.17095622850E+03  0.19191981643E+03  0.00000000000E+00 0.  1.
         -1    1    6    6    0  502  0.31071731101E+02  0.11868836973E+03  0.23715286052E+03  0.26700910254E+03  0.00000000000E+00 0.  1.
<mgrwt>
<rscale>  0 0.17059277E+04</rscale>
<asrwt>0</asrwt>
<pdfrwt beam="1">  1        1 0.13482725E+00 0.17059277E+04</pdfrwt>
<pdfrwt beam="2">  1       -1 0.12771939E+00 0.17059277E+04</pdfrwt>
<totfact> 0.96018851E+00</totfact>
</mgrwt>
</event>
<event>
12    1  0.1541840E-007  0.1398225E+04  0.7818608E-02  0.8955104E-01
          1   -1    0    0  501    0  0.00000000000E+00  0.00000000000E+00  0.13512515193E+04  0.13512515193E+04  0.00000000000E+00 0. -1.
         -1   -1    0    0    0  501 -0.00000000000E+00 -0.00000000000E+00 -0.36170782650E+03  0.36170782650E+03  0.00000000000E+00 0.  1.
         23    2    1    2    0    0  0.26189063826E+03 -0.56443339444E+01 -0.80302587791E+02  0.28930222272E+03  0.92890825997E+02 0.  0.
        254    2    1    2    0    0 -0.26189063826E+03  0.56443339444E+01  0.10698462806E+04  0.14236571231E+04  0.90200331211E+03 0.  0.
        -24    2    4    4    0    0  0.59396405237E+02  0.34105546129E+03  0.81309132958E+03  0.88747223034E+03  0.81502691730E+02 0.  0.
         24    2    4    4    0    0 -0.32128704349E+03 -0.33541112735E+03  0.25675495100E+03  0.53618489272E+03  0.76453552220E+02 0.  0.
         13    1    3    3    0    0  0.26191780293E+03 -0.20268099041E+02 -0.80227197002E+02  0.27467823807E+03  0.00000000000E+00 0.  1.
        -13    1    3    3    0    0 -0.27164667319E-01  0.14623765097E+02 -0.75390788568E-01  0.14623984659E+02  0.00000000000E+00 0. -1.
          4    1    6    6  502    0 -0.36662209229E+02 -0.96468122267E+01  0.25188245803E+02  0.45515121644E+02  0.00000000000E+00 0. -1.
          1    1    5    5  503    0  0.54090086938E+02  0.96913058059E+02  0.27555934920E+03  0.29707041801E+03  0.00000000000E+00 0. -1.
         -2    1    5    5    0  503  0.53063182983E+01  0.24414240323E+03  0.53753198039E+03  0.59040181234E+03  0.00000000000E+00 0.  1.
         -3    1    6    6    0  502 -0.28462483427E+03 -0.32576431512E+03  0.23156670520E+03  0.49066977107E+03  0.00000000000E+00 0.  1.
<mgrwt>
<rscale>  0 0.13982249E+04</rscale>
<asrwt>0</asrwt>
<pdfrwt beam="1">  1        1 0.20788485E+00 0.13982249E+04</pdfrwt>
<pdfrwt beam="2">  1       -1 0.55647359E-01 0.13982249E+04</pdfrwt>
<totfact> 0.26484060E+01</totfact>
</mgrwt>
</event>
<event>
12    1  0.1541840E-007  0.1417949E+04  0.7818608E-02  0.8940928E-01
         -1   -1    0    0    0  501 -0.00000000000E+00  0.00000000000E+00  0.40552613286E+03  0.40552613286E+03  0.00000000000E+00 0.  1.
          1   -1    0    0  501    0  0.00000000000E+00 -0.00000000000E+00 -0.12394881906E+04  0.12394881906E+04  0.00000000000E+00 0. -1.
         23    2    1    2    0    0 -0.32078023778E+03  0.25375583037E+03 -0.11292495130E+03  0.43405415972E+03  0.91427493368E+02 0.  0.
        254    2    1    2    0    0  0.32078023778E+03 -0.25375583037E+03 -0.72103710645E+03  0.12109601637E+04  0.88274459890E+03 0.  0.
        -24    2    4    4    0    0  0.46414637272E+03  0.11488815483E+03 -0.14181949171E+03  0.50507660198E+03  0.79739966228E+02 0.  0.
         24    2    4    4    0    0 -0.14336613493E+03 -0.36864398520E+03 -0.57921761474E+03  0.70588356176E+03  0.79538173626E+02 0.  0.
         11    1    3    3    0    0 -0.10102860478E+03  0.41840172649E+02 -0.23950280033E+01  0.10937602658E+03  0.00000000000E+00 0. -1.
        -11    1    3    3    0    0 -0.21975163300E+03  0.21191565772E+03 -0.11052992330E+03  0.32467813314E+03  0.00000000000E+00 0.  1.
          4    1    6    6  502    0 -0.12249910071E+03 -0.32515609146E+03 -0.54647238085E+03  0.64758364442E+03  0.00000000000E+00 0. -1.
          3    1    5    5  503    0  0.36786059557E+03  0.11160559045E+03 -0.86671511840E+02  0.39406747717E+03  0.00000000000E+00 0. -1.
         -4    1    5    5    0  503  0.96285777144E+02  0.32825643843E+01 -0.55147979866E+02  0.11100912482E+03  0.00000000000E+00 0.  1.
         -3    1    6    6    0  502 -0.20867034222E+02 -0.43487893740E+02 -0.32745233896E+02  0.58299917342E+02  0.00000000000E+00 0.  1.
<mgrwt>
<rscale>  0 0.14179490E+04</rscale>
<asrwt>0</asrwt>
<pdfrwt beam="1">  1        1 0.19069049E+00 0.14179490E+04</pdfrwt>
<pdfrwt beam="2">  1       -1 0.62388636E-01 0.14179490E+04</pdfrwt>
<totfact> 0.25374030E+01</totfact>
</mgrwt>
</event>
<event>
12    1  0.1541840E-007  0.1159721E+04  0.7818608E-02  0.9148862E-01
         -1   -1    0    0    0  501 -0.00000000000E+00  0.00000000000E+00  0.43189357105E+03  0.43189357105E+03  0.00000000000E+00 0.  1.
          1   -1    0    0  501    0  0.00000000000E+00 -0.00000000000E+00 -0.77852112147E+03  0.77852112147E+03  0.00000000000E+00 0. -1.
         23    2    1    2    0    0  0.16734881001E+03  0.78377428733E+01  0.70928103219E+02  0.20342497544E+03  0.91015769971E+02 0.  0.
        254    2    1    2    0    0 -0.16734881001E+03 -0.78377428733E+01 -0.41755565364E+03  0.10069897171E+04  0.90089317457E+03 0.  0.
        -24    2    4    4    0    0 -0.12086887700E+03 -0.41042443932E+03 -0.22036796551E+02  0.43628200524E+03  0.82455211353E+02 0.  0.
         24    2    4    4    0    0 -0.46479933009E+02  0.40258669645E+03 -0.39551885709E+03  0.57070771183E+03  0.70962621895E+02 0.  0.
         11    1    3    3    0    0  0.22382804581E+02 -0.32231621130E+02  0.23418306103E+02  0.45697750517E+02  0.00000000000E+00 0. -1.
        -11    1    3    3    0    0  0.14496600543E+03  0.40069364003E+02  0.47509797116E+02  0.15772722493E+03  0.00000000000E+00 0.  1.
          4    1    6    6  502    0 -0.31961974262E+02  0.39225367093E+03 -0.38021405763E+03  0.54721772612E+03  0.00000000000E+00 0. -1.
          1    1    5    5  503    0 -0.53318942186E+02 -0.28020154704E+03  0.12747634847E+02  0.28551413056E+03  0.00000000000E+00 0. -1.
         -2    1    5    5    0  503 -0.67549934812E+02 -0.13022289228E+03 -0.34784431398E+02  0.15076787468E+03  0.00000000000E+00 0.  1.
         -3    1    6    6    0  502 -0.14517958748E+02  0.10333025515E+02 -0.15304799456E+02  0.23489985715E+02  0.00000000000E+00 0.  1.
<mgrwt>
<rscale>  0 0.11597211E+04</rscale>
<asrwt>0</asrwt>
<pdfrwt beam="1">  1        1 0.11977248E+00 0.11597211E+04</pdfrwt>
<pdfrwt beam="2">  1       -1 0.66445165E-01 0.11597211E+04</pdfrwt>
<totfact> 0.52618584E+01</totfact>
</mgrwt>
</event>
<event>
12    1  0.1541840E-007  0.1316626E+04  0.7818608E-02  0.9016483E-01
         -2   -1    0    0    0  501 -0.00000000000E+00  0.00000000000E+00  0.15134341674E+04  0.15134341674E+04  0.00000000000E+00 0.  1.
          2   -1    0    0  501    0  0.00000000000E+00 -0.00000000000E+00 -0.28635290308E+03  0.28635290308E+03  0.00000000000E+00 0. -1.
         23    2    1    2    0    0  0.17417120648E+02  0.60622268583E+02  0.78345929197E+03  0.79135990067E+03  0.91997905785E+02 0.  0.
        254    2    1    2    0    0 -0.17417120648E+02 -0.60622268583E+02  0.44362197237E+03  0.10084271698E+04  0.90340826149E+03 0.  0.
        -24    2    4    4    0    0 -0.19098384300E+03  0.10910545638E+03  0.64266522568E+03  0.68376070244E+03  0.78302471254E+02 0.  0.
         24    2    4    4    0    0  0.17356672235E+03 -0.16972772496E+03 -0.19904325330E+03  0.32466646739E+03  0.82808155601E+02 0.  0.
         13    1    3    3    0    0 -0.14515922946E+02  0.76455890544E+01  0.53720747236E+03  0.53745793827E+03  0.00000000000E+00 0.  1.
        -13    1    3    3    0    0  0.31933043594E+02  0.52976679529E+02  0.24625181961E+03  0.25390196240E+03  0.00000000000E+00 0. -1.
          4    1    6    6  502    0  0.98958605161E+02 -0.75182839397E+02 -0.14956839762E+03  0.19446328816E+03  0.00000000000E+00 0. -1.
          3    1    5    5  503    0 -0.15337668221E+03  0.47676892678E+02  0.46950310598E+03  0.49621634321E+03  0.00000000000E+00 0. -1.
         -4    1    5    5    0  503 -0.37607160791E+02  0.61428563702E+02  0.17316211969E+03  0.18754435923E+03  0.00000000000E+00 0.  1.
         -3    1    6    6    0  502  0.74608117187E+02 -0.94544885567E+02 -0.49474855685E+02  0.13020317923E+03  0.00000000000E+00 0.  1.
<mgrwt>
<rscale>  0 0.13166264E+04</rscale>
<asrwt>0</asrwt>
<pdfrwt beam="1">  1        2 0.44054294E-01 0.13166264E+04</pdfrwt>
<pdfrwt beam="2">  1       -2 0.23283602E+00 0.13166264E+04</pdfrwt>
<totfact> 0.92982401E+00</totfact>
</mgrwt>
</event>
<event>
12    1  0.1541840E-007  0.1321521E+04  0.7818608E-02  0.9012671E-01
          2   -1    0    0  501    0  0.00000000000E+00  0.00000000000E+00  0.31216222050E+04  0.31216222050E+04  0.00000000000E+00 0. -1.
         -2   -1    0    0    0  501 -0.00000000000E+00 -0.00000000000E+00 -0.13986453536E+03  0.13986453536E+03  0.00000000000E+00 0.  1.
         23    2    1    2    0    0  0.50458443859E+02 -0.15425616785E+01 -0.35347580783E+02  0.11146400795E+03  0.92878089705E+02 0.  0.
        254    2    1    2    0    0 -0.50458443859E+02  0.15425616785E+01  0.30171052505E+04  0.31500227325E+04  0.90397493800E+03 0.  0.
        -24    2    4    4    0    0  0.36718498373E+03  0.14759800579E+03  0.91361990561E+03  0.99896764527E+03  0.81394353498E+02 0.  0.
         24    2    4    4    0    0 -0.41764342758E+03 -0.14605544411E+03  0.21034853449E+04  0.21510550872E+04  0.81419694892E+02 0.  0.
         13    1    3    3    0    0  0.54842804797E+02  0.15526419199E+01 -0.62858431051E+02  0.83434562918E+02  0.00000000000E+00 0.  1.
        -13    1    3    3    0    0 -0.43843609389E+01 -0.30952035985E+01  0.27510850269E+02  0.28029445029E+02  0.00000000000E+00 0. -1.
          2    1    6    6  502    0 -0.31571419149E+03 -0.14536800027E+03  0.16620752674E+04  0.16980287102E+04  0.00000000000E+00 0. -1.
          3    1    5    5  503    0  0.22794281014E+03  0.13254398277E+03  0.57839474666E+03  0.63566210760E+03  0.00000000000E+00 0. -1.
         -4    1    5    5    0  503  0.13924217358E+03  0.15054023011E+02  0.33522515895E+03  0.36330553767E+03  0.00000000000E+00 0.  1.
         -1    1    6    6    0  502 -0.10192923610E+03 -0.68744383782E+00  0.44141007746E+03  0.45302637697E+03  0.00000000000E+00 0.  1.
<mgrwt>
<rscale>  0 0.13215207E+04</rscale>
<asrwt>0</asrwt>
<pdfrwt beam="1">  1        2 0.48024952E+00 0.13215207E+04</pdfrwt>
<pdfrwt beam="2">  1       -2 0.21517623E-01 0.13215207E+04</pdfrwt>
<totfact> 0.27140535E+01</totfact>
</mgrwt>
</event>
<event>
12    1  0.1541840E-007  0.2387964E+04  0.7818608E-02  0.8444024E-01
          2   -1    0    0  501    0  0.00000000000E+00  0.00000000000E+00  0.41453609191E+03  0.41453609191E+03  0.00000000000E+00 0.  1.
         -2   -1    0    0    0  501 -0.00000000000E+00 -0.00000000000E+00 -0.34390076261E+04  0.34390076261E+04  0.00000000000E+00 0. -1.
         23    2    1    2    0    0  0.67126376263E+03 -0.11291965221E+03 -0.69361514544E+02  0.69017968260E+03  0.90504628025E+02 0.  0.
        254    2    1    2    0    0 -0.67126376263E+03  0.11291965221E+03 -0.29551100196E+04  0.31633640354E+04  0.90047260120E+03 0.  0.
        -24    2    4    4    0    0 -0.76869976225E+03 -0.96881154066E+02 -0.26986420483E+04  0.28088494108E+04  0.81736315418E+02 0.  0.
         24    2    4    4    0    0  0.97435999622E+02  0.20980080628E+03 -0.25646797132E+03  0.35451462458E+03  0.79966532967E+02 0.  0.
         11    1    3    3    0    0  0.65628208389E+03 -0.11743411050E+03 -0.55050342734E+02  0.66897495034E+03  0.00000000000E+00 0.  1.
        -11    1    3    3    0    0  0.14981678735E+02  0.45144582920E+01 -0.14311171810E+02  0.21204732254E+02  0.00000000000E+00 0. -1.
          2    1    6    6  502    0  0.23237788659E+02  0.13656907748E+03 -0.12381756159E+03  0.18580068973E+03  0.00000000000E+00 0. -1.
          3    1    5    5  503    0 -0.58055303186E+03 -0.84276885313E+02 -0.21555646121E+04  0.22339658039E+04  0.00000000000E+00 0. -1.
         -4    1    5    5    0  503 -0.18814673039E+03 -0.12604268753E+02 -0.54307743621E+03  0.57488360689E+03  0.00000000000E+00 0.  1.
         -1    1    6    6    0  502  0.74198210963E+02  0.73231728794E+02 -0.13265040973E+03  0.16871393485E+03  0.00000000000E+00 0.  1.
<mgrwt>
<rscale>  0 0.23879638E+04</rscale>
<asrwt>0</asrwt>
<pdfrwt beam="1">  1        2 0.63774783E-01 0.23879638E+04</pdfrwt>
<pdfrwt beam="2">  1       -2 0.52907810E+00 0.23879638E+04</pdfrwt>
<totfact> 0.75528946E-02</totfact>
</mgrwt>
</event>
<event>
12    1  0.1670326E-007  0.1646799E+04  0.7818608E-02  0.8792302E-01
         -2   -1    0    0    0  501 -0.00000000000E+00  0.00000000000E+00  0.67221760022E+03  0.67221760022E+03  0.00000000000E+00 0.  1.
          2   -1    0    0  501    0  0.00000000000E+00 -0.00000000000E+00 -0.10085821032E+04  0.10085821032E+04  0.00000000000E+00 0. -1.
         23    2    1    2    0    0 -0.53738493785E+03 -0.98104517638E+02  0.14457699595E+03  0.57224374416E+03  0.90295775985E+02 0.  0.
        254    2    1    2    0    0  0.53738493785E+03  0.98104517638E+02 -0.48094149888E+03  0.11085559592E+04  0.83617254292E+03 0.  0.
        -24    2    4    4    0    0  0.42986484354E+03 -0.28628876288E+03 -0.46773222594E+03  0.70121744891E+03  0.78660256881E+02 0.  0.
         24    2    4    4    0    0  0.10752009432E+03  0.38439328051E+03 -0.13209272944E+02  0.40733851030E+03  0.80196086539E+02 0.  0.
         13    1    3    3    0    0 -0.98500427906E+02 -0.33312987999E+02  0.61757356893E+02  0.12093825118E+03  0.00000000000E+00 0. -1.
        -13    1    3    3    0    0 -0.43888450995E+03 -0.64791529639E+02  0.82819639056E+02  0.45130549298E+03  0.00000000000E+00 0.  1.
          4    1    6    6  502    0 -0.54476187600E+01  0.10274395810E+03  0.75799776631E+01  0.10316711461E+03  0.00000000000E+00 0. -1.
          3    1    5    5  503    0  0.23134671118E+03 -0.11514211805E+03 -0.20230613912E+03  0.32818711438E+03  0.00000000000E+00 0. -1.
         -4    1    5    5    0  503  0.19851813236E+03 -0.17114664483E+03 -0.26542608682E+03  0.37303033452E+03  0.00000000000E+00 0.  1.
         -3    1    6    6    0  502  0.11296771308E+03  0.28164932242E+03 -0.20789250607E+02  0.30417139569E+03  0.00000000000E+00 0.  1.
<mgrwt>
<rscale>  0 0.16467989E+04</rscale>
<asrwt>0</asrwt>
<pdfrwt beam="1">  1        2 0.15516648E+00 0.16467989E+04</pdfrwt>
<pdfrwt beam="2">  1       -2 0.10341809E+00 0.16467989E+04</pdfrwt>
<totfact> 0.18119392E+01</totfact>
</mgrwt>
</event>
<event>
12    1  0.1574430E-007  0.1790977E+04  0.7818608E-02  0.8711113E-01
          2   -1    0    0  501    0  0.00000000000E+00  0.00000000000E+00  0.10661453811E+04  0.10661453811E+04  0.00000000000E+00 0. -1.
         -2   -1    0    0    0  501 -0.00000000000E+00 -0.00000000000E+00 -0.75214816462E+03  0.75214816462E+03  0.00000000000E+00 0.  1.
         23    2    1    2    0    0  0.56827417092E+03 -0.30630089845E+03 -0.12769738414E+02  0.65821295038E+03  0.12777107698E+03 0.  0.
        254    2    1    2    0    0 -0.56827417092E+03  0.30630089845E+03  0.32676695486E+03  0.11600805953E+04  0.90678253792E+03 0.  0.
        -24    2    4    4    0    0 -0.61350874277E+03  0.19717041351E+01  0.50260538172E+03  0.79710605787E+03  0.79806219580E+02 0.  0.
         24    2    4    4    0    0  0.45234571854E+02  0.30432919431E+03 -0.17583842686E+03  0.36297453743E+03  0.78542583708E+02 0.  0.
         11    1    3    3    0    0  0.43483215155E+03 -0.19883335973E+03 -0.56285543159E+02  0.48143718939E+03  0.00000000000E+00 0.  1.
        -11    1    3    3    0    0  0.13344201937E+03 -0.10746753872E+03  0.43515804745E+02  0.17677576099E+03  0.00000000000E+00 0. -1.
          4    1    6    6  502    0  0.64872779679E+02  0.20719850979E+03 -0.13584536129E+03  0.25611259670E+03  0.00000000000E+00 0. -1.
          1    1    5    5  503    0 -0.58206010000E+03  0.19632938338E+02  0.47813543038E+03  0.75352033952E+03  0.00000000000E+00 0. -1.
         -2    1    5    5    0  503 -0.31448642766E+02 -0.17661234203E+02  0.24469951339E+02  0.43585718348E+02  0.00000000000E+00 0.  1.
         -3    1    6    6    0  502 -0.19638207825E+02  0.97130684520E+02 -0.39993065572E+02  0.10686194073E+03  0.00000000000E+00 0.  1.
<mgrwt>
<rscale>  0 0.17909766E+04</rscale>
<asrwt>0</asrwt>
<pdfrwt beam="1">  1        2 0.16402237E+00 0.17909766E+04</pdfrwt>
<pdfrwt beam="2">  1       -2 0.11571510E+00 0.17909766E+04</pdfrwt>
<totfact> 0.12549124E+01</totfact>
</mgrwt>
</event>
<event>
12    1  0.1541840E-007  0.1288744E+04  0.7818608E-02  0.9038539E-01
         -1   -1    0    0    0  501 -0.00000000000E+00  0.00000000000E+00  0.99359358304E+02  0.99359358304E+02  0.00000000000E+00 0.  1.
          1   -1    0    0  501    0  0.00000000000E+00 -0.00000000000E+00 -0.41789256174E+04  0.41789256174E+04  0.00000000000E+00 0. -1.
         23    2    1    2    0    0  0.30168620433E+03  0.70621502435E+02 -0.80165758912E+03  0.86417319856E+03  0.90213438120E+02 0.  0.
        254    2    1    2    0    0 -0.30168620433E+03 -0.70621502435E+02 -0.32779086700E+04  0.34141117772E+04  0.90303489173E+03 0.  0.
        -24    2    4    4    0    0 -0.19431471150E+03  0.32934305020E+03 -0.69680380884E+03  0.79876381251E+03  0.79139297079E+02 0.  0.
         24    2    4    4    0    0 -0.10737149283E+03 -0.39996455264E+03 -0.25811048612E+04  0.26153479647E+04  0.80264507250E+02 0.  0.
         13    1    3    3    0    0  0.28477520427E+03  0.87702803863E+02 -0.72534128772E+03  0.78416113296E+03  0.00000000000E+00 0.  1.
        -13    1    3    3    0    0  0.16911000061E+02 -0.17081301428E+02 -0.76316301402E+02  0.80012065598E+02  0.00000000000E+00 0. -1.
          4    1    6    6  502    0 -0.14634368087E+02 -0.10243362691E+03 -0.46173886958E+03  0.47319086670E+03  0.00000000000E+00 0. -1.
          3    1    5    5  503    0 -0.18779284930E+02  0.15997157304E+02 -0.17147494585E+02  0.30043421157E+02  0.00000000000E+00 0. -1.
         -4    1    5    5    0  503 -0.17553542657E+03  0.31334589290E+03 -0.67965631426E+03  0.76872039136E+03  0.00000000000E+00 0.  1.
         -3    1    6    6    0  502 -0.92737124739E+02 -0.29753092573E+03 -0.21193659916E+04  0.21421570980E+04  0.00000000000E+00 0.  1.
<mgrwt>
<rscale>  0 0.12887441E+04</rscale>
<asrwt>0</asrwt>
<pdfrwt beam="1">  1        1 0.64291162E+00 0.12887441E+04</pdfrwt>
<pdfrwt beam="2">  1       -1 0.15286055E-01 0.12887441E+04</pdfrwt>
<totfact> 0.21464505E+00</totfact>
</mgrwt>
</event>
<event>
12    1  0.1541840E-007  0.1804571E+04  0.7818608E-02  0.8703873E-01
          1   -1    0    0  501    0  0.00000000000E+00  0.00000000000E+00  0.29194958900E+04  0.29194958900E+04  0.00000000000E+00 0. -1.
         -1   -1    0    0    0  501 -0.00000000000E+00 -0.00000000000E+00 -0.27885602159E+03  0.27885602159E+03  0.00000000000E+00 0.  1.
         23    2    1    2    0    0  0.33757024329E+03 -0.38941723074E+03  0.20900449110E+03  0.56367752607E+03  0.91924030267E+02 0.  0.
        254    2    1    2    0    0 -0.33757024329E+03  0.38941723074E+03  0.24316353773E+04  0.26346743855E+04  0.87353251847E+03 0.  0.
        -24    2    4    4    0    0 -0.19279620882E+03  0.40920325822E+03  0.24234999297E+04  0.24666952696E+04  0.81338548225E+02 0.  0.
         24    2    4    4    0    0 -0.14477403447E+03 -0.19786027478E+02  0.81354476380E+01  0.16797911590E+03  0.82460838760E+02 0.  0.
         11    1    3    3    0    0 -0.55129715528E+01 -0.13234580474E+02  0.48443330672E+01  0.15133226310E+02  0.00000000000E+00 0. -1.
        -11    1    3    3    0    0  0.34308321485E+03 -0.37618265026E+03  0.20416015803E+03  0.54854429976E+03  0.00000000000E+00 0.  1.
          2    1    6    6  502    0  0.32497111071E+01 -0.26055413845E+01  0.18153579704E+02  0.18625303333E+02  0.00000000000E+00 0. -1.
          3    1    5    5  503    0 -0.48786192011E+02  0.13389216258E+03  0.58362616257E+03  0.60077175480E+03  0.00000000000E+00 0. -1.
         -4    1    5    5    0  503 -0.14401001681E+03  0.27531109564E+03  0.18398737671E+04  0.18659235148E+04  0.00000000000E+00 0.  1.
         -1    1    6    6    0  502 -0.14802374558E+03 -0.17180486093E+02 -0.10018132066E+02  0.14935381257E+03  0.00000000000E+00 0.  1.
<mgrwt>
<rscale>  0 0.18045709E+04</rscale>
<asrwt>0</asrwt>
<pdfrwt beam="1">  1        1 0.44915319E+00 0.18045709E+04</pdfrwt>
<pdfrwt beam="2">  1       -1 0.42900928E-01 0.18045709E+04</pdfrwt>
<totfact> 0.34627927E+00</totfact>
</mgrwt>
</event>
<event>
12    1  0.1541840E-007  0.1633908E+04  0.7818608E-02  0.8799984E-01
         -2   -1    0    0    0  501 -0.00000000000E+00  0.00000000000E+00  0.38677642924E+03  0.38677642924E+03  0.00000000000E+00 0.  1.
          2   -1    0    0  501    0  0.00000000000E+00 -0.00000000000E+00 -0.17255800852E+04  0.17255800852E+04  0.00000000000E+00 0. -1.
         23    2    1    2    0    0  0.47559786724E+03 -0.25096954673E+03 -0.25493557779E+03  0.60202029427E+03  0.90869363306E+02 0.  0.
        254    2    1    2    0    0 -0.47559786724E+03  0.25096954673E+03 -0.10838680782E+04  0.15103362202E+04  0.90397258937E+03 0.  0.
        -24    2    4    4    0    0 -0.19300898101E+03  0.21353095107E+03  0.80345461134E+02  0.30904759055E+03  0.78785063853E+02 0.  0.
         24    2    4    4    0    0 -0.28258888623E+03  0.37438595662E+02 -0.11642135393E+04  0.12012886296E+04  0.80268795105E+02 0.  0.
         13    1    3    3    0    0  0.16325707986E+02  0.37860596824E+01  0.28000072243E+01  0.16991263332E+02  0.00000000000E+00 0. -1.
        -13    1    3    3    0    0  0.45927215925E+03 -0.25475560641E+03 -0.25773558501E+03  0.58502903094E+03  0.00000000000E+00 0.  1.
          4    1    6    6  502    0 -0.17756811775E+03 -0.10623961037E+02 -0.62359086864E+03  0.64846655769E+03  0.00000000000E+00 0. -1.
          3    1    5    5  503    0 -0.19166904976E+03  0.20779313445E+03  0.61503112466E+02  0.28930545139E+03  0.00000000000E+00 0. -1.
         -4    1    5    5    0  503 -0.13399312490E+01  0.57378166147E+01  0.18842348668E+02  0.19742139159E+02  0.00000000000E+00 0.  1.
         -3    1    6    6    0  502 -0.10502076848E+03  0.48062556699E+02 -0.54062267065E+03  0.55282207191E+03  0.00000000000E+00 0.  1.
<mgrwt>
<rscale>  0 0.16339078E+04</rscale>
<asrwt>0</asrwt>
<pdfrwt beam="1">  1        2 0.26547385E+00 0.16339078E+04</pdfrwt>
<pdfrwt beam="2">  1       -2 0.59504067E-01 0.16339078E+04</pdfrwt>
<totfact> 0.23923548E+01</totfact>
</mgrwt>
</event>
<event>
12    1  0.1541840E-007  0.1058609E+04  0.7818608E-02  0.9246501E-01
         -1   -1    0    0    0  501 -0.00000000000E+00  0.00000000000E+00  0.41303313772E+03  0.41303313772E+03  0.00000000000E+00 0.  1.
          1   -1    0    0  501    0  0.00000000000E+00 -0.00000000000E+00 -0.67830692807E+03  0.67830692807E+03  0.00000000000E+00 0. -1.
         23    2    1    2    0    0  0.45794281493E+01  0.51889584202E+02  0.78779578110E+02  0.13355013602E+03  0.94424132471E+02 0.  0.
        254    2    1    2    0    0 -0.45794281493E+01 -0.51889584202E+02 -0.34405336846E+03  0.95778992977E+03  0.89234260748E+03 0.  0.
        -24    2    4    4    0    0 -0.10949529150E+03  0.35104754096E+03  0.48684622464E+02  0.37970649721E+03  0.81137147357E+02 0.  0.
         24    2    4    4    0    0  0.10491586335E+03 -0.40293712516E+03 -0.39273799092E+03  0.57808343257E+03  0.81065777484E+02 0.  0.
         11    1    3    3    0    0 -0.29866544402E+01 -0.26764238797E+02  0.97925242759E+01  0.28655507583E+02  0.00000000000E+00 0. -1.
        -11    1    3    3    0    0  0.75660825894E+01  0.78653823000E+02  0.68987053834E+02  0.10489462844E+03  0.00000000000E+00 0.  1.
          4    1    6    6  502    0 -0.23313744542E+01 -0.42608927085E+01 -0.24164165026E+02  0.24647462038E+02  0.00000000000E+00 0. -1.
          1    1    5    5  503    0  0.52620015922E+01  0.24103989107E+02 -0.12800926117E+02  0.27794867531E+02  0.00000000000E+00 0. -1.
         -2    1    5    5    0  503 -0.11475729309E+03  0.32694355185E+03  0.61485548580E+02  0.35191162967E+03  0.00000000000E+00 0.  1.
         -3    1    6    6    0  502  0.10724723780E+03 -0.39867623245E+03 -0.36857382590E+03  0.55343597053E+03  0.00000000000E+00 0.  1.
<mgrwt>
<rscale>  0 0.10586090E+04</rscale>
<asrwt>0</asrwt>
<pdfrwt beam="1">  1        1 0.10435491E+00 0.10586090E+04</pdfrwt>
<pdfrwt beam="2">  1       -1 0.63543560E-01 0.10586090E+04</pdfrwt>
<totfact> 0.71727119E+01</totfact>
</mgrwt>
</event>
<event>
12    1  0.1541840E-007  0.3217724E+04  0.7818608E-02  0.8184152E-01
         -2   -1    0    0    0  501 -0.00000000000E+00  0.00000000000E+00  0.15824784221E+04  0.15824784221E+04  0.00000000000E+00 0. -1.
          2   -1    0    0  501    0  0.00000000000E+00 -0.00000000000E+00 -0.16356855582E+04  0.16356855582E+04  0.00000000000E+00 0.  1.
         23    2    1    2    0    0  0.11997480613E+03  0.89286075451E+03  0.11528127442E+04  0.14663038768E+04  0.97342461465E+02 0.  0.
        254    2    1    2    0    0 -0.11997480613E+03 -0.89286075451E+03 -0.12060198803E+04  0.17518601035E+04  0.89606673275E+03 0.  0.
        -24    2    4    4    0    0 -0.30328854675E+03 -0.98662957402E+03 -0.10868091046E+04  0.15009837939E+04  0.79852743849E+02 0.  0.
         24    2    4    4    0    0  0.18331374062E+03  0.93768819511E+02 -0.11921077563E+03  0.25087630959E+03  0.79568804659E+02 0.  0.
         13    1    3    3    0    0  0.10676829081E+03  0.88312426496E+03  0.11279734133E+04  0.14365347042E+04  0.00000000000E+00 0. -1.
        -13    1    3    3    0    0  0.13206515314E+02  0.97364895455E+01  0.24839330934E+02  0.29769172590E+02  0.00000000000E+00 0.  1.
          4    1    6    6  502    0  0.76014286204E+02  0.73799578670E+02 -0.30554783159E+02  0.11026397550E+03  0.00000000000E+00 0. -1.
          1    1    5    5  503    0 -0.37685092671E+02 -0.18223355570E+03 -0.23369721293E+03  0.29873671077E+03  0.00000000000E+00 0. -1.
         -2    1    5    5    0  503 -0.26560345408E+03 -0.80439601832E+03 -0.85311189171E+03  0.12022470831E+04  0.00000000000E+00 0.  1.
         -3    1    6    6    0  502  0.10729945441E+03  0.19969240841E+02 -0.88655992468E+02  0.14061233409E+03  0.00000000000E+00 0.  1.
<mgrwt>
<rscale>  0 0.32177241E+04</rscale>
<asrwt>0</asrwt>
<pdfrwt beam="1">  1        2 0.25164393E+00 0.32177241E+04</pdfrwt>
<pdfrwt beam="2">  1       -2 0.24345822E+00 0.32177241E+04</pdfrwt>
<totfact> 0.63154633E-01</totfact>
</mgrwt>
</event>
<event>
12    1  0.1541840E-007  0.1947549E+04  0.7818608E-02  0.8631544E-01
         -1   -1    0    0    0  501 -0.00000000000E+00  0.00000000000E+00  0.63549084395E+03  0.63549084395E+03  0.00000000000E+00 0.  1.
          1   -1    0    0  501    0  0.00000000000E+00 -0.00000000000E+00 -0.14921329072E+04  0.14921329072E+04  0.00000000000E+00 0. -1.
         23    2    1    2    0    0  0.29147448976E+03  0.25063931263E+03  0.38090938003E+03  0.54988506149E+03  0.97489393451E+02 0.  0.
        254    2    1    2    0    0 -0.29147448976E+03 -0.25063931263E+03 -0.12375514433E+04  0.15777386897E+04  0.89997130781E+03 0.  0.
        -24    2    4    4    0    0 -0.43635880739E+03  0.16615650770E+03 -0.89647575966E+03  0.10140325723E+04  0.81094242238E+02 0.  0.
         24    2    4    4    0    0  0.14488431763E+03 -0.41679582033E+03 -0.34107568365E+03  0.56370611742E+03  0.81986239674E+02 0.  0.
         13    1    3    3    0    0  0.24255334040E+03  0.17667371442E+03  0.24396938435E+03  0.38673865181E+03  0.00000000000E+00 0. -1.
        -13    1    3    3    0    0  0.48921149364E+02  0.73965598207E+02  0.13693999568E+03  0.16314640967E+03  0.00000000000E+00 0.  1.
          4    1    6    6  502    0  0.43545537421E+02 -0.24901635303E+03 -0.19047593031E+03  0.31652241300E+03  0.00000000000E+00 0. -1.
          1    1    5    5  503    0 -0.31311676969E+03  0.15079453791E+03 -0.61565123753E+03  0.70697068567E+03  0.00000000000E+00 0. -1.
         -2    1    5    5    0  503 -0.12324203771E+03  0.15361969797E+02 -0.28082452212E+03  0.30706188659E+03  0.00000000000E+00 0.  1.
         -3    1    6    6    0  502  0.10133878021E+03 -0.16777946730E+03 -0.15059975334E+03  0.24718370442E+03  0.00000000000E+00 0.  1.
<mgrwt>
<rscale>  0 0.19475490E+04</rscale>
<asrwt>0</asrwt>
<pdfrwt beam="1">  1        1 0.22955891E+00 0.19475490E+04</pdfrwt>
<pdfrwt beam="2">  1       -1 0.97767823E-01 0.19475490E+04</pdfrwt>
<totfact> 0.61940541E+00</totfact>
</mgrwt>
</event>
<event>
12    1  0.1541840E-007  0.1263039E+04  0.7818608E-02  0.9059400E-01
         -1   -1    0    0    0  501 -0.00000000000E+00  0.00000000000E+00  0.44173962472E+03  0.44173962472E+03  0.00000000000E+00 0.  1.
          1   -1    0    0  501    0  0.00000000000E+00 -0.00000000000E+00 -0.90283302968E+03  0.90283302968E+03  0.00000000000E+00 0. -1.
         23    2    1    2    0    0 -0.10257604462E+03  0.21428650765E+03 -0.30952027030E+03  0.40091389794E+03  0.92133617902E+02 0.  0.
        254    2    1    2    0    0  0.10257604462E+03 -0.21428650765E+03 -0.15157313465E+03  0.94365875646E+03  0.90059806862E+03 0.  0.
        -24    2    4    4    0    0  0.31819503334E+03 -0.16231325360E+03 -0.43941877133E+03  0.57182281842E+03  0.79365027146E+02 0.  0.
         24    2    4    4    0    0 -0.21561898872E+03 -0.51973254058E+02  0.28784563667E+03  0.37183593804E+03  0.78829479468E+02 0.  0.
         11    1    3    3    0    0 -0.78566187152E+02  0.18042067312E+03 -0.18666510856E+03  0.27123445173E+03  0.00000000000E+00 0. -1.
        -11    1    3    3    0    0 -0.24009857464E+02  0.33865834535E+02 -0.12285516174E+03  0.12967944621E+03  0.00000000000E+00 0.  1.
          2    1    6    6  502    0 -0.41274215168E+02  0.18578684719E+02  0.37921474729E+02  0.59048849347E+02  0.00000000000E+00 0. -1.
          1    1    5    5  503    0  0.82878378891E+02 -0.78480553168E+02 -0.16620120112E+03  0.20162058964E+03  0.00000000000E+00 0. -1.
         -2    1    5    5    0  503  0.23531665445E+03 -0.83832700428E+02 -0.27321757020E+03  0.37020222877E+03  0.00000000000E+00 0.  1.
         -1    1    6    6    0  502 -0.17434477355E+03 -0.70551938777E+02  0.24992416194E+03  0.31278708869E+03  0.00000000000E+00 0.  1.
<mgrwt>
<rscale>  0 0.12630394E+04</rscale>
<asrwt>0</asrwt>
<pdfrwt beam="1">  1        1 0.13889739E+00 0.12630394E+04</pdfrwt>
<pdfrwt beam="2">  1       -1 0.67959943E-01 0.12630394E+04</pdfrwt>
<totfact> 0.39098600E+01</totfact>
</mgrwt>
</event>
<event>
12    1  0.1541840E-007  0.1337500E+04  0.7818608E-02  0.9000345E-01
         -1   -1    0    0    0  501 -0.00000000000E+00  0.00000000000E+00  0.52157890005E+03  0.52157890005E+03  0.00000000000E+00 0.  1.
          1   -1    0    0  501    0  0.00000000000E+00 -0.00000000000E+00 -0.85744737012E+03  0.85744737012E+03  0.00000000000E+00 0. -1.
         23    2    1    2    0    0 -0.26833469992E+03  0.23225089122E+03 -0.57808514502E+02  0.37077355617E+03  0.90483246821E+02 0.  0.
        254    2    1    2    0    0  0.26833469992E+03 -0.23225089122E+03 -0.27805995557E+03  0.10082527140E+04  0.90183823868E+03 0.  0.
        -24    2    4    4    0    0  0.24620108028E+03  0.20755833342E+03  0.17141438007E+03  0.37387811084E+03  0.81893335340E+02 0.  0.
         24    2    4    4    0    0  0.22133619639E+02 -0.43980922463E+03 -0.44947433564E+03  0.63437460316E+03  0.80510294663E+02 0.  0.
         11    1    3    3    0    0 -0.29887114740E+02 -0.33710246555E+00 -0.19012730973E+02  0.35423681409E+02  0.00000000000E+00 0. -1.
        -11    1    3    3    0    0 -0.23844758518E+03  0.23258799368E+03 -0.38795783529E+02  0.33534987476E+03  0.00000000000E+00 0.  1.
          4    1    6    6  502    0 -0.12962159081E+02 -0.61763179124E+02 -0.10059071093E+03  0.11874846942E+03  0.00000000000E+00 0. -1.
          3    1    5    5  503    0  0.76717937740E+02  0.62804387857E+02  0.97501841596E+02  0.13905625559E+03  0.00000000000E+00 0. -1.
         -4    1    5    5    0  503  0.16948314254E+03  0.14475394556E+03  0.73912538472E+02  0.23482185525E+03  0.00000000000E+00 0.  1.
         -3    1    6    6    0  502  0.35095778720E+02 -0.37804604551E+03 -0.34888362471E+03  0.51562613374E+03  0.00000000000E+00 0.  1.
<mgrwt>
<rscale>  0 0.13374998E+04</rscale>
<asrwt>0</asrwt>
<pdfrwt beam="1">  1        1 0.13191498E+00 0.13374998E+04</pdfrwt>
<pdfrwt beam="2">  1       -1 0.80242907E-01 0.13374998E+04</pdfrwt>
<totfact> 0.29985719E+01</totfact>
</mgrwt>
</event>
<event>
12    1  0.1541840E-007  0.2410472E+04  0.7818608E-02  0.8435593E-01
         -2   -1    0    0    0  501 -0.00000000000E+00  0.00000000000E+00  0.93628262384E+03  0.93628262384E+03  0.00000000000E+00 0.  1.
          2   -1    0    0  501    0  0.00000000000E+00 -0.00000000000E+00 -0.15514482481E+04  0.15514482481E+04  0.00000000000E+00 0. -1.
         23    2    1    2    0    0 -0.60253889520E+03 -0.64841789369E+03  0.29264666227E+03  0.93684077321E+03  0.92356268524E+02 0.  0.
        254    2    1    2    0    0  0.60253889520E+03  0.64841789369E+03 -0.90781228649E+03  0.15508900987E+04  0.89310585354E+03 0.  0.
        -24    2    4    4    0    0  0.49295487022E+03  0.86116889129E+03 -0.64309560824E+03  0.11851425122E+04  0.79840150144E+02 0.  0.
         24    2    4    4    0    0  0.10958402498E+03 -0.21275099761E+03 -0.26471667825E+03  0.36574758645E+03  0.80154424317E+02 0.  0.
         11    1    3    3    0    0 -0.16717175882E+02 -0.14392377712E+02 -0.68953264263E+01  0.23111686052E+02  0.00000000000E+00 0. -1.
        -11    1    3    3    0    0 -0.58582171932E+03 -0.63402551597E+03  0.29954198870E+03  0.91372908716E+03  0.00000000000E+00 0.  1.
          2    1    6    6  502    0 -0.32477686504E+01 -0.52385944491E+02 -0.84233679273E+02  0.99247911340E+02  0.00000000000E+00 0. -1.
          3    1    5    5  503    0  0.96111431817E+02  0.22749827614E+03 -0.13892426106E+03  0.28335988298E+03  0.00000000000E+00 0. -1.
         -4    1    5    5    0  503  0.39684343840E+03  0.63367061515E+03 -0.50417134718E+03  0.90178262925E+03  0.00000000000E+00 0.  1.
         -1    1    6    6    0  502  0.11283179363E+03 -0.16036505311E+03 -0.18048299898E+03  0.26649967511E+03  0.00000000000E+00 0.  1.
<mgrwt>
<rscale>  0 0.24104722E+04</rscale>
<asrwt>0</asrwt>
<pdfrwt beam="1">  1        2 0.23868434E+00 0.24104722E+04</pdfrwt>
<pdfrwt beam="2">  1       -2 0.14404348E+00 0.24104722E+04</pdfrwt>
<totfact> 0.35575860E+00</totfact>
</mgrwt>
</event>
<event>
12    1  0.1541840E-007  0.1190427E+04  0.7818608E-02  0.9121277E-01
         -2   -1    0    0    0  501 -0.00000000000E+00  0.00000000000E+00  0.49312711205E+03  0.49312711205E+03  0.00000000000E+00 0.  1.
          2   -1    0    0  501    0  0.00000000000E+00 -0.00000000000E+00 -0.71843334835E+03  0.71843334835E+03  0.00000000000E+00 0. -1.
         23    2    1    2    0    0 -0.48246392095E+02  0.15561643563E+03  0.13214635962E+03  0.22882350378E+03  0.91396641790E+02 0.  0.
        254    2    1    2    0    0  0.48246392095E+02 -0.15561643563E+03 -0.35745259593E+03  0.98273695662E+03  0.90080818057E+03 0.  0.
        -24    2    4    4    0    0  0.30604127264E+03  0.10698623796E+02  0.17586824253E+03  0.36196379704E+03  0.79450805715E+02 0.  0.
         24    2    4    4    0    0 -0.25779488054E+03 -0.16631505943E+03 -0.53332083845E+03  0.62077315958E+03  0.82518479801E+02 0.  0.
         11    1    3    3    0    0  0.16201821041E+02  0.63952371536E+02  0.16943209965E+02  0.68113707828E+02  0.00000000000E+00 0. -1.
        -11    1    3    3    0    0 -0.64448213136E+02  0.91664064093E+02  0.11520314966E+03  0.16070979595E+03  0.00000000000E+00 0.  1.
          2    1    6    6  502    0 -0.26304034841E+03 -0.15609675281E+03 -0.51886123622E+03  0.60230673546E+03  0.00000000000E+00 0. -1.
          1    1    5    5  503    0  0.27395184039E+03  0.19330742061E+02  0.18016785086E+03  0.32845660737E+03  0.00000000000E+00 0. -1.
         -2    1    5    5    0  503  0.32089432247E+02 -0.86321182649E+01 -0.42996083328E+01  0.33507189669E+02  0.00000000000E+00 0.  1.
         -1    1    6    6    0  502  0.52454678687E+01 -0.10218306613E+02 -0.14459602231E+02  0.18466424123E+02  0.00000000000E+00 0.  1.
<mgrwt>
<rscale>  0 0.11904268E+04</rscale>
<asrwt>0</asrwt>
<pdfrwt beam="1">  1        2 0.11052821E+00 0.11904268E+04</pdfrwt>
<pdfrwt beam="2">  1       -2 0.75865710E-01 0.11904268E+04</pdfrwt>
<totfact> 0.60952180E+01</totfact>
</mgrwt>
</event>
<event>
12    1  0.1541840E-007  0.3568640E+04  0.7818608E-02  0.8097713E-01
         -2   -1    0    0    0  501 -0.00000000000E+00  0.00000000000E+00  0.14087414552E+04  0.14087414552E+04  0.00000000000E+00 0.  1.
          2   -1    0    0  501    0  0.00000000000E+00 -0.00000000000E+00 -0.22600304452E+04  0.22600304452E+04  0.00000000000E+00 0. -1.
         23    2    1    2    0    0 -0.87643519493E+03  0.13725239839E+04 -0.18815305294E+02  0.16311674620E+04  0.91610786955E+02 0.  0.
        254    2    1    2    0    0  0.87643519493E+03 -0.13725239839E+04 -0.83247368470E+03  0.20376044383E+04  0.89825312359E+03 0.  0.
        -24    2    4    4    0    0  0.41438791203E+03 -0.12899250247E+04 -0.45962881890E+03  0.14330297634E+04  0.81803060024E+02 0.  0.
         24    2    4    4    0    0  0.46204728290E+03 -0.82598959118E+02 -0.37284486579E+03  0.60457467485E+03  0.78657255489E+02 0.  0.
         13    1    3    3    0    0 -0.74994701172E+03  0.11730772560E+04 -0.48369682284E+02  0.13931512463E+04  0.00000000000E+00 0.  1.
        -13    1    3    3    0    0 -0.12648818321E+03  0.19944672788E+03  0.29554376990E+02  0.23801621573E+03  0.00000000000E+00 0. -1.
          4    1    6    6  502    0  0.27752746004E+03 -0.10574208228E+02 -0.21121267731E+03  0.34891847187E+03  0.00000000000E+00 0. -1.
          1    1    5    5  503    0  0.18614372515E+03 -0.69055176762E+03 -0.26622195459E+03  0.76314176879E+03  0.00000000000E+00 0. -1.
         -2    1    5    5    0  503  0.22824418687E+03 -0.59937325713E+03 -0.19340686432E+03  0.66988799465E+03  0.00000000000E+00 0.  1.
         -3    1    6    6    0  502  0.18451982286E+03 -0.72024750890E+02 -0.16163218848E+03  0.25565620298E+03  0.00000000000E+00 0.  1.
<mgrwt>
<rscale>  0 0.35686404E+04</rscale>
<asrwt>0</asrwt>
<pdfrwt beam="1">  1        2 0.34769699E+00 0.35686404E+04</pdfrwt>
<pdfrwt beam="2">  1       -2 0.21672946E+00 0.35686404E+04</pdfrwt>
<totfact> 0.40466337E-01</totfact>
</mgrwt>
</event>
