<event>
12    1  0.1562393E-007  0.2071210E+04  0.7818608E-02  0.8574033E-01
         -1   -1    0    0    0  501 -0.00000000000E+00  0.00000000000E+00  0.14853655530E+04  0.14853655530E+04  0.00000000000E+00 0.  1.
          1   -1    0    0  501    0  0.00000000000E+00 -0.00000000000E+00 -0.72202954367E+03  0.72202954367E+03  0.00000000000E+00 0. -1.
         23    2    1    2    0    0 -0.17376752403E+03  0.12593234779E+03 -0.54511338606E+03  0.59310425700E+03  0.92574010289E+02 0.  0.
        254    2    1    2    0    0  0.17376752403E+03 -0.12593234779E+03  0.13084493954E+04  0.16142908396E+04  0.92078281157E+03 0.  0.
        -24    2    4    4    0    0 -0.36382526033E+03 -0.14945236634E+03  0.57435802310E+03  0.70109944819E+03  0.83357469310E+02 0.  0.
         24    2    4    4    0    0  0.53759278436E+03  0.23520018547E+02  0.73409137228E+03  0.91319139146E+03  0.73953914768E+02 0.  0.
         11    1    3    3    0    0 -0.17119863109E+03  0.84535776720E+02 -0.46997027385E+03  0.50727441009E+03  0.00000000000E+00 0. -1.
        -11    1    3    3    0    0 -0.25688929400E+01  0.41396571069E+02 -0.75143112213E+02  0.85829846908E+02  0.00000000000E+00 0.  1.
          2    1    6    6  502    0  0.36193727236E+03  0.40576812290E+02  0.45243494765E+03  0.58081188751E+03  0.00000000000E+00 0. -1.
          3    1    5    5  503    0 -0.12844589235E+03 -0.16329176960E+02  0.15303096425E+03  0.20045813852E+03  0.00000000000E+00 0. -1.
         -4    1    5    5    0  503 -0.23537936799E+03 -0.13312318938E+03  0.42132705885E+03  0.50064130966E+03  0.00000000000E+00 0.  1.
         -1    1    6    6    0  502  0.17565551200E+03 -0.17056793743E+02  0.28165642464E+03  0.33237950395E+03  0.00000000000E+00 0.  1.
<mgrwt>
<rscale>  0 0.20712101E+04</rscale>
<asrwt>0</asrwt>
<pdfrwt beam="1">  1        1 0.11108147E+00 0.20712101E+04</pdfrwt>
<pdfrwt beam="2">  1       -1 0.22851778E+00 0.20712101E+04</pdfrwt>
<totfact> 0.23126224E+00</totfact>
</mgrwt>
</event>
<event>
12    1  0.1562393E-007  0.1481716E+04  0.7818608E-02  0.8896704E-01
          1   -1    0    0  501    0  0.00000000000E+00  0.00000000000E+00  0.10929682300E+04  0.10929682300E+04  0.00000000000E+00 0. -1.
         -1   -1    0    0    0  501 -0.00000000000E+00 -0.00000000000E+00 -0.50218334729E+03  0.50218334729E+03  0.00000000000E+00 0.  1.
         23    2    1    2    0    0 -0.43008974192E+03 -0.18096867952E+03  0.15136769097E+03  0.49816107011E+03  0.86749206514E+02 0.  0.
        254    2    1    2    0    0  0.43008974192E+03  0.18096867952E+03  0.43941719177E+03  0.10969905072E+04  0.89026617108E+03 0.  0.
        -24    2    4    4    0    0 -0.18079584681E+03 -0.40952382496E+02 -0.12133653374E+03  0.23537105758E+03  0.79452781393E+02 0.  0.
         24    2    4    4    0    0  0.61088558873E+03  0.22192106202E+03  0.56075372551E+03  0.86161944961E+03  0.74250757539E+02 0.  0.
         13    1    3    3    0    0 -0.72437319919E+02 -0.20723416292E+01  0.41220031842E+02  0.83369964268E+02  0.00000000000E+00 0.  1.
        -13    1    3    3    0    0 -0.35765242200E+03 -0.17889633789E+03  0.11014765912E+03  0.41479110584E+03  0.00000000000E+00 0. -1.
          4    1    6    6  502    0  0.53223181126E+03  0.18586364707E+03  0.45158050420E+03  0.72231637666E+03  0.00000000000E+00 0. -1.
          3    1    5    5  503    0 -0.74877198361E+02 -0.56078408002E+02 -0.69132110667E+02  0.11632124227E+03  0.00000000000E+00 0. -1.
         -4    1    5    5    0  503 -0.10591864845E+03  0.15126025506E+02 -0.52204423073E+02  0.11904981531E+03  0.00000000000E+00 0.  1.
         -3    1    6    6    0  502  0.78653777470E+02  0.36057414948E+02  0.10917322131E+03  0.13930307295E+03  0.00000000000E+00 0.  1.
<mgrwt>
<rscale>  0 0.14817158E+04</rscale>
<asrwt>0</asrwt>
<pdfrwt beam="1">  1        1 0.16814896E+00 0.14817158E+04</pdfrwt>
<pdfrwt beam="2">  1       -1 0.77258976E-01 0.14817158E+04</pdfrwt>
<totfact> 0.20888563E+01</totfact>
</mgrwt>
</event>
<event>
12    1  0.1562393E-007  0.2174834E+04  0.7818608E-02  0.8528976E-01
         -1   -1    0    0    0  501 -0.00000000000E+00  0.00000000000E+00  0.16311273771E+04  0.16311273771E+04  0.00000000000E+00 0.  1.
          1   -1    0    0  501    0  0.00000000000E+00 -0.00000000000E+00 -0.72494394164E+03  0.72494394164E+03  0.00000000000E+00 0. -1.
         23    2    1    2    0    0 -0.88116157153E+03  0.44465419667E+00  0.56074509373E+03  0.10458417549E+04  0.53888804318E+02 0.  0.
        254    2    1    2    0    0  0.88116157153E+03 -0.44465419667E+00  0.34543834170E+03  0.13102295638E+04  0.90605074317E+03 0.  0.
        -24    2    4    4    0    0  0.32099567171E+03 -0.43696493129E+03  0.11937531441E+03  0.56090665774E+03  0.79932725289E+02 0.  0.
         24    2    4    4    0    0  0.56016589982E+03  0.43652027709E+03  0.22606302729E+03  0.74932290611E+03  0.77746624906E+02 0.  0.
         13    1    3    3    0    0 -0.81947840809E+03 -0.11682955507E+02  0.51266457674E+03  0.96669867126E+03  0.00000000000E+00 0.  1.
        -13    1    3    3    0    0 -0.61683163437E+02  0.12127609704E+02  0.48080516993E+02  0.79143083608E+02  0.00000000000E+00 0. -1.
          2    1    6    6  502    0  0.22620677943E+03  0.13707795953E+03  0.10631761468E+03  0.28506720127E+03  0.00000000000E+00 0. -1.
          3    1    5    5  503    0  0.67013241753E+01 -0.32922581523E+01 -0.74088808473E+01  0.10518470652E+02  0.00000000000E+00 0. -1.
         -4    1    5    5    0  503  0.31429434754E+03 -0.43367267313E+03  0.12678419525E+03  0.55038818708E+03  0.00000000000E+00 0.  1.
         -1    1    6    6    0  502  0.33395912039E+03  0.29944231756E+03  0.11974541262E+03  0.46425570484E+03  0.00000000000E+00 0.  1.
<mgrwt>
<rscale>  0 0.21748342E+04</rscale>
<asrwt>0</asrwt>
<pdfrwt beam="1">  1        1 0.11152984E+00 0.21748342E+04</pdfrwt>
<pdfrwt beam="2">  1       -1 0.25094267E+00 0.21748342E+04</pdfrwt>
<totfact> 0.16216060E+00</totfact>
</mgrwt>
</event>
<event>
12    1  0.1562393E-007  0.1754552E+04  0.7818608E-02  0.8730849E-01
         -2   -1    0    0    0  501 -0.00000000000E+00  0.00000000000E+00  0.64487745551E+03  0.64487745551E+03  0.00000000000E+00 0.  1.
          2   -1    0    0  501    0  0.00000000000E+00 -0.00000000000E+00 -0.11934257584E+04  0.11934257584E+04  0.00000000000E+00 0. -1.
         23    2    1    2    0    0 -0.55311575221E+03  0.26104443799E+03 -0.41885747714E+03  0.74687192424E+03  0.91076073259E+02 0.  0.
        254    2    1    2    0    0  0.55311575221E+03 -0.26104443799E+03 -0.12969082575E+03  0.10914312897E+04  0.89460679398E+03 0.  0.
        -24    2    4    4    0    0  0.58702094294E+03 -0.51547242951E+03  0.17158280022E+02  0.78601008283E+03  0.84923675757E+02 0.  0.
         24    2    4    4    0    0 -0.33905190725E+02  0.25442799152E+03 -0.14684910578E+03  0.30542120683E+03  0.76382516901E+02 0.  0.
         11    1    3    3    0    0 -0.52293555990E+02  0.14002073988E+02 -0.10721481272E+02  0.55187174549E+02  0.00000000000E+00 0.  1.
        -11    1    3    3    0    0 -0.50082219622E+03  0.24704236400E+03 -0.40813599586E+03  0.69168474970E+03  0.00000000000E+00 0. -1.
          2    1    6    6  502    0  0.17344216869E+02  0.99320032987E+02 -0.32170237141E+02  0.10583106807E+03  0.00000000000E+00 0. -1.
          1    1    5    5  503    0  0.16010746092E+03 -0.19302222157E+03  0.19656148627E+01  0.25079043184E+03  0.00000000000E+00 0. -1.
         -2    1    5    5    0  503  0.42691348202E+03 -0.32245020795E+03  0.15192665160E+02  0.53521965099E+03  0.00000000000E+00 0.  1.
         -1    1    6    6    0  502 -0.51249407594E+02  0.15510795854E+03 -0.11467886864E+03  0.19959013876E+03  0.00000000000E+00 0.  1.
<mgrwt>
<rscale>  0 0.17545522E+04</rscale>
<asrwt>0</asrwt>
<pdfrwt beam="1">  1        2 0.18360396E+00 0.17545522E+04</pdfrwt>
<pdfrwt beam="2">  1       -2 0.99211917E-01 0.17545522E+04</pdfrwt>
<totfact> 0.15244128E+01</totfact>
</mgrwt>
</event>
<event>
12    1  0.1562393E-007  0.1559938E+04  0.7818608E-02  0.8845545E-01
         -1   -1    0    0    0  501 -0.00000000000E+00  0.00000000000E+00  0.40099677979E+03  0.40099677979E+03  0.00000000000E+00 0.  1.
          1   -1    0    0  501    0  0.00000000000E+00 -0.00000000000E+00 -0.15170993969E+04  0.15170993969E+04  0.00000000000E+00 0. -1.
         23    2    1    2    0    0  0.11069424873E+03 -0.49236533475E+03 -0.25543160228E+03  0.57287164269E+03  0.90883309731E+02 0.  0.
        254    2    1    2    0    0 -0.11069424873E+03  0.49236533475E+03 -0.86067101485E+03  0.13452245340E+04  0.90232899297E+03 0.  0.
        -24    2    4    4    0    0 -0.47923453877E+03  0.42325580141E+03 -0.46582005839E+03  0.79513964187E+03  0.80296367918E+02 0.  0.
         24    2    4    4    0    0  0.36854029004E+03  0.69109533342E+02 -0.39485095646E+03  0.55008489214E+03  0.78025878850E+02 0.  0.
         13    1    3    3    0    0  0.43695420639E+02 -0.17755817746E+03 -0.44946440192E+02  0.18829864220E+03  0.00000000000E+00 0.  1.
        -13    1    3    3    0    0  0.66998828092E+02 -0.31480715729E+03 -0.21048516209E+03  0.38457300049E+03  0.00000000000E+00 0. -1.
          4    1    6    6  502    0  0.23703876053E+03  0.49172322507E+02 -0.30578882109E+03  0.39001550533E+03  0.00000000000E+00 0. -1.
          3    1    5    5  503    0 -0.12246610886E+03  0.12556052418E+03 -0.87840320874E+02  0.19616145142E+03  0.00000000000E+00 0. -1.
         -4    1    5    5    0  503 -0.35676842991E+03  0.29769527723E+03 -0.37797973752E+03  0.59897819045E+03  0.00000000000E+00 0.  1.
         -3    1    6    6    0  502  0.13150152951E+03  0.19937210835E+02 -0.89062135365E+02  0.16006938681E+03  0.00000000000E+00 0.  1.
<mgrwt>
<rscale>  0 0.15599384E+04</rscale>
<asrwt>0</asrwt>
<pdfrwt beam="1">  1        1 0.23339992E+00 0.15599384E+04</pdfrwt>
<pdfrwt beam="2">  1       -1 0.61691810E-01 0.15599384E+04</pdfrwt>
<totfact> 0.16329950E+01</totfact>
</mgrwt>
</event>
<event>
12    1  0.1562393E-007  0.1645436E+04  0.7818608E-02  0.8793111E-01
          2   -1    0    0  501    0  0.00000000000E+00  0.00000000000E+00  0.17834803181E+04  0.17834803181E+04  0.00000000000E+00 0.  1.
         -2   -1    0    0    0  501 -0.00000000000E+00 -0.00000000000E+00 -0.37951890476E+03  0.37951890476E+03  0.00000000000E+00 0. -1.
         23    2    1    2    0    0  0.40517204846E+03 -0.40320590355E+03  0.39641034888E+03  0.70162205868E+03  0.91613094109E+02 0.  0.
        254    2    1    2    0    0 -0.40517204846E+03  0.40320590355E+03  0.10075510645E+04  0.14613771642E+04  0.89091227345E+03 0.  0.
        -24    2    4    4    0    0 -0.98126114960E+02  0.62152210451E+03  0.43082080895E+03  0.76737134713E+03  0.85637340827E+02 0.  0.
         24    2    4    4    0    0 -0.30704593350E+03 -0.21831620096E+03  0.57673025553E+03  0.69400581707E+03  0.84185020021E+02 0.  0.
         11    1    3    3    0    0  0.37573225911E+03 -0.33080978612E+03  0.34815226270E+03  0.60977032000E+03  0.00000000000E+00 0.  1.
        -11    1    3    3    0    0  0.29439789346E+02 -0.72396117437E+02  0.48258086178E+02  0.91851738679E+02  0.00000000000E+00 0. -1.
          4    1    6    6  502    0 -0.76468819752E+02 -0.33577314610E+02  0.77705450094E+02  0.11407477120E+03  0.00000000000E+00 0. -1.
          1    1    5    5  503    0 -0.20954711032E+02  0.32722805841E+03  0.18692831052E+03  0.37743806829E+03  0.00000000000E+00 0. -1.
         -2    1    5    5    0  503 -0.77171403928E+02  0.29429404610E+03  0.24389249843E+03  0.38993327884E+03  0.00000000000E+00 0.  1.
         -3    1    6    6    0  502 -0.23057711375E+03 -0.18473888635E+03  0.49902480544E+03  0.57993104586E+03  0.00000000000E+00 0.  1.
<mgrwt>
<rscale>  0 0.16454355E+04</rscale>
<asrwt>0</asrwt>
<pdfrwt beam="1">  1        2 0.27438158E+00 0.16454355E+04</pdfrwt>
<pdfrwt beam="2">  1       -2 0.58387525E-01 0.16454355E+04</pdfrwt>
<totfact> 0.23100957E+01</totfact>
</mgrwt>
</event>
<event>
12    1  0.1562393E-007  0.1875390E+04  0.7818608E-02  0.8667204E-01
         -2   -1    0    0    0  501 -0.00000000000E+00  0.00000000000E+00  0.28007199906E+03  0.28007199906E+03  0.00000000000E+00 0. -1.
          2   -1    0    0  501    0  0.00000000000E+00 -0.00000000000E+00 -0.31394511631E+04  0.31394511631E+04  0.00000000000E+00 0.  1.
         23    2    1    2    0    0  0.38974767166E+03  0.24609289637E+02 -0.22240693373E+04  0.22599905195E+04  0.92541160456E+02 0.  0.
        254    2    1    2    0    0 -0.38974767166E+03 -0.24609289637E+02 -0.63530982679E+03  0.11595326427E+04  0.88791244435E+03 0.  0.
        -24    2    4    4    0    0 -0.86159221955E+02 -0.41494726714E+03 -0.45476113996E+03  0.62685205126E+03  0.80815553648E+02 0.  0.
         24    2    4    4    0    0 -0.30358844971E+03  0.39033797750E+03 -0.18054868682E+03  0.53268059146E+03  0.81370146469E+02 0.  0.
         13    1    3    3    0    0  0.35637719613E+03 -0.15536182189E+01 -0.20557508103E+04  0.20864128339E+04  0.00000000000E+00 0.  1.
        -13    1    3    3    0    0  0.33370475530E+02  0.26162907855E+02 -0.16831852700E+03  0.17357768554E+03  0.00000000000E+00 0. -1.
          2    1    6    6  502    0 -0.15703277680E+03  0.26495052033E+03 -0.10226457337E+03  0.32452444312E+03  0.00000000000E+00 0. -1.
          1    1    5    5  503    0 -0.71646814884E+02 -0.15433692136E+03 -0.16880309796E+03  0.23968236744E+03  0.00000000000E+00 0. -1.
         -2    1    5    5    0  503 -0.14512407071E+02 -0.26061034577E+03 -0.28595804200E+03  0.38716968382E+03  0.00000000000E+00 0.  1.
         -1    1    6    6    0  502 -0.14655567290E+03  0.12538745717E+03 -0.78284113454E+02  0.20815614835E+03  0.00000000000E+00 0.  1.
<mgrwt>
<rscale>  0 0.18753905E+04</rscale>
<asrwt>0</asrwt>
<pdfrwt beam="1">  1        2 0.48299242E+00 0.18753905E+04</pdfrwt>
<pdfrwt beam="2">  1       -2 0.43088005E-01 0.18753905E+04</pdfrwt>
<totfact> 0.68314241E+00</totfact>
</mgrwt>
</event>
<event>
12    1  0.1562393E-007  0.1957508E+04  0.7818608E-02  0.8626749E-01
          2   -1    0    0  501    0  0.00000000000E+00  0.00000000000E+00  0.16898064738E+04  0.16898064738E+04  0.00000000000E+00 0. -1.
         -2   -1    0    0    0  501 -0.00000000000E+00 -0.00000000000E+00 -0.56690487263E+03  0.56690487263E+03  0.00000000000E+00 0.  1.
         23    2    1    2    0    0  0.33287086130E+03 -0.10240094648E+03 -0.34284255054E+03  0.49746075129E+03  0.92936647576E+02 0.  0.
        254    2    1    2    0    0 -0.33287086130E+03  0.10240094648E+03  0.14657441517E+04  0.17592505951E+04  0.90844249906E+03 0.  0.
        -24    2    4    4    0    0  0.11144362158E+03 -0.16184766647E+03  0.99807161704E+01  0.21233795501E+03  0.79833855659E+02 0.  0.
         24    2    4    4    0    0 -0.44431448288E+03  0.26424861296E+03  0.14557634355E+04  0.15469126401E+04  0.80304712189E+02 0.  0.
         11    1    3    3    0    0  0.23670672705E+03 -0.11053368381E+03 -0.27621809247E+03  0.38018969541E+03  0.00000000000E+00 0.  1.
        -11    1    3    3    0    0  0.96164134252E+02  0.81327373286E+01 -0.66624458074E+02  0.11727105588E+03  0.00000000000E+00 0. -1.
          4    1    6    6  502    0 -0.35022909762E+03  0.24237628291E+03  0.12152919510E+04  0.12877659763E+04  0.00000000000E+00 0. -1.
          3    1    5    5  503    0  0.61668868738E+02 -0.14577070285E+03  0.18448546136E+02  0.15935023073E+03  0.00000000000E+00 0. -1.
         -2    1    5    5    0  503  0.49774752844E+02 -0.16076963627E+02 -0.84678299654E+01  0.52987724281E+02  0.00000000000E+00 0.  1.
         -3    1    6    6    0  502 -0.94085385259E+02  0.21872330049E+02  0.24047148447E+03  0.25914666385E+03  0.00000000000E+00 0.  1.
<mgrwt>
<rscale>  0 0.19575081E+04</rscale>
<asrwt>0</asrwt>
<pdfrwt beam="1">  1        2 0.25997022E+00 0.19575081E+04</pdfrwt>
<pdfrwt beam="2">  1       -2 0.87216135E-01 0.19575081E+04</pdfrwt>
<totfact> 0.10522796E+01</totfact>
</mgrwt>
</event>
<event>
12    1  0.1562393E-007  0.1625731E+04  0.7818608E-02  0.8804895E-01
         -2   -1    0    0    0  501 -0.00000000000E+00  0.00000000000E+00  0.39897469799E+03  0.39897469799E+03  0.00000000000E+00 0.  1.
          2   -1    0    0  501    0  0.00000000000E+00 -0.00000000000E+00 -0.16561208338E+04  0.16561208338E+04  0.00000000000E+00 0. -1.
         23    2    1    2    0    0 -0.52708268272E+03  0.51811118120E+02 -0.51113276587E+03  0.74174177602E+03  0.91780235110E+02 0.  0.
        254    2    1    2    0    0  0.52708268272E+03 -0.51811118120E+02 -0.74601336998E+03  0.13133537558E+04  0.94226407834E+03 0.  0.
        -24    2    4    4    0    0  0.15885111883E+01  0.36591291396E+03 -0.42001298414E+03  0.56279597846E+03  0.80209865725E+02 0.  0.
         24    2    4    4    0    0  0.52549417153E+03 -0.41772403208E+03 -0.32600038584E+03  0.75055777735E+03  0.80145082726E+02 0.  0.
         13    1    3    3    0    0 -0.15741172785E+02  0.13825536085E+02 -0.41198216415E+02  0.46219292557E+02  0.00000000000E+00 0.  1.
        -13    1    3    3    0    0 -0.51134150994E+03  0.37985582035E+02 -0.46993454945E+03  0.69552248346E+03  0.00000000000E+00 0. -1.
          2    1    6    6  502    0  0.12875691205E+03 -0.77420742245E+02 -0.43514823861E+02  0.15641564380E+03  0.00000000000E+00 0. -1.
          1    1    5    5  503    0 -0.31554201352E+02  0.96361269524E+02 -0.13834997638E+03  0.17152806724E+03  0.00000000000E+00 0. -1.
         -2    1    5    5    0  503  0.33142712541E+02  0.26955164443E+03 -0.28166300776E+03  0.39126791122E+03  0.00000000000E+00 0.  1.
         -1    1    6    6    0  502  0.39673725949E+03 -0.34030328983E+03 -0.28248556198E+03  0.59414213355E+03  0.00000000000E+00 0.  1.
<mgrwt>
<rscale>  0 0.16257310E+04</rscale>
<asrwt>0</asrwt>
<pdfrwt beam="1">  1        2 0.25478783E+00 0.16257310E+04</pdfrwt>
<pdfrwt beam="2">  1       -2 0.61380722E-01 0.16257310E+04</pdfrwt>
<totfact> 0.24501160E+01</totfact>
</mgrwt>
</event>
<event>
12    1  0.1562393E-007  0.1141355E+04  0.7818608E-02  0.9165797E-01
         -1   -1    0    0    0  501 -0.00000000000E+00  0.00000000000E+00  0.14545123798E+03  0.14545123798E+03  0.00000000000E+00 0.  1.
          1   -1    0    0  501    0  0.00000000000E+00 -0.00000000000E+00 -0.22390500122E+04  0.22390500122E+04  0.00000000000E+00 0. -1.
         23    2    1    2    0    0 -0.18217002255E+03 -0.30261980719E+02 -0.29832201729E+03  0.36811463943E+03  0.11140312910E+03 0.  0.
        254    2    1    2    0    0  0.18217002255E+03  0.30261980719E+02 -0.17952767569E+04  0.20163866108E+04  0.89927449951E+03 0.  0.
        -24    2    4    4    0    0  0.12190914486E+03 -0.40995280464E+03 -0.11448652391E+04  0.12247348360E+04  0.79598122909E+02 0.  0.
         24    2    4    4    0    0  0.60260877687E+02  0.44021478536E+03 -0.65041151778E+03  0.79165177471E+03  0.79100943821E+02 0.  0.
         11    1    3    3    0    0 -0.12807391233E+03 -0.26970390305E+02 -0.10636336616E+03  0.16865199267E+03  0.00000000000E+00 0.  1.
        -11    1    3    3    0    0 -0.54096110219E+02 -0.32915904138E+01 -0.19195865113E+03  0.19946264676E+03  0.00000000000E+00 0. -1.
          2    1    6    6  502    0  0.11032937801E+02  0.17281436372E+03 -0.19101137555E+03  0.25782140255E+03  0.00000000000E+00 0. -1.
          1    1    5    5  503    0  0.55991222081E+02 -0.75323018068E+02 -0.25930480465E+03  0.27576721291E+03  0.00000000000E+00 0. -1.
         -2    1    5    5    0  503  0.65917922778E+02 -0.33462978658E+03 -0.88556043449E+03  0.94896762313E+03  0.00000000000E+00 0.  1.
         -1    1    6    6    0  502  0.49227939886E+02  0.26740042164E+03 -0.45940014223E+03  0.53383037216E+03  0.00000000000E+00 0.  1.
<mgrwt>
<rscale>  0 0.11413546E+04</rscale>
<asrwt>0</asrwt>
<pdfrwt beam="1">  1        1 0.34446918E+00 0.11413546E+04</pdfrwt>
<pdfrwt beam="2">  1       -1 0.22377117E-01 0.11413546E+04</pdfrwt>
<totfact> 0.34620382E+01</totfact>
</mgrwt>
</event>
<event>
12    1  0.1562393E-007  0.1557650E+04  0.7818608E-02  0.8846996E-01
         -2   -1    0    0    0  501 -0.00000000000E+00  0.00000000000E+00  0.17487857316E+03  0.17487857316E+03  0.00000000000E+00 0.  1.
          2   -1    0    0  501    0  0.00000000000E+00 -0.00000000000E+00 -0.34685110659E+04  0.34685110659E+04  0.00000000000E+00 0. -1.
         23    2    1    2    0    0  0.33402272206E+03 -0.37244395513E+03 -0.89111945259E+03  0.10260451447E+04  0.91591930227E+02 0.  0.
        254    2    1    2    0    0 -0.33402272206E+03  0.37244395513E+03 -0.24025130401E+04  0.26173444943E+04  0.91002066755E+03 0.  0.
        -24    2    4    4    0    0 -0.57996169420E+03  0.28359684010E+03 -0.10349575722E+04  0.12224454783E+04  0.80330795810E+02 0.  0.
         24    2    4    4    0    0  0.24593897214E+03  0.88847115035E+02 -0.13675554679E+04  0.13948990160E+04  0.84590301425E+02 0.  0.
         11    1    3    3    0    0  0.19556826105E+03 -0.23601077985E+03 -0.62910759024E+03  0.69980311019E+03  0.00000000000E+00 0. -1.
        -11    1    3    3    0    0  0.13845446101E+03 -0.13643317528E+03 -0.26201186235E+03  0.32624203454E+03  0.00000000000E+00 0.  1.
          2    1    6    6  502    0  0.16691839675E+03  0.60151598551E+02 -0.70286941494E+03  0.72491749906E+03  0.00000000000E+00 0. -1.
          1    1    5    5  503    0 -0.56083406874E+03  0.26454159279E+03 -0.10126412104E+04  0.11874170825E+04  0.00000000000E+00 0. -1.
         -2    1    5    5    0  503 -0.19127625456E+02  0.19055247308E+02 -0.22316361855E+02  0.35028395796E+02  0.00000000000E+00 0.  1.
         -1    1    6    6    0  502  0.79020575399E+02  0.28695516484E+02 -0.66468605299E+03  0.66998151694E+03  0.00000000000E+00 0.  1.
<mgrwt>
<rscale>  0 0.15576499E+04</rscale>
<asrwt>0</asrwt>
<pdfrwt beam="1">  1        2 0.53361702E+00 0.15576499E+04</pdfrwt>
<pdfrwt beam="2">  1       -2 0.26904399E-01 0.15576499E+04</pdfrwt>
<totfact> 0.10449967E+01</totfact>
</mgrwt>
</event>
<event>
12    1  0.1562393E-007  0.1345614E+04  0.7818608E-02  0.8994155E-01
         -3   -1    0    0    0  501 -0.00000000000E+00  0.00000000000E+00  0.33042199059E+04  0.33042199059E+04  0.00000000000E+00 0.  1.
          3   -1    0    0  501    0  0.00000000000E+00 -0.00000000000E+00 -0.13699727225E+03  0.13699727225E+03  0.00000000000E+00 0. -1.
         23    2    1    2    0    0 -0.21783116209E+03  0.12647193343E+03  0.15457881283E+04  0.15690349392E+04  0.94679130751E+02 0.  0.
        254    2    1    2    0    0  0.21783116209E+03 -0.12647193343E+03  0.16214345054E+04  0.18721822390E+04  0.90142715483E+03 0.  0.
        -24    2    4    4    0    0 -0.32224906804E+03 -0.13191685409E+03  0.40880501814E+03  0.54235475151E+03  0.76030358263E+02 0.  0.
         24    2    4    4    0    0  0.54008023013E+03  0.54449206602E+01  0.12126294873E+04  0.13298274875E+04  0.79085845031E+02 0.  0.
         13    1    3    3    0    0 -0.16903849403E+03  0.11023409463E+03  0.95931280210E+03  0.98030945132E+03  0.00000000000E+00 0.  1.
        -13    1    3    3    0    0 -0.48792668056E+02  0.16237838800E+02  0.58647532617E+03  0.58872548787E+03  0.00000000000E+00 0. -1.
          2    1    6    6  502    0  0.25519010310E+02  0.92967564031E+01  0.32259694991E+02  0.42170338957E+02  0.00000000000E+00 0. -1.
          3    1    5    5  503    0 -0.67085057203E+01 -0.68077314214E+01 -0.16805093963E+01  0.97042963648E+01  0.00000000000E+00 0. -1.
         -4    1    5    5    0  503 -0.31554056232E+03 -0.12510912267E+03  0.41048552754E+03  0.53265045514E+03  0.00000000000E+00 0.  1.
         -1    1    6    6    0  502  0.51456121982E+03 -0.38518357430E+01  0.11803697923E+04  0.12876571485E+04  0.00000000000E+00 0.  1.
<mgrwt>
<rscale>  0 0.13456138E+04</rscale>
<asrwt>0</asrwt>
<pdfrwt beam="1">  1        3 0.21076506E-01 0.13456138E+04</pdfrwt>
<pdfrwt beam="2">  1       -3 0.50834146E+00 0.13456138E+04</pdfrwt>
<totfact> 0.14987291E-01</totfact>
</mgrwt>
</event>
<event>
12    1  0.1562393E-007  0.1966124E+04  0.7818608E-02  0.8622625E-01
          2   -1    0    0  501    0  0.00000000000E+00  0.00000000000E+00  0.14856785446E+04  0.14856785446E+04  0.00000000000E+00 0. -1.
         -2   -1    0    0    0  501 -0.00000000000E+00 -0.00000000000E+00 -0.65048455770E+03  0.65048455770E+03  0.00000000000E+00 0.  1.
         23    2    1    2    0    0  0.40512909863E+03  0.11106983514E+02 -0.38454296830E+03  0.56613549230E+03  0.91559540905E+02 0.  0.
        254    2    1    2    0    0 -0.40512909863E+03 -0.11106983514E+02  0.12197369551E+04  0.15700276100E+04  0.90165154281E+03 0.  0.
        -24    2    4    4    0    0  0.35059759770E+02 -0.26136416936E+03  0.95113452675E+03  0.99013775777E+03  0.78584194395E+02 0.  0.
         24    2    4    4    0    0 -0.44018885840E+03  0.25025718584E+03  0.26860242840E+03  0.57988985219E+03  0.87920907682E+02 0.  0.
         11    1    3    3    0    0  0.29484779496E+03 -0.32813678516E+02 -0.28078382504E+03  0.40847462111E+03  0.00000000000E+00 0.  1.
        -11    1    3    3    0    0  0.11028130368E+03  0.43920662030E+02 -0.10375914326E+03  0.15766087119E+03  0.00000000000E+00 0. -1.
          4    1    6    6  502    0 -0.15575550604E+03  0.11866501244E+03  0.65676790405E+02  0.20652990979E+03  0.00000000000E+00 0. -1.
          1    1    5    5  503    0 -0.15486352975E+02 -0.58785240895E+02  0.14131348612E+03  0.15383443384E+03  0.00000000000E+00 0. -1.
         -2    1    5    5    0  503  0.50546112745E+02 -0.20257892846E+03  0.80982104063E+03  0.83630332393E+03  0.00000000000E+00 0.  1.
         -1    1    6    6    0  502 -0.28443335236E+03  0.13159217340E+03  0.20292563799E+03  0.37335994240E+03  0.00000000000E+00 0.  1.
<mgrwt>
<rscale>  0 0.19661241E+04</rscale>
<asrwt>0</asrwt>
<pdfrwt beam="1">  1        2 0.22856593E+00 0.19661241E+04</pdfrwt>
<pdfrwt beam="2">  1       -2 0.10007455E+00 0.19661241E+04</pdfrwt>
<totfact> 0.99356140E+00</totfact>
</mgrwt>
</event>
<event>
12    1  0.1562393E-007  0.1615371E+04  0.7818608E-02  0.8811160E-01
          1   -1    0    0  501    0  0.00000000000E+00  0.00000000000E+00  0.15497835660E+04  0.15497835660E+04  0.00000000000E+00 0. -1.
         -1   -1    0    0    0  501 -0.00000000000E+00 -0.00000000000E+00 -0.42093357623E+03  0.42093357623E+03  0.00000000000E+00 0.  1.
         23    2    1    2    0    0  0.86668562233E+02 -0.53633091990E+03  0.40619509724E+03  0.68417945669E+03  0.89133476360E+02 0.  0.
        254    2    1    2    0    0 -0.86668562233E+02  0.53633091990E+03  0.72265489254E+03  0.12865376855E+04  0.91530695796E+03 0.  0.
        -24    2    4    4    0    0  0.20803952226E+03  0.68614805715E+03  0.44484981344E+03  0.84754402953E+03  0.79749146197E+02 0.  0.
         24    2    4    4    0    0 -0.29470808449E+03 -0.14981713724E+03  0.27780507910E+03  0.43899365602E+03  0.79004673108E+02 0.  0.
         11    1    3    3    0    0  0.96098013713E+02 -0.48397548112E+03  0.33983495702E+03  0.59912844414E+03  0.00000000000E+00 0. -1.
        -11    1    3    3    0    0 -0.94294514800E+01 -0.52355438785E+02  0.66360140221E+02  0.85051012549E+02  0.00000000000E+00 0.  1.
          2    1    6    6  502    0 -0.16973332607E+03 -0.12697707255E+03  0.15811537589E+03  0.26444857917E+03  0.00000000000E+00 0. -1.
          1    1    5    5  503    0  0.96731417671E+02  0.45057215779E+03  0.28059722121E+03  0.53954335979E+03  0.00000000000E+00 0. -1.
         -2    1    5    5    0  503  0.11130810459E+03  0.23557589935E+03  0.16425259223E+03  0.30800066974E+03  0.00000000000E+00 0.  1.
         -1    1    6    6    0  502 -0.12497475842E+03 -0.22840064698E+02  0.11968970321E+03  0.17454507685E+03  0.00000000000E+00 0.  1.
<mgrwt>
<rscale>  0 0.16153711E+04</rscale>
<asrwt>0</asrwt>
<pdfrwt beam="1">  1        1 0.23842824E+00 0.16153711E+04</pdfrwt>
<pdfrwt beam="2">  1       -1 0.64759013E-01 0.16153711E+04</pdfrwt>
<totfact> 0.14000256E+01</totfact>
</mgrwt>
</event>
<event>
12    1  0.1562393E-007  0.1500655E+04  0.7818608E-02  0.8884017E-01
          1   -1    0    0  501    0  0.00000000000E+00  0.00000000000E+00  0.57284339402E+03  0.57284339402E+03  0.00000000000E+00 0. -1.
         -1   -1    0    0    0  501 -0.00000000000E+00 -0.00000000000E+00 -0.98280188281E+03  0.98280188281E+03  0.00000000000E+00 0.  1.
         23    2    1    2    0    0  0.25949547574E+03 -0.19798886547E+03  0.23253264361E+03  0.41105115809E+03  0.91400937856E+02 0.  0.
        254    2    1    2    0    0 -0.25949547574E+03  0.19798886547E+03 -0.64249113240E+03  0.11445941187E+04  0.88924875523E+03 0.  0.
        -24    2    4    4    0    0 -0.36342164571E+03  0.16838447023E+03 -0.82239745015E+03  0.91837933591E+03  0.81574605264E+02 0.  0.
         24    2    4    4    0    0  0.10392616998E+03  0.29604395249E+02  0.17990631775E+03  0.22621478284E+03  0.84437999649E+02 0.  0.
         11    1    3    3    0    0  0.21711123913E+03 -0.12447662279E+03  0.14544209933E+03  0.28945660130E+03  0.00000000000E+00 0.  1.
        -11    1    3    3    0    0  0.42384236601E+02 -0.73512242682E+02  0.87090544280E+02  0.12159455678E+03  0.00000000000E+00 0. -1.
          4    1    6    6  502    0  0.37195005186E+02  0.62512759590E+01  0.14008156183E+03  0.14507029616E+03  0.00000000000E+00 0. -1.
          3    1    5    5  503    0 -0.14026657957E+03  0.10863602313E+03 -0.33913232565E+03  0.38273650619E+03  0.00000000000E+00 0. -1.
         -4    1    5    5    0  503 -0.22315506614E+03  0.59748447093E+02 -0.48326512450E+03  0.53564282972E+03  0.00000000000E+00 0.  1.
         -3    1    6    6    0  502  0.66731164790E+02  0.23353119290E+02  0.39824755916E+02  0.81144486680E+02  0.00000000000E+00 0.  1.
<mgrwt>
<rscale>  0 0.15006553E+04</rscale>
<asrwt>0</asrwt>
<pdfrwt beam="1">  1        1 0.88129754E-01 0.15006553E+04</pdfrwt>
<pdfrwt beam="2">  1       -1 0.15120029E+00 0.15006553E+04</pdfrwt>
<totfact> 0.12092500E+01</totfact>
</mgrwt>
</event>
<event>
12    1  0.1562393E-007  0.1275619E+04  0.7818608E-02  0.9049126E-01
         -2   -1    0    0    0  501 -0.00000000000E+00  0.00000000000E+00  0.21204233394E+04  0.21204233394E+04  0.00000000000E+00 0.  1.
          2   -1    0    0  501    0  0.00000000000E+00 -0.00000000000E+00 -0.19184902685E+03  0.19184902685E+03  0.00000000000E+00 0. -1.
         23    2    1    2    0    0  0.20985719927E+03  0.18595861374E+03  0.73203730929E+03  0.78921748976E+03  0.91460230952E+02 0.  0.
        254    2    1    2    0    0 -0.20985719927E+03 -0.18595861374E+03  0.11965370032E+04  0.15230548765E+04  0.89965254767E+03 0.  0.
        -24    2    4    4    0    0 -0.21809744544E+03 -0.50095818818E+03  0.10053193440E+04  0.11467751878E+04  0.76816313340E+02 0.  0.
         24    2    4    4    0    0  0.82402461676E+01  0.31499957444E+03  0.19121765926E+03  0.37627968866E+03  0.75693971594E+02 0.  0.
         13    1    3    3    0    0  0.95909870081E+02  0.48784089656E+02  0.37485157371E+03  0.38999011897E+03  0.00000000000E+00 0. -1.
        -13    1    3    3    0    0  0.11394732919E+03  0.13717452408E+03  0.35718573558E+03  0.39922737079E+03  0.00000000000E+00 0.  1.
          4    1    6    6  502    0 -0.72404023911E+00  0.24444537799E+03  0.18157971133E+03  0.30450822423E+03  0.00000000000E+00 0. -1.
          3    1    5    5  503    0 -0.16219427308E+03 -0.44042601369E+03  0.85283374650E+03  0.97345131102E+03  0.00000000000E+00 0. -1.
         -4    1    5    5    0  503 -0.55903172367E+02 -0.60532174489E+02  0.15248559749E+03  0.17332387680E+03  0.00000000000E+00 0.  1.
         -3    1    6    6    0  502  0.89642864067E+01  0.70554196446E+02  0.96379479284E+01  0.71771464436E+02  0.00000000000E+00 0.  1.
<mgrwt>
<rscale>  0 0.12756193E+04</rscale>
<asrwt>0</asrwt>
<pdfrwt beam="1">  1        2 0.29515236E-01 0.12756193E+04</pdfrwt>
<pdfrwt beam="2">  1       -2 0.32621896E+00 0.12756193E+04</pdfrwt>
<totfact> 0.39402862E+00</totfact>
</mgrwt>
</event>
<event>
12    1  0.1562393E-007  0.1777642E+04  0.7818608E-02  0.8718280E-01
          2   -1    0    0  501    0  0.00000000000E+00  0.00000000000E+00  0.11253629072E+04  0.11253629072E+04  0.00000000000E+00 0. -1.
         -2   -1    0    0    0  501 -0.00000000000E+00 -0.00000000000E+00 -0.70199805873E+03  0.70199805873E+03  0.00000000000E+00 0.  1.
         23    2    1    2    0    0 -0.88571683251E+02  0.31293079855E+03  0.73740428140E+03  0.81117944158E+03  0.92067282222E+02 0.  0.
        254    2    1    2    0    0  0.88571683251E+02 -0.31293079855E+03 -0.31403943290E+03  0.10161815244E+04  0.91007334723E+03 0.  0.
        -24    2    4    4    0    0 -0.23777703341E+03  0.61038020856E+02  0.17755003000E+03  0.31309554170E+03  0.79001566268E+02 0.  0.
         24    2    4    4    0    0  0.32634871666E+03 -0.37396881940E+03 -0.49158946290E+03  0.70308598269E+03  0.79457764053E+02 0.  0.
         11    1    3    3    0    0 -0.34390890306E+02  0.52609735140E+02  0.77932297990E+02  0.10011973151E+03  0.00000000000E+00 0.  1.
        -11    1    3    3    0    0 -0.54180792945E+02  0.26032106341E+03  0.65947198341E+03  0.71105971007E+03  0.00000000000E+00 0. -1.
          4    1    6    6  502    0  0.30006228971E+03 -0.36834373910E+03 -0.45634846659E+03  0.65876278796E+03  0.00000000000E+00 0. -1.
          3    1    5    5  503    0 -0.16612365988E+03  0.70473557631E+02  0.96986994081E+02  0.20486597989E+03  0.00000000000E+00 0. -1.
         -4    1    5    5    0  503 -0.71653373528E+02 -0.94355367749E+01  0.80563035917E+02  0.10822956180E+03  0.00000000000E+00 0.  1.
         -3    1    6    6    0  502  0.26286426944E+02 -0.56250803017E+01 -0.35240996309E+02  0.44323194726E+02  0.00000000000E+00 0.  1.
<mgrwt>
<rscale>  0 0.17776418E+04</rscale>
<asrwt>0</asrwt>
<pdfrwt beam="1">  1        2 0.17313276E+00 0.17776418E+04</pdfrwt>
<pdfrwt beam="2">  1       -2 0.10799970E+00 0.17776418E+04</pdfrwt>
<totfact> 0.13654922E+01</totfact>
</mgrwt>
</event>
<event>
12    1  0.1562393E-007  0.1318778E+04  0.7818608E-02  0.9014805E-01
          2   -1    0    0  501    0  0.00000000000E+00  0.00000000000E+00  0.11700483122E+04  0.11700483122E+04  0.00000000000E+00 0. -1.
         -2   -1    0    0    0  501 -0.00000000000E+00 -0.00000000000E+00 -0.37160341487E+03  0.37160341487E+03  0.00000000000E+00 0.  1.
         23    2    1    2    0    0 -0.19161667997E+03 -0.77021559780E+02 -0.10590741040E+03  0.25004087079E+03  0.93031095735E+02 0.  0.
        254    2    1    2    0    0  0.19161667997E+03  0.77021559780E+02  0.90435230771E+03  0.12916108563E+04  0.89875259935E+03 0.  0.
        -24    2    4    4    0    0  0.39595327274E+03  0.37543185471E+03  0.56058758262E+03  0.78645738429E+03  0.80800419444E+02 0.  0.
         24    2    4    4    0    0 -0.20433659277E+03 -0.29841029493E+03  0.34376472509E+03  0.50515347198E+03  0.78763549762E+02 0.  0.
         11    1    3    3    0    0 -0.13461970180E+03 -0.97029547690E+02 -0.73533047284E+02  0.18150566459E+03  0.00000000000E+00 0.  1.
        -11    1    3    3    0    0 -0.56996978173E+02  0.20007987910E+02 -0.32374363111E+02  0.68535206193E+02  0.00000000000E+00 0. -1.
          4    1    6    6  502    0 -0.48507608731E+01 -0.50401959398E+02  0.62204012362E+02  0.80207397079E+02  0.00000000000E+00 0. -1.
          3    1    5    5  503    0  0.25704098856E+03  0.28623719215E+03  0.36239983690E+03  0.52852194066E+03  0.00000000000E+00 0. -1.
         -4    1    5    5    0  503  0.13891228418E+03  0.89194662554E+02  0.19818774572E+03  0.25793544363E+03  0.00000000000E+00 0.  1.
         -3    1    6    6    0  502 -0.19948583190E+03 -0.24800833553E+03  0.28156071273E+03  0.42494607490E+03  0.00000000000E+00 0.  1.
<mgrwt>
<rscale>  0 0.13187781E+04</rscale>
<asrwt>0</asrwt>
<pdfrwt beam="1">  1        2 0.18000743E+00 0.13187781E+04</pdfrwt>
<pdfrwt beam="2">  1       -2 0.57169757E-01 0.13187781E+04</pdfrwt>
<totfact> 0.55414983E+01</totfact>
</mgrwt>
</event>
<event>
12    1  0.1562393E-007  0.2557111E+04  0.7818608E-02  0.8382917E-01
          2   -1    0    0  501    0  0.00000000000E+00  0.00000000000E+00  0.33366264196E+04  0.33366264196E+04  0.00000000000E+00 0. -1.
         -2   -1    0    0    0  501 -0.00000000000E+00 -0.00000000000E+00 -0.48992714813E+03  0.48992714813E+03  0.00000000000E+00 0.  1.
         23    2    1    2    0    0 -0.73828565857E+03 -0.35872113475E+03  0.11553925785E+03  0.83402481751E+03  0.92203633090E+02 0.  0.
        254    2    1    2    0    0  0.73828565857E+03  0.35872113475E+03  0.27311600136E+04  0.29925287502E+04  0.90677821698E+03 0.  0.
        -24    2    4    4    0    0 -0.15579069684E+03  0.26153615482E+03  0.58744789507E+03  0.66645056822E+03  0.79933903674E+02 0.  0.
         24    2    4    4    0    0  0.89407635541E+03  0.97184979927E+02  0.21437121185E+04  0.23260781820E+04  0.79502276519E+02 0.  0.
         11    1    3    3    0    0 -0.72296605420E+03 -0.36288686302E+03  0.11938021231E+03  0.81769091102E+03  0.00000000000E+00 0.  1.
        -11    1    3    3    0    0 -0.15319604369E+02  0.41657282693E+01 -0.38409544585E+01  0.16333906489E+02  0.00000000000E+00 0. -1.
          2    1    6    6  502    0  0.68059883827E+03  0.39691339748E+02  0.16236172181E+04  0.17609437958E+04  0.00000000000E+00 0. -1.
          3    1    5    5  503    0 -0.15923076585E+03  0.23573176321E+03  0.56275888796E+03  0.63057233285E+03  0.00000000000E+00 0. -1.
         -4    1    5    5    0  503  0.34400690071E+01  0.25804391608E+02  0.24689007112E+02  0.35878235369E+02  0.00000000000E+00 0.  1.
         -1    1    6    6    0  502  0.21347751715E+03  0.57493640179E+02  0.52009490041E+03  0.56513438616E+03  0.00000000000E+00 0.  1.
<mgrwt>
<rscale>  0 0.25571108E+04</rscale>
<asrwt>0</asrwt>
<pdfrwt beam="1">  1        2 0.51332713E+00 0.25571108E+04</pdfrwt>
<pdfrwt beam="2">  1       -2 0.75373409E-01 0.25571108E+04</pdfrwt>
<totfact> 0.14765179E+00</totfact>
</mgrwt>
</event>
<event>
12    1  0.1562393E-007  0.4434351E+04  0.7818608E-02  0.7922232E-01
         -2   -1    0    0    0  501 -0.00000000000E+00  0.00000000000E+00  0.16394668942E+04  0.16394668942E+04  0.00000000000E+00 0.  1.
          2   -1    0    0  501    0  0.00000000000E+00 -0.00000000000E+00 -0.29984544343E+04  0.29984544343E+04  0.00000000000E+00 0. -1.
         23    2    1    2    0    0  0.14891464041E+04 -0.55030975088E+03 -0.21373160823E+04  0.26643555645E+04  0.10135434719E+03 0.  0.
        254    2    1    2    0    0 -0.14891464041E+04  0.55030975088E+03  0.77832854221E+03  0.19735657639E+04  0.87679454259E+03 0.  0.
        -24    2    4    4    0    0 -0.28376629218E+03 -0.22823275668E+03  0.21151211110E+03  0.42870483102E+03  0.80230662503E+02 0.  0.
         24    2    4    4    0    0 -0.12053801120E+04  0.77854250755E+03  0.56681643112E+03  0.15448609329E+04  0.79023951756E+02 0.  0.
         13    1    3    3    0    0  0.12260499202E+04 -0.44820624353E+03 -0.16900958785E+04  0.21355353714E+04  0.00000000000E+00 0.  1.
        -13    1    3    3    0    0  0.26309648390E+03 -0.10210350735E+03 -0.44722020376E+03  0.52882019317E+03  0.00000000000E+00 0. -1.
          2    1    6    6  502    0 -0.63030196441E+01  0.78984606095E+01  0.11050030160E+02  0.14973874020E+02  0.00000000000E+00 0. -1.
          3    1    5    5  503    0 -0.59204039212E+02 -0.12787692111E+02  0.22562858029E+02  0.64635330052E+02  0.00000000000E+00 0. -1.
         -4    1    5    5    0  503 -0.22456225297E+03 -0.21544506457E+03  0.18894925307E+03  0.36406950097E+03  0.00000000000E+00 0.  1.
         -1    1    6    6    0  502 -0.11990770923E+04  0.77064404694E+03  0.55576640096E+03  0.15298870588E+04  0.00000000000E+00 0.  1.
<mgrwt>
<rscale>  0 0.44343508E+04</rscale>
<asrwt>0</asrwt>
<pdfrwt beam="1">  1        2 0.46130068E+00 0.44343508E+04</pdfrwt>
<pdfrwt beam="2">  1       -2 0.25222567E+00 0.44343508E+04</pdfrwt>
<totfact> 0.82724834E-02</totfact>
</mgrwt>
</event>
<event>
12    1  0.1562393E-007  0.1262947E+04  0.7818608E-02  0.9059476E-01
         -1   -1    0    0    0  501 -0.00000000000E+00  0.00000000000E+00  0.58066944713E+03  0.58066944713E+03  0.00000000000E+00 0.  1.
          1   -1    0    0  501    0  0.00000000000E+00 -0.00000000000E+00 -0.68672247323E+03  0.68672247323E+03  0.00000000000E+00 0. -1.
         23    2    1    2    0    0 -0.28466291482E+03 -0.38457814327E+02 -0.11172767786E+03  0.32134497903E+03  0.90926030329E+02 0.  0.
        254    2    1    2    0    0  0.28466291482E+03  0.38457814327E+02  0.56746517565E+01  0.94604694133E+03  0.90136598281E+03 0.  0.
        -24    2    4    4    0    0  0.20811297556E+03  0.44276248855E+03  0.12270335933E+03  0.51070887051E+03  0.80111198799E+02 0.  0.
         24    2    4    4    0    0  0.76549939264E+02 -0.40430467422E+03 -0.11702870757E+03  0.43533807082E+03  0.80630978597E+02 0.  0.
         13    1    3    3    0    0 -0.14265284202E+03  0.12032334297E+02 -0.19073666714E+02  0.14442442718E+03  0.00000000000E+00 0.  1.
        -13    1    3    3    0    0 -0.14201007280E+03 -0.50490148624E+02 -0.92654011145E+02  0.17692055185E+03  0.00000000000E+00 0. -1.
          4    1    6    6  502    0  0.15364475332E+02 -0.45437368791E+02  0.11403073300E+02  0.49301639583E+02  0.00000000000E+00 0. -1.
          1    1    5    5  503    0  0.11596816305E+02  0.64593610737E+02 -0.49712230684E+01  0.65814388664E+02  0.00000000000E+00 0. -1.
         -2    1    5    5    0  503  0.19651615925E+03  0.37816887781E+03  0.12767458240E+03  0.44489448185E+03  0.00000000000E+00 0.  1.
         -3    1    6    6    0  502  0.61185463932E+02 -0.35886730543E+03 -0.12843178087E+03  0.38603643123E+03  0.00000000000E+00 0.  1.
<mgrwt>
<rscale>  0 0.12629470E+04</rscale>
<asrwt>0</asrwt>
<pdfrwt beam="1">  1        1 0.10564961E+00 0.12629470E+04</pdfrwt>
<pdfrwt beam="2">  1       -1 0.89333761E-01 0.12629470E+04</pdfrwt>
<totfact> 0.33949214E+01</totfact>
</mgrwt>
</event>
<event>
12    1  0.1562393E-007  0.1838179E+04  0.7818608E-02  0.8686256E-01
          2   -1    0    0  501    0  0.00000000000E+00  0.00000000000E+00  0.20676341370E+04  0.20676341370E+04  0.00000000000E+00 0. -1.
         -2   -1    0    0    0  501 -0.00000000000E+00 -0.00000000000E+00 -0.40854684137E+03  0.40854684137E+03  0.00000000000E+00 0.  1.
         23    2    1    2    0    0  0.42819345831E+03 -0.17481062569E+02  0.13561884809E+04  0.14257076296E+04  0.98690547512E+02 0.  0.
        254    2    1    2    0    0 -0.42819345831E+03  0.17481062569E+02  0.30289881477E+03  0.10504733488E+04  0.90999524131E+03 0.  0.
        -24    2    4    4    0    0  0.20902570187E+03  0.14847769584E+03 -0.93800393448E+02  0.28436815794E+03  0.79557307891E+02 0.  0.
         24    2    4    4    0    0 -0.63721916017E+03 -0.13099663327E+03  0.39669920821E+03  0.76610519083E+03  0.79614857864E+02 0.  0.
         13    1    3    3    0    0  0.19157325523E+03  0.24073623024E+02  0.48553831133E+03  0.52252014623E+03  0.00000000000E+00 0. -1.
        -13    1    3    3    0    0  0.23662020308E+03 -0.41554685594E+02  0.87065016956E+03  0.90318748339E+03  0.00000000000E+00 0.  1.
          4    1    6    6  502    0 -0.58313419264E+03 -0.99705596003E+02  0.37248159214E+03  0.69909171715E+03  0.00000000000E+00 0. -1.
          3    1    5    5  503    0  0.18242430537E+03  0.13487365046E+03 -0.51602570956E+02  0.23266360718E+03  0.00000000000E+00 0. -1.
         -4    1    5    5    0  503  0.26601396501E+02  0.13604045373E+02 -0.42197822492E+02  0.51704550761E+02  0.00000000000E+00 0.  1.
         -3    1    6    6    0  502 -0.54084967535E+02 -0.31291037263E+02  0.24217616072E+02  0.67013473679E+02  0.00000000000E+00 0.  1.
<mgrwt>
<rscale>  0 0.18381789E+04</rscale>
<asrwt>0</asrwt>
<pdfrwt beam="1">  1        2 0.31809755E+00 0.18381789E+04</pdfrwt>
<pdfrwt beam="2">  1       -2 0.62853361E-01 0.18381789E+04</pdfrwt>
<totfact> 0.13527360E+01</totfact>
</mgrwt>
</event>
<event>
12    1  0.1562393E-007  0.1644886E+04  0.7818608E-02  0.8793438E-01
          2   -1    0    0  501    0  0.00000000000E+00  0.00000000000E+00  0.72661512791E+03  0.72661512791E+03  0.00000000000E+00 0. -1.
         -2   -1    0    0    0  501 -0.00000000000E+00 -0.00000000000E+00 -0.93090909527E+03  0.93090909527E+03  0.00000000000E+00 0.  1.
         23    2    1    2    0    0  0.18312364180E+03  0.13321768623E+03  0.45393523227E+03  0.51567385695E+03  0.92634289229E+02 0.  0.
        254    2    1    2    0    0 -0.18312364180E+03 -0.13321768623E+03 -0.65822919963E+03  0.11418503662E+04  0.90513830960E+03 0.  0.
        -24    2    4    4    0    0 -0.18104648300E+03 -0.36388534767E+03 -0.76677419196E+03  0.87171154731E+03  0.82146119855E+02 0.  0.
         24    2    4    4    0    0 -0.20771587971E+01  0.23066766144E+03  0.10854499233E+03  0.27013881892E+03  0.89336898891E+02 0.  0.
         13    1    3    3    0    0  0.45272902125E+02 -0.50898287348E+01  0.12623049809E+03  0.13420015154E+03  0.00000000000E+00 0.  1.
        -13    1    3    3    0    0  0.13785073967E+03  0.13830751497E+03  0.32770473417E+03  0.38147370541E+03  0.00000000000E+00 0. -1.
          2    1    6    6  502    0 -0.44028928349E+02  0.13245435030E+03  0.49448092332E+02  0.14808043517E+03  0.00000000000E+00 0. -1.
          3    1    5    5  503    0 -0.60201298986E+02 -0.21195205751E+03 -0.42065099437E+03  0.47486327521E+03  0.00000000000E+00 0. -1.
         -4    1    5    5    0  503 -0.12084518401E+03 -0.15193329017E+03 -0.34612319758E+03  0.39684827210E+03  0.00000000000E+00 0.  1.
         -1    1    6    6    0  502  0.41951769552E+02  0.98213311141E+02  0.59096899998E+02  0.12205838375E+03  0.00000000000E+00 0.  1.
<mgrwt>
<rscale>  0 0.16448862E+04</rscale>
<asrwt>0</asrwt>
<pdfrwt beam="1">  1        2 0.11178694E+00 0.16448862E+04</pdfrwt>
<pdfrwt beam="2">  1       -2 0.14321678E+00 0.16448862E+04</pdfrwt>
<totfact> 0.12631315E+01</totfact>
</mgrwt>
</event>
<event>
12    1  0.2002333E-007  0.1682999E+04  0.7818608E-02  0.8771120E-01
         -2   -1    0    0    0  501 -0.00000000000E+00  0.00000000000E+00  0.42330373716E+03  0.42330373716E+03  0.00000000000E+00 0.  1.
          2   -1    0    0  501    0  0.00000000000E+00 -0.00000000000E+00 -0.16728449021E+04  0.16728449021E+04  0.00000000000E+00 0. -1.
         23    2    1    2    0    0 -0.31130323784E+03  0.20156725042E+01 -0.10660516036E+04  0.11140033114E+04  0.87313157634E+02 0.  0.
        254    2    1    2    0    0  0.31130323784E+03 -0.20156725042E+01 -0.18348956129E+03  0.98214532780E+03  0.91325092773E+03 0.  0.
        -24    2    4    4    0    0  0.62360738919E+03 -0.47426454966E+02 -0.58090823553E+02  0.63318663261E+03  0.80095714350E+02 0.  0.
         24    2    4    4    0    0 -0.31230415134E+03  0.45410782461E+02 -0.12539873774E+03  0.34895869519E+03  0.80320018742E+02 0.  0.
         11    1    3    3    0    0 -0.31653550640E+03  0.26352107980E+01 -0.10583281892E+04  0.11046538948E+04  0.00000000000E+00 0. -1.
        -11    1    3    3    0    0  0.52322685576E+01 -0.61953829383E+00 -0.77234143888E+01  0.93494166544E+01  0.00000000000E+00 0.  1.
          2    1    6    6  502    0 -0.30738524921E+03  0.29412469961E+02 -0.12102520710E+03  0.33165929141E+03  0.00000000000E+00 0. -1.
          3    1    5    5  503    0  0.51934247890E+03 -0.50548008682E+02 -0.76147914946E+02  0.52732363547E+03  0.00000000000E+00 0. -1.
         -4    1    5    5    0  503  0.10426491029E+03  0.31215537168E+01  0.18057091393E+02  0.10586299714E+03  0.00000000000E+00 0.  1.
         -1    1    6    6    0  502 -0.49189021345E+01  0.15998312500E+02 -0.43735306374E+01  0.17299403784E+02  0.00000000000E+00 0.  1.
<mgrwt>
<rscale>  0 0.16829991E+04</rscale>
<asrwt>0</asrwt>
<pdfrwt beam="1">  1        2 0.25736075E+00 0.16829991E+04</pdfrwt>
<pdfrwt beam="2">  1       -2 0.65123652E-01 0.16829991E+04</pdfrwt>
<totfact> 0.21034138E+01</totfact>
</mgrwt>
</event>
<event>
12    1  0.1562393E-007  0.1654624E+04  0.7818608E-02  0.8787676E-01
          1   -1    0    0  501    0  0.00000000000E+00  0.00000000000E+00  0.34507917669E+03  0.34507917669E+03  0.00000000000E+00 0. -1.
         -1   -1    0    0    0  501 -0.00000000000E+00 -0.00000000000E+00 -0.19834431541E+04  0.19834431541E+04  0.00000000000E+00 0.  1.
         23    2    1    2    0    0 -0.51312051896E+03  0.26159201201E+03 -0.62016743922E+03  0.85238636237E+03  0.10115241154E+03 0.  0.
        254    2    1    2    0    0  0.51312051896E+03 -0.26159201201E+03 -0.10181965382E+04  0.14761359684E+04  0.90029448467E+03 0.  0.
        -24    2    4    4    0    0  0.71280377621E+03 -0.10418286393E+03 -0.96083008028E+03  0.12035083958E+04  0.79339291476E+02 0.  0.
         24    2    4    4    0    0 -0.19968325725E+03 -0.15740914808E+03 -0.57366457911E+02  0.27262757257E+03  0.79898934339E+02 0.  0.
         13    1    3    3    0    0 -0.11822821581E+03  0.43404228806E+02 -0.19705278080E+03  0.23386243074E+03  0.00000000000E+00 0.  1.
        -13    1    3    3    0    0 -0.39489230315E+03  0.21818778320E+03 -0.42311465843E+03  0.61852393163E+03  0.00000000000E+00 0. -1.
          4    1    6    6  502    0 -0.18579877990E+03 -0.14645936414E+03 -0.74469764421E+02  0.24802676825E+03  0.00000000000E+00 0. -1.
          1    1    5    5  503    0  0.62859757463E+03 -0.71028399421E+02 -0.81212311489E+03  0.10294289184E+04  0.00000000000E+00 0. -1.
         -2    1    5    5    0  503  0.84206201585E+02 -0.33154464508E+02 -0.14870696539E+03  0.17407947741E+03  0.00000000000E+00 0.  1.
         -3    1    6    6    0  502 -0.13884477347E+02 -0.10949783938E+02  0.17103306510E+02  0.24600804317E+02  0.00000000000E+00 0.  1.
<mgrwt>
<rscale>  0 0.16546237E+04</rscale>
<asrwt>0</asrwt>
<pdfrwt beam="1">  1        1 0.53089104E-01 0.16546237E+04</pdfrwt>
<pdfrwt beam="2">  1       -1 0.30514510E+00 0.16546237E+04</pdfrwt>
<totfact> 0.21355319E+00</totfact>
</mgrwt>
</event>
<event>
12    1  0.1562393E-007  0.2803974E+04  0.7818608E-02  0.8302036E-01
         -2   -1    0    0    0  501 -0.00000000000E+00  0.00000000000E+00  0.97865929657E+03  0.97865929657E+03  0.00000000000E+00 0.  1.
          2   -1    0    0  501    0  0.00000000000E+00 -0.00000000000E+00 -0.20084281501E+04  0.20084281501E+04  0.00000000000E+00 0. -1.
         23    2    1    2    0    0  0.39505475193E+03  0.40076811234E+03 -0.16565758157E+04  0.17519857544E+04  0.92343454841E+02 0.  0.
        254    2    1    2    0    0 -0.39505475193E+03 -0.40076811234E+03  0.62680696219E+03  0.12351016922E+04  0.90327508842E+03 0.  0.
        -24    2    4    4    0    0 -0.53663620178E+03 -0.69533321136E+02  0.48458554991E+02  0.54905414676E+03  0.79365790586E+02 0.  0.
         24    2    4    4    0    0  0.14158144985E+03 -0.33123479120E+03  0.57834840720E+03  0.68604754545E+03  0.80078465671E+02 0.  0.
         13    1    3    3    0    0  0.22181480456E+03  0.25369141493E+03 -0.11106828426E+04  0.11606797657E+04  0.00000000000E+00 0. -1.
        -13    1    3    3    0    0  0.17323994738E+03  0.14707669741E+03 -0.54589297311E+03  0.59130598879E+03  0.00000000000E+00 0.  1.
          2    1    6    6  502    0  0.67747705297E+02 -0.18599163523E+03  0.38733204916E+03  0.43498132862E+03  0.00000000000E+00 0. -1.
          1    1    5    5  503    0 -0.41106499106E+03 -0.62866120984E+02  0.69334702121E+02  0.42158495818E+03  0.00000000000E+00 0. -1.
         -2    1    5    5    0  503 -0.12557121072E+03 -0.66672001521E+01 -0.20876147129E+02  0.12746918858E+03  0.00000000000E+00 0.  1.
         -1    1    6    6    0  502  0.73833744551E+02 -0.14524315597E+03  0.19101635805E+03  0.25106621683E+03  0.00000000000E+00 0.  1.
<mgrwt>
<rscale>  0 0.28039735E+04</rscale>
<asrwt>0</asrwt>
<pdfrwt beam="1">  1        2 0.30898894E+00 0.28039735E+04</pdfrwt>
<pdfrwt beam="2">  1       -2 0.15056297E+00 0.28039735E+04</pdfrwt>
<totfact> 0.17056777E+00</totfact>
</mgrwt>
</event>
<event>
12    1  0.1562393E-007  0.2450934E+04  0.7818608E-02  0.8420677E-01
          1   -1    0    0  501    0  0.00000000000E+00  0.00000000000E+00  0.11028570417E+04  0.11028570417E+04  0.00000000000E+00 0. -1.
         -1   -1    0    0    0  501 -0.00000000000E+00 -0.00000000000E+00 -0.13617082295E+04  0.13617082295E+04  0.00000000000E+00 0.  1.
         23    2    1    2    0    0  0.77440951013E+03  0.50524178986E+02 -0.84155401272E+03  0.11515422988E+04  0.12479474152E+03 0.  0.
        254    2    1    2    0    0 -0.77440951013E+03 -0.50524178986E+02  0.58270282490E+03  0.13130229724E+04  0.88443426096E+03 0.  0.
        -24    2    4    4    0    0  0.67339950434E+02  0.24813365684E+03  0.62412741514E+02  0.27634766874E+03  0.79797889287E+02 0.  0.
         24    2    4    4    0    0 -0.84174946057E+03 -0.29865783583E+03  0.52029008339E+03  0.10366753037E+04  0.79090183640E+02 0.  0.
         11    1    3    3    0    0  0.40947177891E+03  0.13866264611E+02 -0.53280360343E+03  0.67211538507E+03  0.00000000000E+00 0. -1.
        -11    1    3    3    0    0  0.36493773122E+03  0.36657914375E+02 -0.30875040930E+03  0.47942691372E+03  0.00000000000E+00 0.  1.
          2    1    6    6  502    0 -0.72125840703E+03 -0.28332557589E+03  0.45859234312E+03  0.90044100797E+03  0.00000000000E+00 0. -1.
          1    1    5    5  503    0  0.68801589582E+02  0.16047895200E+03  0.11533906936E+02  0.17498623881E+03  0.00000000000E+00 0. -1.
         -2    1    5    5    0  503 -0.14616391484E+01  0.87654704844E+02  0.50878834579E+02  0.10136142993E+03  0.00000000000E+00 0.  1.
         -3    1    6    6    0  502 -0.12049105354E+03 -0.15332259942E+02  0.61697740270E+02  0.13623429573E+03  0.00000000000E+00 0.  1.
<mgrwt>
<rscale>  0 0.24509341E+04</rscale>
<asrwt>0</asrwt>
<pdfrwt beam="1">  1        1 0.16967032E+00 0.24509341E+04</pdfrwt>
<pdfrwt beam="2">  1       -1 0.20949357E+00 0.24509341E+04</pdfrwt>
<totfact> 0.14585364E+00</totfact>
</mgrwt>
</event>
<event>
12    1  0.1562393E-007  0.1496920E+04  0.7818608E-02  0.8886504E-01
         -1   -1    0    0    0  501 -0.00000000000E+00  0.00000000000E+00  0.31547706895E+03  0.31547706895E+03  0.00000000000E+00 0.  1.
          1   -1    0    0  501    0  0.00000000000E+00 -0.00000000000E+00 -0.17756997608E+04  0.17756997608E+04  0.00000000000E+00 0. -1.
         23    2    1    2    0    0 -0.19823783026E+03 -0.36056548083E+03 -0.76111855101E+03  0.87017052042E+03  0.92680001065E+02 0.  0.
        254    2    1    2    0    0  0.19823783026E+03  0.36056548083E+03 -0.69910414079E+03  0.12210063093E+04  0.91258101247E+03 0.  0.
        -24    2    4    4    0    0  0.14008434349E+03  0.24357470328E+03 -0.91218190529E+03  0.95781840140E+03  0.79924979513E+02 0.  0.
         24    2    4    4    0    0  0.58153486769E+02  0.11699077755E+03  0.21307776449E+03  0.26318790789E+03  0.82444351432E+02 0.  0.
         13    1    3    3    0    0 -0.58434937627E+02 -0.13981504955E+03 -0.36968495218E+03  0.39953704945E+03  0.00000000000E+00 0. -1.
        -13    1    3    3    0    0 -0.13980289263E+03 -0.22075043128E+03 -0.39143359883E+03  0.47063347097E+03  0.00000000000E+00 0.  1.
          2    1    6    6  502    0  0.57693234193E+02  0.27589606140E+02  0.73428876776E+02  0.97372971523E+02  0.00000000000E+00 0. -1.
          3    1    5    5  503    0  0.18173587291E+02  0.10549085784E+03 -0.37195404187E+03  0.38705091348E+03  0.00000000000E+00 0. -1.
         -4    1    5    5    0  503  0.12191075620E+03  0.13808384543E+03 -0.54022786342E+03  0.57076748792E+03  0.00000000000E+00 0.  1.
         -1    1    6    6    0  502  0.46025257643E+00  0.89401171409E+02  0.13964888772E+03  0.16581493637E+03  0.00000000000E+00 0.  1.
<mgrwt>
<rscale>  0 0.14969202E+04</rscale>
<asrwt>0</asrwt>
<pdfrwt beam="1">  1        1 0.27318458E+00 0.14969202E+04</pdfrwt>
<pdfrwt beam="2">  1       -1 0.48534934E-01 0.14969202E+04</pdfrwt>
<totfact> 0.17395788E+01</totfact>
</mgrwt>
</event>
<event>
12    1  0.1562393E-007  0.1322177E+04  0.7818608E-02  0.9012161E-01
         -2   -1    0    0    0  501 -0.00000000000E+00  0.00000000000E+00  0.25957083978E+03  0.25957083978E+03  0.00000000000E+00 0.  1.
          2   -1    0    0  501    0  0.00000000000E+00 -0.00000000000E+00 -0.16836952100E+04  0.16836952100E+04  0.00000000000E+00 0. -1.
         23    2    1    2    0    0  0.27453001383E+03 -0.48098737356E+02 -0.69965408387E+03  0.75889581154E+03  0.93417336059E+02 0.  0.
        254    2    1    2    0    0 -0.27453001383E+03  0.48098737356E+02 -0.72447028638E+03  0.11843702383E+04  0.89453644332E+03 0.  0.
        -24    2    4    4    0    0 -0.82819962812E+02 -0.41278071326E+03 -0.29444884028E+03  0.52022083520E+03  0.81746769707E+02 0.  0.
         24    2    4    4    0    0 -0.19171005101E+03  0.46087945061E+03 -0.43002144611E+03  0.66414940308E+03  0.83745888491E+02 0.  0.
         13    1    3    3    0    0  0.19482372116E+01 -0.19401952068E+01  0.28437724686E+01  0.39556323801E+01  0.00000000000E+00 0.  1.
        -13    1    3    3    0    0  0.27258177661E+03 -0.46158542149E+02 -0.70249785634E+03  0.75494017916E+03  0.00000000000E+00 0. -1.
          2    1    6    6  502    0 -0.90009114914E+02  0.17756212589E+03 -0.22235330370E+03  0.29844755148E+03  0.00000000000E+00 0. -1.
          3    1    5    5  503    0 -0.27348179051E+02 -0.27721397841E+03 -0.15914687397E+03  0.32081652111E+03  0.00000000000E+00 0. -1.
         -4    1    5    5    0  503 -0.55471783761E+02 -0.13556673485E+03 -0.13530196630E+03  0.19940431409E+03  0.00000000000E+00 0.  1.
         -1    1    6    6    0  502 -0.10170093610E+03  0.28331732472E+03 -0.20766814241E+03  0.36570185159E+03  0.00000000000E+00 0.  1.
<mgrwt>
<rscale>  0 0.13221773E+04</rscale>
<asrwt>0</asrwt>
<pdfrwt beam="1">  1        2 0.25903004E+00 0.13221773E+04</pdfrwt>
<pdfrwt beam="2">  1       -2 0.39933974E-01 0.13221773E+04</pdfrwt>
<totfact> 0.58140946E+01</totfact>
</mgrwt>
</event>
<event>
12    1  0.1562393E-007  0.1834060E+04  0.7818608E-02  0.8688394E-01
         -1   -1    0    0    0  501 -0.00000000000E+00  0.00000000000E+00  0.52553772009E+03  0.52553772009E+03  0.00000000000E+00 0.  1.
          1   -1    0    0  501    0  0.00000000000E+00 -0.00000000000E+00 -0.16001586335E+04  0.16001586335E+04  0.00000000000E+00 0. -1.
         23    2    1    2    0    0 -0.48491633804E+03 -0.48543385941E+03 -0.31204213418E+03  0.75943618053E+03  0.92645194370E+02 0.  0.
        254    2    1    2    0    0  0.48491633804E+03  0.48543385941E+03 -0.76257877928E+03  0.13662601731E+04  0.90241375169E+03 0.  0.
        -24    2    4    4    0    0  0.18165735216E+03 -0.17943368291E+03  0.47563613921E+02  0.27198833151E+03  0.80743513368E+02 0.  0.
         24    2    4    4    0    0  0.30325898588E+03  0.66486754232E+03 -0.81014239320E+03  0.10942718416E+04  0.84174251944E+02 0.  0.
         11    1    3    3    0    0 -0.10543253764E+03 -0.85740392594E+02 -0.10078097325E+03  0.16918699562E+03  0.00000000000E+00 0. -1.
        -11    1    3    3    0    0 -0.37948380040E+03 -0.39969346682E+03 -0.21126116093E+03  0.59024918492E+03  0.00000000000E+00 0.  1.
          4    1    6    6  502    0  0.10191517897E+03  0.32387591395E+03 -0.38119622615E+03  0.51048298128E+03  0.00000000000E+00 0. -1.
          3    1    5    5  503    0  0.45551907991E+02 -0.28770473539E+02 -0.20797573707E+02  0.57751671329E+02  0.00000000000E+00 0. -1.
         -4    1    5    5    0  503  0.13610544417E+03 -0.15066320937E+03  0.68361187628E+02  0.21423666018E+03  0.00000000000E+00 0.  1.
         -3    1    6    6    0  502  0.20134380692E+03  0.34099162837E+03 -0.42894616705E+03  0.58378886032E+03  0.00000000000E+00 0.  1.
<mgrwt>
<rscale>  0 0.18340597E+04</rscale>
<asrwt>0</asrwt>
<pdfrwt beam="1">  1        1 0.24617824E+00 0.18340597E+04</pdfrwt>
<pdfrwt beam="2">  1       -1 0.80851959E-01 0.18340597E+04</pdfrwt>
<totfact> 0.80038575E+00</totfact>
</mgrwt>
</event>
<event>
12    1  0.1562393E-007  0.2268522E+04  0.7818608E-02  0.8490437E-01
          2   -1    0    0  501    0  0.00000000000E+00  0.00000000000E+00  0.33708158335E+04  0.33708158335E+04  0.00000000000E+00 0.  1.
         -2   -1    0    0    0  501 -0.00000000000E+00 -0.00000000000E+00 -0.38167244676E+03  0.38167244676E+03  0.00000000000E+00 0. -1.
         23    2    1    2    0    0  0.37695700685E+03 -0.83389367261E+03  0.16980143781E+04  0.19311137468E+04  0.92044731160E+02 0.  0.
        254    2    1    2    0    0 -0.37695700685E+03  0.83389367261E+03  0.12911290086E+04  0.18213745335E+04  0.90161845145E+03 0.  0.
        -24    2    4    4    0    0 -0.33993099132E+03  0.10048088292E+04  0.12148656861E+04  0.16146945323E+04  0.78396015944E+02 0.  0.
         24    2    4    4    0    0 -0.37026015526E+02 -0.17091515658E+03  0.76263322514E+02  0.20668000115E+03  0.79483406702E+02 0.  0.
         13    1    3    3    0    0  0.21002165834E+03 -0.48530121193E+03  0.88594904954E+03  0.10317616399E+04  0.00000000000E+00 0. -1.
        -13    1    3    3    0    0  0.16693534851E+03 -0.34859246067E+03  0.81206532856E+03  0.89935210684E+03  0.00000000000E+00 0.  1.
          4    1    6    6  502    0  0.96801288513E+01  0.41428840792E+01  0.73229874790E+01  0.12825542043E+02  0.00000000000E+00 0. -1.
          1    1    5    5  503    0 -0.19475097606E+02  0.19871760225E+02  0.29032153905E+02  0.40212339420E+02  0.00000000000E+00 0. -1.
         -2    1    5    5    0  503 -0.32045589372E+03  0.98493706896E+03  0.11858335322E+04  0.15744821929E+04  0.00000000000E+00 0.  1.
         -3    1    6    6    0  502 -0.46706144377E+02 -0.17505804065E+03  0.68940335035E+02  0.19385445911E+03  0.00000000000E+00 0.  1.
<mgrwt>
<rscale>  0 0.22685216E+04</rscale>
<asrwt>0</asrwt>
<pdfrwt beam="1">  1        2 0.51858703E+00 0.22685216E+04</pdfrwt>
<pdfrwt beam="2">  1       -2 0.58718840E-01 0.22685216E+04</pdfrwt>
<totfact> 0.24648127E+00</totfact>
</mgrwt>
</event>
<event>
12    1  0.1562393E-007  0.1665996E+04  0.7818608E-02  0.8780999E-01
          2   -1    0    0  501    0  0.00000000000E+00  0.00000000000E+00  0.41006831090E+03  0.41006831090E+03  0.00000000000E+00 0. -1.
         -2   -1    0    0    0  501 -0.00000000000E+00 -0.00000000000E+00 -0.16921222227E+04  0.16921222227E+04  0.00000000000E+00 0.  1.
         23    2    1    2    0    0  0.50148593212E+03  0.22898812080E+03 -0.69463444533E+03  0.89196602352E+03  0.95721862111E+02 0.  0.
        254    2    1    2    0    0 -0.50148593212E+03 -0.22898812080E+03 -0.58741946644E+03  0.12102245101E+04  0.90313788294E+03 0.  0.
        -24    2    4    4    0    0 -0.43844923173E+03 -0.42575668849E+03 -0.72294112973E+03  0.95013553680E+03  0.81284528968E+02 0.  0.
         24    2    4    4    0    0 -0.63036700389E+02  0.19676856769E+03  0.13552166329E+03  0.26008897325E+03  0.81170548600E+02 0.  0.
         13    1    3    3    0    0  0.14012707916E+03  0.34638225530E+02 -0.13191456371E+03  0.19554246879E+03  0.00000000000E+00 0. -1.
        -13    1    3    3    0    0  0.36135885295E+03  0.19434989527E+03 -0.56271988162E+03  0.69642355473E+03  0.00000000000E+00 0.  1.
          4    1    6    6  502    0 -0.31496250762E+02  0.13809455564E+03  0.13163003577E+03  0.19336128472E+03  0.00000000000E+00 0. -1.
          3    1    5    5  503    0 -0.33798837786E+03 -0.35682107772E+03 -0.53831220095E+03  0.72892897512E+03  0.00000000000E+00 0. -1.
         -4    1    5    5    0  503 -0.10046085387E+03 -0.68935610773E+02 -0.18462892878E+03  0.22120656169E+03  0.00000000000E+00 0.  1.
         -3    1    6    6    0  502 -0.31540449627E+02  0.58674012046E+02  0.38916275164E+01  0.66727688533E+02  0.00000000000E+00 0.  1.
<mgrwt>
<rscale>  0 0.16659960E+04</rscale>
<asrwt>0</asrwt>
<pdfrwt beam="1">  1        2 0.63087433E-01 0.16659960E+04</pdfrwt>
<pdfrwt beam="2">  1       -2 0.26032649E+00 0.16659960E+04</pdfrwt>
<totfact> 0.40987457E+00</totfact>
</mgrwt>
</event>
<event>
12    1  0.1562393E-007  0.1198779E+04  0.7818608E-02  0.9113926E-01
          3   -1    0    0  501    0  0.00000000000E+00  0.00000000000E+00  0.65640033125E+03  0.65640033125E+03  0.00000000000E+00 0. -1.
         -3   -1    0    0    0  501 -0.00000000000E+00 -0.00000000000E+00 -0.54733021248E+03  0.54733021248E+03  0.00000000000E+00 0.  1.
         23    2    1    2    0    0 -0.14481434252E+03  0.40232668161E+02  0.21974416052E+03  0.28330085570E+03  0.96860814407E+02 0.  0.
        254    2    1    2    0    0  0.14481434252E+03 -0.40232668161E+02 -0.11067404175E+03  0.92042968804E+03  0.90130583362E+03 0.  0.
        -24    2    4    4    0    0  0.10297996740E+03 -0.50799345471E+02 -0.50109799894E+03  0.51999557398E+03  0.78171255840E+02 0.  0.
         24    2    4    4    0    0  0.41834375121E+02  0.10566677310E+02  0.39042395718E+03  0.40043411406E+03  0.77812876482E+02 0.  0.
         11    1    3    3    0    0 -0.14620695817E+03  0.53056275741E+02  0.22110417655E+03  0.27033035327E+03  0.00000000000E+00 0. -1.
        -11    1    3    3    0    0  0.13926156430E+01 -0.12823607580E+02 -0.13600160243E+01  0.12970502429E+02  0.00000000000E+00 0.  1.
          2    1    6    6  502    0 -0.37113826434E+01 -0.17158658490E+02  0.24353257584E+03  0.24416451302E+03  0.00000000000E+00 0. -1.
          1    1    5    5  503    0  0.11934386999E+02 -0.15205233900E+02 -0.15845026361E+02  0.24993871077E+02  0.00000000000E+00 0. -1.
         -2    1    5    5    0  503  0.91045580404E+02 -0.35594111571E+02 -0.48525297257E+03  0.49500170291E+03  0.00000000000E+00 0.  1.
         -1    1    6    6    0  502  0.45545757765E+02  0.27725335800E+02  0.14689138134E+03  0.15626960104E+03  0.00000000000E+00 0.  1.
<mgrwt>
<rscale>  0 0.11987789E+04</rscale>
<asrwt>0</asrwt>
<pdfrwt beam="1">  1        3 0.10098467E+00 0.11987789E+04</pdfrwt>
<pdfrwt beam="2">  1       -3 0.84204648E-01 0.11987789E+04</pdfrwt>
<totfact> 0.28675427E+00</totfact>
</mgrwt>
</event>
<event>
12    1  0.1562393E-007  0.1487547E+04  0.7818608E-02  0.8892776E-01
         -2   -1    0    0    0  501 -0.00000000000E+00  0.00000000000E+00  0.45732211355E+03  0.45732211355E+03  0.00000000000E+00 0.  1.
          2   -1    0    0  501    0  0.00000000000E+00 -0.00000000000E+00 -0.12096490900E+04  0.12096490900E+04  0.00000000000E+00 0. -1.
         23    2    1    2    0    0  0.39574003081E+03  0.25299865004E+03 -0.26417859809E+03  0.54674234530E+03  0.92295024510E+02 0.  0.
        254    2    1    2    0    0 -0.39574003081E+03 -0.25299865004E+03 -0.48814837832E+03  0.11202288582E+04  0.89219132847E+03 0.  0.
        -24    2    4    4    0    0  0.12032413611E+03 -0.11646385752E+03  0.18179815213E+03  0.26024405451E+03  0.81453495603E+02 0.  0.
         24    2    4    4    0    0 -0.51606416692E+03 -0.13653479252E+03 -0.66994653045E+03  0.85998480370E+03  0.76036405664E+02 0.  0.
         11    1    3    3    0    0  0.36496829394E+03  0.23467858102E+03 -0.21064668304E+03  0.48233589649E+03  0.00000000000E+00 0.  1.
        -11    1    3    3    0    0  0.30771736866E+02  0.18320069022E+02 -0.53531915052E+02  0.64406448806E+02  0.00000000000E+00 0. -1.
          4    1    6    6  502    0 -0.49972489585E+03 -0.12930194360E+03 -0.66424531337E+03  0.84122874444E+03  0.00000000000E+00 0. -1.
          1    1    5    5  503    0  0.57530831074E+02 -0.52146577062E+02  0.14220633023E+03  0.16202377103E+03  0.00000000000E+00 0. -1.
         -4    1    5    5    0  503  0.62793305039E+02 -0.64317280461E+02  0.39591821909E+02  0.98220283474E+02  0.00000000000E+00 0.  1.
         -3    1    6    6    0  502 -0.16339271074E+02 -0.72328489158E+01 -0.57012170857E+01  0.18756059259E+02  0.00000000000E+00 0.  1.
<mgrwt>
<rscale>  0 0.14875473E+04</rscale>
<asrwt>0</asrwt>
<pdfrwt beam="1">  1        2 0.18609986E+00 0.14875473E+04</pdfrwt>
<pdfrwt beam="2">  1       -2 0.70357250E-01 0.14875473E+04</pdfrwt>
<totfact> 0.33232125E+01</totfact>
</mgrwt>
</event>
<event>
12    1  0.1562393E-007  0.1933217E+04  0.7818608E-02  0.8638497E-01
          2   -1    0    0  501    0  0.00000000000E+00  0.00000000000E+00  0.31554015714E+04  0.31554015714E+04  0.00000000000E+00 0. -1.
         -2   -1    0    0    0  501 -0.00000000000E+00 -0.00000000000E+00 -0.29610545001E+03  0.29610545001E+03  0.00000000000E+00 0.  1.
         23    2    1    2    0    0  0.27253212737E+03 -0.54863426860E+03  0.33577940753E+03  0.70499786661E+03  0.94872863736E+02 0.  0.
        254    2    1    2    0    0 -0.27253212737E+03  0.54863426860E+03  0.25235167139E+04  0.27465091548E+04  0.89437274730E+03 0.  0.
        -24    2    4    4    0    0 -0.29638634079E+02  0.43517954812E+02 -0.52117928649E+02  0.10942427071E+03  0.80530314251E+02 0.  0.
         24    2    4    4    0    0 -0.24289349329E+03  0.50511631379E+03  0.25756346425E+04  0.26370848841E+04  0.78632910549E+02 0.  0.
         13    1    3    3    0    0  0.93207579608E+02 -0.10592400340E+03  0.94964878714E+02  0.17007608762E+03  0.00000000000E+00 0. -1.
        -13    1    3    3    0    0  0.17932454776E+03 -0.44271026521E+03  0.24081452882E+03  0.53492177899E+03  0.00000000000E+00 0.  1.
          4    1    6    6  502    0 -0.92401586717E+02  0.12592525791E+03  0.62218965112E+03  0.64149449395E+03  0.00000000000E+00 0. -1.
          1    1    5    5  503    0  0.23687588385E+02 -0.43232871628E+01 -0.84244048031E+01  0.25510061773E+02  0.00000000000E+00 0. -1.
         -2    1    5    5    0  503 -0.53326222464E+02  0.47841241975E+02 -0.43693523846E+02  0.83914208940E+02  0.00000000000E+00 0.  1.
         -3    1    6    6    0  502 -0.15049190657E+03  0.37919105588E+03  0.19534449914E+04  0.19955903901E+04  0.00000000000E+00 0.  1.
<mgrwt>
<rscale>  0 0.19332166E+04</rscale>
<asrwt>0</asrwt>
<pdfrwt beam="1">  1        2 0.48544637E+00 0.19332166E+04</pdfrwt>
<pdfrwt beam="2">  1       -2 0.45554687E-01 0.19332166E+04</pdfrwt>
<totfact> 0.59394747E+00</totfact>
</mgrwt>
</event>
<event>
12    1  0.1562393E-007  0.1397701E+04  0.7818608E-02  0.8955485E-01
          1   -1    0    0  501    0  0.00000000000E+00  0.00000000000E+00  0.44813599880E+03  0.44813599880E+03  0.00000000000E+00 0. -1.
         -1   -1    0    0    0  501 -0.00000000000E+00 -0.00000000000E+00 -0.10898295085E+04  0.10898295085E+04  0.00000000000E+00 0.  1.
         23    2    1    2    0    0  0.26329228591E+03 -0.29808827447E+03 -0.14977534139E+03  0.43474829199E+03  0.91618651517E+02 0.  0.
        254    2    1    2    0    0 -0.26329228591E+03  0.29808827447E+03 -0.49191816831E+03  0.11032172153E+04  0.90383919623E+03 0.  0.
        -24    2    4    4    0    0  0.18497897655E+03  0.32696199942E+03 -0.51927686652E+03  0.64572435349E+03  0.78677225177E+02 0.  0.
         24    2    4    4    0    0 -0.44827126246E+03 -0.28873724944E+02  0.27358698202E+02  0.45749286182E+03  0.82282461723E+02 0.  0.
         13    1    3    3    0    0  0.12170260524E+03 -0.14274161880E+03 -0.11944049433E+03  0.22237968780E+03  0.00000000000E+00 0.  1.
        -13    1    3    3    0    0  0.14158968067E+03 -0.15534665568E+03 -0.30334847053E+02  0.21236860419E+03  0.00000000000E+00 0. -1.
          4    1    6    6  502    0 -0.21993368468E+03  0.25874999340E+02  0.23014616498E+02  0.22264324338E+03  0.00000000000E+00 0. -1.
          1    1    5    5  503    0  0.47556405158E+02  0.88053859190E+02 -0.20216763944E+03  0.22558113447E+03  0.00000000000E+00 0. -1.
         -2    1    5    5    0  503  0.13742257139E+03  0.23890814023E+03 -0.31710922708E+03  0.42014321902E+03  0.00000000000E+00 0.  1.
         -3    1    6    6    0  502 -0.22833757778E+03 -0.54748724283E+02  0.43440817044E+01  0.23484961844E+03  0.00000000000E+00 0.  1.
<mgrwt>
<rscale>  0 0.13977007E+04</rscale>
<asrwt>0</asrwt>
<pdfrwt beam="1">  1        1 0.68944001E-01 0.13977007E+04</pdfrwt>
<pdfrwt beam="2">  1       -1 0.16766608E+00 0.13977007E+04</pdfrwt>
<totfact> 0.12856092E+01</totfact>
</mgrwt>
</event>
<event>
12    1  0.2638626E-007  0.1654788E+04  0.7818608E-02  0.8787579E-01
          2   -1    0    0  501    0  0.00000000000E+00  0.00000000000E+00  0.21388210213E+04  0.21388210213E+04  0.00000000000E+00 0. -1.
         -2   -1    0    0    0  501 -0.00000000000E+00 -0.00000000000E+00 -0.32007406657E+03  0.32007406657E+03  0.00000000000E+00 0.  1.
         23    2    1    2    0    0 -0.45910951262E+03 -0.20697328068E+03  0.10169481121E+04  0.11384303444E+04  0.90668092301E+02 0.  0.
        254    2    1    2    0    0  0.45910951262E+03  0.20697328068E+03  0.80179884265E+03  0.13204647434E+04  0.92039462792E+03 0.  0.
        -24    2    4    4    0    0 -0.73885220944E+02  0.26682788948E+03  0.71513899030E+03  0.77133934736E+03  0.82972675368E+02 0.  0.
         24    2    4    4    0    0  0.53299473356E+03 -0.59854608799E+02  0.86659852347E+02  0.54912539608E+03  0.79767226418E+02 0.  0.
         11    1    3    3    0    0 -0.44126536427E+03 -0.19160765151E+03  0.91454206098E+03  0.10333517287E+04  0.00000000000E+00 0. -1.
        -11    1    3    3    0    0 -0.17844148346E+02 -0.15365629170E+02  0.10240605110E+03  0.10507861577E+03  0.00000000000E+00 0.  1.
          4    1    6    6  502    0  0.50976919378E+03 -0.63688171324E+02  0.66281834683E+02  0.51799043978E+03  0.00000000000E+00 0. -1.
          3    1    5    5  503    0 -0.81546187081E+02  0.26071446135E+03  0.70892446599E+03  0.75973397282E+03  0.00000000000E+00 0. -1.
         -4    1    5    5    0  503  0.76609661369E+01  0.61134281367E+01  0.62145243107E+01  0.11605374537E+02  0.00000000000E+00 0.  1.
         -3    1    6    6    0  502  0.23225539780E+02  0.38335625253E+01  0.20378017664E+02  0.31134956297E+02  0.00000000000E+00 0.  1.
<mgrwt>
<rscale>  0 0.16547884E+04</rscale>
<asrwt>0</asrwt>
<pdfrwt beam="1">  1        2 0.32904938E+00 0.16547884E+04</pdfrwt>
<pdfrwt beam="2">  1       -2 0.49242165E-01 0.16547884E+04</pdfrwt>
<totfact> 0.20845206E+01</totfact>
</mgrwt>
</event>
<event>
12    1  0.1562393E-007  0.2699772E+04  0.7818608E-02  0.8335079E-01
         -1   -1    0    0    0  501 -0.00000000000E+00  0.00000000000E+00  0.63598393431E+03  0.63598393431E+03  0.00000000000E+00 0.  1.
          1   -1    0    0  501    0  0.00000000000E+00 -0.00000000000E+00 -0.28651537179E+04  0.28651537179E+04  0.00000000000E+00 0. -1.
         23    2    1    2    0    0  0.10831085753E+04  0.51270904660E+03 -0.12388496330E+04  0.17259741257E+04  0.90793815162E+02 0.  0.
        254    2    1    2    0    0 -0.10831085753E+04 -0.51270904660E+03 -0.99032015056E+03  0.17751635265E+04  0.85701621502E+03 0.  0.
        -24    2    4    4    0    0 -0.81238884158E+03 -0.27555139622E+03 -0.17330222522E+03  0.87875655709E+03  0.79216308217E+02 0.  0.
         24    2    4    4    0    0 -0.27071973377E+03 -0.23715765037E+03 -0.81701792535E+03  0.89640696942E+03  0.80586842029E+02 0.  0.
         13    1    3    3    0    0  0.62561754962E+03  0.32897204281E+03 -0.68150054900E+03  0.98186705904E+03  0.00000000000E+00 0.  1.
        -13    1    3    3    0    0  0.45749102573E+03  0.18373700379E+03 -0.55734908403E+03  0.74410706666E+03  0.00000000000E+00 0. -1.
          4    1    6    6  502    0 -0.27611978061E+03 -0.22771389858E+03 -0.79494301706E+03  0.87179708259E+03  0.00000000000E+00 0. -1.
          1    1    5    5  503    0 -0.16624547067E+03 -0.52834070904E+02 -0.32549963184E+01  0.17446945454E+03  0.00000000000E+00 0. -1.
         -2    1    5    5    0  503 -0.64614337091E+03 -0.22271732532E+03 -0.17004722890E+03  0.70428710255E+03  0.00000000000E+00 0.  1.
         -3    1    6    6    0  502  0.54000468367E+01 -0.94437517961E+01 -0.22074908290E+02  0.24609886831E+02  0.00000000000E+00 0.  1.
<mgrwt>
<rscale>  0 0.26997716E+04</rscale>
<asrwt>0</asrwt>
<pdfrwt beam="1">  1        1 0.44079288E+00 0.26997716E+04</pdfrwt>
<pdfrwt beam="2">  1       -1 0.97843682E-01 0.26997716E+04</pdfrwt>
<totfact> 0.65436183E-01</totfact>
</mgrwt>
</event>
<event>
12    1  0.1664317E-007  0.2096805E+04  0.7818608E-02  0.8562652E-01
         -1   -1    0    0    0  501 -0.00000000000E+00  0.00000000000E+00  0.57421011022E+03  0.57421011022E+03  0.00000000000E+00 0.  1.
          1   -1    0    0  501    0  0.00000000000E+00 -0.00000000000E+00 -0.19141908996E+04  0.19141908996E+04  0.00000000000E+00 0. -1.
         23    2    1    2    0    0  0.29158146102E+03  0.53873960361E+03 -0.12805388350E+04  0.14226640271E+04  0.94515168779E+02 0.  0.
        254    2    1    2    0    0 -0.29158146102E+03 -0.53873960361E+03 -0.59441954328E+02  0.10657369827E+04  0.87005853908E+03 0.  0.
        -24    2    4    4    0    0 -0.18869592186E+03 -0.49412427578E+03 -0.41976998906E+03  0.68001233410E+03  0.80280632532E+02 0.  0.
         24    2    4    4    0    0 -0.10288553916E+03 -0.44615327823E+02  0.36032803473E+03  0.38572464859E+03  0.79820111941E+02 0.  0.
         11    1    3    3    0    0  0.15602177597E+03  0.27260362986E+03 -0.76309326168E+03  0.82520716164E+03  0.00000000000E+00 0.  1.
        -11    1    3    3    0    0  0.13555968505E+03  0.26613597375E+03 -0.51744557333E+03  0.59745686547E+03  0.00000000000E+00 0. -1.
          4    1    6    6  502    0 -0.49073811590E+02 -0.31501657559E+02  0.29200926993E+03  0.29777509489E+03  0.00000000000E+00 0. -1.
          1    1    5    5  503    0 -0.17925511350E+03 -0.37691118006E+03 -0.33032384654E+03  0.53226711054E+03  0.00000000000E+00 0. -1.
         -2    1    5    5    0  503 -0.94408083661E+01 -0.11721309573E+03 -0.89446142522E+02  0.14774522356E+03  0.00000000000E+00 0.  1.
         -3    1    6    6    0  502 -0.53811727567E+02 -0.13113670264E+02  0.68318764809E+02  0.87949553703E+02  0.00000000000E+00 0.  1.
<mgrwt>
<rscale>  0 0.20968050E+04</rscale>
<asrwt>0</asrwt>
<pdfrwt beam="1">  1        1 0.29449091E+00 0.20968050E+04</pdfrwt>
<pdfrwt beam="2">  1       -1 0.88340018E-01 0.20968050E+04</pdfrwt>
<totfact> 0.39447676E+00</totfact>
</mgrwt>
</event>
<event>
12    1  0.1562393E-007  0.2052619E+04  0.7818608E-02  0.8582407E-01
         -2   -1    0    0    0  501 -0.00000000000E+00  0.00000000000E+00  0.24526610465E+04  0.24526610465E+04  0.00000000000E+00 0.  1.
          2   -1    0    0  501    0  0.00000000000E+00 -0.00000000000E+00 -0.42945645746E+03  0.42945645746E+03  0.00000000000E+00 0. -1.
         23    2    1    2    0    0  0.16074089127E+03  0.72670374108E+03  0.12207681745E+04  0.14326767659E+04  0.91388283396E+02 0.  0.
        254    2    1    2    0    0 -0.16074089127E+03 -0.72670374108E+03  0.80243641459E+03  0.14494407381E+04  0.95028326951E+03 0.  0.
        -24    2    4    4    0    0 -0.52179478490E+02 -0.17508006098E+03  0.85561865097E+03  0.87841743700E+03  0.78474148717E+02 0.  0.
         24    2    4    4    0    0 -0.10856141278E+03 -0.55162368010E+03 -0.53182236381E+02  0.57102330107E+03  0.84646295311E+02 0.  0.
         13    1    3    3    0    0 -0.10537357386E+02  0.72422660679E+02  0.10674297422E+03  0.12942233279E+03  0.00000000000E+00 0. -1.
        -13    1    3    3    0    0  0.17127824866E+03  0.65428108040E+03  0.11140252003E+04  0.13032544331E+04  0.00000000000E+00 0.  1.
          4    1    6    6  502    0 -0.56808508674E+02 -0.18085842975E+03 -0.52337299805E+02  0.19666258216E+03  0.00000000000E+00 0. -1.
          3    1    5    5  503    0 -0.27370431331E+01 -0.67710328204E+02  0.17599606222E+03  0.18859160603E+03  0.00000000000E+00 0. -1.
         -4    1    5    5    0  503 -0.49442435357E+02 -0.10736973278E+03  0.67962258875E+03  0.68982583097E+03  0.00000000000E+00 0.  1.
         -3    1    6    6    0  502 -0.51752904108E+02 -0.37076525034E+03 -0.84493657612E+00  0.37436071891E+03  0.00000000000E+00 0.  1.
<mgrwt>
<rscale>  0 0.20526189E+04</rscale>
<asrwt>0</asrwt>
<pdfrwt beam="1">  1        2 0.66070226E-01 0.20526189E+04</pdfrwt>
<pdfrwt beam="2">  1       -2 0.37733246E+00 0.20526189E+04</pdfrwt>
<totfact> 0.70872557E-01</totfact>
</mgrwt>
</event>
<event>
12    1  0.1562393E-007  0.1466337E+04  0.7818608E-02  0.8907152E-01
          2   -1    0    0  501    0  0.00000000000E+00  0.00000000000E+00  0.23149054219E+04  0.23149054219E+04  0.00000000000E+00 0. -1.
         -2   -1    0    0    0  501 -0.00000000000E+00 -0.00000000000E+00 -0.23220640796E+03  0.23220640796E+03  0.00000000000E+00 0.  1.
         23    2    1    2    0    0 -0.93019229777E+02  0.36858870290E+02  0.14098795659E+04  0.14165872698E+04  0.94593600953E+02 0.  0.
        254    2    1    2    0    0  0.93019229777E+02 -0.36858870290E+02  0.67281944802E+03  0.11305245600E+04  0.90298871402E+03 0.  0.
        -24    2    4    4    0    0  0.77806222631E+02  0.57000677567E+02 -0.20697829735E+03  0.24193668480E+03  0.79940342485E+02 0.  0.
         24    2    4    4    0    0  0.15213007146E+02 -0.93859547857E+02  0.87979774536E+03  0.88858787517E+03  0.80642971493E+02 0.  0.
         11    1    3    3    0    0 -0.72878201036E+02  0.50079515393E+02  0.13350422125E+04  0.13379674507E+04  0.00000000000E+00 0. -1.
        -11    1    3    3    0    0 -0.20141028741E+02 -0.13220645103E+02  0.74837353418E+02  0.78619819144E+02  0.00000000000E+00 0.  1.
          2    1    6    6  502    0  0.12925585067E+02 -0.80184724753E+02  0.86297189438E+03  0.86678552787E+03  0.00000000000E+00 0. -1.
          1    1    5    5  503    0  0.57430154988E+02  0.48224974211E+02 -0.20655490826E+03  0.21974712959E+03  0.00000000000E+00 0. -1.
         -2    1    5    5    0  503  0.20376067643E+02  0.87757033560E+01 -0.42338909036E+00  0.22189555208E+02  0.00000000000E+00 0.  1.
         -1    1    6    6    0  502  0.22874220794E+01 -0.13674823104E+02  0.16825850978E+02  0.21802347301E+02  0.00000000000E+00 0.  1.
<mgrwt>
<rscale>  0 0.14663368E+04</rscale>
<asrwt>0</asrwt>
<pdfrwt beam="1">  1        2 0.35613928E+00 0.14663368E+04</pdfrwt>
<pdfrwt beam="2">  1       -2 0.35724064E-01 0.14663368E+04</pdfrwt>
<totfact> 0.31778542E+01</totfact>
</mgrwt>
</event>
<event>
12    1  0.1562393E-007  0.1922552E+04  0.7818608E-02  0.8643712E-01
          1   -1    0    0  501    0  0.00000000000E+00  0.00000000000E+00  0.80728139122E+03  0.80728139122E+03  0.00000000000E+00 0. -1.
         -1   -1    0    0    0  501 -0.00000000000E+00 -0.00000000000E+00 -0.11446457864E+04  0.11446457864E+04  0.00000000000E+00 0.  1.
         23    2    1    2    0    0  0.71504922815E+03  0.23681836006E+03 -0.72524607238E+02  0.76202948010E+03  0.89726114116E+02 0.  0.
        254    2    1    2    0    0 -0.71504922815E+03 -0.23681836006E+03 -0.26483978794E+03  0.11898976975E+04  0.88223470968E+03 0.  0.
        -24    2    4    4    0    0 -0.26857365697E+03  0.24288945411E+03 -0.36762241077E+03  0.52175725898E+03  0.77183575081E+02 0.  0.
         24    2    4    4    0    0 -0.44647557118E+03 -0.47970781418E+03  0.10278262283E+03  0.66814043855E+03  0.79920932349E+02 0.  0.
         13    1    3    3    0    0  0.62635641525E+03  0.23613764006E+03 -0.72766485851E+02  0.67333372517E+03  0.00000000000E+00 0. -1.
        -13    1    3    3    0    0  0.88692812892E+02  0.68072000367E+00  0.24187861276E+00  0.88695754936E+02  0.00000000000E+00 0.  1.
          4    1    6    6  502    0  0.23896609121E+01 -0.10772843158E+02  0.11467408146E+01  0.11094126531E+02  0.00000000000E+00 0. -1.
          3    1    5    5  503    0 -0.69460002978E+02  0.38376535315E+02 -0.45928823891E+02  0.91689188787E+02  0.00000000000E+00 0. -1.
         -4    1    5    5    0  503 -0.19911365399E+03  0.20451291880E+03 -0.32169358688E+03  0.43006807020E+03  0.00000000000E+00 0.  1.
         -3    1    6    6    0  502 -0.44886523209E+03 -0.46893497102E+03  0.10163588201E+03  0.65704631202E+03  0.00000000000E+00 0.  1.
<mgrwt>
<rscale>  0 0.19225517E+04</rscale>
<asrwt>0</asrwt>
<pdfrwt beam="1">  1        1 0.12419714E+00 0.19225517E+04</pdfrwt>
<pdfrwt beam="2">  1       -1 0.17609935E+00 0.19225517E+04</pdfrwt>
<totfact> 0.45181037E+00</totfact>
</mgrwt>
</event>
<event>
12    1  0.1562393E-007  0.2133289E+04  0.7818608E-02  0.8546719E-01
          1   -1    0    0  501    0  0.00000000000E+00  0.00000000000E+00  0.22090089568E+04  0.22090089568E+04  0.00000000000E+00 0. -1.
         -1   -1    0    0    0  501 -0.00000000000E+00 -0.00000000000E+00 -0.51504137990E+03  0.51504137990E+03  0.00000000000E+00 0.  1.
         23    2    1    2    0    0  0.52248656217E+03  0.18740382460E+03  0.15570396494E+04  0.16555729495E+04  0.91852708142E+02 0.  0.
        254    2    1    2    0    0 -0.52248656217E+03 -0.18740382460E+03  0.13692792744E+03  0.10684773872E+04  0.90265290590E+03 0.  0.
        -24    2    4    4    0    0 -0.60537785743E+03  0.11906762123E+03  0.31363616131E+03  0.69668475364E+03  0.79640163130E+02 0.  0.
         24    2    4    4    0    0  0.82891295259E+02 -0.30647144583E+03 -0.17670823387E+03  0.37179263356E+03  0.78792439462E+02 0.  0.
         11    1    3    3    0    0  0.46794158007E+03  0.18840254357E+03  0.14533890752E+04  0.15384422786E+04  0.00000000000E+00 0. -1.
        -11    1    3    3    0    0  0.54544982102E+02 -0.99871897034E+00  0.10365057425E+03  0.11713067085E+03  0.00000000000E+00 0.  1.
          4    1    6    6  502    0  0.70542550768E+02 -0.11274946298E+03 -0.71500025354E+02  0.15099982284E+03  0.00000000000E+00 0. -1.
          3    1    5    5  503    0 -0.23724641031E+03  0.11370421600E+02  0.10073267155E+03  0.25799654418E+03  0.00000000000E+00 0. -1.
         -4    1    5    5    0  503 -0.36813144712E+03  0.10769719962E+03  0.21290348976E+03  0.43868820946E+03  0.00000000000E+00 0.  1.
         -3    1    6    6    0  502  0.12348744491E+02 -0.19372198285E+03 -0.10520820852E+03  0.22079281072E+03  0.00000000000E+00 0.  1.
<mgrwt>
<rscale>  0 0.21332895E+04</rscale>
<asrwt>0</asrwt>
<pdfrwt beam="1">  1        1 0.33984753E+00 0.21332895E+04</pdfrwt>
<pdfrwt beam="2">  1       -1 0.79237137E-01 0.21332895E+04</pdfrwt>
<totfact> 0.31356135E+00</totfact>
</mgrwt>
</event>
<event>
12    1  0.1562393E-007  0.1399243E+04  0.7818608E-02  0.8954367E-01
          1   -1    0    0  501    0  0.00000000000E+00  0.00000000000E+00  0.10192342629E+04  0.10192342629E+04  0.00000000000E+00 0. -1.
         -1   -1    0    0    0  501 -0.00000000000E+00 -0.00000000000E+00 -0.48023306320E+03  0.48023306320E+03  0.00000000000E+00 0.  1.
         23    2    1    2    0    0 -0.47651276351E+02  0.62582314404E+02 -0.25557225565E+03  0.28286687916E+03  0.92245884756E+02 0.  0.
        254    2    1    2    0    0  0.47651276351E+02 -0.62582314404E+02  0.79457345531E+03  0.12166004469E+04  0.91792291687E+03 0.  0.
        -24    2    4    4    0    0  0.40826871482E+03  0.26851248747E+02  0.71795226625E+03  0.83017251445E+03  0.79540015536E+02 0.  0.
         24    2    4    4    0    0 -0.36061743847E+03 -0.89433563151E+02  0.76621189056E+02  0.38642793245E+03  0.73569295364E+02 0.  0.
         11    1    3    3    0    0  0.21419770721E+02  0.30358250141E+00 -0.18864190028E+02  0.28543938156E+02  0.00000000000E+00 0. -1.
        -11    1    3    3    0    0 -0.69071047072E+02  0.62278731903E+02 -0.23670806562E+03  0.25432294100E+03  0.00000000000E+00 0.  1.
          4    1    6    6  502    0 -0.10677961756E+03 -0.29339170668E+02 -0.10925278914E+02  0.11127459450E+03  0.00000000000E+00 0. -1.
          3    1    5    5  503    0  0.12395421342E+03  0.36675261540E+02  0.27287196894E+03  0.30194177132E+03  0.00000000000E+00 0. -1.
         -4    1    5    5    0  503  0.28431450140E+03 -0.98240127928E+01  0.44508029731E+03  0.52823074313E+03  0.00000000000E+00 0.  1.
         -3    1    6    6    0  502 -0.25383782091E+03 -0.60094392483E+02  0.87546467971E+02  0.27515333796E+03  0.00000000000E+00 0.  1.
<mgrwt>
<rscale>  0 0.13992426E+04</rscale>
<asrwt>0</asrwt>
<pdfrwt beam="1">  1        1 0.15680527E+00 0.13992426E+04</pdfrwt>
<pdfrwt beam="2">  1       -1 0.73882010E-01 0.13992426E+04</pdfrwt>
<totfact> 0.26301991E+01</totfact>
</mgrwt>
</event>
<event>
12    1  0.1562393E-007  0.2369529E+04  0.7818608E-02  0.8451000E-01
         -1   -1    0    0    0  501 -0.00000000000E+00  0.00000000000E+00  0.99644500340E+03  0.99644500340E+03  0.00000000000E+00 0.  1.
          1   -1    0    0  501    0  0.00000000000E+00 -0.00000000000E+00 -0.14086748749E+04  0.14086748749E+04  0.00000000000E+00 0. -1.
         23    2    1    2    0    0 -0.17946839062E+03 -0.61478332536E+03  0.61826649844E+03  0.89498712074E+03  0.92633918303E+02 0.  0.
        254    2    1    2    0    0  0.17946839062E+03  0.61478332536E+03 -0.10304963700E+04  0.15101327576E+04  0.89911664240E+03 0.  0.
        -24    2    4    4    0    0  0.38275823601E+03  0.74687860170E+03 -0.85199291307E+03  0.11985788299E+04  0.79798337871E+02 0.  0.
         24    2    4    4    0    0 -0.20328984539E+03 -0.13209527635E+03 -0.17850345690E+03  0.31155392765E+03  0.80165094897E+02 0.  0.
         11    1    3    3    0    0 -0.18224691310E+03 -0.60165268618E+03  0.58347383268E+03  0.85769552030E+03  0.00000000000E+00 0.  1.
        -11    1    3    3    0    0  0.27785224745E+01 -0.13130639178E+02  0.34792665762E+02  0.37291600438E+02  0.00000000000E+00 0. -1.
          2    1    6    6  502    0 -0.15816693507E+03 -0.13161692040E+03 -0.16694290756E+03  0.26497118234E+03  0.00000000000E+00 0. -1.
          3    1    5    5  503    0  0.29207833921E+03  0.48908264744E+03 -0.56748919897E+03  0.80408680079E+03  0.00000000000E+00 0. -1.
         -4    1    5    5    0  503  0.90679896800E+02  0.25779595426E+03 -0.28450371410E+03  0.39449202914E+03  0.00000000000E+00 0.  1.
         -1    1    6    6    0  502 -0.45122910317E+02 -0.47835594943E+00 -0.11560549333E+02  0.46582745312E+02  0.00000000000E+00 0.  1.
<mgrwt>
<rscale>  0 0.23695291E+04</rscale>
<asrwt>0</asrwt>
<pdfrwt beam="1">  1        1 0.21671921E+00 0.23695291E+04</pdfrwt>
<pdfrwt beam="2">  1       -1 0.15329923E+00 0.23695291E+04</pdfrwt>
<totfact> 0.22388512E+00</totfact>
</mgrwt>
</event>
<event>
12    1  0.1562393E-007  0.1680826E+04  0.7818608E-02  0.8772376E-01
         -2   -1    0    0    0  501 -0.00000000000E+00  0.00000000000E+00  0.25154084439E+03  0.25154084439E+03  0.00000000000E+00 0.  1.
          2   -1    0    0  501    0  0.00000000000E+00 -0.00000000000E+00 -0.28078697761E+04  0.28078697761E+04  0.00000000000E+00 0. -1.
         23    2    1    2    0    0 -0.20936758670E+03  0.50577352585E+03 -0.13443800342E+04  0.14542951126E+04  0.89302589647E+02 0.  0.
        254    2    1    2    0    0  0.20936758670E+03 -0.50577352585E+03 -0.12119488975E+04  0.16051155078E+04  0.89885149916E+03 0.  0.
        -24    2    4    4    0    0  0.46606781370E+03 -0.12981606179E+03 -0.96010978392E+03  0.10781607791E+04  0.80922503356E+02 0.  0.
         24    2    4    4    0    0 -0.25670022700E+03 -0.37595746406E+03 -0.25183911358E+03  0.52695472874E+03  0.83781416127E+02 0.  0.
         11    1    3    3    0    0 -0.52103886021E+02  0.16032405102E+03 -0.31689042411E+03  0.35894032536E+03  0.00000000000E+00 0.  1.
        -11    1    3    3    0    0 -0.15726370068E+03  0.34544947483E+03 -0.10274896101E+04  0.10953547873E+04  0.00000000000E+00 0. -1.
          2    1    6    6  502    0 -0.73077770004E+01  0.54905189779E+00  0.35378611822E+01  0.81376608690E+01  0.00000000000E+00 0. -1.
          3    1    5    5  503    0  0.10865789975E+03 -0.66720012968E+02 -0.24081956375E+03  0.27249249823E+03  0.00000000000E+00 0. -1.
         -4    1    5    5    0  503  0.35740991394E+03 -0.63096048824E+02 -0.71929022017E+03  0.80566828087E+03  0.00000000000E+00 0.  1.
         -1    1    6    6    0  502 -0.24939245000E+03 -0.37650651595E+03 -0.25537697477E+03  0.51881706787E+03  0.00000000000E+00 0.  1.
<mgrwt>
<rscale>  0 0.16808259E+04</rscale>
<asrwt>0</asrwt>
<pdfrwt beam="1">  1        2 0.43197995E+00 0.16808259E+04</pdfrwt>
<pdfrwt beam="2">  1       -2 0.38698593E-01 0.16808259E+04</pdfrwt>
<totfact> 0.13800797E+01</totfact>
</mgrwt>
</event>
<event>
12    1  0.1562393E-007  0.1268799E+04  0.7818608E-02  0.9054680E-01
         -1   -1    0    0    0  501 -0.00000000000E+00  0.00000000000E+00  0.16628456493E+03  0.16628456493E+03  0.00000000000E+00 0.  1.
          1   -1    0    0  501    0  0.00000000000E+00 -0.00000000000E+00 -0.24203254767E+04  0.24203254767E+04  0.00000000000E+00 0. -1.
         23    2    1    2    0    0  0.31927481354E+02  0.22731578863E+03 -0.92315099280E+03  0.95543477517E+03  0.89196537336E+02 0.  0.
        254    2    1    2    0    0 -0.31927481354E+02 -0.22731578863E+03 -0.13308899189E+04  0.16311752664E+04  0.91475294023E+03 0.  0.
        -24    2    4    4    0    0 -0.41654594230E+03 -0.55393346093E+02 -0.32485724869E+03  0.53754421765E+03  0.82720064481E+02 0.  0.
         24    2    4    4    0    0  0.38461846094E+03 -0.17192244254E+03 -0.10060326702E+04  0.10936310488E+04  0.80239955815E+02 0.  0.
         11    1    3    3    0    0 -0.87395254075E+01  0.18276515197E+03 -0.75286480912E+03  0.77478055015E+03  0.00000000000E+00 0. -1.
        -11    1    3    3    0    0  0.40667006762E+02  0.44550636667E+02 -0.17028618368E+03  0.18065422502E+03  0.00000000000E+00 0.  1.
          2    1    6    6  502    0 -0.17893456463E+01 -0.89579517115E+01 -0.28850401505E+02  0.30262060797E+02  0.00000000000E+00 0. -1.
          3    1    5    5  503    0 -0.81808041187E+02 -0.21003398103E+02 -0.28478606252E+02  0.89133211256E+02  0.00000000000E+00 0. -1.
         -4    1    5    5    0  503 -0.33473790111E+03 -0.34389947990E+02 -0.29637864244E+03  0.44841100640E+03  0.00000000000E+00 0.  1.
         -1    1    6    6    0  502  0.38640780659E+03 -0.16296449083E+03 -0.97718226873E+03  0.10633689880E+04  0.00000000000E+00 0.  1.
<mgrwt>
<rscale>  0 0.12687991E+04</rscale>
<asrwt>0</asrwt>
<pdfrwt beam="1">  1        1 0.37235773E+00 0.12687991E+04</pdfrwt>
<pdfrwt beam="2">  1       -1 0.25582243E-01 0.12687991E+04</pdfrwt>
<totfact> 0.20483706E+01</totfact>
</mgrwt>
</event>
<event>
12    1  0.1562393E-007  0.2291961E+04  0.7818608E-02  0.8481098E-01
         -2   -1    0    0    0  501 -0.00000000000E+00  0.00000000000E+00  0.10252972378E+04  0.10252972378E+04  0.00000000000E+00 0.  1.
          2   -1    0    0  501    0  0.00000000000E+00 -0.00000000000E+00 -0.12808688183E+04  0.12808688183E+04  0.00000000000E+00 0. -1.
         23    2    1    2    0    0 -0.29305611415E+01  0.92633400158E+03  0.16449442320E+03  0.94521015389E+03  0.90887562769E+02 0.  0.
        254    2    1    2    0    0  0.29305611415E+01 -0.92633400158E+03 -0.42006600366E+03  0.13609559022E+04  0.90423572687E+03 0.  0.
        -24    2    4    4    0    0 -0.20992416893E+03 -0.52549074283E+03 -0.63311690062E+03  0.85322655160E+03  0.83365826336E+02 0.  0.
         24    2    4    4    0    0  0.21285473007E+03 -0.40084325875E+03  0.21305089697E+03  0.50772935064E+03  0.80099654210E+02 0.  0.
         13    1    3    3    0    0 -0.29190677222E+02  0.62600169175E+03  0.14414567126E+03  0.64304602343E+03  0.00000000000E+00 0. -1.
        -13    1    3    3    0    0  0.26260116080E+02  0.30033230983E+03  0.20348751941E+02  0.30216413045E+03  0.00000000000E+00 0.  1.
          4    1    6    6  502    0  0.68045871133E+02 -0.66417011790E+02  0.28703040194E+02  0.99324340168E+02  0.00000000000E+00 0. -1.
          3    1    5    5  503    0 -0.12548536656E+03 -0.22569762865E+03 -0.32514123426E+03  0.41521418451E+03  0.00000000000E+00 0. -1.
         -4    1    5    5    0  503 -0.84438802365E+02 -0.29979311418E+03 -0.30797566636E+03  0.43801236709E+03  0.00000000000E+00 0.  1.
         -3    1    6    6    0  502  0.14480885894E+03 -0.33442624696E+03  0.18434785678E+03  0.40840501047E+03  0.00000000000E+00 0.  1.
<mgrwt>
<rscale>  0 0.22919610E+04</rscale>
<asrwt>0</asrwt>
<pdfrwt beam="1">  1        2 0.19705674E+00 0.22919610E+04</pdfrwt>
<pdfrwt beam="2">  1       -2 0.15773804E+00 0.22919610E+04</pdfrwt>
<totfact> 0.40298040E+00</totfact>
</mgrwt>
</event>
<event>
12    1  0.1562393E-007  0.1238484E+04  0.7818608E-02  0.9079823E-01
         -2   -1    0    0    0  501 -0.00000000000E+00  0.00000000000E+00  0.68180789503E+03  0.68180789503E+03  0.00000000000E+00 0. -1.
          2   -1    0    0  501    0  0.00000000000E+00 -0.00000000000E+00 -0.56241705116E+03  0.56241705116E+03  0.00000000000E+00 0.  1.
         23    2    1    2    0    0 -0.90703738516E+02 -0.26200332216E+03  0.24148573292E+02  0.29309164488E+03  0.91905656536E+02 0.  0.
        254    2    1    2    0    0  0.90703738516E+02  0.26200332216E+03  0.95242270578E+02  0.95113330131E+03  0.90482625833E+03 0.  0.
        -24    2    4    4    0    0  0.47203564868E+03  0.21009854773E+02  0.11379543678E+03  0.49261668297E+03  0.80391089592E+02 0.  0.
         24    2    4    4    0    0 -0.38133191017E+03  0.24099346739E+03 -0.18553166203E+02  0.45851661834E+03  0.80008701319E+02 0.  0.
         11    1    3    3    0    0 -0.63285204333E+02 -0.25641814671E+03  0.22088500310E+02  0.26503430890E+03  0.00000000000E+00 0. -1.
        -11    1    3    3    0    0 -0.27418534182E+02 -0.55851754507E+01  0.20600729813E+01  0.28057335978E+02  0.00000000000E+00 0.  1.
          4    1    6    6  502    0 -0.37379626129E+03  0.24221966300E+03 -0.79936402506E+01  0.44548614836E+03  0.00000000000E+00 0. -1.
          3    1    5    5  503    0  0.22818598215E+03  0.30845639166E+02  0.19865500580E+02  0.23111671082E+03  0.00000000000E+00 0. -1.
         -4    1    5    5    0  503  0.24384966653E+03 -0.98357843932E+01  0.93929936202E+02  0.26149997215E+03  0.00000000000E+00 0.  1.
         -3    1    6    6    0  502 -0.75356488798E+01 -0.12261956095E+01 -0.10559525953E+02  0.13030469986E+02  0.00000000000E+00 0.  1.
<mgrwt>
<rscale>  0 0.12384836E+04</rscale>
<asrwt>0</asrwt>
<pdfrwt beam="1">  1        2 0.86525700E-01 0.12384836E+04</pdfrwt>
<pdfrwt beam="2">  1       -2 0.10489352E+00 0.12384836E+04</pdfrwt>
<totfact> 0.38885898E+01</totfact>
</mgrwt>
</event>
<event>
12    1  0.1562393E-007  0.1878898E+04  0.7818608E-02  0.8665432E-01
         -1   -1    0    0    0  501 -0.00000000000E+00  0.00000000000E+00  0.25626692733E+03  0.25626692733E+03  0.00000000000E+00 0.  1.
          1   -1    0    0  501    0  0.00000000000E+00 -0.00000000000E+00 -0.34439281452E+04  0.34439281452E+04  0.00000000000E+00 0. -1.
         23    2    1    2    0    0  0.71626050332E+03  0.68632801258E+02 -0.13517682457E+04  0.15346084765E+04  0.10003107529E+03 0.  0.
        254    2    1    2    0    0 -0.71626050332E+03 -0.68632801258E+02 -0.18358929722E+04  0.21655865960E+04  0.89527801807E+03 0.  0.
        -24    2    4    4    0    0 -0.75889756484E+03 -0.86724595939E+01 -0.18945248626E+04  0.20424602629E+04  0.80117070696E+02 0.  0.
         24    2    4    4    0    0  0.42637061518E+02 -0.59960341664E+02  0.58631890458E+02  0.12312633312E+03  0.79430685131E+02 0.  0.
         11    1    3    3    0    0  0.81577469748E+02  0.14605937886E+02 -0.23182407206E+03  0.24619223663E+03  0.00000000000E+00 0.  1.
        -11    1    3    3    0    0  0.63468303357E+03  0.54026863372E+02 -0.11199441736E+04  0.12884162398E+04  0.00000000000E+00 0. -1.
          4    1    6    6  502    0 -0.15844757515E+02 -0.40090859640E+02  0.39493214814E+02  0.58464069168E+02  0.00000000000E+00 0. -1.
          1    1    5    5  503    0 -0.14882175053E+03  0.29081427867E+02 -0.39926442461E+03  0.42708983087E+03  0.00000000000E+00 0. -1.
         -2    1    5    5    0  503 -0.61007581431E+03 -0.37753887461E+02 -0.14952604380E+04  0.16153704321E+04  0.00000000000E+00 0.  1.
         -3    1    6    6    0  502  0.58481819033E+02 -0.19869482024E+02  0.19138675644E+02  0.64662263947E+02  0.00000000000E+00 0.  1.
<mgrwt>
<rscale>  0 0.18788985E+04</rscale>
<asrwt>0</asrwt>
<pdfrwt beam="1">  1        1 0.52983508E+00 0.18788985E+04</pdfrwt>
<pdfrwt beam="2">  1       -1 0.39425683E-01 0.18788985E+04</pdfrwt>
<totfact> 0.16296782E+00</totfact>
</mgrwt>
</event>
<event>
12    1  0.1562393E-007  0.3020266E+04  0.7818608E-02  0.8237967E-01
          2   -1    0    0  501    0  0.00000000000E+00  0.00000000000E+00  0.29587021512E+04  0.29587021512E+04  0.00000000000E+00 0. -1.
         -2   -1    0    0    0  501 -0.00000000000E+00 -0.00000000000E+00 -0.77077783287E+03  0.77077783287E+03  0.00000000000E+00 0.  1.
         23    2    1    2    0    0  0.79221740395E+03  0.87787588483E+03  0.12660916980E+03  0.11929381792E+04  0.93793034566E+02 0.  0.
        254    2    1    2    0    0 -0.79221740395E+03 -0.87787588483E+03  0.20613151485E+04  0.25365418048E+04  0.88698912153E+03 0.  0.
        -24    2    4    4    0    0 -0.43298774547E+03 -0.43250085331E+03  0.30653228393E+03  0.68907070833E+03  0.79504868629E+02 0.  0.
         24    2    4    4    0    0 -0.35922965848E+03 -0.44537503152E+03  0.17547828646E+04  0.18474710965E+04  0.80508907949E+02 0.  0.
         13    1    3    3    0    0  0.73289968672E+03  0.83699208858E+03  0.13381078017E+03  0.11205369392E+04  0.00000000000E+00 0.  1.
        -13    1    3    3    0    0  0.59317717225E+02  0.40883796248E+02 -0.72016103752E+01  0.72401240075E+02  0.00000000000E+00 0. -1.
          4    1    6    6  502    0 -0.16706924087E+03 -0.20506108220E+03  0.68417049404E+03  0.73351989993E+03  0.00000000000E+00 0. -1.
          3    1    5    5  503    0 -0.27424613155E+03 -0.23794624441E+03  0.14783269802E+03  0.39202533401E+03  0.00000000000E+00 0. -1.
         -4    1    5    5    0  503 -0.15874161392E+03 -0.19455460890E+03  0.15869958591E+03  0.29704537431E+03  0.00000000000E+00 0.  1.
         -3    1    6    6    0  502 -0.19216041760E+03 -0.24031394932E+03  0.10706123705E+04  0.11139511965E+04  0.00000000000E+00 0.  1.
<mgrwt>
<rscale>  0 0.30202662E+04</rscale>
<asrwt>0</asrwt>
<pdfrwt beam="1">  1        2 0.45518494E+00 0.30202662E+04</pdfrwt>
<pdfrwt beam="2">  1       -2 0.11858121E+00 0.30202662E+04</pdfrwt>
<totfact> 0.86314358E-01</totfact>
</mgrwt>
</event>
<event>
12    1  0.1562393E-007  0.2878889E+04  0.7818608E-02  0.8279187E-01
          2   -1    0    0  501    0  0.00000000000E+00  0.00000000000E+00  0.20345011752E+04  0.20345011752E+04  0.00000000000E+00 0. -1.
         -2   -1    0    0    0  501 -0.00000000000E+00 -0.00000000000E+00 -0.10184314611E+04  0.10184314611E+04  0.00000000000E+00 0.  1.
         23    2    1    2    0    0  0.71039071157E+03 -0.37987636058E+02 -0.68898878846E+03  0.99466117219E+03  0.92451464261E+02 0.  0.
        254    2    1    2    0    0 -0.71039071157E+03  0.37987636058E+02  0.17050585026E+04  0.20582714641E+04  0.90728104746E+03 0.  0.
        -24    2    4    4    0    0 -0.63204318718E+03 -0.27885149366E+03  0.15271417078E+04  0.16781117809E+04  0.81612546146E+02 0.  0.
         24    2    4    4    0    0 -0.78347524393E+02  0.31683912971E+03  0.17791679484E+03  0.38015968319E+03  0.79634352748E+02 0.  0.
         11    1    3    3    0    0  0.24108639470E+03  0.29647099091E+02 -0.21916698155E+03  0.32716321002E+03  0.00000000000E+00 0. -1.
        -11    1    3    3    0    0  0.46930431688E+03 -0.67634735149E+02 -0.46982180691E+03  0.66749796216E+03  0.00000000000E+00 0.  1.
          4    1    6    6  502    0  0.13186329255E+02  0.72218531269E+02  0.53602826490E+02  0.90899166914E+02  0.00000000000E+00 0. -1.
          1    1    5    5  503    0 -0.40314483532E+03 -0.16312776550E+03  0.86880220780E+03  0.97157279831E+03  0.00000000000E+00 0. -1.
         -2    1    5    5    0  503 -0.22889835186E+03 -0.11572372816E+03  0.65833949999E+03  0.70653898264E+03  0.00000000000E+00 0.  1.
         -3    1    6    6    0  502 -0.91533853648E+02  0.24462059845E+03  0.12431396835E+03  0.28926051627E+03  0.00000000000E+00 0.  1.
<mgrwt>
<rscale>  0 0.28788887E+04</rscale>
<asrwt>0</asrwt>
<pdfrwt beam="1">  1        2 0.31300018E+00 0.28788887E+04</pdfrwt>
<pdfrwt beam="2">  1       -2 0.15668176E+00 0.28788887E+04</pdfrwt>
<totfact> 0.14736331E+00</totfact>
</mgrwt>
</event>
<event>
12    1  0.1562393E-007  0.1323501E+04  0.7818608E-02  0.9011134E-01
          1   -1    0    0  501    0  0.00000000000E+00  0.00000000000E+00  0.28900299394E+04  0.28900299394E+04  0.00000000000E+00 0.  1.
         -1   -1    0    0    0  501 -0.00000000000E+00 -0.00000000000E+00 -0.15152557101E+03  0.15152557101E+03  0.00000000000E+00 0. -1.
         23    2    1    2    0    0  0.21758004867E+03  0.78403391132E+02  0.15879860079E+03  0.29465861566E+03  0.90102912565E+02 0.  0.
        254    2    1    2    0    0 -0.21758004867E+03 -0.78403391132E+02  0.25797057676E+04  0.27468968948E+04  0.91491668129E+03 0.  0.
        -24    2    4    4    0    0 -0.45891987507E+03 -0.33778176594E+03  0.14430913632E+04  0.15536845006E+04  0.81968724111E+02 0.  0.
         24    2    4    4    0    0  0.24133982640E+03  0.25937837481E+03  0.11366144044E+04  0.11932123942E+04  0.79633285395E+02 0.  0.
         13    1    3    3    0    0  0.17512585386E+03  0.96224226944E+02  0.11227151619E+03  0.22920091599E+03  0.00000000000E+00 0. -1.
        -13    1    3    3    0    0  0.42454194808E+02 -0.17820835812E+02  0.46527084596E+02  0.65457699676E+02  0.00000000000E+00 0.  1.
          2    1    6    6  502    0  0.71404595657E+02  0.96844918713E+02  0.27676386341E+03  0.30178765821E+03  0.00000000000E+00 0. -1.
          1    1    5    5  503    0 -0.32866787224E+03 -0.28274973861E+03  0.11211261936E+04  0.12020374066E+04  0.00000000000E+00 0. -1.
         -2    1    5    5    0  503 -0.13025200283E+03 -0.55032027330E+02  0.32196516961E+03  0.35164709400E+03  0.00000000000E+00 0.  1.
         -1    1    6    6    0  502  0.16993523074E+03  0.16253345610E+03  0.85985054101E+03  0.89142473596E+03  0.00000000000E+00 0.  1.
<mgrwt>
<rscale>  0 0.13235006E+04</rscale>
<asrwt>0</asrwt>
<pdfrwt beam="1">  1        1 0.44461995E+00 0.13235006E+04</pdfrwt>
<pdfrwt beam="2">  1       -1 0.23311628E-01 0.13235006E+04</pdfrwt>
<totfact> 0.11213858E+01</totfact>
</mgrwt>
</event>
<event>
12    1  0.1562393E-007  0.1421234E+04  0.7818608E-02  0.8938590E-01
          2   -1    0    0  501    0  0.00000000000E+00  0.00000000000E+00  0.20134109151E+04  0.20134109151E+04  0.00000000000E+00 0. -1.
         -2   -1    0    0    0  501 -0.00000000000E+00 -0.00000000000E+00 -0.25080646730E+03  0.25080646730E+03  0.00000000000E+00 0.  1.
         23    2    1    2    0    0 -0.23140655672E+02 -0.35705430171E+02 -0.11780545047E+03  0.15465452313E+03  0.90716755201E+02 0.  0.
        254    2    1    2    0    0  0.23140655672E+02  0.35705430171E+02  0.18804098982E+04  0.21095628592E+04  0.95525059749E+03 0.  0.
        -24    2    4    4    0    0  0.42392319640E+03  0.22077533573E+03  0.12094579783E+04  0.13027259926E+04  0.76510032985E+02 0.  0.
         24    2    4    4    0    0 -0.40078254073E+03 -0.18506990555E+03  0.67095191992E+03  0.80683686665E+03  0.77017761837E+02 0.  0.
         13    1    3    3    0    0  0.23522747796E+02 -0.34408296313E+02 -0.19894920222E+02  0.46185044870E+02  0.00000000000E+00 0. -1.
        -13    1    3    3    0    0 -0.46663403468E+02 -0.12971338581E+01 -0.97910530250E+02  0.10846947826E+03  0.00000000000E+00 0.  1.
          2    1    6    6  502    0 -0.33572065638E+03 -0.18444710180E+03  0.57323176760E+03  0.68943727189E+03  0.00000000000E+00 0. -1.
          3    1    5    5  503    0  0.39749089763E+03  0.20116874845E+03  0.10622979910E+04  0.11519309444E+04  0.00000000000E+00 0. -1.
         -4    1    5    5    0  503  0.26432298770E+02  0.19606587271E+02  0.14715998732E+03  0.15079504816E+03  0.00000000000E+00 0.  1.
         -1    1    6    6    0  502 -0.65061884352E+02 -0.62280375304E+00  0.97720152317E+02  0.11739959476E+03  0.00000000000E+00 0.  1.
<mgrwt>
<rscale>  0 0.14212339E+04</rscale>
<asrwt>0</asrwt>
<pdfrwt beam="1">  1        2 0.30975551E+00 0.14212339E+04</pdfrwt>
<pdfrwt beam="2">  1       -2 0.38585612E-01 0.14212339E+04</pdfrwt>
<totfact> 0.40521910E+01</totfact>
</mgrwt>
</event>
<event>
12    1  0.1562393E-007  0.1054047E+04  0.7818608E-02  0.9251176E-01
          2   -1    0    0  501    0  0.00000000000E+00  0.00000000000E+00  0.73967171983E+03  0.73967171983E+03  0.00000000000E+00 0. -1.
         -2   -1    0    0    0  501 -0.00000000000E+00 -0.00000000000E+00 -0.37550931665E+03  0.37550931665E+03  0.00000000000E+00 0.  1.
         23    2    1    2    0    0 -0.81718472418E+01  0.10176559102E+03  0.24840976299E+01  0.13676980972E+03  0.90976895461E+02 0.  0.
        254    2    1    2    0    0  0.81718472418E+01 -0.10176559102E+03  0.36167830556E+03  0.97841122675E+03  0.90335724789E+03 0.  0.
        -24    2    4    4    0    0  0.34347161575E+03  0.14963552560E+02  0.47911281506E+03  0.59558569571E+03  0.83525880103E+02 0.  0.
         24    2    4    4    0    0 -0.33529976851E+03 -0.11672914358E+03 -0.11743450950E+03  0.38282553104E+03  0.81932261492E+02 0.  0.
         13    1    3    3    0    0  0.39814254053E+01  0.92536290146E+02 -0.32855021710E+02  0.98276493598E+02  0.00000000000E+00 0.  1.
        -13    1    3    3    0    0 -0.12153272647E+02  0.92293008757E+01  0.35339119340E+02  0.38493316127E+02  0.00000000000E+00 0. -1.
          2    1    6    6  502    0 -0.10598671596E+03 -0.75814133147E+02 -0.27821649858E+02  0.13324793036E+03  0.00000000000E+00 0. -1.
          3    1    5    5  503    0  0.33764093592E+03  0.27833154945E+02  0.46719040807E+03  0.57709874677E+03  0.00000000000E+00 0. -1.
         -4    1    5    5    0  503  0.58306798306E+01 -0.12869602386E+02  0.11922406985E+02  0.18486948942E+02  0.00000000000E+00 0.  1.
         -1    1    6    6    0  502 -0.22931305255E+03 -0.40915010435E+02 -0.89612859644E+02  0.24957760069E+03  0.00000000000E+00 0.  1.
<mgrwt>
<rscale>  0 0.10540467E+04</rscale>
<asrwt>0</asrwt>
<pdfrwt beam="1">  1        2 0.11379565E+00 0.10540467E+04</pdfrwt>
<pdfrwt beam="2">  1       -2 0.57770664E-01 0.10540467E+04</pdfrwt>
<totfact> 0.10666172E+02</totfact>
</mgrwt>
</event>
<event>
12    1  0.1562393E-007  0.2383020E+04  0.7818608E-02  0.8445888E-01
         -1   -1    0    0    0  501 -0.00000000000E+00  0.00000000000E+00  0.48826466800E+03  0.48826466800E+03  0.00000000000E+00 0.  1.
          1   -1    0    0  501    0  0.00000000000E+00 -0.00000000000E+00 -0.29076364383E+04  0.29076364383E+04  0.00000000000E+00 0. -1.
         23    2    1    2    0    0  0.45567442299E+03 -0.31346760076E+03  0.16094307593E+03  0.58365636626E+03  0.94079560434E+02 0.  0.
        254    2    1    2    0    0 -0.45567442299E+03  0.31346760076E+03 -0.25803148462E+04  0.28122447400E+04  0.97200548133E+03 0.  0.
        -24    2    4    4    0    0 -0.88480977979E+02 -0.31688955896E+03 -0.12260977580E+04  0.12719700485E+04  0.79650587218E+02 0.  0.
         24    2    4    4    0    0 -0.36719344501E+03  0.63035715972E+03 -0.13542170882E+04  0.15402746915E+04  0.79756056315E+02 0.  0.
         13    1    3    3    0    0  0.41095623346E+03 -0.31161499444E+03  0.15485465509E+03  0.53848759947E+03  0.00000000000E+00 0.  1.
        -13    1    3    3    0    0  0.44718189535E+02 -0.18526063220E+01  0.60884208438E+01  0.45168766796E+02  0.00000000000E+00 0. -1.
          2    1    6    6  502    0 -0.36031585994E+03  0.61730092326E+03 -0.13442602995E+04  0.15224728903E+04  0.00000000000E+00 0. -1.
          3    1    5    5  503    0 -0.20566356801E+02 -0.21511812122E+03 -0.79470492944E+03  0.82356220529E+03  0.00000000000E+00 0. -1.
         -2    1    5    5    0  503 -0.67914621178E+02 -0.10177143774E+03 -0.43139282855E+03  0.44840784319E+03  0.00000000000E+00 0.  1.
         -1    1    6    6    0  502 -0.68775850747E+01  0.13056236460E+02 -0.99567886976E+01  0.17801801261E+02  0.00000000000E+00 0.  1.
<mgrwt>
<rscale>  0 0.23830201E+04</rscale>
<asrwt>0</asrwt>
<pdfrwt beam="1">  1        1 0.44732868E+00 0.23830201E+04</pdfrwt>
<pdfrwt beam="2">  1       -1 0.75117642E-01 0.23830201E+04</pdfrwt>
<totfact> 0.11157844E+00</totfact>
</mgrwt>
</event>
<event>
12    1  0.1562393E-007  0.1452179E+04  0.7818608E-02  0.8916891E-01
         -1   -1    0    0    0  501 -0.00000000000E+00  0.00000000000E+00  0.10449860654E+04  0.10449860654E+04  0.00000000000E+00 0.  1.
          1   -1    0    0  501    0  0.00000000000E+00 -0.00000000000E+00 -0.50450979064E+03  0.50450979064E+03  0.00000000000E+00 0. -1.
         23    2    1    2    0    0 -0.40332410840E+03  0.13433988740E+03  0.52607194727E+02  0.43788818499E+03  0.90890064666E+02 0.  0.
        254    2    1    2    0    0  0.40332410840E+03 -0.13433988740E+03  0.48786908003E+03  0.11116076710E+04  0.90384613364E+03 0.  0.
        -24    2    4    4    0    0  0.31683629172E+03  0.32990806836E+03  0.42323861133E+03  0.62847575530E+03  0.81401987447E+02 0.  0.
         24    2    4    4    0    0  0.86487816677E+02 -0.46424795576E+03  0.64630468699E+02  0.48313191573E+03  0.78949627332E+02 0.  0.
         13    1    3    3    0    0 -0.11358568239E+03  0.62209174141E+02  0.51320161317E+02  0.13930343696E+03  0.00000000000E+00 0. -1.
        -13    1    3    3    0    0 -0.28973842601E+03  0.72130713257E+02  0.12870334098E+01  0.29858474803E+03  0.00000000000E+00 0.  1.
          4    1    6    6  502    0 -0.98467566222E+01 -0.12289374890E+03  0.29054948338E+02  0.12666499974E+03  0.00000000000E+00 0. -1.
          3    1    5    5  503    0  0.30591854480E+03  0.28452462035E+03  0.37597798603E+03  0.56204969675E+03  0.00000000000E+00 0. -1.
         -4    1    5    5    0  503  0.10917746924E+02  0.45383448007E+02  0.47260625294E+02  0.66426058547E+02  0.00000000000E+00 0.  1.
         -3    1    6    6    0  502  0.96334573300E+02 -0.34135420686E+03  0.35575520361E+02  0.35646691600E+03  0.00000000000E+00 0.  1.
<mgrwt>
<rscale>  0 0.14521786E+04</rscale>
<asrwt>0</asrwt>
<pdfrwt beam="1">  1        1 0.77616891E-01 0.14521786E+04</pdfrwt>
<pdfrwt beam="2">  1       -1 0.16076709E+00 0.14521786E+04</pdfrwt>
<totfact> 0.12257126E+01</totfact>
</mgrwt>
</event>
<event>
12    1  0.1562393E-007  0.1363177E+04  0.7818608E-02  0.8980913E-01
         -1   -1    0    0    0  501 -0.00000000000E+00  0.00000000000E+00  0.43160982322E+03  0.43160982322E+03  0.00000000000E+00 0.  1.
          1   -1    0    0  501    0  0.00000000000E+00 -0.00000000000E+00 -0.10763496998E+04  0.10763496998E+04  0.00000000000E+00 0. -1.
         23    2    1    2    0    0  0.11264132292E+03 -0.13614253518E+03 -0.54162130374E+03  0.57709815615E+03  0.92009714966E+02 0.  0.
        254    2    1    2    0    0 -0.11264132292E+03  0.13614253518E+03 -0.10311857280E+03  0.93086136684E+03  0.90810053777E+03 0.  0.
        -24    2    4    4    0    0  0.13629575890E+02  0.45465303633E+03 -0.27649711316E+03  0.53846046077E+03  0.81202619660E+02 0.  0.
         24    2    4    4    0    0 -0.12627089881E+03 -0.31851050115E+03  0.17337854036E+03  0.39240090608E+03  0.80777927713E+02 0.  0.
         11    1    3    3    0    0 -0.81381701165E+01 -0.12286339151E+02 -0.94322041040E+01  0.17497154535E+02  0.00000000000E+00 0.  1.
        -11    1    3    3    0    0  0.12077949304E+03 -0.12385619603E+03 -0.53218909964E+03  0.55960100161E+03  0.00000000000E+00 0. -1.
          2    1    6    6  502    0 -0.81180474722E+02 -0.12179147672E+03  0.10169380340E+03  0.17822755939E+03  0.00000000000E+00 0. -1.
          1    1    5    5  503    0  0.99327017862E+01  0.78162775060E+01 -0.18717664234E+02  0.22585475713E+02  0.00000000000E+00 0. -1.
         -2    1    5    5    0  503  0.36968741041E+01  0.44683675882E+03 -0.25777944893E+03  0.51587498505E+03  0.00000000000E+00 0.  1.
         -3    1    6    6    0  502 -0.45090424089E+02 -0.19671902443E+03  0.71684736956E+02  0.21417334668E+03  0.00000000000E+00 0.  1.
<mgrwt>
<rscale>  0 0.13631773E+04</rscale>
<asrwt>0</asrwt>
<pdfrwt beam="1">  1        1 0.16559226E+00 0.13631773E+04</pdfrwt>
<pdfrwt beam="2">  1       -1 0.66401512E-01 0.13631773E+04</pdfrwt>
<totfact> 0.29694765E+01</totfact>
</mgrwt>
</event>
<event>
12    1  0.1562393E-007  0.1216891E+04  0.7818608E-02  0.9098199E-01
          2   -1    0    0  501    0  0.00000000000E+00  0.00000000000E+00  0.53161304574E+03  0.53161304574E+03  0.00000000000E+00 0. -1.
         -2   -1    0    0    0  501 -0.00000000000E+00 -0.00000000000E+00 -0.69638202367E+03  0.69638202367E+03  0.00000000000E+00 0.  1.
         23    2    1    2    0    0  0.41495221577E+02 -0.46160742000E+02 -0.29983285565E+03  0.32077485459E+03  0.95624779692E+02 0.  0.
        254    2    1    2    0    0 -0.41495221577E+02  0.46160742000E+02  0.13506387772E+03  0.90722021482E+03  0.89496011062E+03 0.  0.
        -24    2    4    4    0    0  0.37798213467E+03  0.67214982586E+02  0.24964332839E+03  0.46475176393E+03  0.79272079923E+02 0.  0.
         24    2    4    4    0    0 -0.41947735624E+03 -0.21054240586E+02 -0.11457945068E+03  0.44246845089E+03  0.79027501972E+02 0.  0.
         13    1    3    3    0    0  0.11726167528E+02 -0.16384214333E+02 -0.26599730446E+03  0.26675927625E+03  0.00000000000E+00 0.  1.
        -13    1    3    3    0    0  0.29769054049E+02 -0.29776527667E+02 -0.33835551192E+02  0.54015578340E+02  0.00000000000E+00 0. -1.
          2    1    6    6  502    0 -0.28146047033E+03  0.10847902125E+02 -0.10458940512E+03  0.30046067463E+03  0.00000000000E+00 0. -1.
          3    1    5    5  503    0  0.10632654718E+03  0.14037460388E+02  0.11390622698E+03  0.15645131343E+03  0.00000000000E+00 0. -1.
         -4    1    5    5    0  503  0.27165558748E+03  0.53177522198E+02  0.13573710141E+03  0.30830045050E+03  0.00000000000E+00 0.  1.
         -1    1    6    6    0  502 -0.13801688591E+03 -0.31902142711E+02 -0.99900455589E+01  0.14200777626E+03  0.00000000000E+00 0.  1.
<mgrwt>
<rscale>  0 0.12168907E+04</rscale>
<asrwt>0</asrwt>
<pdfrwt beam="1">  1        2 0.81786623E-01 0.12168907E+04</pdfrwt>
<pdfrwt beam="2">  1       -2 0.10713570E+00 0.12168907E+04</pdfrwt>
<totfact> 0.39562179E+01</totfact>
</mgrwt>
</event>
<event>
12    1  0.1562393E-007  0.1357619E+04  0.7818608E-02  0.8985081E-01
         -1   -1    0    0    0  501 -0.00000000000E+00  0.00000000000E+00  0.25338625989E+04  0.25338625989E+04  0.00000000000E+00 0.  1.
          1   -1    0    0  501    0  0.00000000000E+00 -0.00000000000E+00 -0.18184972581E+03  0.18184972581E+03  0.00000000000E+00 0. -1.
         23    2    1    2    0    0 -0.28120476685E+03  0.10116782054E+02  0.17332213624E+03  0.34244887210E+03  0.89734034293E+02 0.  0.
        254    2    1    2    0    0  0.28120476685E+03 -0.10116782054E+02  0.21786907369E+04  0.23732634526E+04  0.89805769218E+03 0.  0.
        -24    2    4    4    0    0 -0.23156239677E+03 -0.22527156782E+03  0.11956617823E+04  0.12410927468E+04  0.79597020892E+02 0.  0.
         24    2    4    4    0    0  0.51276716362E+03  0.21515478576E+03  0.98302895461E+03  0.11321707058E+04  0.79011616913E+02 0.  0.
         13    1    3    3    0    0 -0.34593371751E+02 -0.14493942115E+02  0.58059090976E+02  0.69120429485E+02  0.00000000000E+00 0.  1.
        -13    1    3    3    0    0 -0.24661139510E+03  0.24610724168E+02  0.11526304526E+03  0.27332844261E+03  0.00000000000E+00 0. -1.
          4    1    6    6  502    0  0.38268200771E+03  0.12722469375E+03  0.67096934867E+03  0.78283555654E+03  0.00000000000E+00 0. -1.
          1    1    5    5  503    0 -0.21936167136E+03 -0.18567348272E+03  0.97082978965E+03  0.10124745259E+04  0.00000000000E+00 0. -1.
         -2    1    5    5    0  503 -0.12200725417E+02 -0.39598085097E+02  0.22483199261E+03  0.22861822094E+03  0.00000000000E+00 0.  1.
         -3    1    6    6    0  502  0.13008515591E+03  0.87930092013E+02  0.31205960594E+03  0.34933514929E+03  0.00000000000E+00 0.  1.
<mgrwt>
<rscale>  0 0.13576188E+04</rscale>
<asrwt>0</asrwt>
<pdfrwt beam="1">  1        1 0.27976883E-01 0.13576188E+04</pdfrwt>
<pdfrwt beam="2">  1       -1 0.38982499E+00 0.13576188E+04</pdfrwt>
<totfact> 0.13969096E+00</totfact>
</mgrwt>
</event>
<event>
12    1  0.1562393E-007  0.2001983E+04  0.7818608E-02  0.8605694E-01
         -2   -1    0    0    0  501 -0.00000000000E+00  0.00000000000E+00  0.48576680672E+03  0.48576680672E+03  0.00000000000E+00 0.  1.
          2   -1    0    0  501    0  0.00000000000E+00 -0.00000000000E+00 -0.20626857083E+04  0.20626857083E+04  0.00000000000E+00 0. -1.
         23    2    1    2    0    0 -0.23732873011E+02  0.36548476940E+03  0.26999140736E+03  0.46370222540E+03  0.89342195308E+02 0.  0.
        254    2    1    2    0    0  0.23732873011E+02 -0.36548476940E+03 -0.18469103089E+04  0.20847502896E+04  0.89496576183E+03 0.  0.
        -24    2    4    4    0    0  0.26132033816E+03 -0.51454340412E+03 -0.75064400980E+03  0.95033502113E+03  0.81406320858E+02 0.  0.
         24    2    4    4    0    0 -0.23758746515E+03  0.14905863472E+03 -0.10962662991E+04  0.11344152685E+04  0.80199267821E+02 0.  0.
         11    1    3    3    0    0  0.34130682390E+02  0.13857105993E+03  0.10759322026E+03  0.17872644789E+03  0.00000000000E+00 0. -1.
        -11    1    3    3    0    0 -0.57863555401E+02  0.22691370947E+03  0.16239818711E+03  0.28497577751E+03  0.00000000000E+00 0.  1.
          2    1    6    6  502    0 -0.11410857646E+03  0.11248389626E+03 -0.68328951219E+03  0.70182472997E+03  0.00000000000E+00 0. -1.
          1    1    5    5  503    0  0.24328148469E+03 -0.42219165010E+03 -0.60320050519E+03  0.77542409020E+03  0.00000000000E+00 0. -1.
         -2    1    5    5    0  503  0.18038853467E+02 -0.92351754028E+02 -0.14744350461E+03  0.17491093093E+03  0.00000000000E+00 0.  1.
         -1    1    6    6    0  502 -0.12347888869E+03  0.36574738464E+02 -0.41297678693E+03  0.43259053849E+03  0.00000000000E+00 0.  1.
<mgrwt>
<rscale>  0 0.20019833E+04</rscale>
<asrwt>0</asrwt>
<pdfrwt beam="1">  1        2 0.31733626E+00 0.20019833E+04</pdfrwt>
<pdfrwt beam="2">  1       -2 0.74733355E-01 0.20019833E+04</pdfrwt>
<totfact> 0.92161203E+00</totfact>
</mgrwt>
</event>
<event>
12    1  0.1562393E-007  0.1707415E+04  0.7818608E-02  0.8757146E-01
          2   -1    0    0  501    0  0.00000000000E+00  0.00000000000E+00  0.10912084515E+04  0.10912084515E+04  0.00000000000E+00 0. -1.
         -2   -1    0    0    0  501 -0.00000000000E+00 -0.00000000000E+00 -0.66789887040E+03  0.66789887040E+03  0.00000000000E+00 0.  1.
         23    2    1    2    0    0 -0.42427658214E+02 -0.50590698603E+03 -0.17509375139E+03  0.54458422686E+03  0.90400075615E+02 0.  0.
        254    2    1    2    0    0  0.42427658214E+02  0.50590698603E+03  0.59840333247E+03  0.12145230950E+04  0.92695081603E+03 0.  0.
        -24    2    4    4    0    0  0.13637106285E+03  0.42412076841E+03 -0.13029272209E+03  0.47097687941E+03  0.79796832807E+02 0.  0.
         24    2    4    4    0    0 -0.93943404640E+02  0.81786217620E+02  0.72869605456E+03  0.74354621561E+03  0.79678642994E+02 0.  0.
         11    1    3    3    0    0 -0.48425522119E+01 -0.58631308832E+02 -0.53583848021E+02  0.79575809490E+02  0.00000000000E+00 0.  1.
        -11    1    3    3    0    0 -0.37585106003E+02 -0.44727567720E+03 -0.12150990337E+03  0.46500841737E+03  0.00000000000E+00 0. -1.
          4    1    6    6  502    0 -0.76949822443E+02  0.80882622780E+02  0.70802035544E+03  0.71676781287E+03  0.00000000000E+00 0. -1.
          1    1    5    5  503    0  0.11966943854E+03  0.29854338997E+03 -0.63791333264E+02  0.32789977800E+03  0.00000000000E+00 0. -1.
         -2    1    5    5    0  503  0.16701624318E+02  0.12557737845E+03 -0.66501388826E+02  0.14307710141E+03  0.00000000000E+00 0.  1.
         -3    1    6    6    0  502 -0.16993582197E+02  0.90359483957E+00  0.20675699123E+02  0.26778402748E+02  0.00000000000E+00 0.  1.
<mgrwt>
<rscale>  0 0.17074155E+04</rscale>
<asrwt>0</asrwt>
<pdfrwt beam="1">  1        2 0.16787822E+00 0.17074155E+04</pdfrwt>
<pdfrwt beam="2">  1       -2 0.10275367E+00 0.17074155E+04</pdfrwt>
<totfact> 0.16245474E+01</totfact>
</mgrwt>
</event>
<event>
12    1  0.1562393E-007  0.3746128E+04  0.7818608E-02  0.8057815E-01
         -2   -1    0    0    0  501 -0.00000000000E+00  0.00000000000E+00  0.13654616527E+04  0.13654616527E+04  0.00000000000E+00 0.  1.
          2   -1    0    0  501    0  0.00000000000E+00 -0.00000000000E+00 -0.25693648733E+04  0.25693648733E+04  0.00000000000E+00 0. -1.
         23    2    1    2    0    0 -0.16524305520E+04  0.38009430340E+03 -0.19791867348E+02  0.16981868314E+04  0.91915109889E+02 0.  0.
        254    2    1    2    0    0  0.16524305520E+04 -0.38009430340E+03 -0.11841113532E+04  0.22366396947E+04  0.85172707968E+03 0.  0.
        -24    2    4    4    0    0  0.91008757739E+02  0.14136283459E+03  0.29442565120E+02  0.18992665982E+03  0.83302019669E+02 0.  0.
         24    2    4    4    0    0  0.15614217943E+04 -0.52145713799E+03 -0.12135539183E+04  0.20467130349E+04  0.79784509290E+02 0.  0.
         11    1    3    3    0    0 -0.41018119131E+03  0.74636773869E+02  0.29737288177E+02  0.41797555434E+03  0.00000000000E+00 0.  1.
        -11    1    3    3    0    0 -0.12422493607E+04  0.30545752953E+03 -0.49529155525E+02  0.12802112770E+04  0.00000000000E+00 0. -1.
          4    1    6    6  502    0  0.10049636501E+04 -0.30231281450E+03 -0.74587133254E+03  0.12875049595E+04  0.00000000000E+00 0. -1.
          3    1    5    5  503    0  0.92853048564E+02  0.93658088886E+02 -0.34876029653E+01  0.13193062425E+03  0.00000000000E+00 0. -1.
         -4    1    5    5    0  503 -0.18442908245E+01  0.47704745705E+02  0.32930168085E+02  0.57996035568E+02  0.00000000000E+00 0.  1.
         -3    1    6    6    0  502  0.55645814414E+03 -0.21914432348E+03 -0.46768258579E+03  0.75920807539E+03  0.00000000000E+00 0.  1.
<mgrwt>
<rscale>  0 0.37461282E+04</rscale>
<asrwt>0</asrwt>
<pdfrwt beam="1">  1        2 0.39528690E+00 0.37461282E+04</pdfrwt>
<pdfrwt beam="2">  1       -2 0.21007102E+00 0.37461282E+04</pdfrwt>
<totfact> 0.29216659E-01</totfact>
</mgrwt>
</event>
<event>
12    1  0.1562393E-007  0.2061534E+04  0.7818608E-02  0.8578380E-01
          1   -1    0    0  501    0  0.00000000000E+00  0.00000000000E+00  0.29600654269E+04  0.29600654269E+04  0.00000000000E+00 0. -1.
         -1   -1    0    0    0  501 -0.00000000000E+00 -0.00000000000E+00 -0.35893823050E+03  0.35893823050E+03  0.00000000000E+00 0.  1.
         23    2    1    2    0    0  0.45741337147E+03 -0.60240415036E+02  0.21679057138E+04  0.22181653793E+04  0.87100894106E+02 0.  0.
        254    2    1    2    0    0 -0.45741337147E+03  0.60240415036E+02  0.43322148255E+03  0.11008382781E+04  0.90072646325E+03 0.  0.
        -24    2    4    4    0    0 -0.71660081831E+03 -0.33223643119E+02  0.34630543312E+03  0.80090656266E+03  0.83086255430E+02 0.  0.
         24    2    4    4    0    0  0.25918744683E+03  0.93464058154E+02  0.86916049432E+02  0.29993171545E+03  0.80566565769E+02 0.  0.
         13    1    3    3    0    0  0.29653856322E+02 -0.13022503630E+02  0.27797203847E+03  0.27985244499E+03  0.00000000000E+00 0.  1.
        -13    1    3    3    0    0  0.42775951515E+03 -0.47217911406E+02  0.18899336754E+04  0.19383129343E+04  0.00000000000E+00 0. -1.
          4    1    6    6  502    0  0.21798665096E+03  0.43872893594E+02  0.72365007201E+02  0.23383691979E+03  0.00000000000E+00 0. -1.
          3    1    5    5  503    0 -0.24921470108E+02  0.14506013097E+02  0.14474495532E+02  0.32264765755E+02  0.00000000000E+00 0. -1.
         -4    1    5    5    0  503 -0.69167934820E+03 -0.47729656215E+02  0.33183093759E+03  0.76864179690E+03  0.00000000000E+00 0.  1.
         -3    1    6    6    0  502  0.41200795870E+02  0.49591164560E+02  0.14551042232E+02  0.66094795656E+02  0.00000000000E+00 0.  1.
<mgrwt>
<rscale>  0 0.20615340E+04</rscale>
<asrwt>0</asrwt>
<pdfrwt beam="1">  1        1 0.45539467E+00 0.20615340E+04</pdfrwt>
<pdfrwt beam="2">  1       -1 0.55221268E-01 0.20615340E+04</pdfrwt>
<totfact> 0.19579986E+00</totfact>
</mgrwt>
</event>
<event>
12    1  0.1562393E-007  0.1151515E+04  0.7818608E-02  0.9156387E-01
          2   -1    0    0  501    0  0.00000000000E+00  0.00000000000E+00  0.48306069681E+03  0.48306069681E+03  0.00000000000E+00 0.  1.
         -2   -1    0    0    0  501 -0.00000000000E+00 -0.00000000000E+00 -0.68624231117E+03  0.68624231117E+03  0.00000000000E+00 0. -1.
         23    2    1    2    0    0  0.25583639081E+02 -0.19825079107E+03 -0.83288162505E+02  0.23439293502E+03  0.89695212957E+02 0.  0.
        254    2    1    2    0    0 -0.25583639081E+02  0.19825079107E+03 -0.11989345185E+03  0.93491007295E+03  0.90538638490E+03 0.  0.
        -24    2    4    4    0    0  0.11621372353E+03 -0.79392703811E+02 -0.44725197791E+03  0.47519252476E+03  0.77231942152E+02 0.  0.
         24    2    4    4    0    0 -0.14179736261E+03  0.27764349488E+03  0.32735852606E+03  0.45971754820E+03  0.83571629430E+02 0.  0.
         11    1    3    3    0    0  0.48554457780E+02 -0.17462452987E+03 -0.87334819399E+02  0.20119302294E+03  0.00000000000E+00 0. -1.
        -11    1    3    3    0    0 -0.22970818700E+02 -0.23626261203E+02  0.40466568939E+01  0.33199912081E+02  0.00000000000E+00 0.  1.
          4    1    6    6  502    0 -0.11699776714E+03  0.13891568047E+03  0.19265040751E+03  0.26476446762E+03  0.00000000000E+00 0. -1.
          1    1    5    5  503    0  0.12107706502E+03 -0.54742950401E+02 -0.34014503276E+03  0.36517816146E+03  0.00000000000E+00 0. -1.
         -2    1    5    5    0  503 -0.48633414964E+01 -0.24649753410E+02 -0.10710694514E+03  0.11001436330E+03  0.00000000000E+00 0.  1.
         -3    1    6    6    0  502 -0.24799595467E+02  0.13872781441E+03  0.13470811854E+03  0.19495308058E+03  0.00000000000E+00 0.  1.
<mgrwt>
<rscale>  0 0.11515150E+04</rscale>
<asrwt>0</asrwt>
<pdfrwt beam="1">  1        2 0.74317030E-01 0.11515150E+04</pdfrwt>
<pdfrwt beam="2">  1       -2 0.10557574E+00 0.11515150E+04</pdfrwt>
<totfact> 0.46028896E+01</totfact>
</mgrwt>
</event>
<event>
12    1  0.1562393E-007  0.2587922E+04  0.7818608E-02  0.8372316E-01
          1   -1    0    0  501    0  0.00000000000E+00  0.00000000000E+00  0.13009273734E+04  0.13009273734E+04  0.00000000000E+00 0. -1.
         -1   -1    0    0    0  501 -0.00000000000E+00 -0.00000000000E+00 -0.12870315244E+04  0.12870315244E+04  0.00000000000E+00 0.  1.
         23    2    1    2    0    0 -0.76679197627E+03 -0.60836476928E+03  0.58517698600E+03  0.11448210120E+04  0.10052570381E+03 0.  0.
        254    2    1    2    0    0  0.76679197627E+03  0.60836476928E+03 -0.57128113691E+03  0.14431378858E+04  0.89342441919E+03 0.  0.
        -24    2    4    4    0    0  0.42616897466E+03  0.49273825701E+03  0.11304106298E+03  0.66629594257E+03  0.82225399309E+02 0.  0.
         24    2    4    4    0    0  0.34062300161E+03  0.11562651227E+03 -0.68432219990E+03  0.77684194327E+03  0.76111838736E+02 0.  0.
         13    1    3    3    0    0 -0.47110556896E+03 -0.43106387248E+03  0.36026582483E+03  0.73317663889E+03  0.00000000000E+00 0. -1.
        -13    1    3    3    0    0 -0.29568640730E+03 -0.17730089679E+03  0.22491116117E+03  0.41164437307E+03  0.00000000000E+00 0.  1.
          2    1    6    6  502    0  0.30657314335E+03  0.10773004649E+03 -0.65516677158E+03  0.73132506707E+03  0.00000000000E+00 0. -1.
          3    1    5    5  503    0  0.24212227409E+03  0.33859963436E+03  0.61822137366E+02  0.42082643058E+03  0.00000000000E+00 0. -1.
         -4    1    5    5    0  503  0.18404670057E+03  0.15413862264E+03  0.51218925615E+02  0.24546951200E+03  0.00000000000E+00 0.  1.
         -1    1    6    6    0  502  0.34049858259E+02  0.78964657843E+01 -0.29155428315E+02  0.45516876206E+02  0.00000000000E+00 0.  1.
<mgrwt>
<rscale>  0 0.25879216E+04</rscale>
<asrwt>0</asrwt>
<pdfrwt beam="1">  1        1 0.20014267E+00 0.25879216E+04</pdfrwt>
<pdfrwt beam="2">  1       -1 0.19800485E+00 0.25879216E+04</pdfrwt>
<totfact> 0.12372156E+00</totfact>
</mgrwt>
</event>
<event>
12    1  0.1562393E-007  0.1217803E+04  0.7818608E-02  0.9097414E-01
          2   -1    0    0  501    0  0.00000000000E+00  0.00000000000E+00  0.14481236611E+04  0.14481236611E+04  0.00000000000E+00 0. -1.
         -2   -1    0    0    0  501 -0.00000000000E+00 -0.00000000000E+00 -0.25602872231E+03  0.25602872231E+03  0.00000000000E+00 0.  1.
         23    2    1    2    0    0 -0.61471746471E+02 -0.42597091021E+02  0.62753007814E+03  0.63875442943E+03  0.92843601616E+02 0.  0.
        254    2    1    2    0    0  0.61471746471E+02  0.42597091021E+02  0.56456486068E+03  0.10653979540E+04  0.90041436613E+03 0.  0.
        -24    2    4    4    0    0  0.24628608095E+03  0.25243873580E+03  0.66562231126E+03  0.75758995869E+03  0.80668056031E+02 0.  0.
         24    2    4    4    0    0 -0.18481433447E+03 -0.20984164478E+03 -0.10105745058E+03  0.30780799532E+03  0.79644833839E+02 0.  0.
         11    1    3    3    0    0 -0.64297910370E+02 -0.24949171040E+02  0.60941978232E+03  0.61330999788E+03  0.00000000000E+00 0. -1.
        -11    1    3    3    0    0  0.28261638990E+01 -0.17647919980E+02  0.18110295818E+02  0.25444431545E+02  0.00000000000E+00 0.  1.
          2    1    6    6  502    0 -0.11390186274E+03 -0.82818050331E+02 -0.22939567567E+02  0.14268387280E+03  0.00000000000E+00 0. -1.
          1    1    5    5  503    0  0.21977010726E+02 -0.22780585790E+01  0.48400580681E+02  0.53205213669E+02  0.00000000000E+00 0. -1.
         -2    1    5    5    0  503  0.22430907022E+03  0.25471679438E+03  0.61722173058E+03  0.70438474502E+03  0.00000000000E+00 0.  1.
         -1    1    6    6    0  502 -0.70912471735E+02 -0.12702359445E+03 -0.78117883015E+02  0.16512412253E+03  0.00000000000E+00 0.  1.
<mgrwt>
<rscale>  0 0.12178034E+04</rscale>
<asrwt>0</asrwt>
<pdfrwt beam="1">  1        2 0.22278825E+00 0.12178034E+04</pdfrwt>
<pdfrwt beam="2">  1       -2 0.39389035E-01 0.12178034E+04</pdfrwt>
<totfact> 0.81556181E+01</totfact>
</mgrwt>
</event>
<event>
12    1  0.1562393E-007  0.2223630E+04  0.7818608E-02  0.8508657E-01
         -1   -1    0    0    0  501 -0.00000000000E+00  0.00000000000E+00  0.13002743360E+04  0.13002743360E+04  0.00000000000E+00 0.  1.
          1   -1    0    0  501    0  0.00000000000E+00 -0.00000000000E+00 -0.95067086970E+03  0.95067086970E+03  0.00000000000E+00 0. -1.
         23    2    1    2    0    0 -0.90015598744E+03 -0.62455514933E+02  0.35905524862E+03  0.97581760080E+03  0.95487304928E+02 0.  0.
        254    2    1    2    0    0  0.90015598744E+03  0.62455514933E+02 -0.94517822849E+01  0.12751276049E+04  0.90093261657E+03 0.  0.
        -24    2    4    4    0    0  0.96626628377E+02  0.18115603738E+03  0.32394192681E+03  0.39334444283E+03  0.87334206146E+02 0.  0.
         24    2    4    4    0    0  0.80352935906E+03 -0.11870052245E+03 -0.33339370910E+03  0.88178316211E+03  0.81491930912E+02 0.  0.
         11    1    3    3    0    0 -0.86666725080E+03 -0.70909526616E+02  0.36030784245E+03  0.94125555823E+03  0.00000000000E+00 0.  1.
        -11    1    3    3    0    0 -0.33488736638E+02  0.84540116835E+01 -0.12525938259E+01  0.34562042567E+02  0.00000000000E+00 0. -1.
          2    1    6    6  502    0  0.65442446873E+03 -0.97039987460E+02 -0.30483037064E+03  0.72842961177E+03  0.00000000000E+00 0. -1.
          3    1    5    5  503    0  0.10399269094E+03  0.12805278610E+03  0.27538315416E+03  0.32101071227E+03  0.00000000000E+00 0. -1.
         -4    1    5    5    0  503 -0.73660625651E+01  0.53103251284E+02  0.48558772656E+02  0.72333730558E+02  0.00000000000E+00 0.  1.
         -1    1    6    6    0  502  0.14910489033E+03 -0.21660534986E+02 -0.28563338459E+02  0.15335355034E+03  0.00000000000E+00 0.  1.
<mgrwt>
<rscale>  0 0.22236303E+04</rscale>
<asrwt>0</asrwt>
<pdfrwt beam="1">  1        1 0.14625706E+00 0.22236303E+04</pdfrwt>
<pdfrwt beam="2">  1       -1 0.20004221E+00 0.22236303E+04</pdfrwt>
<totfact> 0.22652570E+00</totfact>
</mgrwt>
</event>
<event>
12    1  0.1562393E-007  0.2698770E+04  0.7818608E-02  0.8335404E-01
         -1   -1    0    0    0  501 -0.00000000000E+00  0.00000000000E+00  0.68082277056E+03  0.68082277056E+03  0.00000000000E+00 0.  1.
          1   -1    0    0  501    0  0.00000000000E+00 -0.00000000000E+00 -0.26744691511E+04  0.26744691511E+04  0.00000000000E+00 0. -1.
         23    2    1    2    0    0 -0.43416497074E+03  0.46387180222E+03  0.37597312820E+03  0.74362894877E+03  0.89173704678E+02 0.  0.
        254    2    1    2    0    0  0.43416497074E+03 -0.46387180222E+03 -0.23696195087E+04  0.26116629729E+04  0.89555044363E+03 0.  0.
        -24    2    4    4    0    0 -0.24648424506E+03 -0.27400018732E+03 -0.99165164068E+03  0.10610639309E+04  0.81566557766E+02 0.  0.
         24    2    4    4    0    0  0.68064921580E+03 -0.18987161490E+03 -0.13779678681E+04  0.15505990420E+04  0.78913613673E+02 0.  0.
         13    1    3    3    0    0  0.42673399056E+01  0.74730843917E+01  0.35288082674E+01  0.93010573583E+01  0.00000000000E+00 0. -1.
        -13    1    3    3    0    0 -0.43843231065E+03  0.45639871783E+03  0.37244431994E+03  0.73432789141E+03  0.00000000000E+00 0.  1.
          2    1    6    6  502    0  0.33181026975E+03 -0.10005271578E+03 -0.59125716944E+03  0.68534198869E+03  0.00000000000E+00 0. -1.
          1    1    5    5  503    0 -0.36358952509E+01 -0.17505328648E+00 -0.59835678210E+02  0.59946299008E+02  0.00000000000E+00 0. -1.
         -2    1    5    5    0  503 -0.24284834981E+03 -0.27382513403E+03 -0.93181596247E+03  0.10011176319E+04  0.00000000000E+00 0.  1.
         -1    1    6    6    0  502  0.34883894605E+03 -0.89818899120E+02 -0.78671069862E+03  0.86525705328E+03  0.00000000000E+00 0.  1.
<mgrwt>
<rscale>  0 0.26987697E+04</rscale>
<asrwt>0</asrwt>
<pdfrwt beam="1">  1        1 0.41145678E+00 0.26987697E+04</pdfrwt>
<pdfrwt beam="2">  1       -1 0.10474197E+00 0.26987697E+04</pdfrwt>
<totfact> 0.76450242E-01</totfact>
</mgrwt>
</event>
<event>
12    1  0.1562393E-007  0.1963469E+04  0.7818608E-02  0.8623893E-01
         -2   -1    0    0    0  501 -0.00000000000E+00  0.00000000000E+00  0.10181368797E+04  0.10181368797E+04  0.00000000000E+00 0.  1.
          2   -1    0    0  501    0  0.00000000000E+00 -0.00000000000E+00 -0.94663375199E+03  0.94663375199E+03  0.00000000000E+00 0. -1.
         23    2    1    2    0    0  0.17751742857E+03 -0.42417217745E+03  0.64684333442E+03  0.79889397462E+03  0.91601363670E+02 0.  0.
        254    2    1    2    0    0 -0.17751742857E+03  0.42417217745E+03 -0.57534020674E+03  0.11658766570E+04  0.90377959279E+03 0.  0.
        -24    2    4    4    0    0 -0.21573890516E+02  0.40152414967E+03 -0.78848726540E+03  0.88895378449E+03  0.82701800091E+02 0.  0.
         24    2    4    4    0    0 -0.15594353806E+03  0.22648027782E+02  0.21314705865E+03  0.27692287254E+03  0.80145420957E+02 0.  0.
         11    1    3    3    0    0 -0.10576601147E+02 -0.35824928767E+02  0.51958575008E+02  0.63992058334E+02  0.00000000000E+00 0. -1.
        -11    1    3    3    0    0  0.18809402972E+03 -0.38834724869E+03  0.59488475941E+03  0.73490191628E+03  0.00000000000E+00 0.  1.
          2    1    6    6  502    0 -0.14079065675E+03 -0.92752100134E+01  0.16315251356E+03  0.21570067508E+03  0.00000000000E+00 0. -1.
          3    1    5    5  503    0  0.49581833126E+00  0.28807114136E+03 -0.48365139558E+03  0.56294218244E+03  0.00000000000E+00 0. -1.
         -4    1    5    5    0  503 -0.22069708848E+02  0.11345300831E+03 -0.30483586982E+03  0.32601160205E+03  0.00000000000E+00 0.  1.
         -1    1    6    6    0  502 -0.15152881311E+02  0.31923237795E+02  0.49994545097E+02  0.61222197468E+02  0.00000000000E+00 0.  1.
<mgrwt>
<rscale>  0 0.19634691E+04</rscale>
<asrwt>0</asrwt>
<pdfrwt beam="1">  1        2 0.14563596E+00 0.19634691E+04</pdfrwt>
<pdfrwt beam="2">  1       -2 0.15663644E+00 0.19634691E+04</pdfrwt>
<totfact> 0.67841267E+00</totfact>
</mgrwt>
</event>
<event>
12    1  0.1562393E-007  0.1378296E+04  0.7818608E-02  0.8969680E-01
         -1   -1    0    0    0  501 -0.00000000000E+00  0.00000000000E+00  0.72221645304E+03  0.72221645304E+03  0.00000000000E+00 0.  1.
          1   -1    0    0  501    0  0.00000000000E+00 -0.00000000000E+00 -0.65759392029E+03  0.65759392029E+03  0.00000000000E+00 0. -1.
         23    2    1    2    0    0  0.73363582580E+02 -0.38786052052E+03  0.47596430447E+02  0.40773087344E+03  0.90338509699E+02 0.  0.
        254    2    1    2    0    0 -0.73363582580E+02  0.38786052052E+03  0.17026102301E+02  0.97207949990E+03  0.88816139712E+03 0.  0.
        -24    2    4    4    0    0 -0.14252270828E+03 -0.18199452515E+03  0.24638024717E+03  0.34738981184E+03  0.80880934807E+02 0.  0.
         24    2    4    4    0    0  0.69159125696E+02  0.56985504567E+03 -0.22935414487E+03  0.62468968806E+03  0.90089537994E+02 0.  0.
         11    1    3    3    0    0  0.94850796466E+02 -0.31346487085E+03  0.37638779671E+02  0.32965675571E+03  0.00000000000E+00 0. -1.
        -11    1    3    3    0    0 -0.21487213886E+02 -0.74395649669E+02  0.99576507757E+01  0.78074117729E+02  0.00000000000E+00 0.  1.
          2    1    6    6  502    0  0.57727613506E+02  0.14526908419E+03 -0.62735569416E+02  0.16843792878E+03  0.00000000000E+00 0. -1.
          3    1    5    5  503    0 -0.66615715752E+01 -0.36969935137E+02  0.10594371969E+02  0.39030672007E+02  0.00000000000E+00 0. -1.
         -4    1    5    5    0  503 -0.13586113670E+03 -0.14502459002E+03  0.23578587520E+03  0.30835913983E+03  0.00000000000E+00 0.  1.
         -1    1    6    6    0  502  0.11431512189E+02  0.42458596148E+03 -0.16661857545E+03  0.45625175928E+03  0.00000000000E+00 0.  1.
<mgrwt>
<rscale>  0 0.13782963E+04</rscale>
<asrwt>0</asrwt>
<pdfrwt beam="1">  1        1 0.10116830E+00 0.13782963E+04</pdfrwt>
<pdfrwt beam="2">  1       -1 0.11111022E+00 0.13782963E+04</pdfrwt>
<totfact> 0.21797448E+01</totfact>
</mgrwt>
</event>
<event>
12    1  0.1562393E-007  0.1547462E+04  0.7818608E-02  0.8853491E-01
         -1   -1    0    0    0  501 -0.00000000000E+00  0.00000000000E+00  0.21268250818E+04  0.21268250818E+04  0.00000000000E+00 0.  1.
          1   -1    0    0  501    0  0.00000000000E+00 -0.00000000000E+00 -0.28148039424E+03  0.28148039424E+03  0.00000000000E+00 0. -1.
         23    2    1    2    0    0  0.70035637204E+02 -0.66966706439E+02  0.13800894721E+04  0.13869022790E+04  0.97269985811E+02 0.  0.
        254    2    1    2    0    0 -0.70035637204E+02  0.66966706439E+02  0.46525521541E+03  0.10214031970E+04  0.90410870209E+03 0.  0.
        -24    2    4    4    0    0  0.19247964101E+03 -0.15525397232E+03 -0.15777001513E+03  0.30518588629E+03  0.84230869577E+02 0.  0.
         24    2    4    4    0    0 -0.26251527821E+03  0.22222067876E+03  0.62302523054E+03  0.71621731075E+03  0.80687650672E+02 0.  0.
         13    1    3    3    0    0  0.31081298111E+02  0.11634016931E+02  0.75017790866E+03  0.75091164067E+03  0.00000000000E+00 0.  1.
        -13    1    3    3    0    0  0.38954339093E+02 -0.78600723370E+02  0.62991156344E+03  0.63599063830E+03  0.00000000000E+00 0. -1.
          4    1    6    6  502    0 -0.11358871630E+03  0.14828372617E+03  0.34220783321E+03  0.38986749163E+03  0.00000000000E+00 0. -1.
          1    1    5    5  503    0  0.15375720453E+03 -0.13556454850E+03 -0.16237100950E+03  0.26150214049E+03  0.00000000000E+00 0. -1.
         -2    1    5    5    0  503  0.38722436479E+02 -0.19689423825E+02  0.46009943755E+01  0.43683745795E+02  0.00000000000E+00 0.  1.
         -3    1    6    6    0  502 -0.14892656191E+03  0.73936952592E+02  0.28081739733E+03  0.32634981913E+03  0.00000000000E+00 0.  1.
<mgrwt>
<rscale>  0 0.15474619E+04</rscale>
<asrwt>0</asrwt>
<pdfrwt beam="1">  1        1 0.43304678E-01 0.15474619E+04</pdfrwt>
<pdfrwt beam="2">  1       -1 0.32720385E+00 0.15474619E+04</pdfrwt>
<totfact> 0.20232684E+00</totfact>
</mgrwt>
</event>
<event>
12    1  0.1562393E-007  0.2600210E+04  0.7818608E-02  0.8368130E-01
         -1   -1    0    0    0  501 -0.00000000000E+00  0.00000000000E+00  0.11955375872E+04  0.11955375872E+04  0.00000000000E+00 0.  1.
          1   -1    0    0  501    0  0.00000000000E+00 -0.00000000000E+00 -0.14138186735E+04  0.14138186735E+04  0.00000000000E+00 0. -1.
         23    2    1    2    0    0  0.73954017257E+03 -0.46065143126E+03  0.64343241776E+03  0.10869703223E+04  0.91541233525E+02 0.  0.
        254    2    1    2    0    0 -0.73954017257E+03  0.46065143126E+03 -0.86171350410E+03  0.15223859383E+04  0.90332130167E+03 0.  0.
        -24    2    4    4    0    0 -0.56524473119E+03  0.72161748648E+03 -0.54433973209E+03  0.10690700184E+04  0.79822034960E+02 0.  0.
         24    2    4    4    0    0 -0.17429544138E+03 -0.26096605522E+03 -0.31737377201E+03  0.45331591996E+03  0.79290789276E+02 0.  0.
         11    1    3    3    0    0  0.35014623734E+02 -0.12314636551E+02  0.51041994744E+02  0.63110691456E+02  0.00000000000E+00 0. -1.
        -11    1    3    3    0    0  0.70452554884E+03 -0.44833679471E+03  0.59239042302E+03  0.10238596309E+04  0.00000000000E+00 0.  1.
          2    1    6    6  502    0 -0.14702860342E+03 -0.18528369214E+03 -0.27382887645E+03  0.36184210697E+03  0.00000000000E+00 0. -1.
          3    1    5    5  503    0 -0.56586272013E+03  0.72271285052E+03 -0.54515493553E+03  0.10675712557E+04  0.00000000000E+00 0. -1.
         -4    1    5    5    0  503  0.61798894167E+00 -0.10953640408E+01  0.81520343984E+00  0.14987626104E+01  0.00000000000E+00 0.  1.
         -1    1    6    6    0  502 -0.27266837960E+02 -0.75682363081E+02 -0.43544895562E+02  0.91473812992E+02  0.00000000000E+00 0.  1.
<mgrwt>
<rscale>  0 0.26002103E+04</rscale>
<asrwt>0</asrwt>
<pdfrwt beam="1">  1        1 0.21751057E+00 0.26002103E+04</pdfrwt>
<pdfrwt beam="2">  1       -1 0.18392886E+00 0.26002103E+04</pdfrwt>
<totfact> 0.12908003E+00</totfact>
</mgrwt>
</event>
<event>
12    1  0.1562393E-007  0.1295161E+04  0.7818608E-02  0.9033411E-01
          2   -1    0    0  501    0  0.00000000000E+00  0.00000000000E+00  0.12556959336E+04  0.12556959336E+04  0.00000000000E+00 0. -1.
         -2   -1    0    0    0  501 -0.00000000000E+00 -0.00000000000E+00 -0.33396680327E+03  0.33396680327E+03  0.00000000000E+00 0.  1.
         23    2    1    2    0    0 -0.37545152975E+02  0.31973582639E+03  0.31187173452E+03  0.45788532008E+03  0.93564685457E+02 0.  0.
        254    2    1    2    0    0  0.37545152975E+02 -0.31973582639E+03  0.60985739584E+03  0.11317774168E+04  0.89741486549E+03 0.  0.
        -24    2    4    4    0    0 -0.24735239828E+02  0.24272157537E+03 -0.49584393487E+02  0.25847255589E+03  0.69453976359E+02 0.  0.
         24    2    4    4    0    0  0.62280392803E+02 -0.56245740176E+03  0.65944178933E+03  0.87330486094E+03  0.86952461167E+02 0.  0.
         11    1    3    3    0    0 -0.46661753974E+02  0.14350929182E+03  0.19355099181E+03  0.24542661338E+03  0.00000000000E+00 0. -1.
        -11    1    3    3    0    0  0.91166009990E+01  0.17622653456E+03  0.11832074271E+03  0.21245870670E+03  0.00000000000E+00 0.  1.
          2    1    6    6  502    0  0.78106533474E+02 -0.53171065824E+03  0.60997296132E+03  0.81294764174E+03  0.00000000000E+00 0. -1.
          1    1    5    5  503    0 -0.24223442565E+02  0.23316844111E+03 -0.62299498802E+02  0.24256035260E+03  0.00000000000E+00 0. -1.
         -2    1    5    5    0  503 -0.51179726322E+00  0.95531342605E+01  0.12715105315E+02  0.15912203298E+02  0.00000000000E+00 0.  1.
         -3    1    6    6    0  502 -0.15826140670E+02 -0.30746743514E+02  0.49468828004E+02  0.60357219197E+02  0.00000000000E+00 0.  1.
<mgrwt>
<rscale>  0 0.12951614E+04</rscale>
<asrwt>0</asrwt>
<pdfrwt beam="1">  1        2 0.19318399E+00 0.12951614E+04</pdfrwt>
<pdfrwt beam="2">  1       -2 0.51379509E-01 0.12951614E+04</pdfrwt>
<totfact> 0.61577883E+01</totfact>
</mgrwt>
</event>
<event>
12    1  0.1562393E-007  0.1495331E+04  0.7818608E-02  0.8887564E-01
          2   -1    0    0  501    0  0.00000000000E+00  0.00000000000E+00  0.11751860347E+04  0.11751860347E+04  0.00000000000E+00 0. -1.
         -2   -1    0    0    0  501 -0.00000000000E+00 -0.00000000000E+00 -0.47567261218E+03  0.47567261218E+03  0.00000000000E+00 0.  1.
         23    2    1    2    0    0 -0.98355997174E+02 -0.39924160333E+03  0.29949898491E+02  0.42243384263E+03  0.92117289196E+02 0.  0.
        254    2    1    2    0    0  0.98355997174E+02  0.39924160333E+03  0.66956352403E+03  0.12284248043E+04  0.94426925556E+03 0.  0.
        -24    2    4    4    0    0 -0.21117498546E+03  0.12788709919E+03 -0.15617606405E+03  0.30236290258E+03  0.77989597046E+02 0.  0.
         24    2    4    4    0    0  0.30953098263E+03  0.27135450414E+03  0.82573958808E+03  0.92606190168E+03  0.79385655422E+02 0.  0.
         11    1    3    3    0    0 -0.98957881597E+02 -0.35004210825E+03 -0.20014976136E+01  0.36376660906E+03  0.00000000000E+00 0.  1.
        -11    1    3    3    0    0  0.60188442338E+00 -0.49199495082E+02  0.31951396104E+02  0.58667233565E+02  0.00000000000E+00 0. -1.
          2    1    6    6  502    0  0.52196951392E+01  0.13980158560E+02  0.94312565062E+01  0.17653290062E+02  0.00000000000E+00 0. -1.
          1    1    5    5  503    0 -0.32532175382E+02  0.32598385333E+02  0.97244133802E+00  0.46064550400E+02  0.00000000000E+00 0. -1.
         -2    1    5    5    0  503 -0.17864281008E+03  0.95288713855E+02 -0.15714850539E+03  0.25629835218E+03  0.00000000000E+00 0.  1.
         -1    1    6    6    0  502  0.30431128750E+03  0.25737434558E+03  0.81630833158E+03  0.90840861162E+03  0.00000000000E+00 0.  1.
<mgrwt>
<rscale>  0 0.14953311E+04</rscale>
<asrwt>0</asrwt>
<pdfrwt beam="1">  1        2 0.18079785E+00 0.14953311E+04</pdfrwt>
<pdfrwt beam="2">  1       -2 0.73180403E-01 0.14953311E+04</pdfrwt>
<totfact> 0.31947468E+01</totfact>
</mgrwt>
</event>
<event>
12    1  0.1562393E-007  0.1856146E+04  0.7818608E-02  0.8676999E-01
         -1   -1    0    0    0  501 -0.00000000000E+00  0.00000000000E+00  0.34861724345E+03  0.34861724345E+03  0.00000000000E+00 0.  1.
          1   -1    0    0  501    0  0.00000000000E+00 -0.00000000000E+00 -0.24706739679E+04  0.24706739679E+04  0.00000000000E+00 0. -1.
         23    2    1    2    0    0  0.20020080703E+03 -0.54507761052E+02 -0.18382612686E+04  0.18521884884E+04  0.91357789295E+02 0.  0.
        254    2    1    2    0    0 -0.20020080703E+03  0.54507761052E+02 -0.28379545588E+03  0.96710272301E+03  0.90094192761E+03 0.  0.
        -24    2    4    4    0    0  0.16341052793E+03  0.20350139557E+03  0.19993715873E+03  0.33852250325E+03  0.80664732871E+02 0.  0.
         24    2    4    4    0    0 -0.36361133496E+03 -0.14899363452E+03 -0.48373261462E+03  0.62858021976E+03  0.81875174400E+02 0.  0.
         11    1    3    3    0    0  0.16676433780E+03 -0.62668661443E+02 -0.12165161825E+04  0.12294914916E+04  0.00000000000E+00 0. -1.
        -11    1    3    3    0    0  0.33436469230E+02  0.81609003907E+01 -0.62174508606E+03  0.62269699679E+03  0.00000000000E+00 0.  1.
          4    1    6    6  502    0 -0.29340552287E+03 -0.14274566576E+03 -0.43088055464E+03  0.54048235708E+03  0.00000000000E+00 0. -1.
          3    1    5    5  503    0  0.16379996999E+03  0.20993819806E+03  0.19192301068E+03  0.32823607236E+03  0.00000000000E+00 0. -1.
         -4    1    5    5    0  503 -0.38944206738E+00 -0.64368024854E+01  0.80141480566E+01  0.10286430889E+02  0.00000000000E+00 0.  1.
         -3    1    6    6    0  502 -0.70205812087E+02 -0.62479687627E+01 -0.52852059979E+02  0.88097862678E+02  0.00000000000E+00 0.  1.
<mgrwt>
<rscale>  0 0.18561461E+04</rscale>
<asrwt>0</asrwt>
<pdfrwt beam="1">  1        1 0.38010369E+00 0.18561461E+04</pdfrwt>
<pdfrwt beam="2">  1       -1 0.53633422E-01 0.18561461E+04</pdfrwt>
<totfact> 0.46809257E+00</totfact>
</mgrwt>
</event>
<event>
12    1  0.1562393E-007  0.1386305E+04  0.7818608E-02  0.8963792E-01
          2   -1    0    0  501    0  0.00000000000E+00  0.00000000000E+00  0.82294703946E+03  0.82294703946E+03  0.00000000000E+00 0. -1.
         -2   -1    0    0    0  501 -0.00000000000E+00 -0.00000000000E+00 -0.58382872504E+03  0.58382872504E+03  0.00000000000E+00 0.  1.
         23    2    1    2    0    0 -0.28871964632E+03  0.24465137123E+03  0.34819247407E+03  0.52235852620E+03  0.91690257317E+02 0.  0.
        254    2    1    2    0    0  0.28871964632E+03 -0.24465137123E+03 -0.10907415965E+03  0.88441723829E+03  0.79188594600E+03 0.  0.
        -24    2    4    4    0    0  0.31134359347E+03  0.15908641832E+03 -0.26285206447E+03  0.44444832000E+03  0.78738679580E+02 0.  0.
         24    2    4    4    0    0 -0.22623947154E+02 -0.40373778954E+03  0.15377790482E+03  0.43996891829E+03  0.80055976427E+02 0.  0.
         13    1    3    3    0    0 -0.20785021254E+03  0.14790925983E+03  0.28083702148E+03  0.37940518266E+03  0.00000000000E+00 0. -1.
        -13    1    3    3    0    0 -0.80869433778E+02  0.96742111395E+02  0.67355452593E+02  0.14295334354E+03  0.00000000000E+00 0.  1.
          2    1    6    6  502    0 -0.45287202467E+02 -0.29334362900E+03  0.88498934118E+02  0.30973129762E+03  0.00000000000E+00 0. -1.
          3    1    5    5  503    0  0.21595057348E+03  0.92151769871E+02 -0.13248819129E+03  0.26959176491E+03  0.00000000000E+00 0. -1.
         -4    1    5    5    0  503  0.95393019994E+02  0.66934648445E+02 -0.13036387318E+03  0.17485655509E+03  0.00000000000E+00 0.  1.
         -1    1    6    6    0  502  0.22663255313E+02 -0.11039416054E+03  0.65278970704E+02  0.13023762067E+03  0.00000000000E+00 0.  1.
<mgrwt>
<rscale>  0 0.13863046E+04</rscale>
<asrwt>0</asrwt>
<pdfrwt beam="1">  1        2 0.12660724E+00 0.13863046E+04</pdfrwt>
<pdfrwt beam="2">  1       -2 0.89819803E-01 0.13863046E+04</pdfrwt>
<totfact> 0.34315944E+01</totfact>
</mgrwt>
</event>
<event>
12    1  0.1562393E-007  0.2439852E+04  0.7818608E-02  0.8424732E-01
          1   -1    0    0  501    0  0.00000000000E+00  0.00000000000E+00  0.70349923937E+03  0.70349923937E+03  0.00000000000E+00 0. -1.
         -1   -1    0    0    0  501 -0.00000000000E+00 -0.00000000000E+00 -0.21154534687E+04  0.21154534687E+04  0.00000000000E+00 0.  1.
         23    2    1    2    0    0 -0.20123967312E+03  0.70253729001E+03 -0.14349372394E+04  0.16128718138E+04  0.90854591710E+02 0.  0.
        254    2    1    2    0    0  0.20123967312E+03 -0.70253729001E+03  0.22983010024E+02  0.12060808943E+04  0.95919072919E+03 0.  0.
        -24    2    4    4    0    0 -0.17966380100E+03  0.16173954770E+03  0.41534592153E+02  0.25794095166E+03  0.79810084062E+02 0.  0.
         24    2    4    4    0    0  0.38090347412E+03 -0.86427683771E+03 -0.18551582129E+02  0.94813994265E+03  0.81014078080E+02 0.  0.
         13    1    3    3    0    0 -0.15773377469E+03  0.63690056909E+03 -0.13110815770E+04  0.14661027182E+04  0.00000000000E+00 0.  1.
        -13    1    3    3    0    0 -0.43505898433E+02  0.65636720920E+02 -0.12385566236E+03  0.14676909562E+03  0.00000000000E+00 0. -1.
          4    1    6    6  502    0  0.24429377248E+03 -0.45736023778E+03 -0.20027308985E+02  0.51890165492E+03  0.00000000000E+00 0. -1.
          3    1    5    5  503    0 -0.21524231900E+02  0.16142783988E+02 -0.20935182043E+02  0.34090524797E+02  0.00000000000E+00 0. -1.
         -4    1    5    5    0  503 -0.15813956910E+03  0.14559676371E+03  0.62469774196E+02  0.22385042686E+03  0.00000000000E+00 0.  1.
         -3    1    6    6    0  502  0.13660970163E+03 -0.40691659993E+03  0.14757268553E+01  0.42923828773E+03  0.00000000000E+00 0.  1.
<mgrwt>
<rscale>  0 0.24398524E+04</rscale>
<asrwt>0</asrwt>
<pdfrwt beam="1">  1        1 0.10823065E+00 0.24398524E+04</pdfrwt>
<pdfrwt beam="2">  1       -1 0.32545437E+00 0.24398524E+04</pdfrwt>
<totfact> 0.54454230E-01</totfact>
</mgrwt>
</event>
<event>
12    1  0.1562393E-007  0.1422272E+04  0.7818608E-02  0.8937853E-01
         -1   -1    0    0    0  501 -0.00000000000E+00  0.00000000000E+00  0.56918196197E+03  0.56918196197E+03  0.00000000000E+00 0.  1.
          1   -1    0    0  501    0  0.00000000000E+00 -0.00000000000E+00 -0.88849309185E+03  0.88849309185E+03  0.00000000000E+00 0. -1.
         23    2    1    2    0    0 -0.81941656412E+02  0.37223881830E+03 -0.28368273581E+03  0.48396232703E+03  0.92018837674E+02 0.  0.
        254    2    1    2    0    0  0.81941656412E+02 -0.37223881830E+03 -0.35628394073E+02  0.97371272679E+03  0.89530493071E+03 0.  0.
        -24    2    4    4    0    0  0.16013625711E+02  0.21493973781E+03  0.22605011421E+03  0.32247060916E+03  0.80206686392E+02 0.  0.
         24    2    4    4    0    0  0.65928030701E+02 -0.58717855610E+03 -0.26167850829E+03  0.65124211763E+03  0.80718598165E+02 0.  0.
         11    1    3    3    0    0 -0.22704551032E+02  0.99293706775E+01 -0.21838554543E+02  0.33030463275E+02  0.00000000000E+00 0.  1.
        -11    1    3    3    0    0 -0.59237105380E+02  0.36230944762E+03 -0.26184418127E+03  0.45093186376E+03  0.00000000000E+00 0. -1.
          4    1    6    6  502    0 -0.19123114987E+01 -0.15390748588E+03 -0.10141440739E+03  0.18432594275E+03  0.00000000000E+00 0. -1.
          1    1    5    5  503    0 -0.24841904876E+02  0.41940957981E+02  0.27472259186E+02  0.55954349420E+02  0.00000000000E+00 0. -1.
         -2    1    5    5    0  503  0.40855530587E+02  0.17299877982E+03  0.19857785503E+03  0.26651625974E+03  0.00000000000E+00 0.  1.
         -3    1    6    6    0  502  0.67840342199E+02 -0.43327107023E+03 -0.16026410090E+03  0.46691617488E+03  0.00000000000E+00 0.  1.
<mgrwt>
<rscale>  0 0.14222718E+04</rscale>
<asrwt>0</asrwt>
<pdfrwt beam="1">  1        1 0.13669124E+00 0.14222718E+04</pdfrwt>
<pdfrwt beam="2">  1       -1 0.87566456E-01 0.14222718E+04</pdfrwt>
<totfact> 0.23235047E+01</totfact>
</mgrwt>
</event>
<event>
12    1  0.1562393E-007  0.2048499E+04  0.7818608E-02  0.8584275E-01
         -3   -1    0    0    0  501 -0.00000000000E+00  0.00000000000E+00  0.13924019609E+04  0.13924019609E+04  0.00000000000E+00 0.  1.
          3   -1    0    0  501    0  0.00000000000E+00 -0.00000000000E+00 -0.75343704718E+03  0.75343704718E+03  0.00000000000E+00 0. -1.
         23    2    1    2    0    0 -0.80420860867E+03  0.16026685262E+03  0.34905178742E+03  0.89563033779E+03  0.88767118710E+02 0.  0.
        254    2    1    2    0    0  0.80420860867E+03 -0.16026685262E+03  0.28991312629E+03  0.12502086703E+04  0.89807301937E+03 0.  0.
        -24    2    4    4    0    0  0.60039684640E+02 -0.16981172515E+03 -0.25664902535E+03  0.32354454636E+03  0.79822086786E+02 0.  0.
         24    2    4    4    0    0  0.74416892403E+03  0.95448725297E+01  0.54656215164E+03  0.92666412391E+03  0.78087904648E+02 0.  0.
         11    1    3    3    0    0 -0.57586759686E+03  0.12716177018E+03  0.20876525370E+03  0.62560093994E+03  0.00000000000E+00 0.  1.
        -11    1    3    3    0    0 -0.22834101181E+03  0.33105082435E+02  0.14028653372E+03  0.27002939785E+03  0.00000000000E+00 0. -1.
          4    1    6    6  502    0  0.55723809622E+03  0.39445767427E+02  0.42086074964E+03  0.69942407382E+03  0.00000000000E+00 0. -1.
          3    1    5    5  503    0  0.69799156084E+02 -0.15823879317E+03 -0.25527286295E+03  0.30834343257E+03  0.00000000000E+00 0. -1.
         -4    1    5    5    0  503 -0.97594714438E+01 -0.11572931978E+02 -0.13761623999E+01  0.15201113787E+02  0.00000000000E+00 0.  1.
         -3    1    6    6    0  502  0.18693082781E+03 -0.29900894897E+02  0.12570140199E+03  0.22724005009E+03  0.00000000000E+00 0.  1.
<mgrwt>
<rscale>  0 0.20484992E+04</rscale>
<asrwt>0</asrwt>
<pdfrwt beam="1">  1        3 0.11591339E+00 0.20484992E+04</pdfrwt>
<pdfrwt beam="2">  1       -3 0.21421569E+00 0.20484992E+04</pdfrwt>
<totfact> 0.17782134E-01</totfact>
</mgrwt>
</event>
<event>
12    1  0.1562393E-007  0.1873127E+04  0.7818608E-02  0.8668350E-01
          1   -1    0    0  501    0  0.00000000000E+00  0.00000000000E+00  0.64167062474E+03  0.64167062474E+03  0.00000000000E+00 0. -1.
         -1   -1    0    0    0  501 -0.00000000000E+00 -0.00000000000E+00 -0.13669802576E+04  0.13669802576E+04  0.00000000000E+00 0.  1.
         23    2    1    2    0    0 -0.18389695091E+03  0.42303894846E+03 -0.87502938924E+03  0.99351152508E+03  0.92782961626E+02 0.  0.
        254    2    1    2    0    0  0.18389695091E+03 -0.42303894846E+03  0.14971975636E+03  0.10151393573E+04  0.89180259519E+03 0.  0.
        -24    2    4    4    0    0  0.29842281703E+03 -0.49839888154E+03  0.40656887732E+03  0.71387112030E+03  0.82801579440E+02 0.  0.
         24    2    4    4    0    0 -0.11452586612E+03  0.75359933082E+02 -0.25684912095E+03  0.30126823697E+03  0.77432461857E+02 0.  0.
         11    1    3    3    0    0 -0.17098080082E+03  0.29717784815E+03 -0.66891541071E+03  0.75166277969E+03  0.00000000000E+00 0.  1.
        -11    1    3    3    0    0 -0.12916150092E+02  0.12586110030E+03 -0.20611397853E+03  0.24184874539E+03  0.00000000000E+00 0. -1.
          2    1    6    6  502    0 -0.67556384180E+02  0.16395752668E+01 -0.86167022799E+02  0.10950483582E+03  0.00000000000E+00 0. -1.
          1    1    5    5  503    0  0.28557397752E+03 -0.49739149493E+03  0.39375316565E+03  0.69569558812E+03  0.00000000000E+00 0. -1.
         -2    1    5    5    0  503  0.12848839515E+02 -0.10073866022E+01  0.12815711670E+02  0.18175532187E+02  0.00000000000E+00 0.  1.
         -1    1    6    6    0  502 -0.46969481940E+02  0.73720357815E+02 -0.17068209816E+03  0.19176340115E+03  0.00000000000E+00 0.  1.
<mgrwt>
<rscale>  0 0.18731269E+04</rscale>
<asrwt>0</asrwt>
<pdfrwt beam="1">  1        1 0.98718559E-01 0.18731269E+04</pdfrwt>
<pdfrwt beam="2">  1       -1 0.21030465E+00 0.18731269E+04</pdfrwt>
<totfact> 0.37241749E+00</totfact>
</mgrwt>
</event>
<event>
12    1  0.1562393E-007  0.2517222E+04  0.7818608E-02  0.8396876E-01
          1   -1    0    0  501    0  0.00000000000E+00  0.00000000000E+00  0.86454036085E+03  0.86454036085E+03  0.00000000000E+00 0. -1.
         -1   -1    0    0    0  501 -0.00000000000E+00 -0.00000000000E+00 -0.18323055719E+04  0.18323055719E+04  0.00000000000E+00 0.  1.
         23    2    1    2    0    0 -0.49298695440E+03  0.44339736488E+02 -0.14693017131E+04  0.15529858345E+04  0.88968131943E+02 0.  0.
        254    2    1    2    0    0  0.49298695440E+03 -0.44339736488E+02  0.50153650211E+03  0.11438600982E+04  0.90104101567E+03 0.  0.
        -24    2    4    4    0    0  0.53099959794E+03  0.28769597736E+02  0.71881603181E+03  0.89786042622E+03  0.81661463502E+02 0.  0.
         24    2    4    4    0    0 -0.38012643540E+02 -0.73109334225E+02 -0.21727952970E+03  0.24599967200E+03  0.80718701541E+02 0.  0.
         11    1    3    3    0    0 -0.24085140652E+03  0.64199962556E+02 -0.77118373623E+03  0.81046615613E+03  0.00000000000E+00 0. -1.
        -11    1    3    3    0    0 -0.25213554788E+03 -0.19860226068E+02 -0.69811797692E+03  0.74251967838E+03  0.00000000000E+00 0.  1.
          4    1    6    6  502    0 -0.25523657115E+01  0.17682985170E+02 -0.32411487379E+02  0.37009553488E+02  0.00000000000E+00 0. -1.
          1    1    5    5  503    0  0.50872131940E+03  0.99020710451E+01  0.67979705611E+03  0.84912865298E+03  0.00000000000E+00 0. -1.
         -2    1    5    5    0  503  0.22278278538E+02  0.18867526691E+02  0.39018975699E+02  0.48731773235E+02  0.00000000000E+00 0.  1.
         -3    1    6    6    0  502 -0.35460277828E+02 -0.90792319395E+02 -0.18486804232E+03  0.20899011851E+03  0.00000000000E+00 0.  1.
<mgrwt>
<rscale>  0 0.25172224E+04</rscale>
<asrwt>0</asrwt>
<pdfrwt beam="1">  1        1 0.13300621E+00 0.25172224E+04</pdfrwt>
<pdfrwt beam="2">  1       -1 0.28189316E+00 0.25172224E+04</pdfrwt>
<totfact> 0.74737679E-01</totfact>
</mgrwt>
</event>
<event>
12    1  0.1562393E-007  0.1260979E+04  0.7818608E-02  0.9061095E-01
          1   -1    0    0  501    0  0.00000000000E+00  0.00000000000E+00  0.12485855109E+04  0.12485855109E+04  0.00000000000E+00 0. -1.
         -1   -1    0    0    0  501 -0.00000000000E+00 -0.00000000000E+00 -0.31837374742E+03  0.31837374742E+03  0.00000000000E+00 0.  1.
         23    2    1    2    0    0 -0.19389852227E+03  0.19192434718E+03  0.38638161266E+03  0.48135231664E+03  0.89318028166E+02 0.  0.
        254    2    1    2    0    0  0.19389852227E+03 -0.19192434718E+03  0.54383015082E+03  0.10856069417E+04  0.89908820863E+03 0.  0.
        -24    2    4    4    0    0  0.59951354343E+02 -0.41159927149E+03  0.66649547042E+03  0.78969216854E+03  0.79933621090E+02 0.  0.
         24    2    4    4    0    0  0.13394716792E+03  0.21967492431E+03 -0.12266531960E+03  0.29591477314E+03  0.79497523037E+02 0.  0.
         13    1    3    3    0    0 -0.17072090232E+03  0.11330650140E+03  0.26760565194E+03  0.33704120623E+03  0.00000000000E+00 0. -1.
        -13    1    3    3    0    0 -0.23177619943E+02  0.78617845785E+02  0.11877596072E+03  0.14431111041E+03  0.00000000000E+00 0.  1.
          4    1    6    6  502    0  0.13073956074E+03  0.16809631354E+03 -0.75477239955E+02  0.22593365646E+03  0.00000000000E+00 0. -1.
          3    1    5    5  503    0  0.71645407022E+02 -0.40218724532E+03  0.64437252198E+03  0.76295713623E+03  0.00000000000E+00 0. -1.
         -4    1    5    5    0  503 -0.11694052679E+02 -0.94120261723E+01  0.22122948437E+02  0.26735032304E+02  0.00000000000E+00 0.  1.
         -3    1    6    6    0  502  0.32076071822E+01  0.51578610762E+02 -0.47188079643E+02  0.69981116684E+02  0.00000000000E+00 0.  1.
<mgrwt>
<rscale>  0 0.12609787E+04</rscale>
<asrwt>0</asrwt>
<pdfrwt beam="1">  1        1 0.19209008E+00 0.12609787E+04</pdfrwt>
<pdfrwt beam="2">  1       -1 0.48980577E-01 0.12609787E+04</pdfrwt>
<totfact> 0.40504915E+01</totfact>
</mgrwt>
</event>
<event>
12    1  0.1562393E-007  0.1916623E+04  0.7818608E-02  0.8646626E-01
         -1   -1    0    0    0  501 -0.00000000000E+00  0.00000000000E+00  0.76887188679E+03  0.76887188679E+03  0.00000000000E+00 0.  1.
          1   -1    0    0  501    0  0.00000000000E+00 -0.00000000000E+00 -0.11944270481E+04  0.11944270481E+04  0.00000000000E+00 0. -1.
         23    2    1    2    0    0  0.41346939531E+03  0.34102649607E+03 -0.69841018108E+03  0.88445988907E+03  0.85067634667E+02 0.  0.
        254    2    1    2    0    0 -0.41346939531E+03 -0.34102649607E+03  0.27285501981E+03  0.10788390458E+04  0.89564938060E+03 0.  0.
        -24    2    4    4    0    0 -0.54532513876E+03  0.82939702351E+02  0.28826455874E+03  0.62753679605E+03  0.80296160408E+02 0.  0.
         24    2    4    4    0    0  0.13185574345E+03 -0.42396619842E+03 -0.15409538936E+02  0.45130224972E+03  0.79391386375E+02 0.  0.
         13    1    3    3    0    0  0.54376010308E+02  0.28121406585E+02 -0.45458735305E+02  0.76249987678E+02  0.00000000000E+00 0.  1.
        -13    1    3    3    0    0  0.35909338500E+03  0.31290508948E+03 -0.65295144577E+03  0.80820990139E+03  0.00000000000E+00 0. -1.
          2    1    6    6  502    0  0.12396252945E+03 -0.30271222236E+03 -0.31966015464E+02  0.32866886743E+03  0.00000000000E+00 0. -1.
          1    1    5    5  503    0 -0.50031522602E+03  0.77216795761E+02  0.23666898895E+03  0.55882910560E+03  0.00000000000E+00 0. -1.
         -2    1    5    5    0  503 -0.45009912748E+02  0.57229065898E+01  0.51595569791E+02  0.68707690454E+02  0.00000000000E+00 0.  1.
         -1    1    6    6    0  502  0.78932140068E+01 -0.12125397606E+03  0.16556476528E+02  0.12263338229E+03  0.00000000000E+00 0.  1.
<mgrwt>
<rscale>  0 0.19166235E+04</rscale>
<asrwt>0</asrwt>
<pdfrwt beam="1">  1        1 0.18375801E+00 0.19166235E+04</pdfrwt>
<pdfrwt beam="2">  1       -1 0.11828798E+00 0.19166235E+04</pdfrwt>
<totfact> 0.64629602E+00</totfact>
</mgrwt>
</event>
<event>
12    1  0.1562393E-007  0.1254560E+04  0.7818608E-02  0.9066396E-01
         -2   -1    0    0    0  501 -0.00000000000E+00  0.00000000000E+00  0.34892603018E+03  0.34892603018E+03  0.00000000000E+00 0.  1.
          2   -1    0    0  501    0  0.00000000000E+00 -0.00000000000E+00 -0.11276896580E+04  0.11276896580E+04  0.00000000000E+00 0. -1.
         23    2    1    2    0    0 -0.71384694105E+02  0.24763446236E+02  0.14534470871E+03  0.18024922639E+03  0.75204364511E+02 0.  0.
        254    2    1    2    0    0  0.71384694105E+02 -0.24763446236E+02 -0.92410833658E+03  0.12963664618E+04  0.90602471424E+03 0.  0.
        -24    2    4    4    0    0 -0.25943095210E+03 -0.18973657596E+03 -0.84741160413E+03  0.91029364485E+03  0.84992387221E+02 0.  0.
         24    2    4    4    0    0  0.33081564621E+03  0.16497312973E+03 -0.76696732455E+02  0.38607281698E+03  0.80713728297E+02 0.  0.
         13    1    3    3    0    0  0.91805218856E+01  0.13230026855E+02  0.60801854427E+02  0.62898180374E+02  0.00000000000E+00 0. -1.
        -13    1    3    3    0    0 -0.80565215991E+02  0.11533419381E+02  0.84542854288E+02  0.11735104602E+03  0.00000000000E+00 0.  1.
          2    1    6    6  502    0  0.27001490233E+03  0.12579603878E+03 -0.92744441486E+02  0.31198433018E+03  0.00000000000E+00 0. -1.
          1    1    5    5  503    0 -0.25055668510E+03 -0.15394394820E+03 -0.77746605196E+03  0.83122250547E+03  0.00000000000E+00 0. -1.
         -2    1    5    5    0  503 -0.88742670022E+01 -0.35792627758E+02 -0.69945552162E+02  0.79071139387E+02  0.00000000000E+00 0.  1.
         -1    1    6    6    0  502  0.60800743879E+02  0.39177090948E+02  0.16047709030E+02  0.74088486801E+02  0.00000000000E+00 0.  1.
<mgrwt>
<rscale>  0 0.12545601E+04</rscale>
<asrwt>0</asrwt>
<pdfrwt beam="1">  1        2 0.17349071E+00 0.12545601E+04</pdfrwt>
<pdfrwt beam="2">  1       -2 0.53680929E-01 0.12545601E+04</pdfrwt>
<totfact> 0.67336812E+01</totfact>
</mgrwt>
</event>
<event>
12    1  0.1562393E-007  0.1745284E+04  0.7818608E-02  0.8735950E-01
          2   -1    0    0  501    0  0.00000000000E+00  0.00000000000E+00  0.14084860521E+04  0.14084860521E+04  0.00000000000E+00 0. -1.
         -2   -1    0    0    0  501 -0.00000000000E+00 -0.00000000000E+00 -0.54065447447E+03  0.54065447447E+03  0.00000000000E+00 0.  1.
         23    2    1    2    0    0 -0.46232999159E+02 -0.60804744384E+02 -0.38204759955E+03  0.39992111353E+03  0.90232042965E+02 0.  0.
        254    2    1    2    0    0  0.46232999159E+02  0.60804744384E+02  0.12498791772E+04  0.15492194130E+04  0.91216671997E+03 0.  0.
        -24    2    4    4    0    0 -0.26395752025E+03  0.31656675257E+03  0.95856394016E+03  0.10463326085E+04  0.77968063735E+02 0.  0.
         24    2    4    4    0    0  0.31019051941E+03 -0.25576200818E+03  0.29131523700E+03  0.50288680449E+03  0.79988797108E+02 0.  0.
         11    1    3    3    0    0 -0.29665922047E+02 -0.54127149233E+01 -0.28763970426E+03  0.28921611968E+03  0.00000000000E+00 0. -1.
        -11    1    3    3    0    0 -0.16567077112E+02 -0.55392029461E+02 -0.94407895283E+02  0.11070499385E+03  0.00000000000E+00 0.  1.
          2    1    6    6  502    0  0.18627355507E+03 -0.13082281982E+03  0.12008802453E+03  0.25735885674E+03  0.00000000000E+00 0. -1.
          3    1    5    5  503    0 -0.73711340287E+02  0.48983709290E+02  0.25528794109E+03  0.27019381623E+03  0.00000000000E+00 0. -1.
         -4    1    5    5    0  503 -0.19024617996E+03  0.26758304328E+03  0.70327599907E+03  0.77613879230E+03  0.00000000000E+00 0.  1.
         -1    1    6    6    0  502  0.12391696434E+03 -0.12493918836E+03  0.17122721247E+03  0.24552794775E+03  0.00000000000E+00 0.  1.
<mgrwt>
<rscale>  0 0.17452843E+04</rscale>
<asrwt>0</asrwt>
<pdfrwt beam="1">  1        2 0.21669016E+00 0.17452843E+04</pdfrwt>
<pdfrwt beam="2">  1       -2 0.83177612E-01 0.17452843E+04</pdfrwt>
<totfact> 0.17174833E+01</totfact>
</mgrwt>
</event>
<event>
12    1  0.1562393E-007  0.1376588E+04  0.7818608E-02  0.8970942E-01
          2   -1    0    0  501    0  0.00000000000E+00  0.00000000000E+00  0.12637125910E+04  0.12637125910E+04  0.00000000000E+00 0. -1.
         -2   -1    0    0    0  501 -0.00000000000E+00 -0.00000000000E+00 -0.37488632102E+03  0.37488632102E+03  0.00000000000E+00 0.  1.
         23    2    1    2    0    0 -0.22219091236E+03  0.81103300239E+02 -0.10784665403E+03  0.27538550303E+03  0.90883043808E+02 0.  0.
        254    2    1    2    0    0  0.22219091236E+03 -0.81103300239E+02  0.99667292397E+03  0.13632134089E+04  0.89947058546E+03 0.  0.
        -24    2    4    4    0    0 -0.33559443707E+03 -0.35516793958E+02  0.51216772978E+03  0.61857833867E+03  0.80239072715E+02 0.  0.
         24    2    4    4    0    0  0.55778534943E+03 -0.45586506281E+02  0.48450519419E+03  0.74463507028E+03  0.80829939413E+02 0.  0.
         11    1    3    3    0    0 -0.13606557864E+03  0.68392759669E+02 -0.11071567644E+03  0.18828003685E+03  0.00000000000E+00 0.  1.
        -11    1    3    3    0    0 -0.86125333720E+02  0.12710540570E+02  0.28690224141E+01  0.87105466187E+02  0.00000000000E+00 0. -1.
          4    1    6    6  502    0  0.41695714584E+03 -0.41258095982E+01  0.33254028866E+03  0.53334166100E+03  0.00000000000E+00 0. -1.
          3    1    5    5  503    0 -0.28715032654E+03 -0.89827212491E+00  0.43160298451E+03  0.51839873954E+03  0.00000000000E+00 0. -1.
         -4    1    5    5    0  503 -0.48444110528E+02 -0.34618521833E+02  0.80564745279E+02  0.10017959912E+03  0.00000000000E+00 0.  1.
         -3    1    6    6    0  502  0.14082820359E+03 -0.41460696683E+02  0.15196490552E+03  0.21129340928E+03  0.00000000000E+00 0.  1.
<mgrwt>
<rscale>  0 0.13765879E+04</rscale>
<asrwt>0</asrwt>
<pdfrwt beam="1">  1        2 0.19441732E+00 0.13765879E+04</pdfrwt>
<pdfrwt beam="2">  1       -2 0.57674819E-01 0.13765879E+04</pdfrwt>
<totfact> 0.47644494E+01</totfact>
</mgrwt>
</event>
<event>
12    1  0.1562393E-007  0.2146728E+04  0.7818608E-02  0.8540934E-01
         -1   -1    0    0    0  501 -0.00000000000E+00  0.00000000000E+00  0.13506709065E+04  0.13506709065E+04  0.00000000000E+00 0.  1.
          1   -1    0    0  501    0  0.00000000000E+00 -0.00000000000E+00 -0.85299147408E+03  0.85299147408E+03  0.00000000000E+00 0. -1.
         23    2    1    2    0    0 -0.16125214555E+03  0.48143503121E+03 -0.54986600291E+03  0.75402929096E+03  0.91791103874E+02 0.  0.
        254    2    1    2    0    0  0.16125214555E+03 -0.48143503121E+03  0.10475454353E+04  0.14496330896E+04  0.86388813610E+03 0.  0.
        -24    2    4    4    0    0  0.13118846680E+01 -0.36944173513E+03 -0.95760524959E+00  0.38016980248E+03  0.89661836993E+02 0.  0.
         24    2    4    4    0    0  0.15994026088E+03 -0.11199329608E+03  0.10485030406E+04  0.10694632871E+04  0.79181506733E+02 0.  0.
         11    1    3    3    0    0 -0.42097307020E+02  0.39648454426E+02 -0.51138611139E+02  0.77196766421E+02  0.00000000000E+00 0.  1.
        -11    1    3    3    0    0 -0.11915483853E+03  0.44178657678E+03 -0.49872739177E+03  0.67683252454E+03  0.00000000000E+00 0. -1.
          4    1    6    6  502    0  0.72198992690E+02 -0.41693209775E+02  0.26147644845E+03  0.27444662756E+03  0.00000000000E+00 0. -1.
          3    1    5    5  503    0 -0.41546882439E+02 -0.13877031518E+03 -0.11514422661E+02  0.14531319879E+03  0.00000000000E+00 0. -1.
         -4    1    5    5    0  503  0.42858767107E+02 -0.23067141995E+03  0.10556817411E+02  0.23485660369E+03  0.00000000000E+00 0.  1.
         -3    1    6    6    0  502  0.87741268188E+02 -0.70300086302E+02  0.78702659211E+03  0.79501665956E+03  0.00000000000E+00 0.  1.
<mgrwt>
<rscale>  0 0.21467285E+04</rscale>
<asrwt>0</asrwt>
<pdfrwt beam="1">  1        1 0.13122946E+00 0.21467285E+04</pdfrwt>
<pdfrwt beam="2">  1       -1 0.20779553E+00 0.21467285E+04</pdfrwt>
<totfact> 0.24268326E+00</totfact>
</mgrwt>
</event>
<event>
12    1  0.1562393E-007  0.1244556E+04  0.7818608E-02  0.9074726E-01
          1   -1    0    0  501    0  0.00000000000E+00  0.00000000000E+00  0.23726100660E+04  0.23726100660E+04  0.00000000000E+00 0. -1.
         -1   -1    0    0    0  501 -0.00000000000E+00 -0.00000000000E+00 -0.16320853097E+03  0.16320853097E+03  0.00000000000E+00 0.  1.
         23    2    1    2    0    0  0.23545096424E+03  0.31861229796E+02  0.81979178213E+03  0.85954992384E+03  0.10156382725E+03 0.  0.
        254    2    1    2    0    0 -0.23545096424E+03 -0.31861229796E+02  0.13896097529E+04  0.16762686731E+04  0.90686774373E+03 0.  0.
        -24    2    4    4    0    0 -0.41131413958E+03  0.27277450595E+03  0.45998560292E+03  0.67919378232E+03  0.78308278795E+02 0.  0.
         24    2    4    4    0    0  0.17586317535E+03 -0.30463573574E+03  0.92962414997E+03  0.99707489080E+03  0.78908109329E+02 0.  0.
         11    1    3    3    0    0  0.13296154500E+03 -0.30745961289E+02  0.48657076885E+03  0.50534661341E+03  0.00000000000E+00 0. -1.
        -11    1    3    3    0    0  0.10248941924E+03  0.62607191086E+02  0.33322101328E+03  0.35420331044E+03  0.00000000000E+00 0.  1.
          2    1    6    6  502    0  0.69866013900E+02 -0.89825642298E+02  0.39856056534E+03  0.41448815442E+03  0.00000000000E+00 0. -1.
          1    1    5    5  503    0 -0.14711603008E+03  0.10609327835E+03  0.11998095341E+03  0.21747261712E+03  0.00000000000E+00 0. -1.
         -2    1    5    5    0  503 -0.26419810951E+03  0.16668122759E+03  0.34000464951E+03  0.46172116519E+03  0.00000000000E+00 0.  1.
         -1    1    6    6    0  502  0.10599716145E+03 -0.21481009344E+03  0.53106358463E+03  0.58258673638E+03  0.00000000000E+00 0.  1.
<mgrwt>
<rscale>  0 0.12445565E+04</rscale>
<asrwt>0</asrwt>
<pdfrwt beam="1">  1        1 0.36501691E+00 0.12445565E+04</pdfrwt>
<pdfrwt beam="2">  1       -1 0.25109006E-01 0.12445565E+04</pdfrwt>
<totfact> 0.22855859E+01</totfact>
</mgrwt>
</event>
<event>
12    1  0.1562393E-007  0.1675444E+04  0.7818608E-02  0.8775495E-01
          2   -1    0    0  501    0  0.00000000000E+00  0.00000000000E+00  0.19223158045E+04  0.19223158045E+04  0.00000000000E+00 0. -1.
         -2   -1    0    0    0  501 -0.00000000000E+00 -0.00000000000E+00 -0.36506914452E+03  0.36506914452E+03  0.00000000000E+00 0.  1.
         23    2    1    2    0    0 -0.32625905476E+03 -0.81180363462E+02 -0.10822785368E+03  0.36488086949E+03  0.91594532504E+02 0.  0.
        254    2    1    2    0    0  0.32625905476E+03  0.81180363462E+02  0.16654745136E+04  0.19225040795E+04  0.89954508387E+03 0.  0.
        -24    2    4    4    0    0  0.60559405291E+03  0.74713538098E+01  0.80014057361E+03  0.10066237205E+04  0.79160590669E+02 0.  0.
         24    2    4    4    0    0 -0.27933499816E+03  0.73709009653E+02  0.86533394003E+03  0.91588035899E+03  0.81073700576E+02 0.  0.
         11    1    3    3    0    0 -0.14640325892E+03 -0.51128744907E+02 -0.45989356138E+01  0.15514255699E+03  0.00000000000E+00 0. -1.
        -11    1    3    3    0    0 -0.17985579583E+03 -0.30051618555E+02 -0.10362891806E+03  0.20973831250E+03  0.00000000000E+00 0.  1.
          4    1    6    6  502    0 -0.28379741514E+03  0.71158148813E+02  0.82756423633E+03  0.87776250787E+03  0.00000000000E+00 0. -1.
          1    1    5    5  503    0  0.47843024903E+03  0.65368837724E+01  0.57488701836E+03  0.74795275113E+03  0.00000000000E+00 0. -1.
         -2    1    5    5    0  503  0.12716380388E+03  0.93447003747E+00  0.22525355525E+03  0.25867096939E+03  0.00000000000E+00 0.  1.
         -3    1    6    6    0  502  0.44624169795E+01  0.25508608397E+01  0.37769703697E+02  0.38117851115E+02  0.00000000000E+00 0.  1.
<mgrwt>
<rscale>  0 0.16754440E+04</rscale>
<asrwt>0</asrwt>
<pdfrwt beam="1">  1        2 0.29574089E+00 0.16754440E+04</pdfrwt>
<pdfrwt beam="2">  1       -2 0.56164485E-01 0.16754440E+04</pdfrwt>
<totfact> 0.20939035E+01</totfact>
</mgrwt>
</event>
<event>
12    1  0.1562393E-007  0.1924566E+04  0.7818608E-02  0.8642724E-01
          2   -1    0    0  501    0  0.00000000000E+00  0.00000000000E+00  0.27146813479E+04  0.27146813479E+04  0.00000000000E+00 0.  1.
         -2   -1    0    0    0  501 -0.00000000000E+00 -0.00000000000E+00 -0.34110412762E+03  0.34110412762E+03  0.00000000000E+00 0. -1.
         23    2    1    2    0    0  0.54280498855E+03  0.38982462550E+03  0.39652080435E+03  0.78227208672E+03  0.90113124112E+02 0.  0.
        254    2    1    2    0    0 -0.54280498855E+03 -0.38982462550E+03  0.19770564160E+04  0.22735133888E+04  0.90194820419E+03 0.  0.
        -24    2    4    4    0    0 -0.55053281319E+03 -0.75401528853E+02  0.47129178132E+03  0.73314685519E+03  0.81342480849E+02 0.  0.
         24    2    4    4    0    0  0.77278246385E+01 -0.31442309665E+03  0.15057646347E+04  0.15403665337E+04  0.80500434796E+02 0.  0.
         11    1    3    3    0    0  0.68121664144E+01  0.25116071376E+02  0.15479790399E+02  0.30279474292E+02  0.00000000000E+00 0.  1.
        -11    1    3    3    0    0  0.53599282214E+03  0.36470855412E+03  0.38104101395E+03  0.75199261243E+03  0.00000000000E+00 0. -1.
          4    1    6    6  502    0  0.32443570062E+02 -0.60614409425E+02  0.36898571447E+03  0.37533604856E+03  0.00000000000E+00 0. -1.
          1    1    5    5  503    0 -0.12711173596E+03 -0.22185964661E+02  0.15660563387E+03  0.20291607873E+03  0.00000000000E+00 0. -1.
         -2    1    5    5    0  503 -0.42342107723E+03 -0.53215564192E+02  0.31468614744E+03  0.53023077646E+03  0.00000000000E+00 0.  1.
         -3    1    6    6    0  502 -0.24715745424E+02 -0.25380868722E+03  0.11367789202E+04  0.11650304851E+04  0.00000000000E+00 0.  1.
<mgrwt>
<rscale>  0 0.19245665E+04</rscale>
<asrwt>0</asrwt>
<pdfrwt beam="1">  1        2 0.41764327E+00 0.19245665E+04</pdfrwt>
<pdfrwt beam="2">  1       -2 0.52477560E-01 0.19245665E+04</pdfrwt>
<totfact> 0.83480938E+00</totfact>
</mgrwt>
</event>
<event>
12    1  0.1562393E-007  0.1147329E+04  0.7818608E-02  0.9160251E-01
         -2   -1    0    0    0  501 -0.00000000000E+00  0.00000000000E+00  0.41939557525E+03  0.41939557525E+03  0.00000000000E+00 0.  1.
          2   -1    0    0  501    0  0.00000000000E+00 -0.00000000000E+00 -0.78467872430E+03  0.78467872430E+03  0.00000000000E+00 0. -1.
         23    2    1    2    0    0  0.19970564023E+03 -0.37121939811E+02 -0.71182821580E+02  0.23467619110E+03  0.93517588862E+02 0.  0.
        254    2    1    2    0    0 -0.19970564023E+03  0.37121939811E+02 -0.29410032747E+03  0.96939810845E+03  0.90109783536E+03 0.  0.
        -24    2    4    4    0    0  0.30008878677E+03  0.15898113174E+03  0.40343948632E+02  0.35121031493E+03  0.79954805537E+02 0.  0.
         24    2    4    4    0    0 -0.49979442701E+03 -0.12185919192E+03 -0.33444427610E+03  0.61818779351E+03  0.75226606418E+02 0.  0.
         11    1    3    3    0    0  0.11223282554E+03 -0.17665712858E+02  0.96117461787E+01  0.11402048152E+03  0.00000000000E+00 0. -1.
        -11    1    3    3    0    0  0.87472814687E+02 -0.19456226954E+02 -0.80794567758E+02  0.12065570959E+03  0.00000000000E+00 0.  1.
          4    1    6    6  502    0 -0.39248147201E+01 -0.45232011379E+01 -0.16538482991E+02  0.17589341624E+02  0.00000000000E+00 0. -1.
          1    1    5    5  503    0  0.63624373635E+01  0.25031326948E+02 -0.33740393839E+00  0.25829475012E+02  0.00000000000E+00 0. -1.
         -2    1    5    5    0  503  0.29372634941E+03  0.13394980479E+03  0.40681352571E+02  0.32538083992E+03  0.00000000000E+00 0.  1.
         -3    1    6    6    0  502 -0.49586961229E+03 -0.11733599079E+03 -0.31790579311E+03  0.60059845189E+03  0.00000000000E+00 0.  1.
<mgrwt>
<rscale>  0 0.11473287E+04</rscale>
<asrwt>0</asrwt>
<pdfrwt beam="1">  1        2 0.12071980E+00 0.11473287E+04</pdfrwt>
<pdfrwt beam="2">  1       -2 0.64522397E-01 0.11473287E+04</pdfrwt>
<totfact> 0.77642640E+01</totfact>
</mgrwt>
</event>
<event>
12    1  0.1562393E-007  0.1252535E+04  0.7818608E-02  0.9068076E-01
         -2   -1    0    0    0  501 -0.00000000000E+00  0.00000000000E+00  0.29228031552E+03  0.29228031552E+03  0.00000000000E+00 0.  1.
          2   -1    0    0  501    0  0.00000000000E+00 -0.00000000000E+00 -0.13419008321E+04  0.13419008321E+04  0.00000000000E+00 0. -1.
         23    2    1    2    0    0  0.58393526935E+02 -0.11661009328E+03  0.83391555410E+02  0.18018333889E+03  0.92218036497E+02 0.  0.
        254    2    1    2    0    0 -0.58393526935E+02  0.11661009328E+03 -0.11330120720E+04  0.14539978087E+04  0.90187890246E+03 0.  0.
        -24    2    4    4    0    0 -0.16199444302E+03 -0.33306159500E+03 -0.77873134676E+03  0.86605925326E+03  0.80398346286E+02 0.  0.
         24    2    4    4    0    0  0.10360091609E+03  0.44967168828E+03 -0.35428072523E+03  0.58793855549E+03  0.84965497099E+02 0.  0.
         11    1    3    3    0    0  0.17242782385E+02 -0.11659801599E+03  0.69063187688E+02  0.13660942416E+03  0.00000000000E+00 0.  1.
        -11    1    3    3    0    0  0.41150744550E+02 -0.12077296085E-01  0.14328367722E+02  0.43573914725E+02  0.00000000000E+00 0. -1.
          4    1    6    6  502    0  0.12630389823E+02  0.38320009668E+02 -0.66348444449E+02  0.77653499398E+02  0.00000000000E+00 0. -1.
          1    1    5    5  503    0 -0.52190970640E+02 -0.10456204182E+03 -0.16653021857E+03  0.20344392767E+03  0.00000000000E+00 0. -1.
         -2    1    5    5    0  503 -0.10980347238E+03 -0.22849955318E+03 -0.61220112819E+03  0.66261532559E+03  0.00000000000E+00 0.  1.
         -3    1    6    6    0  502  0.90970526263E+02  0.41135167862E+03 -0.28793228079E+03  0.51028505609E+03  0.00000000000E+00 0.  1.
<mgrwt>
<rscale>  0 0.12525353E+04</rscale>
<asrwt>0</asrwt>
<pdfrwt beam="1">  1        2 0.20644628E+00 0.12525353E+04</pdfrwt>
<pdfrwt beam="2">  1       -2 0.44966202E-01 0.12525353E+04</pdfrwt>
<totfact> 0.72053520E+01</totfact>
</mgrwt>
</event>
<event>
12    1  0.1562393E-007  0.2112648E+04  0.7818608E-02  0.8555692E-01
          2   -1    0    0  501    0  0.00000000000E+00  0.00000000000E+00  0.15815809598E+04  0.15815809598E+04  0.00000000000E+00 0. -1.
         -2   -1    0    0    0  501 -0.00000000000E+00 -0.00000000000E+00 -0.70550968411E+03  0.70550968411E+03  0.00000000000E+00 0.  1.
         23    2    1    2    0    0 -0.27099379476E+03 -0.81599707550E+03  0.39563182849E+03  0.95157395797E+03  0.98384906093E+02 0.  0.
        254    2    1    2    0    0  0.27099379476E+03  0.81599707550E+03  0.48043944725E+03  0.13355166860E+04  0.90193896249E+03 0.  0.
        -24    2    4    4    0    0 -0.62561104567E+02  0.66716785783E+03  0.63860805476E+03  0.92941561606E+03  0.83464348350E+02 0.  0.
         24    2    4    4    0    0  0.33355489933E+03  0.14882921767E+03 -0.15816860752E+03  0.40610106993E+03  0.80571481899E+02 0.  0.
         13    1    3    3    0    0 -0.45496270386E+02 -0.21016973059E+03  0.13906643562E+03  0.25608728940E+03  0.00000000000E+00 0. -1.
        -13    1    3    3    0    0 -0.22549752437E+03 -0.60582734491E+03  0.25656539286E+03  0.69548666857E+03  0.00000000000E+00 0.  1.
          4    1    6    6  502    0  0.37600783943E+02 -0.60382680926E+01 -0.29416508176E+02  0.48120791639E+02  0.00000000000E+00 0. -1.
          3    1    5    5  503    0 -0.67560534875E+02  0.28208961186E+03  0.28207591050E+03  0.40460572695E+03  0.00000000000E+00 0. -1.
         -4    1    5    5    0  503  0.49994303074E+01  0.38507824597E+03  0.35653214426E+03  0.52480988911E+03  0.00000000000E+00 0.  1.
         -1    1    6    6    0  502  0.29595411538E+03  0.15486748576E+03 -0.12875209934E+03  0.35798027829E+03  0.00000000000E+00 0.  1.
<mgrwt>
<rscale>  0 0.21126483E+04</rscale>
<asrwt>0</asrwt>
<pdfrwt beam="1">  1        2 0.24332015E+00 0.21126483E+04</pdfrwt>
<pdfrwt beam="2">  1       -2 0.10853995E+00 0.21126483E+04</pdfrwt>
<totfact> 0.71353890E+00</totfact>
</mgrwt>
</event>
<event>
12    1  0.1562393E-007  0.1879937E+04  0.7818608E-02  0.8664908E-01
          2   -1    0    0  501    0  0.00000000000E+00  0.00000000000E+00  0.82258869746E+03  0.82258869746E+03  0.00000000000E+00 0. -1.
         -2   -1    0    0    0  501 -0.00000000000E+00 -0.00000000000E+00 -0.10740975165E+04  0.10740975165E+04  0.00000000000E+00 0.  1.
         23    2    1    2    0    0  0.21680524733E+03  0.38205921102E+03 -0.66925521133E+03  0.80868849861E+03  0.11445869952E+03 0.  0.
        254    2    1    2    0    0 -0.21680524733E+03 -0.38205921102E+03  0.41774639233E+03  0.10879977153E+04  0.90346733434E+03 0.  0.
        -24    2    4    4    0    0 -0.30315739546E+02  0.20211912374E+03 -0.13589726884E+03  0.25821467531E+03  0.80221983403E+02 0.  0.
         24    2    4    4    0    0 -0.18648950778E+03 -0.58417833476E+03  0.55364366117E+03  0.82978304000E+03  0.77304117635E+02 0.  0.
         11    1    3    3    0    0  0.14421153251E+03  0.34171039141E+03 -0.54842435425E+03  0.66206663565E+03  0.00000000000E+00 0.  1.
        -11    1    3    3    0    0  0.72593714814E+02  0.40348819611E+02 -0.12083085708E+03  0.14662186296E+03  0.00000000000E+00 0. -1.
          2    1    6    6  502    0 -0.74020824942E+02 -0.31878515064E+03  0.33194590111E+03  0.46614497321E+03  0.00000000000E+00 0. -1.
          3    1    5    5  503    0 -0.46424465167E+02  0.16165939218E+03 -0.13326023989E+03  0.21458630334E+03  0.00000000000E+00 0. -1.
         -4    1    5    5    0  503  0.16108725621E+02  0.40459731562E+02 -0.26370289542E+01  0.43628371972E+02  0.00000000000E+00 0.  1.
         -1    1    6    6    0  502 -0.11246868284E+03 -0.26539318413E+03  0.22169776007E+03  0.36363806679E+03  0.00000000000E+00 0.  1.
<mgrwt>
<rscale>  0 0.18799367E+04</rscale>
<asrwt>0</asrwt>
<pdfrwt beam="1">  1        2 0.12655211E+00 0.18799367E+04</pdfrwt>
<pdfrwt beam="2">  1       -2 0.16524577E+00 0.18799367E+04</pdfrwt>
<totfact> 0.71741646E+00</totfact>
</mgrwt>
</event>
<event>
12    1  0.2101039E-007  0.2628786E+04  0.7818608E-02  0.8358488E-01
          1   -1    0    0  501    0  0.00000000000E+00  0.00000000000E+00  0.17205263801E+04  0.17205263801E+04  0.00000000000E+00 0. -1.
         -1   -1    0    0    0  501 -0.00000000000E+00 -0.00000000000E+00 -0.10041282706E+04  0.10041282706E+04  0.00000000000E+00 0.  1.
         23    2    1    2    0    0  0.63631703763E+02 -0.18847068166E+03  0.14981276747E+04  0.15140157612E+04  0.91032983835E+02 0.  0.
        254    2    1    2    0    0 -0.63631703763E+02  0.18847068166E+03 -0.78172956521E+03  0.12106388895E+04  0.90275977762E+03 0.  0.
        -24    2    4    4    0    0  0.95189039176E+02  0.28116595640E+03  0.86098364158E+02  0.32011499158E+03  0.83339254285E+02 0.  0.
         24    2    4    4    0    0 -0.15882074294E+03 -0.92695274744E+02 -0.86782792937E+03  0.89052389792E+03  0.78045214040E+02 0.  0.
         11    1    3    3    0    0  0.18103306987E+02  0.18198350033E+01  0.61804366757E+02  0.64426867637E+02  0.00000000000E+00 0.  1.
        -11    1    3    3    0    0  0.45528396776E+02 -0.19029051666E+03  0.14363233079E+04  0.14495888936E+04  0.00000000000E+00 0. -1.
          2    1    6    6  502    0 -0.16545499428E+03 -0.96156424733E+02 -0.84815603937E+03  0.86947690036E+03  0.00000000000E+00 0. -1.
          1    1    5    5  503    0  0.82019547432E+02  0.22284495791E+03  0.10170321036E+03  0.25832271372E+03  0.00000000000E+00 0. -1.
         -2    1    5    5    0  503  0.13169491744E+02  0.58320998493E+02 -0.15604846203E+02  0.61792277859E+02  0.00000000000E+00 0.  1.
         -1    1    6    6    0  502  0.66342513419E+01  0.34611499887E+01 -0.19671889999E+02  0.21046997559E+02  0.00000000000E+00 0.  1.
<mgrwt>
<rscale>  0 0.26287862E+04</rscale>
<asrwt>0</asrwt>
<pdfrwt beam="1">  1        1 0.26469637E+00 0.26287862E+04</pdfrwt>
<pdfrwt beam="2">  1       -1 0.15448127E+00 0.26287862E+04</pdfrwt>
<totfact> 0.13057465E+00</totfact>
</mgrwt>
</event>
<event>
12    1  0.1562393E-007  0.1841242E+04  0.7818608E-02  0.8684670E-01
          1   -1    0    0  501    0  0.00000000000E+00  0.00000000000E+00  0.62358512830E+03  0.62358512830E+03  0.00000000000E+00 0. -1.
         -1   -1    0    0    0  501 -0.00000000000E+00 -0.00000000000E+00 -0.13591459763E+04  0.13591459763E+04  0.00000000000E+00 0.  1.
         23    2    1    2    0    0 -0.10937457657E+03  0.17272908421E+03 -0.10041293262E+04  0.10285090634E+04  0.88074145322E+02 0.  0.
        254    2    1    2    0    0  0.10937457657E+03 -0.17272908421E+03  0.26856847820E+03  0.95422204127E+03  0.89253153560E+03 0.  0.
        -24    2    4    4    0    0  0.27196421343E+03 -0.46548879137E+03  0.55301667895E+02  0.54918116827E+03  0.88866938949E+02 0.  0.
         24    2    4    4    0    0 -0.16258963686E+03  0.29275970716E+03  0.21326681030E+03  0.40504087300E+03  0.80198131380E+02 0.  0.
         13    1    3    3    0    0 -0.43997951256E+02  0.10268613915E+02 -0.27201380495E+03  0.27574041094E+03  0.00000000000E+00 0. -1.
        -13    1    3    3    0    0 -0.65376625313E+02  0.16246047029E+03 -0.73211552130E+03  0.75276865243E+03  0.00000000000E+00 0.  1.
          2    1    6    6  502    0 -0.16766656852E+03  0.25993745909E+03  0.17927944944E+03  0.35752018380E+03  0.00000000000E+00 0. -1.
          3    1    5    5  503    0  0.21379655236E+03 -0.33071732920E+03  0.44396885177E+01  0.39383071042E+03  0.00000000000E+00 0. -1.
         -4    1    5    5    0  503  0.58167661061E+02 -0.13477146217E+03  0.50861979377E+02  0.15535045785E+03  0.00000000000E+00 0.  1.
         -1    1    6    6    0  502  0.50769316586E+01  0.32822248071E+02  0.33987360868E+02  0.47520689202E+02  0.00000000000E+00 0.  1.
<mgrwt>
<rscale>  0 0.18412422E+04</rscale>
<asrwt>0</asrwt>
<pdfrwt beam="1">  1        1 0.95936174E-01 0.18412422E+04</pdfrwt>
<pdfrwt beam="2">  1       -1 0.20909938E+00 0.18412422E+04</pdfrwt>
<totfact> 0.39687909E+00</totfact>
</mgrwt>
</event>
<event>
12    1  0.1562393E-007  0.1819448E+04  0.7818608E-02  0.8696025E-01
         -2   -1    0    0    0  501 -0.00000000000E+00  0.00000000000E+00  0.51997652349E+03  0.51997652349E+03  0.00000000000E+00 0.  1.
          2   -1    0    0  501    0  0.00000000000E+00 -0.00000000000E+00 -0.15916061861E+04  0.15916061861E+04  0.00000000000E+00 0. -1.
         23    2    1    2    0    0  0.39111764577E+03 -0.64178454703E+02 -0.93792316609E+03  0.10223050423E+04  0.91191266650E+02 0.  0.
        254    2    1    2    0    0 -0.39111764577E+03  0.64178454703E+02 -0.13370649652E+03  0.10892776673E+04  0.10057616628E+04 0.  0.
        -24    2    4    4    0    0 -0.21248976694E+03  0.52351628099E+03 -0.14826049632E+03  0.58958434093E+03  0.80045754372E+02 0.  0.
         24    2    4    4    0    0 -0.17862787883E+03 -0.45933782629E+03  0.14553999801E+02  0.49969332637E+03  0.81132260849E+02 0.  0.
         11    1    3    3    0    0  0.16620875835E+02 -0.16485492244E+02 -0.10864324405E+03  0.11113676010E+03  0.00000000000E+00 0.  1.
        -11    1    3    3    0    0  0.37449676993E+03 -0.47692962459E+02 -0.82927992204E+03  0.91116828218E+03  0.00000000000E+00 0. -1.
          4    1    6    6  502    0 -0.87012480929E+02 -0.15208521273E+03  0.33992266616E+02  0.17848405519E+03  0.00000000000E+00 0. -1.
          1    1    5    5  503    0 -0.63737576957E+02  0.13615684431E+03 -0.43564066150E+01  0.15039994431E+03  0.00000000000E+00 0. -1.
         -2    1    5    5    0  503 -0.14875218998E+03  0.38735943668E+03 -0.14390408970E+03  0.43918439663E+03  0.00000000000E+00 0.  1.
         -3    1    6    6    0  502 -0.91615397904E+02 -0.30725261356E+03 -0.19438266814E+02  0.32120927117E+03  0.00000000000E+00 0.  1.
<mgrwt>
<rscale>  0 0.18194481E+04</rscale>
<asrwt>0</asrwt>
<pdfrwt beam="1">  1        2 0.24486249E+00 0.18194481E+04</pdfrwt>
<pdfrwt beam="2">  1       -2 0.79996388E-01 0.18194481E+04</pdfrwt>
<totfact> 0.14689532E+01</totfact>
</mgrwt>
</event>
<event>
12    1  0.1562393E-007  0.1442825E+04  0.7818608E-02  0.8923390E-01
         -2   -1    0    0    0  501 -0.00000000000E+00  0.00000000000E+00  0.50370544394E+03  0.50370544394E+03  0.00000000000E+00 0.  1.
          2   -1    0    0  501    0  0.00000000000E+00 -0.00000000000E+00 -0.10332144813E+04  0.10332144813E+04  0.00000000000E+00 0. -1.
         23    2    1    2    0    0 -0.34395501019E+03 -0.87563096342E+02  0.83069286110E+02  0.37849661093E+03  0.10191581483E+03 0.  0.
        254    2    1    2    0    0  0.34395501019E+03  0.87563096342E+02 -0.61257832349E+03  0.11584233143E+04  0.91690786227E+03 0.  0.
        -24    2    4    4    0    0 -0.29920036446E+03 -0.27410841965E+02 -0.11273713514E+03  0.33196962057E+03  0.84982086324E+02 0.  0.
         24    2    4    4    0    0  0.64315537465E+03  0.11497393831E+03 -0.49984118835E+03  0.82645369375E+03  0.79477367298E+02 0.  0.
         13    1    3    3    0    0 -0.17033414507E+03  0.23121874850E+01  0.64349003372E+02  0.18209849374E+03  0.00000000000E+00 0.  1.
        -13    1    3    3    0    0 -0.17362086512E+03 -0.89875283827E+02  0.18720282738E+02  0.19639811719E+03  0.00000000000E+00 0. -1.
          2    1    6    6  502    0  0.45597610361E+03  0.11739430074E+03 -0.35028462421E+03  0.58685172477E+03  0.00000000000E+00 0. -1.
          3    1    5    5  503    0 -0.17948536109E+03 -0.52804586785E+02 -0.89529744972E+02  0.20740996713E+03  0.00000000000E+00 0. -1.
         -4    1    5    5    0  503 -0.11971500337E+03  0.25393744820E+02 -0.23207390170E+02  0.12455965344E+03  0.00000000000E+00 0.  1.
         -1    1    6    6    0  502  0.18717927104E+03 -0.24203624334E+01 -0.14955656414E+03  0.23960196898E+03  0.00000000000E+00 0.  1.
<mgrwt>
<rscale>  0 0.14428247E+04</rscale>
<asrwt>0</asrwt>
<pdfrwt beam="1">  1        2 0.15895607E+00 0.14428247E+04</pdfrwt>
<pdfrwt beam="2">  1       -2 0.77493146E-01 0.14428247E+04</pdfrwt>
<totfact> 0.34562163E+01</totfact>
</mgrwt>
</event>
<event>
12    1  0.1562393E-007  0.1424566E+04  0.7818608E-02  0.8936226E-01
         -2   -1    0    0    0  501 -0.00000000000E+00  0.00000000000E+00  0.10364630714E+04  0.10364630714E+04  0.00000000000E+00 0.  1.
          2   -1    0    0  501    0  0.00000000000E+00 -0.00000000000E+00 -0.48949830962E+03  0.48949830962E+03  0.00000000000E+00 0. -1.
         23    2    1    2    0    0 -0.30518675854E+03  0.40447874484E+02 -0.14422840782E+03  0.35297320036E+03  0.94938182059E+02 0.  0.
        254    2    1    2    0    0  0.30518675854E+03 -0.40447874484E+02  0.69119316958E+03  0.11729881806E+04  0.89631372080E+03 0.  0.
        -24    2    4    4    0    0 -0.88458072008E+02  0.37734922318E+02  0.74936291240E+03  0.75974074358E+03  0.80077887822E+02 0.  0.
         24    2    4    4    0    0  0.39364483055E+03 -0.78182796802E+02 -0.58169742813E+02  0.41324743705E+03  0.79504232085E+02 0.  0.
         11    1    3    3    0    0 -0.30889521177E+03  0.47126122900E+02 -0.13347627839E+03  0.33978381393E+03  0.00000000000E+00 0. -1.
        -11    1    3    3    0    0  0.37084532310E+01 -0.66782484153E+01 -0.10752129425E+02  0.13189386432E+02  0.00000000000E+00 0.  1.
          2    1    6    6  502    0  0.74874976313E+02  0.11955912666E+02  0.50827966793E+01  0.75993688867E+02  0.00000000000E+00 0. -1.
          3    1    5    5  503    0 -0.35174239227E+02  0.78822532039E+01  0.81806079690E+02  0.89395702889E+02  0.00000000000E+00 0. -1.
         -4    1    5    5    0  503 -0.53283832781E+02  0.29852669114E+02  0.66755683270E+03  0.67034504069E+03  0.00000000000E+00 0.  1.
         -1    1    6    6    0  502  0.31876985423E+03 -0.90138709468E+02 -0.63252539493E+02  0.33725374819E+03  0.00000000000E+00 0.  1.
<mgrwt>
<rscale>  0 0.14245658E+04</rscale>
<asrwt>0</asrwt>
<pdfrwt beam="1">  1        2 0.75307432E-01 0.14245658E+04</pdfrwt>
<pdfrwt beam="2">  1       -2 0.15945586E+00 0.14245658E+04</pdfrwt>
<totfact> 0.15575414E+01</totfact>
</mgrwt>
</event>
<event>
12    1  0.1562393E-007  0.2715302E+04  0.7818608E-02  0.8330057E-01
         -2   -1    0    0    0  501 -0.00000000000E+00  0.00000000000E+00  0.16195129980E+04  0.16195129980E+04  0.00000000000E+00 0.  1.
          2   -1    0    0  501    0  0.00000000000E+00 -0.00000000000E+00 -0.11381298379E+04  0.11381298379E+04  0.00000000000E+00 0. -1.
         23    2    1    2    0    0  0.25266173313E+03 -0.10708593924E+03  0.13995030251E+04  0.14294861985E+04  0.97553700148E+02 0.  0.
        254    2    1    2    0    0 -0.25266173313E+03  0.10708593924E+03 -0.91811986506E+03  0.13281566374E+04  0.91964700681E+03 0.  0.
        -24    2    4    4    0    0 -0.47547494774E+02 -0.12559767197E+03  0.14806268570E+03  0.21491033329E+03  0.78919915060E+02 0.  0.
         24    2    4    4    0    0 -0.20511423836E+03  0.23268361121E+03 -0.10661825508E+04  0.11132463041E+04  0.79740757585E+02 0.  0.
         11    1    3    3    0    0  0.57885136771E+01 -0.32966337698E+02  0.16499793878E+03  0.16835856413E+03  0.00000000000E+00 0. -1.
        -11    1    3    3    0    0  0.24687321945E+03 -0.74119601541E+02  0.12345050864E+04  0.12611276343E+04  0.00000000000E+00 0.  1.
          4    1    6    6  502    0 -0.20487951477E+03  0.19588594218E+03 -0.94707844445E+03  0.98858712203E+03  0.00000000000E+00 0. -1.
          1    1    5    5  503    0 -0.23641137220E+02 -0.73786225562E+02  0.13609931531E+03  0.15660885697E+03  0.00000000000E+00 0. -1.
         -2    1    5    5    0  503 -0.23906357555E+02 -0.51811446405E+02  0.11963370391E+02  0.58301476321E+02  0.00000000000E+00 0.  1.
         -3    1    6    6    0  502 -0.23472358979E+00  0.36797669031E+02 -0.11910410631E+03  0.12465918210E+03  0.00000000000E+00 0.  1.
<mgrwt>
<rscale>  0 0.27153019E+04</rscale>
<asrwt>0</asrwt>
<pdfrwt beam="1">  1        2 0.17509690E+00 0.27153019E+04</pdfrwt>
<pdfrwt beam="2">  1       -2 0.24915585E+00 0.27153019E+04</pdfrwt>
<totfact> 0.11762757E+00</totfact>
</mgrwt>
</event>
<event>
12    1  0.1562393E-007  0.1845805E+04  0.7818608E-02  0.8682313E-01
         -2   -1    0    0    0  501 -0.00000000000E+00  0.00000000000E+00  0.11834640279E+04  0.11834640279E+04  0.00000000000E+00 0.  1.
          2   -1    0    0  501    0  0.00000000000E+00 -0.00000000000E+00 -0.71970867895E+03  0.71970867895E+03  0.00000000000E+00 0. -1.
         23    2    1    2    0    0 -0.12205863411E+03  0.17496951684E+02 -0.53358655756E+03  0.55498107440E+03  0.89916211310E+02 0.  0.
        254    2    1    2    0    0  0.12205863411E+03 -0.17496951684E+02  0.99734190649E+03  0.13481916324E+04  0.89873541480E+03 0.  0.
        -24    2    4    4    0    0  0.80857366397E+02 -0.95538968654E+01 -0.15469822134E+03  0.19247470788E+03  0.80534358149E+02 0.  0.
         24    2    4    4    0    0  0.41201267718E+02 -0.79430548187E+01  0.11520401278E+04  0.11557169245E+04  0.82003152226E+02 0.  0.
         13    1    3    3    0    0 -0.89160946401E+02 -0.29972406996E+01 -0.19807343500E+03  0.21723660711E+03  0.00000000000E+00 0.  1.
        -13    1    3    3    0    0 -0.32897687714E+02  0.20494192384E+02 -0.33551312256E+03  0.33774446730E+03  0.00000000000E+00 0. -1.
          2    1    6    6  502    0  0.12874062848E+01  0.25408722283E+02  0.13682327241E+03  0.13916848945E+03  0.00000000000E+00 0. -1.
          3    1    5    5  503    0 -0.13231412040E+02 -0.81824559383E+01 -0.63577656925E+01  0.16806071354E+02  0.00000000000E+00 0. -1.
         -4    1    5    5    0  503  0.94088778437E+02 -0.13714409271E+01 -0.14834045564E+03  0.17566863652E+03  0.00000000000E+00 0.  1.
         -1    1    6    6    0  502  0.39913861433E+02 -0.33351777102E+02  0.10152168554E+04  0.10165484351E+04  0.00000000000E+00 0.  1.
<mgrwt>
<rscale>  0 0.18458053E+04</rscale>
<asrwt>0</asrwt>
<pdfrwt beam="1">  1        2 0.11072441E+00 0.18458053E+04</pdfrwt>
<pdfrwt beam="2">  1       -2 0.18207139E+00 0.18458053E+04</pdfrwt>
<totfact> 0.65227837E+00</totfact>
</mgrwt>
</event>
<event>
12    1  0.1562393E-007  0.1757159E+04  0.7818608E-02  0.8729419E-01
          2   -1    0    0  501    0  0.00000000000E+00  0.00000000000E+00  0.25562091823E+04  0.25562091823E+04  0.00000000000E+00 0. -1.
         -2   -1    0    0    0  501 -0.00000000000E+00 -0.00000000000E+00 -0.30197151576E+03  0.30197151576E+03  0.00000000000E+00 0.  1.
         23    2    1    2    0    0 -0.45453650607E+03  0.21136427896E+03  0.20111546094E+03  0.54768510348E+03  0.90737258996E+02 0.  0.
        254    2    1    2    0    0  0.45453650607E+03 -0.21136427896E+03  0.20531222056E+04  0.23104955946E+04  0.93370274053E+03 0.  0.
        -24    2    4    4    0    0  0.29154027776E+03  0.34451189203E+03  0.70809096297E+03  0.84380237700E+03  0.83219362471E+02 0.  0.
         24    2    4    4    0    0  0.16299622832E+03 -0.55587617098E+03  0.13450312426E+04  0.14666932176E+04  0.80708505985E+02 0.  0.
         11    1    3    3    0    0  0.18612652381E+01  0.65314956953E+01 -0.29559330801E+01  0.74069079026E+01  0.00000000000E+00 0. -1.
        -11    1    3    3    0    0 -0.45639777131E+03  0.20483278326E+03  0.20407139402E+03  0.54027819557E+03  0.00000000000E+00 0.  1.
          2    1    6    6  502    0  0.14805381456E+03 -0.37354043554E+03  0.91048479815E+03  0.99520598705E+03  0.00000000000E+00 0. -1.
          3    1    5    5  503    0  0.20983519753E+03  0.28885391841E+03  0.59194668485E+03  0.69128017042E+03  0.00000000000E+00 0. -1.
         -4    1    5    5    0  503  0.81705080227E+02  0.55657973614E+02  0.11614427812E+03  0.15252220659E+03  0.00000000000E+00 0.  1.
         -1    1    6    6    0  502  0.14942413753E+02 -0.18233573545E+03  0.43454644445E+03  0.47148723051E+03  0.00000000000E+00 0.  1.
<mgrwt>
<rscale>  0 0.17571595E+04</rscale>
<asrwt>0</asrwt>
<pdfrwt beam="1">  1        2 0.39326294E+00 0.17571595E+04</pdfrwt>
<pdfrwt beam="2">  1       -2 0.46457158E-01 0.17571595E+04</pdfrwt>
<totfact> 0.13455931E+01</totfact>
</mgrwt>
</event>
<event>
12    1  0.1562393E-007  0.1506182E+04  0.7818608E-02  0.8880352E-01
         -2   -1    0    0    0  501 -0.00000000000E+00  0.00000000000E+00  0.71215269151E+03  0.71215269151E+03  0.00000000000E+00 0.  1.
          2   -1    0    0  501    0  0.00000000000E+00 -0.00000000000E+00 -0.79638271686E+03  0.79638271686E+03  0.00000000000E+00 0. -1.
         23    2    1    2    0    0  0.43513657852E+03 -0.57851557470E+02  0.18952367645E+03  0.48685720694E+03  0.91760946721E+02 0.  0.
        254    2    1    2    0    0 -0.43513657852E+03  0.57851557470E+02 -0.27375370180E+03  0.10216782014E+04  0.88101907662E+03 0.  0.
        -24    2    4    4    0    0 -0.42170791528E+03 -0.18062722091E+03  0.18297943706E+03  0.50030385236E+03  0.79741529661E+02 0.  0.
         24    2    4    4    0    0 -0.13428663238E+02  0.23847877838E+03 -0.45673313885E+03  0.52137434908E+03  0.78572228003E+02 0.  0.
         11    1    3    3    0    0  0.32992571394E+03 -0.83129352716E+02  0.14528022379E+03  0.36995649667E+03  0.00000000000E+00 0.  1.
        -11    1    3    3    0    0  0.10521086458E+03  0.25277795246E+02  0.44243452659E+02  0.11690071027E+03  0.00000000000E+00 0. -1.
          4    1    6    6  502    0 -0.13432782967E+02  0.23258636570E+03 -0.38931550727E+03  0.45369970395E+03  0.00000000000E+00 0. -1.
          3    1    5    5  503    0 -0.31601396266E+03 -0.16169699556E+03  0.11467059774E+03  0.37304167188E+03  0.00000000000E+00 0. -1.
         -4    1    5    5    0  503 -0.10569395262E+03 -0.18930225351E+02  0.68308839311E+02  0.12726218048E+03  0.00000000000E+00 0.  1.
         -3    1    6    6    0  502  0.41197290135E-02  0.58924126847E+01 -0.67417631585E+02  0.67674645125E+02  0.00000000000E+00 0.  1.
<mgrwt>
<rscale>  0 0.15061821E+04</rscale>
<asrwt>0</asrwt>
<pdfrwt beam="1">  1        2 0.12252042E+00 0.15061821E+04</pdfrwt>
<pdfrwt beam="2">  1       -2 0.10956195E+00 0.15061821E+04</pdfrwt>
<totfact> 0.22204680E+01</totfact>
</mgrwt>
</event>
<event>
12    1  0.1562393E-007  0.1912036E+04  0.7818608E-02  0.8648889E-01
         -2   -1    0    0    0  501 -0.00000000000E+00  0.00000000000E+00  0.39610440230E+03  0.39610440230E+03  0.00000000000E+00 0.  1.
          2   -1    0    0  501    0  0.00000000000E+00 -0.00000000000E+00 -0.23073969605E+04  0.23073969605E+04  0.00000000000E+00 0. -1.
         23    2    1    2    0    0  0.13271170143E+03  0.67017565999E+03 -0.34454452449E+03  0.77038830693E+03  0.89662718891E+02 0.  0.
        254    2    1    2    0    0 -0.13271170143E+03 -0.67017565999E+03 -0.15667480337E+04  0.19331130559E+04  0.90303868946E+03 0.  0.
        -24    2    4    4    0    0 -0.11140826127E+03 -0.19002032012E+03  0.54126181014E+02  0.24061478009E+03  0.80288892052E+02 0.  0.
         24    2    4    4    0    0 -0.21303440154E+02 -0.48015533987E+03 -0.16208742147E+04  0.16924982758E+04  0.79461981886E+02 0.  0.
         11    1    3    3    0    0  0.12114713760E+03  0.50792117538E+03 -0.29788631950E+03  0.60116288033E+03  0.00000000000E+00 0. -1.
        -11    1    3    3    0    0  0.11564563828E+02  0.16225448462E+03 -0.46658204985E+02  0.16922542660E+03  0.00000000000E+00 0.  1.
          2    1    6    6  502    0 -0.21023517198E+02 -0.36915118889E+03 -0.13510645459E+04  0.14007462282E+04  0.00000000000E+00 0. -1.
          1    1    5    5  503    0 -0.65344475447E+02 -0.16254998260E+03  0.18364248461E+02  0.17615232878E+03  0.00000000000E+00 0. -1.
         -2    1    5    5    0  503 -0.46063785826E+02 -0.27470337521E+02  0.35761932553E+02  0.64462451303E+02  0.00000000000E+00 0.  1.
         -1    1    6    6    0  502 -0.27992295591E+00 -0.11100415098E+03 -0.26980966884E+03  0.29175204763E+03  0.00000000000E+00 0.  1.
<mgrwt>
<rscale>  0 0.19120357E+04</rscale>
<asrwt>0</asrwt>
<pdfrwt beam="1">  1        2 0.35498415E+00 0.19120357E+04</pdfrwt>
<pdfrwt beam="2">  1       -2 0.60939139E-01 0.19120357E+04</pdfrwt>
<totfact> 0.10531303E+01</totfact>
</mgrwt>
</event>
<event>
12    1  0.1562393E-007  0.1085931E+04  0.7818608E-02  0.9219014E-01
          1   -1    0    0  501    0  0.00000000000E+00  0.00000000000E+00  0.58481625676E+03  0.58481625676E+03  0.00000000000E+00 0. -1.
         -1   -1    0    0    0  501 -0.00000000000E+00 -0.00000000000E+00 -0.50411004746E+03  0.50411004746E+03  0.00000000000E+00 0.  1.
         23    2    1    2    0    0 -0.75619578850E+02 -0.54887764967E+02  0.12936597179E+03  0.18712473379E+03  0.97719618759E+02 0.  0.
        254    2    1    2    0    0  0.75619578850E+02  0.54887764967E+02 -0.48659762492E+02  0.90180157042E+03  0.89562677075E+03 0.  0.
        -24    2    4    4    0    0  0.36258734691E+02  0.33390455770E+03 -0.34340270850E+03  0.48643864583E+03  0.76747550186E+02 0.  0.
         24    2    4    4    0    0  0.39360844159E+02 -0.27901679273E+03  0.29474294600E+03  0.41536292459E+03  0.79077861799E+02 0.  0.
         11    1    3    3    0    0 -0.59489046771E+02 -0.60338478269E+02  0.14238578836E+03  0.16569064963E+03  0.00000000000E+00 0. -1.
        -11    1    3    3    0    0 -0.16130532079E+02  0.54507133023E+01 -0.13019816568E+02  0.21434084168E+02  0.00000000000E+00 0.  1.
          4    1    6    6  502    0 -0.20010620527E+02 -0.29296143863E+02  0.28185773324E+02  0.45311442230E+02  0.00000000000E+00 0. -1.
          1    1    5    5  503    0 -0.85644885089E+01  0.48494600178E+01 -0.17807620042E+01  0.10001941771E+02  0.00000000000E+00 0. -1.
         -2    1    5    5    0  503  0.44823223200E+02  0.32905509768E+03 -0.34162194649E+03  0.47643670406E+03  0.00000000000E+00 0.  1.
         -3    1    6    6    0  502  0.59371464686E+02 -0.24972064887E+03  0.26655717268E+03  0.37005148236E+03  0.00000000000E+00 0.  1.
<mgrwt>
<rscale>  0 0.10859314E+04</rscale>
<asrwt>0</asrwt>
<pdfrwt beam="1">  1        1 0.89971731E-01 0.10859314E+04</pdfrwt>
<pdfrwt beam="2">  1       -1 0.77555393E-01 0.10859314E+04</pdfrwt>
<totfact> 0.59090957E+01</totfact>
</mgrwt>
</event>
<event>
12    1  0.1562393E-007  0.3173408E+04  0.7818608E-02  0.8195875E-01
          2   -1    0    0  501    0  0.00000000000E+00  0.00000000000E+00  0.47526925012E+04  0.47526925012E+04  0.00000000000E+00 0. -1.
         -2   -1    0    0    0  501 -0.00000000000E+00 -0.00000000000E+00 -0.52972711226E+03  0.52972711226E+03  0.00000000000E+00 0.  1.
         23    2    1    2    0    0  0.91103783418E+03  0.24931554983E+03  0.96312518492E+02  0.95395487620E+03  0.92766512924E+02 0.  0.
        254    2    1    2    0    0 -0.91103783418E+03 -0.24931554983E+03  0.41266528704E+04  0.43284647373E+04  0.90232748481E+03 0.  0.
        -24    2    4    4    0    0 -0.32441687298E+03  0.27478696165E+03  0.22644599666E+04  0.23054049642E+04  0.79742877959E+02 0.  0.
         24    2    4    4    0    0 -0.58662096119E+03 -0.52410251148E+03  0.18621929038E+04  0.20230597731E+04  0.78745411372E+02 0.  0.
         11    1    3    3    0    0  0.80366544983E+03  0.24993094900E+03  0.81614570219E+02  0.84557943009E+03  0.00000000000E+00 0.  1.
        -11    1    3    3    0    0  0.10737238435E+03 -0.61539916878E+00  0.14697948272E+02  0.10837544611E+03  0.00000000000E+00 0. -1.
          4    1    6    6  502    0 -0.49909717164E+02 -0.45297778410E+02  0.22419892499E+03  0.23411114147E+03  0.00000000000E+00 0. -1.
          1    1    5    5  503    0 -0.94422719438E+02  0.37260731065E+02  0.57655177200E+03  0.58541947168E+03  0.00000000000E+00 0. -1.
         -2    1    5    5    0  503 -0.22999415355E+03  0.23752623058E+03  0.16879081946E+04  0.17199854925E+04  0.00000000000E+00 0.  1.
         -3    1    6    6    0  502 -0.53671124403E+03 -0.47880473307E+03  0.16379939788E+04  0.17889486316E+04  0.00000000000E+00 0.  1.
<mgrwt>
<rscale>  0 0.31734083E+04</rscale>
<asrwt>0</asrwt>
<pdfrwt beam="1">  1        2 0.73118343E+00 0.31734083E+04</pdfrwt>
<pdfrwt beam="2">  1       -2 0.81496482E-01 0.31734083E+04</pdfrwt>
<totfact> 0.74997158E-02</totfact>
</mgrwt>
</event>
<event>
12    1  0.1562393E-007  0.1633459E+04  0.7818608E-02  0.8800252E-01
         -1   -1    0    0    0  501 -0.00000000000E+00  0.00000000000E+00  0.12430911198E+04  0.12430911198E+04  0.00000000000E+00 0.  1.
          1   -1    0    0  501    0  0.00000000000E+00 -0.00000000000E+00 -0.53660367543E+03  0.53660367543E+03  0.00000000000E+00 0. -1.
         23    2    1    2    0    0 -0.83039311347E+02 -0.52756553672E+03  0.45989199797E+02  0.54389915109E+03  0.92143134814E+02 0.  0.
        254    2    1    2    0    0  0.83039311347E+02  0.52756553672E+03  0.66049824455E+03  0.12357956441E+04  0.89761462787E+03 0.  0.
        -24    2    4    4    0    0 -0.48935890499E+02  0.43984250884E+03  0.85873424697E+03  0.96959374961E+03  0.82652152960E+02 0.  0.
         24    2    4    4    0    0  0.13197520185E+03  0.87723027883E+02 -0.19823600243E+03  0.26620189450E+03  0.80331515932E+02 0.  0.
         13    1    3    3    0    0  0.98195860246E+01 -0.77533512220E+02  0.31195138992E+02  0.84148716471E+02  0.00000000000E+00 0. -1.
        -13    1    3    3    0    0 -0.92858897372E+02 -0.45003202450E+03  0.14794060804E+02  0.45975043462E+03  0.00000000000E+00 0.  1.
          2    1    6    6  502    0  0.73948507504E+02  0.19974467000E+02 -0.44847615476E+02  0.88761870800E+02  0.00000000000E+00 0. -1.
          1    1    5    5  503    0 -0.93476553385E+01  0.81570899991E+02  0.98466031716E+02  0.12820588827E+03  0.00000000000E+00 0. -1.
         -2    1    5    5    0  503 -0.39588235161E+02  0.35827160885E+03  0.76026821526E+03  0.84138786134E+03  0.00000000000E+00 0.  1.
         -1    1    6    6    0  502  0.58026694343E+02  0.67748560883E+02 -0.15338838695E+03  0.17744002370E+03  0.00000000000E+00 0.  1.
<mgrwt>
<rscale>  0 0.16334592E+04</rscale>
<asrwt>0</asrwt>
<pdfrwt beam="1">  1        1 0.82554412E-01 0.16334592E+04</pdfrwt>
<pdfrwt beam="2">  1       -1 0.19124479E+00 0.16334592E+04</pdfrwt>
<totfact> 0.66546147E+00</totfact>
</mgrwt>
</event>
<event>
12    1  0.1562393E-007  0.2170440E+04  0.7818608E-02  0.8530833E-01
         -2   -1    0    0    0  501 -0.00000000000E+00  0.00000000000E+00  0.21371066635E+04  0.21371066635E+04  0.00000000000E+00 0.  1.
          2   -1    0    0  501    0  0.00000000000E+00 -0.00000000000E+00 -0.55107338951E+03  0.55107338951E+03  0.00000000000E+00 0. -1.
         23    2    1    2    0    0  0.28354365704E+01  0.62856060470E+03 -0.12430097588E+03  0.64727307225E+03  0.91734529871E+02 0.  0.
        254    2    1    2    0    0 -0.28354365704E+01 -0.62856060470E+03  0.17103342499E+04  0.20409069808E+04  0.91921791998E+03 0.  0.
        -24    2    4    4    0    0  0.59391823550E+02 -0.16704604778E+01  0.12562260877E+04  0.12601224314E+04  0.79210981445E+02 0.  0.
         24    2    4    4    0    0 -0.62227260121E+02 -0.62689014422E+03  0.45410816220E+03  0.78078454939E+03  0.80912327671E+02 0.  0.
         11    1    3    3    0    0 -0.21595212503E+02  0.53193370824E+03 -0.12797596661E+03  0.54753782627E+03  0.00000000000E+00 0. -1.
        -11    1    3    3    0    0  0.24430649074E+02  0.96626896461E+02  0.36749907297E+01  0.99735245980E+02  0.00000000000E+00 0.  1.
          4    1    6    6  502    0 -0.35503885015E+01 -0.37471090333E+03  0.29474339372E+03  0.47675416567E+03  0.00000000000E+00 0. -1.
          3    1    5    5  503    0 -0.15608911704E+02  0.12741759808E+02  0.39616397281E+03  0.39667604405E+03  0.00000000000E+00 0. -1.
         -4    1    5    5    0  503  0.75000735254E+02 -0.14412220286E+02  0.86006211489E+03  0.86344638736E+03  0.00000000000E+00 0.  1.
         -3    1    6    6    0  502 -0.58676871619E+02 -0.25217924089E+03  0.15936476848E+03  0.30403038373E+03  0.00000000000E+00 0.  1.
<mgrwt>
<rscale>  0 0.21704402E+04</rscale>
<asrwt>0</asrwt>
<pdfrwt beam="1">  1        2 0.84780523E-01 0.21704402E+04</pdfrwt>
<pdfrwt beam="2">  1       -2 0.32878564E+00 0.21704402E+04</pdfrwt>
<totfact> 0.10642574E+00</totfact>
</mgrwt>
</event>
<event>
12    1  0.1562393E-007  0.1386443E+04  0.7818608E-02  0.8963691E-01
          2   -1    0    0  501    0  0.00000000000E+00  0.00000000000E+00  0.19403532376E+04  0.19403532376E+04  0.00000000000E+00 0. -1.
         -2   -1    0    0    0  501 -0.00000000000E+00 -0.00000000000E+00 -0.24766419623E+03  0.24766419623E+03  0.00000000000E+00 0.  1.
         23    2    1    2    0    0  0.20678315977E+03 -0.88967583845E+02 -0.21634622633E+01  0.24297825682E+03  0.91428915439E+02 0.  0.
        254    2    1    2    0    0 -0.20678315977E+03  0.88967583845E+02  0.16948525036E+04  0.19450391770E+04  0.92734992581E+03 0.  0.
        -24    2    4    4    0    0 -0.73042284188E+02 -0.24825390921E+03  0.15034461271E+04  0.15277536732E+04  0.81950291546E+02 0.  0.
         24    2    4    4    0    0 -0.13374087558E+03  0.33722149306E+03  0.19140637651E+03  0.41728550376E+03  0.76719185954E+02 0.  0.
         11    1    3    3    0    0  0.20091428131E+03 -0.62819949862E+02 -0.18948503698E+02  0.21135737585E+03  0.00000000000E+00 0.  1.
        -11    1    3    3    0    0  0.58688784627E+01 -0.26147633983E+02  0.16785041435E+02  0.31620880969E+02  0.00000000000E+00 0. -1.
          2    1    6    6  502    0 -0.68983975619E+02  0.25672970488E+03  0.11977190797E+03  0.29157201546E+03  0.00000000000E+00 0. -1.
          1    1    5    5  503    0 -0.35138092528E+02 -0.21420192711E+03  0.13015991822E+04  0.13195747732E+04  0.00000000000E+00 0. -1.
         -2    1    5    5    0  503 -0.37904191660E+02 -0.34051982105E+02  0.20184694491E+03  0.20817889999E+03  0.00000000000E+00 0.  1.
         -1    1    6    6    0  502 -0.64756899962E+02  0.80491788183E+02  0.71634468540E+02  0.12571348830E+03  0.00000000000E+00 0.  1.
<mgrwt>
<rscale>  0 0.13864430E+04</rscale>
<asrwt>0</asrwt>
<pdfrwt beam="1">  1        2 0.29851587E+00 0.13864430E+04</pdfrwt>
<pdfrwt beam="2">  1       -2 0.38102185E-01 0.13864430E+04</pdfrwt>
<totfact> 0.45707962E+01</totfact>
</mgrwt>
</event>
<event>
12    1  0.1562393E-007  0.2108213E+04  0.7818608E-02  0.8557634E-01
          2   -1    0    0  501    0  0.00000000000E+00  0.00000000000E+00  0.12969817526E+04  0.12969817526E+04  0.00000000000E+00 0. -1.
         -2   -1    0    0    0  501 -0.00000000000E+00 -0.00000000000E+00 -0.85671247131E+03  0.85671247131E+03  0.00000000000E+00 0.  1.
         23    2    1    2    0    0  0.68688148923E+03  0.14653923738E+03  0.68794143901E+03  0.98721288706E+03  0.89699122299E+02 0.  0.
        254    2    1    2    0    0 -0.68688148923E+03 -0.14653923738E+03 -0.24767215774E+03  0.11664813368E+04  0.89780692976E+03 0.  0.
        -24    2    4    4    0    0 -0.50815001368E+03  0.33885030673E+03 -0.15066049813E+03  0.63410932779E+03  0.79750154358E+02 0.  0.
         24    2    4    4    0    0 -0.17873147555E+03 -0.48538954411E+03 -0.97011659605E+02  0.53237200904E+03  0.80378753560E+02 0.  0.
         13    1    3    3    0    0  0.34050343956E+03  0.58239653197E+02  0.39753886172E+03  0.52666079798E+03  0.00000000000E+00 0. -1.
        -13    1    3    3    0    0  0.34637804966E+03  0.88299584182E+02  0.29040257729E+03  0.46055208908E+03  0.00000000000E+00 0.  1.
          2    1    6    6  502    0 -0.16866370737E+03 -0.47814732790E+03 -0.83190783171E+02  0.51380251047E+03  0.00000000000E+00 0. -1.
          1    1    5    5  503    0 -0.38582012255E+03  0.26660552694E+03 -0.14884741581E+03  0.49202766910E+03  0.00000000000E+00 0. -1.
         -2    1    5    5    0  503 -0.12232989113E+03  0.72244779791E+02 -0.18130823200E+01  0.14208165870E+03  0.00000000000E+00 0.  1.
         -1    1    6    6    0  502 -0.10067768174E+02 -0.72422162152E+01 -0.13820876434E+02  0.18569498569E+02  0.00000000000E+00 0.  1.
<mgrwt>
<rscale>  0 0.21082129E+04</rscale>
<asrwt>0</asrwt>
<pdfrwt beam="1">  1        2 0.19953565E+00 0.21082129E+04</pdfrwt>
<pdfrwt beam="2">  1       -2 0.13180192E+00 0.21082129E+04</pdfrwt>
<totfact> 0.64119137E+00</totfact>
</mgrwt>
</event>
<event>
12    1  0.1562393E-007  0.1268634E+04  0.7818608E-02  0.9054815E-01
          2   -1    0    0  501    0  0.00000000000E+00  0.00000000000E+00  0.22903139353E+04  0.22903139353E+04  0.00000000000E+00 0. -1.
         -2   -1    0    0    0  501 -0.00000000000E+00 -0.00000000000E+00 -0.17567817495E+03  0.17567817495E+03  0.00000000000E+00 0.  1.
         23    2    1    2    0    0  0.82561640163E+02  0.26711139939E+03  0.74091435870E+03  0.79710612292E+03  0.90879921678E+02 0.  0.
        254    2    1    2    0    0 -0.82561640163E+02 -0.26711139939E+03  0.13737214017E+04  0.16688859873E+04  0.90548607126E+03 0.  0.
        -24    2    4    4    0    0 -0.38713972705E+03  0.13227817054E+03  0.44372723465E+03  0.60885755533E+03  0.80243262952E+02 0.  0.
         24    2    4    4    0    0  0.30457808689E+03 -0.39938956993E+03  0.92999416701E+03  0.10600284320E+04  0.80568520006E+02 0.  0.
         13    1    3    3    0    0  0.72147095901E+02  0.26991078082E+03  0.67856009188E+03  0.73382615880E+03  0.00000000000E+00 0. -1.
        -13    1    3    3    0    0  0.10414544262E+02 -0.27993814302E+01  0.62354266823E+02  0.63279964125E+02  0.00000000000E+00 0.  1.
          4    1    6    6  502    0 -0.17591046191E+01 -0.11776508158E+02  0.44150843546E+02  0.45728301731E+02  0.00000000000E+00 0. -1.
          3    1    5    5  503    0 -0.10769182738E+02  0.16329329667E+02  0.41776256112E+02  0.46128926705E+02  0.00000000000E+00 0. -1.
         -4    1    5    5    0  503 -0.37637054431E+03  0.11594884087E+03  0.40195097854E+03  0.56272862862E+03  0.00000000000E+00 0.  1.
         -3    1    6    6    0  502  0.30633719151E+03 -0.38761306177E+03  0.88584332346E+03  0.10143001303E+04  0.00000000000E+00 0.  1.
<mgrwt>
<rscale>  0 0.12686342E+04</rscale>
<asrwt>0</asrwt>
<pdfrwt beam="1">  1        2 0.35235597E+00 0.12686342E+04</pdfrwt>
<pdfrwt beam="2">  1       -2 0.27027413E-01 0.12686342E+04</pdfrwt>
<totfact> 0.56285110E+01</totfact>
</mgrwt>
</event>
<event>
12    1  0.1562393E-007  0.1390527E+04  0.7818608E-02  0.8960704E-01
          1   -1    0    0  501    0  0.00000000000E+00  0.00000000000E+00  0.18464505388E+04  0.18464505388E+04  0.00000000000E+00 0. -1.
         -1   -1    0    0    0  501 -0.00000000000E+00 -0.00000000000E+00 -0.26179499368E+03  0.26179499368E+03  0.00000000000E+00 0.  1.
         23    2    1    2    0    0 -0.13583995291E+03 -0.14092529851E+03  0.97698970568E+03  0.10005999314E+04  0.91536359128E+02 0.  0.
        254    2    1    2    0    0  0.13583995291E+03  0.14092529851E+03  0.60766583941E+03  0.11076456011E+04  0.90515665643E+03 0.  0.
        -24    2    4    4    0    0 -0.16976288232E+03 -0.38925410603E+01  0.72012969855E+03  0.74425364619E+03  0.80573686973E+02 0.  0.
         24    2    4    4    0    0  0.30560283522E+03  0.14481783957E+03 -0.11246385914E+03  0.36339195492E+03  0.70995026093E+02 0.  0.
         13    1    3    3    0    0 -0.24874293044E+02 -0.13990198748E+02  0.43630189037E+02  0.52134916426E+02  0.00000000000E+00 0.  1.
        -13    1    3    3    0    0 -0.11096565986E+03 -0.12693509976E+03  0.93335951665E+03  0.94846501493E+03  0.00000000000E+00 0. -1.
          2    1    6    6  502    0  0.13042723196E+03  0.72980680215E+02 -0.14343011744E+02  0.15014381275E+03  0.00000000000E+00 0. -1.
          3    1    5    5  503    0 -0.13404890092E+03 -0.37137084707E+02  0.52451329608E+03  0.54264396123E+03  0.00000000000E+00 0. -1.
         -4    1    5    5    0  503 -0.35713981395E+02  0.33244543647E+02  0.19561640248E+03  0.20160968495E+03  0.00000000000E+00 0.  1.
         -1    1    6    6    0  502  0.17517560326E+03  0.71837159356E+02 -0.98120847396E+02  0.21324814216E+03  0.00000000000E+00 0.  1.
<mgrwt>
<rscale>  0 0.13905272E+04</rscale>
<asrwt>0</asrwt>
<pdfrwt beam="1">  1        1 0.28406931E+00 0.13905272E+04</pdfrwt>
<pdfrwt beam="2">  1       -1 0.40276154E-01 0.13905272E+04</pdfrwt>
<totfact> 0.22243723E+01</totfact>
</mgrwt>
</event>
<event>
12    1  0.1562393E-007  0.1267383E+04  0.7818608E-02  0.9055839E-01
         -2   -1    0    0    0  501 -0.00000000000E+00  0.00000000000E+00  0.23727164395E+03  0.23727164395E+03  0.00000000000E+00 0.  1.
          2   -1    0    0  501    0  0.00000000000E+00 -0.00000000000E+00 -0.16924259193E+04  0.16924259193E+04  0.00000000000E+00 0. -1.
         23    2    1    2    0    0  0.11576753515E+02  0.24919682709E+02  0.96245514528E+02  0.13602948362E+03  0.92118453843E+02 0.  0.
        254    2    1    2    0    0 -0.11576753515E+02 -0.24919682709E+02 -0.15513997899E+04  0.17936680796E+04  0.89980490109E+03 0.  0.
        -24    2    4    4    0    0 -0.24520064331E+03 -0.15872676881E+03 -0.10625288491E+03  0.32180508977E+03  0.83374442338E+02 0.  0.
         24    2    4    4    0    0  0.23362388980E+03  0.13380708610E+03 -0.14451469050E+04  0.14718629899E+04  0.73801258697E+02 0.  0.
         13    1    3    3    0    0  0.39543825221E+02 -0.15034741092E+02  0.66769999446E+02  0.79044230522E+02  0.00000000000E+00 0.  1.
        -13    1    3    3    0    0 -0.27967071706E+02  0.39954423801E+02  0.29475515081E+02  0.56985253096E+02  0.00000000000E+00 0. -1.
          4    1    6    6  502    0  0.14266855144E+02  0.32054137410E+01 -0.25084104809E+02  0.29034981436E+02  0.00000000000E+00 0. -1.
          1    1    5    5  503    0 -0.26774054716E+02 -0.43362653382E+02 -0.43339230344E+02  0.66898868459E+02  0.00000000000E+00 0. -1.
         -2    1    5    5    0  503 -0.21842658860E+03 -0.11536411542E+03 -0.62913654566E+02  0.25490622131E+03  0.00000000000E+00 0.  1.
         -3    1    6    6    0  502  0.21935703465E+03  0.13060167236E+03 -0.14200628002E+04  0.14428280084E+04  0.00000000000E+00 0.  1.
<mgrwt>
<rscale>  0 0.12673826E+04</rscale>
<asrwt>0</asrwt>
<pdfrwt beam="1">  1        2 0.26037322E+00 0.12673826E+04</pdfrwt>
<pdfrwt beam="2">  1       -2 0.36503329E-01 0.12673826E+04</pdfrwt>
<totfact> 0.68721814E+01</totfact>
</mgrwt>
</event>
<event>
12    1  0.1562393E-007  0.1317655E+04  0.7818608E-02  0.9015680E-01
          2   -1    0    0  501    0  0.00000000000E+00  0.00000000000E+00  0.16379276422E+04  0.16379276422E+04  0.00000000000E+00 0. -1.
         -2   -1    0    0    0  501 -0.00000000000E+00 -0.00000000000E+00 -0.26500188750E+03  0.26500188750E+03  0.00000000000E+00 0.  1.
         23    2    1    2    0    0 -0.10872828166E+03 -0.16075206079E+03 -0.36897596765E+02  0.21802165198E+03  0.92243936408E+02 0.  0.
        254    2    1    2    0    0  0.10872828166E+03  0.16075206079E+03  0.14098233515E+04  0.16849078778E+04  0.90202528224E+03 0.  0.
        -24    2    4    4    0    0 -0.35167994199E+03 -0.60445852550E+02  0.35262107908E+03  0.50794313734E+03  0.79574635856E+02 0.  0.
         24    2    4    4    0    0  0.46040822365E+03  0.22119791334E+03  0.10572022724E+04  0.11769647404E+04  0.81640101002E+02 0.  0.
         13    1    3    3    0    0 -0.65531280815E+02 -0.35193080139E+02  0.14237480415E+02  0.75733793669E+02  0.00000000000E+00 0. -1.
        -13    1    3    3    0    0 -0.43197000840E+02 -0.12555898065E+03 -0.51135077179E+02  0.14228785831E+03  0.00000000000E+00 0.  1.
          4    1    6    6  502    0  0.43079213433E+03  0.20426123131E+03  0.10230674643E+04  0.11287034819E+04  0.00000000000E+00 0. -1.
          3    1    5    5  503    0 -0.14319077928E+03 -0.26151398423E+01  0.96624658510E+02  0.17276215691E+03  0.00000000000E+00 0. -1.
         -4    1    5    5    0  503 -0.20848916272E+03 -0.57830712708E+02  0.25599642057E+03  0.33518098044E+03  0.00000000000E+00 0.  1.
         -3    1    6    6    0  502  0.29616089320E+02  0.16936682036E+02  0.34134808135E+02  0.48261258494E+02  0.00000000000E+00 0.  1.
<mgrwt>
<rscale>  0 0.13176554E+04</rscale>
<asrwt>0</asrwt>
<pdfrwt beam="1">  1        2 0.25198886E+00 0.13176554E+04</pdfrwt>
<pdfrwt beam="2">  1       -2 0.40769522E-01 0.13176554E+04</pdfrwt>
<totfact> 0.59218354E+01</totfact>
</mgrwt>
</event>
<event>
12    1  0.1562393E-007  0.1379872E+04  0.7818608E-02  0.8968518E-01
          2   -1    0    0  501    0  0.00000000000E+00  0.00000000000E+00  0.14950818872E+04  0.14950818872E+04  0.00000000000E+00 0. -1.
         -2   -1    0    0    0  501 -0.00000000000E+00 -0.00000000000E+00 -0.31838499557E+03  0.31838499557E+03  0.00000000000E+00 0.  1.
         23    2    1    2    0    0 -0.11594336069E+02 -0.83003951674E+02  0.83747950147E+03  0.84513299977E+03  0.76510047049E+02 0.  0.
        254    2    1    2    0    0  0.11594336069E+02  0.83003951674E+02  0.33921739013E+03  0.96833388296E+03  0.90309356465E+03 0.  0.
        -24    2    4    4    0    0 -0.31459446436E+03 -0.23610633703E+03  0.30560009842E+03  0.50436724321E+03  0.79240245341E+02 0.  0.
         24    2    4    4    0    0  0.32618880042E+03  0.31911028870E+03  0.33617291710E+02  0.46396663975E+03  0.76840162842E+02 0.  0.
         11    1    3    3    0    0  0.32657386472E+01  0.38103405410E+01  0.33196599377E+03  0.33200392281E+03  0.00000000000E+00 0. -1.
        -11    1    3    3    0    0 -0.14860074717E+02 -0.86814292215E+02  0.50551350770E+03  0.51312907696E+03  0.00000000000E+00 0.  1.
          4    1    6    6  502    0  0.29128224087E+03  0.25897425502E+03  0.79303242588E+01  0.38984086325E+03  0.00000000000E+00 0. -1.
          3    1    5    5  503    0 -0.31461207934E+03 -0.24101614911E+03  0.30227801661E+03  0.49843910754E+03  0.00000000000E+00 0. -1.
         -4    1    5    5    0  503  0.17614981169E-01  0.49098120853E+01  0.33220818145E+01  0.59281356751E+01  0.00000000000E+00 0.  1.
         -3    1    6    6    0  502  0.34906559551E+02  0.60136033677E+02  0.25686967451E+02  0.74125776508E+02  0.00000000000E+00 0.  1.
<mgrwt>
<rscale>  0 0.13798719E+04</rscale>
<asrwt>0</asrwt>
<pdfrwt beam="1">  1        2 0.23001259E+00 0.13798719E+04</pdfrwt>
<pdfrwt beam="2">  1       -2 0.48982308E-01 0.13798719E+04</pdfrwt>
<totfact> 0.49128329E+01</totfact>
</mgrwt>
</event>
<event>
12    1  0.1562393E-007  0.2919690E+04  0.7818608E-02  0.8267043E-01
         -2   -1    0    0    0  501 -0.00000000000E+00  0.00000000000E+00  0.95230864377E+03  0.95230864377E+03  0.00000000000E+00 0.  1.
          2   -1    0    0  501    0  0.00000000000E+00 -0.00000000000E+00 -0.22378746105E+04  0.22378746105E+04  0.00000000000E+00 0. -1.
         23    2    1    2    0    0 -0.22277098469E+03 -0.80831195231E+03  0.53261667831E+03  0.99737623719E+03  0.89909446878E+02 0.  0.
        254    2    1    2    0    0  0.22277098469E+03  0.80831195231E+03 -0.18181826450E+04  0.21928070170E+04  0.89421438122E+03 0.  0.
        -24    2    4    4    0    0  0.44951206526E+03  0.53818914610E+03 -0.61471609907E+03  0.93613371931E+03  0.82230190206E+02 0.  0.
         24    2    4    4    0    0 -0.22674108058E+03  0.27012280621E+03 -0.12034665459E+04  0.12566732977E+04  0.80735382691E+02 0.  0.
         13    1    3    3    0    0 -0.11747300881E+03 -0.31029459551E+03  0.17343058772E+03  0.37438057182E+03  0.00000000000E+00 0. -1.
        -13    1    3    3    0    0 -0.10529797588E+03 -0.49801735680E+03  0.35918609059E+03  0.62299566537E+03  0.00000000000E+00 0.  1.
          2    1    6    6  502    0 -0.67634249482E+01  0.41635145680E+02 -0.10007822020E+03  0.10860423303E+03  0.00000000000E+00 0. -1.
          3    1    5    5  503    0  0.67233738917E+02  0.10556634449E+03 -0.14748377824E+03  0.19343240055E+03  0.00000000000E+00 0. -1.
         -4    1    5    5    0  503  0.38227832635E+03  0.43262280161E+03 -0.46723232083E+03  0.74270131877E+03  0.00000000000E+00 0.  1.
         -1    1    6    6    0  502 -0.21997765563E+03  0.22848766053E+03 -0.11033883257E+04  0.11480690647E+04  0.00000000000E+00 0.  1.
<mgrwt>
<rscale>  0 0.29196899E+04</rscale>
<asrwt>0</asrwt>
<pdfrwt beam="1">  1        2 0.34428840E+00 0.29196899E+04</pdfrwt>
<pdfrwt beam="2">  1       -2 0.14650902E+00 0.29196899E+04</pdfrwt>
<totfact> 0.13506740E+00</totfact>
</mgrwt>
</event>
<event>
12    1  0.1596498E-007  0.2628391E+04  0.7818608E-02  0.8358621E-01
         -1   -1    0    0    0  501 -0.00000000000E+00  0.00000000000E+00  0.17005111882E+04  0.17005111882E+04  0.00000000000E+00 0.  1.
          1   -1    0    0  501    0  0.00000000000E+00 -0.00000000000E+00 -0.10156414999E+04  0.10156414999E+04  0.00000000000E+00 0. -1.
         23    2    1    2    0    0  0.11473373949E+03 -0.56606808743E+03  0.13416464529E+04  0.14634059881E+04  0.89134567166E+02 0.  0.
        254    2    1    2    0    0 -0.11473373949E+03  0.56606808743E+03 -0.65677676454E+03  0.12527466999E+04  0.89689557096E+03 0.  0.
        -24    2    4    4    0    0  0.30945466020E+03  0.74896953631E+01 -0.53814067795E+02  0.32434585593E+03  0.80535694615E+02 0.  0.
         24    2    4    4    0    0 -0.42418839970E+03  0.55857839207E+03 -0.60296269674E+03  0.92840084402E+03  0.80115510290E+02 0.  0.
         13    1    3    3    0    0  0.43569201612E+02 -0.75060199555E+02  0.23939900390E+03  0.25464522763E+03  0.00000000000E+00 0. -1.
        -13    1    3    3    0    0  0.71164537883E+02 -0.49100788788E+03  0.11022474490E+04  0.12087607605E+04  0.00000000000E+00 0.  1.
          2    1    6    6  502    0 -0.37472516233E+03  0.47368337288E+03 -0.48314732192E+03  0.77345085151E+03  0.00000000000E+00 0. -1.
          1    1    5    5  503    0  0.26985050786E+03 -0.18716157365E+02 -0.58084949798E+02  0.27666487404E+03  0.00000000000E+00 0. -1.
         -2    1    5    5    0  503  0.39604152345E+02  0.26205852728E+02  0.42708820029E+01  0.47680981882E+02  0.00000000000E+00 0.  1.
         -1    1    6    6    0  502 -0.49463237362E+02  0.84895019192E+02 -0.11981537482E+03  0.15494999251E+03  0.00000000000E+00 0.  1.
<mgrwt>
<rscale>  0 0.26283909E+04</rscale>
<asrwt>0</asrwt>
<pdfrwt beam="1">  1        1 0.15625254E+00 0.26283909E+04</pdfrwt>
<pdfrwt beam="2">  1       -1 0.26161711E+00 0.26283909E+04</pdfrwt>
<totfact> 0.75695588E-01</totfact>
</mgrwt>
</event>
<event>
12    1  0.1562393E-007  0.1895176E+04  0.7818608E-02  0.8657261E-01
         -2   -1    0    0    0  501 -0.00000000000E+00  0.00000000000E+00  0.12513563953E+04  0.12513563953E+04  0.00000000000E+00 0. -1.
          2   -1    0    0  501    0  0.00000000000E+00 -0.00000000000E+00 -0.71755974092E+03  0.71755974092E+03  0.00000000000E+00 0.  1.
         23    2    1    2    0    0  0.55745108416E+03 -0.49728152921E+03  0.36491013758E+03  0.83617101282E+03  0.89341612007E+02 0.  0.
        254    2    1    2    0    0 -0.55745108416E+03  0.49728152921E+03  0.16888651677E+03  0.11327451234E+04  0.83459464918E+03 0.  0.
        -24    2    4    4    0    0 -0.24143194817E+03  0.43853566152E+03  0.46524830008E+03  0.68810318709E+03  0.80169216898E+02 0.  0.
         24    2    4    4    0    0 -0.31601913600E+03  0.58745867688E+02 -0.29636178331E+03  0.44464193628E+03  0.80975141884E+02 0.  0.
         13    1    3    3    0    0  0.36952762766E+03 -0.31501467411E+03  0.28218686029E+03  0.56161760712E+03  0.00000000000E+00 0.  1.
        -13    1    3    3    0    0  0.18792345651E+03 -0.18226685510E+03  0.82723277287E+02  0.27455340570E+03  0.00000000000E+00 0. -1.
          4    1    6    6  502    0 -0.25473636005E+03  0.78220440323E+02 -0.24979419074E+03  0.36524811861E+03  0.00000000000E+00 0. -1.
          1    1    5    5  503    0 -0.21164712094E+03  0.40205340747E+03  0.38728370277E+03  0.59701768206E+03  0.00000000000E+00 0. -1.
         -2    1    5    5    0  503 -0.29784827226E+02  0.36482254054E+02  0.77964597308E+02  0.91085505033E+02  0.00000000000E+00 0.  1.
         -3    1    6    6    0  502 -0.61282775947E+02 -0.19474572635E+02 -0.46567592569E+02  0.79393817673E+02  0.00000000000E+00 0.  1.
<mgrwt>
<rscale>  0 0.18951760E+04</rscale>
<asrwt>0</asrwt>
<pdfrwt beam="1">  1        2 0.11039381E+00 0.18951760E+04</pdfrwt>
<pdfrwt beam="2">  1       -2 0.19251637E+00 0.18951760E+04</pdfrwt>
<totfact> 0.55421480E+00</totfact>
</mgrwt>
</event>
<event>
12    1  0.1562393E-007  0.2304427E+04  0.7818608E-02  0.8476178E-01
         -1   -1    0    0    0  501 -0.00000000000E+00  0.00000000000E+00  0.55349228071E+03  0.55349228071E+03  0.00000000000E+00 0.  1.
          1   -1    0    0  501    0  0.00000000000E+00 -0.00000000000E+00 -0.23985812924E+04  0.23985812924E+04  0.00000000000E+00 0. -1.
         23    2    1    2    0    0 -0.44057098192E+03 -0.38502301262E+03  0.21252549384E+03  0.62932963714E+03  0.92429412513E+02 0.  0.
        254    2    1    2    0    0  0.44057098192E+03  0.38502301262E+03 -0.20576145055E+04  0.23227439359E+04  0.90499526428E+03 0.  0.
        -24    2    4    4    0    0 -0.11650688734E+03  0.36779374229E+03 -0.14125058411E+04  0.14664538581E+04  0.80424344083E+02 0.  0.
         24    2    4    4    0    0  0.55707786925E+03  0.17229270328E+02 -0.64510866437E+03  0.85629007782E+03  0.80217880523E+02 0.  0.
         13    1    3    3    0    0 -0.19480591086E+03 -0.13234083073E+03  0.48064130050E+02  0.24036139245E+03  0.00000000000E+00 0. -1.
        -13    1    3    3    0    0 -0.24576507106E+03 -0.25268218190E+03  0.16446136379E+03  0.38896824469E+03  0.00000000000E+00 0.  1.
          2    1    6    6  502    0  0.16741764127E+03  0.35386562227E+02 -0.16527095950E+03  0.23789780463E+03  0.00000000000E+00 0. -1.
          3    1    5    5  503    0 -0.31482113478E+02  0.11803453233E+03 -0.59561926532E+03  0.60801774934E+03  0.00000000000E+00 0. -1.
         -4    1    5    5    0  503 -0.85024773858E+02  0.24975920996E+03 -0.81688657580E+03  0.85843610878E+03  0.00000000000E+00 0.  1.
         -1    1    6    6    0  502  0.38966022799E+03 -0.18157291898E+02 -0.47983770487E+03  0.61839227319E+03  0.00000000000E+00 0.  1.
<mgrwt>
<rscale>  0 0.23044272E+04</rscale>
<asrwt>0</asrwt>
<pdfrwt beam="1">  1        1 0.36901251E+00 0.23044272E+04</pdfrwt>
<pdfrwt beam="2">  1       -1 0.85152657E-01 0.23044272E+04</pdfrwt>
<totfact> 0.19616991E+00</totfact>
</mgrwt>
</event>
<event>
12    1  0.1562393E-007  0.1269638E+04  0.7818608E-02  0.9053995E-01
          1   -1    0    0  501    0  0.00000000000E+00  0.00000000000E+00  0.29135763569E+04  0.29135763569E+04  0.00000000000E+00 0. -1.
         -1   -1    0    0    0  501 -0.00000000000E+00 -0.00000000000E+00 -0.13831632974E+03  0.13831632974E+03  0.00000000000E+00 0.  1.
         23    2    1    2    0    0 -0.59099708246E+02  0.21668637036E+03  0.17832069581E+03  0.30041803934E+03  0.89481669581E+02 0.  0.
        254    2    1    2    0    0  0.59099708246E+02 -0.21668637036E+03  0.25969393314E+04  0.27514746474E+04  0.88095010386E+03 0.  0.
        -24    2    4    4    0    0 -0.25539561371E+03  0.91332264818E+02  0.19157221316E+04  0.19365062864E+04  0.80602788793E+02 0.  0.
         24    2    4    4    0    0  0.31449532196E+03 -0.30801863517E+03  0.68121719976E+03  0.81496836095E+03  0.79584979434E+02 0.  0.
         11    1    3    3    0    0 -0.75593371824E+02  0.18516774417E+03  0.17301046132E+03  0.26445050779E+03  0.00000000000E+00 0.  1.
        -11    1    3    3    0    0  0.16493663579E+02  0.31518626190E+02  0.53102344874E+01  0.35967531546E+02  0.00000000000E+00 0. -1.
          4    1    6    6  502    0  0.23300607234E+03 -0.20314013389E+03  0.53126400023E+03  0.61465370876E+03  0.00000000000E+00 0. -1.
          1    1    5    5  503    0 -0.39940894052E+01 -0.92162163143E+01  0.35690569515E+02  0.37077056863E+02  0.00000000000E+00 0. -1.
         -2    1    5    5    0  503 -0.25140152431E+03  0.10054848113E+03  0.18800315621E+04  0.18994292295E+04  0.00000000000E+00 0.  1.
         -3    1    6    6    0  502  0.81489249617E+02 -0.10487850129E+03  0.14995319953E+03  0.20031465220E+03  0.00000000000E+00 0.  1.
<mgrwt>
<rscale>  0 0.12696380E+04</rscale>
<asrwt>0</asrwt>
<pdfrwt beam="1">  1        1 0.44824247E+00 0.12696380E+04</pdfrwt>
<pdfrwt beam="2">  1       -1 0.21279438E-01 0.12696380E+04</pdfrwt>
<totfact> 0.12657196E+01</totfact>
</mgrwt>
</event>
<event>
12    1  0.1562393E-007  0.1888404E+04  0.7818608E-02  0.8660650E-01
          2   -1    0    0  501    0  0.00000000000E+00  0.00000000000E+00  0.14027874201E+04  0.14027874201E+04  0.00000000000E+00 0.  1.
         -2   -1    0    0    0  501 -0.00000000000E+00 -0.00000000000E+00 -0.63553276391E+03  0.63553276391E+03  0.00000000000E+00 0. -1.
         23    2    1    2    0    0 -0.34041307078E+03 -0.55817855351E+03  0.63469074644E+03  0.91572669666E+03  0.90987268312E+02 0.  0.
        254    2    1    2    0    0  0.34041307078E+03  0.55817855351E+03  0.13256390977E+03  0.11225934874E+04  0.90288348717E+03 0.  0.
        -24    2    4    4    0    0  0.59543082271E+03  0.34466542051E+03 -0.11297107674E+03  0.70166412546E+03  0.78980782803E+02 0.  0.
         24    2    4    4    0    0 -0.25501775193E+03  0.21351313299E+03  0.24553498651E+03  0.42092936192E+03  0.79197136119E+02 0.  0.
         13    1    3    3    0    0 -0.12968057815E+03 -0.15066741952E+03  0.22963701643E+03  0.30372830453E+03  0.00000000000E+00 0. -1.
        -13    1    3    3    0    0 -0.21073249262E+03 -0.40751113399E+03  0.40505373001E+03  0.61199839213E+03  0.00000000000E+00 0.  1.
          2    1    6    6  502    0 -0.83345529414E+02  0.64664030087E+02  0.12553156194E+03  0.16396977497E+03  0.00000000000E+00 0. -1.
          1    1    5    5  503    0  0.30082303795E+03  0.18325158344E+03 -0.97001644486E+02  0.36535593881E+03  0.00000000000E+00 0. -1.
         -2    1    5    5    0  503  0.29460778476E+03  0.16141383707E+03 -0.15969432252E+02  0.33630818665E+03  0.00000000000E+00 0.  1.
         -1    1    6    6    0  502 -0.17167222252E+03  0.14884910291E+03  0.12000342457E+03  0.25695958696E+03  0.00000000000E+00 0.  1.
<mgrwt>
<rscale>  0 0.18884039E+04</rscale>
<asrwt>0</asrwt>
<pdfrwt beam="1">  1        2 0.21581345E+00 0.18884039E+04</pdfrwt>
<pdfrwt beam="2">  1       -2 0.97774272E-01 0.18884039E+04</pdfrwt>
<totfact> 0.11775021E+01</totfact>
</mgrwt>
</event>
<event>
12    1  0.1562393E-007  0.1167205E+04  0.7818608E-02  0.9142057E-01
          2   -1    0    0  501    0  0.00000000000E+00  0.00000000000E+00  0.50062814544E+03  0.50062814544E+03  0.00000000000E+00 0. -1.
         -2   -1    0    0    0  501 -0.00000000000E+00 -0.00000000000E+00 -0.68032875890E+03  0.68032875890E+03  0.00000000000E+00 0.  1.
         23    2    1    2    0    0  0.55174348933E+02 -0.13489660171E+03  0.13037014569E+03  0.21497359076E+03  0.89308274548E+02 0.  0.
        254    2    1    2    0    0 -0.55174348933E+02  0.13489660171E+03 -0.31007075915E+03  0.96598331358E+03  0.90318247575E+03 0.  0.
        -24    2    4    4    0    0  0.21209260649E+03 -0.26882367181E+02 -0.52955657253E+03  0.57649289428E+03  0.78790597480E+02 0.  0.
         24    2    4    4    0    0 -0.26726695542E+03  0.16177896889E+03  0.21948581337E+03  0.38949041930E+03  0.76972100271E+02 0.  0.
         13    1    3    3    0    0 -0.19895087821E+02 -0.49693469510E+01  0.20494486878E+02  0.28991945794E+02  0.00000000000E+00 0.  1.
        -13    1    3    3    0    0  0.75069436754E+02 -0.12992725476E+03  0.10987565882E+03  0.18598164497E+03  0.00000000000E+00 0. -1.
          2    1    6    6  502    0 -0.86375351280E+01 -0.31630429907E+01 -0.39315500494E+01  0.10003446398E+02  0.00000000000E+00 0. -1.
          3    1    5    5  503    0  0.44127177854E+02 -0.29708330158E+02 -0.19504387331E+03  0.20216801236E+03  0.00000000000E+00 0. -1.
         -4    1    5    5    0  503  0.16796542864E+03  0.28259629766E+01 -0.33451269922E+03  0.37432488192E+03  0.00000000000E+00 0.  1.
         -1    1    6    6    0  502 -0.25862942029E+03  0.16494201188E+03  0.22341736342E+03  0.37948697291E+03  0.00000000000E+00 0.  1.
<mgrwt>
<rscale>  0 0.11672047E+04</rscale>
<asrwt>0</asrwt>
<pdfrwt beam="1">  1        2 0.77019715E-01 0.11672047E+04</pdfrwt>
<pdfrwt beam="2">  1       -2 0.10466596E+00 0.11672047E+04</pdfrwt>
<totfact> 0.45043095E+01</totfact>
</mgrwt>
</event>
<event>
12    1  0.1562393E-007  0.1874302E+04  0.7818608E-02  0.8667754E-01
         -2   -1    0    0    0  501 -0.00000000000E+00  0.00000000000E+00  0.21879786288E+03  0.21879786288E+03  0.00000000000E+00 0.  1.
          2   -1    0    0  501    0  0.00000000000E+00 -0.00000000000E+00 -0.40139898279E+04  0.40139898279E+04  0.00000000000E+00 0. -1.
         23    2    1    2    0    0  0.32825200358E+03  0.50761844012E+03 -0.21854473819E+04  0.22693407269E+04  0.91111015655E+02 0.  0.
        254    2    1    2    0    0 -0.32825200358E+03 -0.50761844012E+03 -0.16097445831E+04  0.19634469639E+04  0.94785046207E+03 0.  0.
        -24    2    4    4    0    0 -0.51950953565E+03 -0.45782666965E+03 -0.56530740649E+03  0.89751293868E+03  0.80384041907E+02 0.  0.
         24    2    4    4    0    0  0.19125753207E+03 -0.49791770467E+02 -0.10444371766E+04  0.10659340252E+04  0.79420816895E+02 0.  0.
         11    1    3    3    0    0  0.11745110277E+03  0.13966017461E+03 -0.53411896929E+03  0.56443139465E+03  0.00000000000E+00 0. -1.
        -11    1    3    3    0    0  0.21080090081E+03  0.36795826551E+03 -0.16513284126E+04  0.17049093323E+04  0.00000000000E+00 0.  1.
          4    1    6    6  502    0  0.17949628593E+03 -0.58644916935E+02 -0.83981478930E+03  0.86078279680E+03  0.00000000000E+00 0. -1.
          3    1    5    5  503    0 -0.49674878778E+03 -0.45467874629E+03 -0.53883069600E+03  0.86245616668E+03  0.00000000000E+00 0. -1.
         -4    1    5    5    0  503 -0.22760747867E+02 -0.31479233643E+01 -0.26476710487E+02  0.35056772002E+02  0.00000000000E+00 0.  1.
         -3    1    6    6    0  502  0.11761246140E+02  0.88531464680E+01 -0.20462238732E+03  0.20515122838E+03  0.00000000000E+00 0.  1.
<mgrwt>
<rscale>  0 0.18743024E+04</rscale>
<asrwt>0</asrwt>
<pdfrwt beam="1">  1        2 0.61753684E+00 0.18743024E+04</pdfrwt>
<pdfrwt beam="2">  1       -2 0.33661213E-01 0.18743024E+04</pdfrwt>
<totfact> 0.26156437E+00</totfact>
</mgrwt>
</event>
<event>
12    1  0.1562393E-007  0.1554566E+04  0.7818608E-02  0.8848957E-01
         -2   -1    0    0    0  501 -0.00000000000E+00  0.00000000000E+00  0.23914516176E+03  0.23914516176E+03  0.00000000000E+00 0.  1.
          2   -1    0    0  501    0  0.00000000000E+00 -0.00000000000E+00 -0.25263674602E+04  0.25263674602E+04  0.00000000000E+00 0. -1.
         23    2    1    2    0    0 -0.43106368576E+03  0.20885972798E+02 -0.12070939801E+04  0.12851003622E+04  0.90304702731E+02 0.  0.
        254    2    1    2    0    0  0.43106368576E+03 -0.20885972798E+02 -0.10801283184E+04  0.14804122597E+04  0.91580082416E+03 0.  0.
        -24    2    4    4    0    0 -0.19637377454E+03  0.15909537076E+03 -0.68979719337E+02  0.27418300626E+03  0.80895753393E+02 0.  0.
         24    2    4    4    0    0  0.62743746029E+03 -0.17998134355E+03 -0.10111485991E+04  0.12062292535E+04  0.80600694506E+02 0.  0.
         13    1    3    3    0    0 -0.35379721589E+03  0.45126903753E+02 -0.10391001630E+04  0.10986073258E+04  0.00000000000E+00 0. -1.
        -13    1    3    3    0    0 -0.77266469867E+02 -0.24240930956E+02 -0.16799381701E+03  0.18649303647E+03  0.00000000000E+00 0.  1.
          2    1    6    6  502    0  0.51380880186E+03 -0.17872929248E+03 -0.83041829212E+03  0.99274275859E+03  0.00000000000E+00 0. -1.
          1    1    5    5  503    0 -0.41711499652E+02  0.82959710839E+02 -0.20189746203E+02  0.95025200224E+02  0.00000000000E+00 0. -1.
         -2    1    5    5    0  503 -0.15466227489E+03  0.76135659917E+02 -0.48789973135E+02  0.17915780603E+03  0.00000000000E+00 0.  1.
         -1    1    6    6    0  502  0.11362865844E+03 -0.12520510738E+01 -0.18073030696E+03  0.21348649490E+03  0.00000000000E+00 0.  1.
<mgrwt>
<rscale>  0 0.15545656E+04</rscale>
<asrwt>0</asrwt>
<pdfrwt beam="1">  1        2 0.38867192E+00 0.15545656E+04</pdfrwt>
<pdfrwt beam="2">  1       -2 0.36791563E-01 0.15545656E+04</pdfrwt>
<totfact> 0.22561618E+01</totfact>
</mgrwt>
</event>
<event>
12    1  0.1562393E-007  0.1604197E+04  0.7818608E-02  0.8817974E-01
         -1   -1    0    0    0  501 -0.00000000000E+00  0.00000000000E+00  0.52272244800E+03  0.52272244800E+03  0.00000000000E+00 0. -1.
          1   -1    0    0  501    0  0.00000000000E+00 -0.00000000000E+00 -0.12307905387E+04  0.12307905387E+04  0.00000000000E+00 0.  1.
         23    2    1    2    0    0 -0.14233964464E+03  0.47869669425E+02 -0.81160837228E+03  0.83204394777E+03  0.10505665798E+03 0.  0.
        254    2    1    2    0    0  0.14233964464E+03 -0.47869669425E+02  0.10354028159E+03  0.92146903893E+03  0.90323447681E+03 0.  0.
        -24    2    4    4    0    0  0.38287211133E+03  0.11337353211E+03 -0.23379688637E+03  0.46942007076E+03  0.79054458032E+02 0.  0.
         24    2    4    4    0    0 -0.24053246670E+03 -0.16124320153E+03  0.33733716796E+03  0.45204896817E+03  0.81833166598E+02 0.  0.
         13    1    3    3    0    0 -0.79880011372E+02  0.79933890001E+02 -0.51074112592E+03  0.52309343400E+03  0.00000000000E+00 0.  1.
        -13    1    3    3    0    0 -0.62459633264E+02 -0.32064220576E+02 -0.30086724635E+03  0.30895051377E+03  0.00000000000E+00 0. -1.
          4    1    6    6  502    0 -0.14527348475E+03 -0.14238946890E+03  0.23898242525E+03  0.31383394623E+03  0.00000000000E+00 0. -1.
          1    1    5    5  503    0  0.32869423796E+03  0.12231643190E+03 -0.21504923140E+03  0.41139686862E+03  0.00000000000E+00 0. -1.
         -2    1    5    5    0  503  0.54177873373E+02 -0.89428997937E+01 -0.18747654972E+02  0.58023202142E+02  0.00000000000E+00 0.  1.
         -3    1    6    6    0  502 -0.95258981948E+02 -0.18853732630E+02  0.98354742711E+02  0.13821502194E+03  0.00000000000E+00 0.  1.
<mgrwt>
<rscale>  0 0.16041968E+04</rscale>
<asrwt>0</asrwt>
<pdfrwt beam="1">  1        1 0.18935239E+00 0.16041968E+04</pdfrwt>
<pdfrwt beam="2">  1       -1 0.80418839E-01 0.16041968E+04</pdfrwt>
<totfact> 0.15015451E+01</totfact>
</mgrwt>
</event>
<event>
12    1  0.1562393E-007  0.1827553E+04  0.7818608E-02  0.8691783E-01
          2   -1    0    0  501    0  0.00000000000E+00  0.00000000000E+00  0.11728839190E+04  0.11728839190E+04  0.00000000000E+00 0. -1.
         -2   -1    0    0    0  501 -0.00000000000E+00 -0.00000000000E+00 -0.71190995045E+03  0.71190995045E+03  0.00000000000E+00 0.  1.
         23    2    1    2    0    0  0.56185621937E+03 -0.21819412054E+03 -0.15902199303E+03  0.63015253263E+03  0.92266649606E+02 0.  0.
        254    2    1    2    0    0 -0.56185621937E+03  0.21819412054E+03  0.61999596159E+03  0.12546413368E+04  0.90908679796E+03 0.  0.
        -24    2    4    4    0    0 -0.27551661021E+03  0.55143355229E+03  0.23402816278E+03  0.66418450140E+03  0.79896844932E+02 0.  0.
         24    2    4    4    0    0 -0.28633960915E+03 -0.33323943175E+03  0.38596779881E+03  0.59045683543E+03  0.81420158140E+02 0.  0.
         11    1    3    3    0    0  0.53412822399E+03 -0.20054432690E+03 -0.17028804030E+03  0.59540658662E+03  0.00000000000E+00 0.  1.
        -11    1    3    3    0    0  0.27727995376E+02 -0.17649793638E+02  0.11266047272E+02  0.34745946011E+02  0.00000000000E+00 0. -1.
          4    1    6    6  502    0 -0.24729692323E+03 -0.29533538070E+03  0.36908751810E+03  0.53348322500E+03  0.00000000000E+00 0. -1.
          3    1    5    5  503    0 -0.15440459071E+03  0.25893160339E+03  0.78851946565E+02  0.31161511893E+03  0.00000000000E+00 0. -1.
         -4    1    5    5    0  503 -0.12111201950E+03  0.29250194890E+03  0.15517621621E+03  0.35256938247E+03  0.00000000000E+00 0.  1.
         -3    1    6    6    0  502 -0.39042685922E+02 -0.37904051044E+02  0.16880280710E+02  0.56973610438E+02  0.00000000000E+00 0.  1.
<mgrwt>
<rscale>  0 0.18275533E+04</rscale>
<asrwt>0</asrwt>
<pdfrwt beam="1">  1        2 0.18044368E+00 0.18275533E+04</pdfrwt>
<pdfrwt beam="2">  1       -2 0.10952461E+00 0.18275533E+04</pdfrwt>
<totfact> 0.12301328E+01</totfact>
</mgrwt>
</event>
<event>
12    1  0.1562393E-007  0.1581708E+04  0.7818608E-02  0.8831865E-01
         -2   -1    0    0    0  501 -0.00000000000E+00  0.00000000000E+00  0.14716002326E+04  0.14716002326E+04  0.00000000000E+00 0. -1.
          2   -1    0    0  501    0  0.00000000000E+00 -0.00000000000E+00 -0.42501336874E+03  0.42501336874E+03  0.00000000000E+00 0.  1.
         23    2    1    2    0    0  0.41008733951E+03  0.16283830048E+03  0.69103929115E+03  0.82529582772E+03  0.94286601401E+02 0.  0.
        254    2    1    2    0    0 -0.41008733951E+03 -0.16283830048E+03  0.35554757269E+03  0.10713177736E+04  0.90918631615E+03 0.  0.
        -24    2    4    4    0    0 -0.22057623614E+03  0.24099544121E+03 -0.16947711962E+03  0.37677359925E+03  0.80642249361E+02 0.  0.
         24    2    4    4    0    0 -0.18951110337E+03 -0.40383374169E+03  0.52502469231E+03  0.69454417436E+03  0.88003030489E+02 0.  0.
         13    1    3    3    0    0  0.41490204904E+03  0.16416898660E+03  0.68342994009E+03  0.81619338975E+03  0.00000000000E+00 0. -1.
        -13    1    3    3    0    0 -0.48147095284E+01 -0.13306861229E+01  0.76093510668E+01  0.91024379733E+01  0.00000000000E+00 0.  1.
          4    1    6    6  502    0 -0.18975408094E+03 -0.39313087674E+03  0.52628472015E+03  0.68376465552E+03  0.00000000000E+00 0. -1.
          1    1    5    5  503    0 -0.22052716731E+03  0.21427229852E+03 -0.14283253762E+03  0.33903684643E+03  0.00000000000E+00 0. -1.
         -2    1    5    5    0  503 -0.49068823018E-01  0.26723142694E+02 -0.26644581997E+02  0.37736752814E+02  0.00000000000E+00 0.  1.
         -3    1    6    6    0  502  0.24297756950E+00 -0.10702864953E+02 -0.12600278368E+01  0.10779518842E+02  0.00000000000E+00 0.  1.
<mgrwt>
<rscale>  0 0.15817076E+04</rscale>
<asrwt>0</asrwt>
<pdfrwt beam="1">  1        2 0.65386673E-01 0.15817076E+04</pdfrwt>
<pdfrwt beam="2">  1       -2 0.22640003E+00 0.15817076E+04</pdfrwt>
<totfact> 0.64167100E+00</totfact>
</mgrwt>
</event>
<event>
12    1  0.1562393E-007  0.2000651E+04  0.7818608E-02  0.8606316E-01
         -1   -1    0    0    0  501 -0.00000000000E+00  0.00000000000E+00  0.13060074182E+04  0.13060074182E+04  0.00000000000E+00 0.  1.
          1   -1    0    0  501    0  0.00000000000E+00 -0.00000000000E+00 -0.76619134347E+03  0.76619134347E+03  0.00000000000E+00 0. -1.
         23    2    1    2    0    0  0.28144258022E+03  0.51299912287E+03 -0.34265785354E+03  0.68421381039E+03  0.91411748247E+02 0.  0.
        254    2    1    2    0    0 -0.28144258022E+03 -0.51299912287E+03  0.88247392831E+03  0.13879849513E+04  0.89742072905E+03 0.  0.
        -24    2    4    4    0    0 -0.45771186800E+03 -0.34919395896E+03  0.13239633961E+03  0.59631637092E+03  0.81411598734E+02 0.  0.
         24    2    4    4    0    0  0.17626928777E+03 -0.16380516390E+03  0.75007758870E+03  0.79166858040E+03  0.78865446055E+02 0.  0.
         11    1    3    3    0    0  0.27487022774E+03  0.43960749238E+03 -0.29638076592E+03  0.59720176479E+03  0.00000000000E+00 0. -1.
        -11    1    3    3    0    0  0.65723524821E+01  0.73391630485E+02 -0.46277087615E+02  0.87012045606E+02  0.00000000000E+00 0.  1.
          4    1    6    6  502    0  0.15523526083E+03 -0.16857022071E+03  0.71122426117E+03  0.74723079112E+03  0.00000000000E+00 0. -1.
          3    1    5    5  503    0 -0.23025265800E+03 -0.18322421878E+03  0.26348457599E+02  0.29543466635E+03  0.00000000000E+00 0. -1.
         -4    1    5    5    0  503 -0.22745921000E+03 -0.16596974019E+03  0.10604788201E+03  0.30088170458E+03  0.00000000000E+00 0.  1.
         -3    1    6    6    0  502  0.21034026942E+02  0.47650568096E+01  0.38853327533E+02  0.44437789281E+02  0.00000000000E+00 0.  1.
<mgrwt>
<rscale>  0 0.20006515E+04</rscale>
<asrwt>0</asrwt>
<pdfrwt beam="1">  1        1 0.11787559E+00 0.20006515E+04</pdfrwt>
<pdfrwt beam="2">  1       -1 0.20092422E+00 0.20006515E+04</pdfrwt>
<totfact> 0.32579535E+00</totfact>
</mgrwt>
</event>
<event>
12    1  0.1562393E-007  0.1744013E+04  0.7818608E-02  0.8736653E-01
         -2   -1    0    0    0  501 -0.00000000000E+00  0.00000000000E+00  0.22079557043E+03  0.22079557043E+03  0.00000000000E+00 0. -1.
          2   -1    0    0  501    0  0.00000000000E+00 -0.00000000000E+00 -0.34438866789E+04  0.34438866789E+04  0.00000000000E+00 0.  1.
         23    2    1    2    0    0 -0.44070276183E+03  0.45026879987E+03 -0.13849967931E+04  0.15244425724E+04  0.93531403421E+02 0.  0.
        254    2    1    2    0    0  0.44070276183E+03 -0.45026879987E+03 -0.18380943153E+04  0.21402396768E+04  0.89725929685E+03 0.  0.
        -24    2    4    4    0    0  0.18486923392E+03 -0.18880468310E+03 -0.17282235120E+04  0.17500613570E+04  0.78322433615E+02 0.  0.
         24    2    4    4    0    0  0.25583352792E+03 -0.26146411677E+03 -0.10987080332E+03  0.39017831987E+03  0.79707273887E+02 0.  0.
         13    1    3    3    0    0 -0.64380497666E+02  0.61590307600E+02 -0.12790420993E+03  0.15587719971E+03  0.00000000000E+00 0. -1.
        -13    1    3    3    0    0 -0.37632226417E+03  0.38867849227E+03 -0.12570925831E+04  0.13685653727E+04  0.00000000000E+00 0.  1.
          2    1    6    6  502    0  0.19935045150E+03 -0.22978900273E+03 -0.11499138707E+03  0.32521778455E+03  0.00000000000E+00 0. -1.
          3    1    5    5  503    0  0.10046902735E+03 -0.53947017613E+02 -0.60862708600E+03  0.61921824584E+03  0.00000000000E+00 0. -1.
         -4    1    5    5    0  503  0.84400206567E+02 -0.13485766548E+03 -0.11195964260E+04  0.11308431111E+04  0.00000000000E+00 0.  1.
         -1    1    6    6    0  502  0.56483076414E+02 -0.31675114042E+02  0.51205837525E+01  0.64960535318E+02  0.00000000000E+00 0.  1.
<mgrwt>
<rscale>  0 0.17440125E+04</rscale>
<asrwt>0</asrwt>
<pdfrwt beam="1">  1        2 0.52982870E+00 0.17440125E+04</pdfrwt>
<pdfrwt beam="2">  1       -2 0.33968551E-01 0.17440125E+04</pdfrwt>
<totfact> 0.69001689E+00</totfact>
</mgrwt>
</event>
<event>
12    1  0.2070011E-007  0.1655276E+04  0.7818608E-02  0.8787292E-01
          2   -1    0    0  501    0  0.00000000000E+00  0.00000000000E+00  0.31065346854E+04  0.31065346854E+04  0.00000000000E+00 0. -1.
         -2   -1    0    0    0  501 -0.00000000000E+00 -0.00000000000E+00 -0.22049791618E+03  0.22049791618E+03  0.00000000000E+00 0.  1.
         23    2    1    2    0    0  0.10645045927E+03  0.27338109820E+03  0.23955939038E+02  0.31052868526E+03  0.98920433804E+02 0.  0.
        254    2    1    2    0    0 -0.10645045927E+03 -0.27338109820E+03  0.28620808302E+04  0.30165039163E+04  0.90648787832E+03 0.  0.
        -24    2    4    4    0    0  0.25775959186E+03 -0.17153241763E+03  0.34694381219E+03  0.47183893923E+03  0.79991238650E+02 0.  0.
         24    2    4    4    0    0 -0.36421005113E+03 -0.10184868057E+03  0.25151370180E+04  0.25446649771E+04  0.79896879030E+02 0.  0.
         13    1    3    3    0    0 -0.16915536580E+02  0.12624533170E+02  0.27095560984E+01  0.21280411410E+02  0.00000000000E+00 0. -1.
        -13    1    3    3    0    0  0.12336599585E+03  0.26075656503E+03  0.21246382939E+02  0.28924827385E+03  0.00000000000E+00 0.  1.
          2    1    6    6  502    0 -0.32597726960E+02 -0.16758727590E+02  0.12947124722E+03  0.13455954299E+03  0.00000000000E+00 0. -1.
          3    1    5    5  503    0  0.23183753507E+02 -0.23110475954E+02  0.81217861191E+02  0.87566668898E+02  0.00000000000E+00 0. -1.
         -4    1    5    5    0  503  0.23457583835E+03 -0.14842194167E+03  0.26572595100E+03  0.38427227033E+03  0.00000000000E+00 0.  1.
         -1    1    6    6    0  502 -0.33161232417E+03 -0.85089952984E+02  0.23856657708E+04  0.24101054341E+04  0.00000000000E+00 0.  1.
<mgrwt>
<rscale>  0 0.16552757E+04</rscale>
<asrwt>0</asrwt>
<pdfrwt beam="1">  1        2 0.47792838E+00 0.16552757E+04</pdfrwt>
<pdfrwt beam="2">  1       -2 0.33922758E-01 0.16552757E+04</pdfrwt>
<totfact> 0.11646991E+01</totfact>
</mgrwt>
</event>
<event>
12    1  0.1562393E-007  0.1973804E+04  0.7818608E-02  0.8618967E-01
         -1   -1    0    0    0  501 -0.00000000000E+00  0.00000000000E+00  0.66735048629E+03  0.66735048629E+03  0.00000000000E+00 0.  1.
          1   -1    0    0  501    0  0.00000000000E+00 -0.00000000000E+00 -0.14594664005E+04  0.14594664005E+04  0.00000000000E+00 0. -1.
         23    2    1    2    0    0  0.30957894103E+03 -0.22696352277E+03 -0.10504889057E+04  0.11222001548E+04  0.91949361880E+02 0.  0.
        254    2    1    2    0    0 -0.30957894103E+03  0.22696352277E+03  0.25837299148E+03  0.10046167320E+04  0.89170993827E+03 0.  0.
        -24    2    4    4    0    0 -0.20325523651E+03 -0.99460415424E+02  0.51572439515E+03  0.56879365324E+03  0.79683767487E+02 0.  0.
         24    2    4    4    0    0 -0.10632370452E+03  0.32642393819E+03 -0.25735140368E+03  0.43582307872E+03  0.76515968290E+02 0.  0.
         13    1    3    3    0    0  0.23494207701E+03 -0.21126038247E+03 -0.79212191279E+03  0.85281056130E+03  0.00000000000E+00 0. -1.
        -13    1    3    3    0    0  0.74636864024E+02 -0.15703140302E+02 -0.25836699287E+03  0.26938959351E+03  0.00000000000E+00 0.  1.
          2    1    6    6  502    0 -0.11039785659E+03  0.30434712063E+03 -0.21732073294E+03  0.38992711825E+03  0.00000000000E+00 0. -1.
          3    1    5    5  503    0 -0.49441228299E+02  0.74020915919E+01  0.14627666723E+03  0.15458360001E+03  0.00000000000E+00 0. -1.
         -4    1    5    5    0  503 -0.15381400821E+03 -0.10686250702E+03  0.36944772792E+03  0.41421005323E+03  0.00000000000E+00 0.  1.
         -1    1    6    6    0  502  0.40741520645E+01  0.22076817560E+02 -0.40030670733E+02  0.45895960476E+02  0.00000000000E+00 0.  1.
<mgrwt>
<rscale>  0 0.19738041E+04</rscale>
<asrwt>0</asrwt>
<pdfrwt beam="1">  1        1 0.22453329E+00 0.19738041E+04</pdfrwt>
<pdfrwt beam="2">  1       -1 0.10266931E+00 0.19738041E+04</pdfrwt>
<totfact> 0.58211676E+00</totfact>
</mgrwt>
</event>
<event>
12    1  0.1562393E-007  0.1585919E+04  0.7818608E-02  0.8829245E-01
          2   -1    0    0  501    0  0.00000000000E+00  0.00000000000E+00  0.21061569090E+04  0.21061569090E+04  0.00000000000E+00 0. -1.
         -2   -1    0    0    0  501 -0.00000000000E+00 -0.00000000000E+00 -0.29854612164E+03  0.29854612164E+03  0.00000000000E+00 0.  1.
         23    2    1    2    0    0 -0.95259667745E+02  0.52379990421E+03  0.63476829078E+03  0.83248127329E+03  0.81569255496E+02 0.  0.
        254    2    1    2    0    0  0.95259667745E+02 -0.52379990421E+03  0.11728424966E+04  0.15722217574E+04  0.90159912853E+03 0.  0.
        -24    2    4    4    0    0 -0.26531483037E+03 -0.13102032015E+03  0.28976151863E+02  0.30774765985E+03  0.79440048205E+02 0.  0.
         24    2    4    4    0    0  0.36057449812E+03 -0.39277958406E+03  0.11438663447E+04  0.12644740975E+04  0.78579630485E+02 0.  0.
         11    1    3    3    0    0 -0.74638228629E+02  0.50547452957E+03  0.59941669247E+03  0.78763934413E+03  0.00000000000E+00 0.  1.
        -11    1    3    3    0    0 -0.20621439116E+02  0.18325374640E+02  0.35351598312E+02  0.44841929153E+02  0.00000000000E+00 0. -1.
          2    1    6    6  502    0  0.32837457645E+03 -0.33194443986E+03  0.10382122956E+04  0.11383768025E+04  0.00000000000E+00 0. -1.
          3    1    5    5  503    0 -0.18051000352E+03 -0.57894835217E+02 -0.82416313190E+01  0.18974614041E+03  0.00000000000E+00 0. -1.
         -4    1    5    5    0  503 -0.84804826858E+02 -0.73125484936E+02  0.37217783182E+02  0.11800151944E+03  0.00000000000E+00 0.  1.
         -3    1    6    6    0  502  0.32199921670E+02 -0.60835144195E+02  0.10565404910E+03  0.12609729504E+03  0.00000000000E+00 0.  1.
<mgrwt>
<rscale>  0 0.15859193E+04</rscale>
<asrwt>0</asrwt>
<pdfrwt beam="1">  1        2 0.32402413E+00 0.15859193E+04</pdfrwt>
<pdfrwt beam="2">  1       -2 0.45930174E-01 0.15859193E+04</pdfrwt>
<totfact> 0.25165911E+01</totfact>
</mgrwt>
</event>
<event>
12    1  0.1562393E-007  0.1939815E+04  0.7818608E-02  0.8635288E-01
          2   -1    0    0  501    0  0.00000000000E+00  0.00000000000E+00  0.12249039096E+04  0.12249039096E+04  0.00000000000E+00 0. -1.
         -2   -1    0    0    0  501 -0.00000000000E+00 -0.00000000000E+00 -0.76799574466E+03  0.76799574466E+03  0.00000000000E+00 0.  1.
         23    2    1    2    0    0  0.45902649087E+03  0.60123911351E+03  0.21812445170E+03  0.79255397137E+03  0.91486229425E+02 0.  0.
        254    2    1    2    0    0 -0.45902649087E+03 -0.60123911351E+03  0.23878371326E+03  0.12003456829E+04  0.90089861018E+03 0.  0.
        -24    2    4    4    0    0  0.67699881310E+02  0.18990056591E+03  0.90674144773E+02  0.23515068734E+03  0.80178216266E+02 0.  0.
         24    2    4    4    0    0 -0.52672637218E+03 -0.79113967942E+03  0.14810956849E+03  0.96519499557E+03  0.79512714090E+02 0.  0.
         11    1    3    3    0    0  0.40536696765E+03  0.55325892679E+03  0.22076266518E+03  0.72052340203E+03  0.00000000000E+00 0.  1.
        -11    1    3    3    0    0  0.53659523218E+02  0.47980186717E+02 -0.26382134730E+01  0.72030569342E+02  0.00000000000E+00 0. -1.
          4    1    6    6  502    0 -0.22419410788E+03 -0.36347064243E+03  0.29449999440E+02  0.42806682700E+03  0.00000000000E+00 0. -1.
          1    1    5    5  503    0  0.19313140266E+02  0.88571965890E+00 -0.14449340893E+01  0.19387359819E+02  0.00000000000E+00 0. -1.
         -2    1    5    5    0  503  0.48386741044E+02  0.18901484625E+03  0.92119078863E+02  0.21576332752E+03  0.00000000000E+00 0.  1.
         -3    1    6    6    0  502 -0.30253226430E+03 -0.42766903699E+03  0.11865956905E+03  0.53712816857E+03  0.00000000000E+00 0.  1.
<mgrwt>
<rscale>  0 0.19398154E+04</rscale>
<asrwt>0</asrwt>
<pdfrwt beam="1">  1        2 0.18844676E+00 0.19398154E+04</pdfrwt>
<pdfrwt beam="2">  1       -2 0.11815319E+00 0.19398154E+04</pdfrwt>
<totfact> 0.94313309E+00</totfact>
</mgrwt>
</event>
<event>
12    1  0.1562393E-007  0.1577423E+04  0.7818608E-02  0.8834539E-01
          2   -1    0    0  501    0  0.00000000000E+00  0.00000000000E+00  0.39665364000E+03  0.39665364000E+03  0.00000000000E+00 0. -1.
         -2   -1    0    0    0  501 -0.00000000000E+00 -0.00000000000E+00 -0.15682850962E+04  0.15682850962E+04  0.00000000000E+00 0.  1.
         23    2    1    2    0    0  0.36677620831E+03 -0.72765872189E+02 -0.84640384069E+03  0.92973199806E+03  0.90456992747E+02 0.  0.
        254    2    1    2    0    0 -0.36677620831E+03  0.72765872189E+02 -0.32522761548E+03  0.10352067381E+04  0.90887861106E+03 0.  0.
        -24    2    4    4    0    0 -0.55931236320E+03  0.21451775746E+03  0.23404025743E+02  0.60481431494E+03  0.80027615504E+02 0.  0.
         24    2    4    4    0    0  0.19253615489E+03 -0.14175188527E+03 -0.34863164122E+03  0.43039242319E+03  0.80807479590E+02 0.  0.
         11    1    3    3    0    0  0.11625151285E+03 -0.66617733844E+02 -0.30620808066E+03  0.33423902430E+03  0.00000000000E+00 0. -1.
        -11    1    3    3    0    0  0.25052469546E+03 -0.61481383450E+01 -0.54019576004E+03  0.59549297376E+03  0.00000000000E+00 0.  1.
          2    1    6    6  502    0  0.12578728701E+03 -0.50237657921E+02 -0.22577111408E+03  0.26328475041E+03  0.00000000000E+00 0. -1.
          3    1    5    5  503    0 -0.78971738246E+02  0.38096559119E+01  0.13428551388E+02  0.80195853459E+02  0.00000000000E+00 0. -1.
         -4    1    5    5    0  503 -0.48034062495E+03  0.21070810154E+03  0.99754743547E+01  0.52461846148E+03  0.00000000000E+00 0.  1.
         -1    1    6    6    0  502  0.66748867879E+02 -0.91514227346E+02 -0.12286052714E+03  0.16710767277E+03  0.00000000000E+00 0.  1.
<mgrwt>
<rscale>  0 0.15774232E+04</rscale>
<asrwt>0</asrwt>
<pdfrwt beam="1">  1        2 0.61023637E-01 0.15774232E+04</pdfrwt>
<pdfrwt beam="2">  1       -2 0.24127463E+00 0.15774232E+04</pdfrwt>
<totfact> 0.56093046E+00</totfact>
</mgrwt>
</event>
<event>
12    1  0.1562393E-007  0.3584540E+04  0.7818608E-02  0.8094042E-01
         -2   -1    0    0    0  501 -0.00000000000E+00  0.00000000000E+00  0.14251396440E+04  0.14251396440E+04  0.00000000000E+00 0.  1.
          2   -1    0    0  501    0  0.00000000000E+00 -0.00000000000E+00 -0.22539772361E+04  0.22539772361E+04  0.00000000000E+00 0. -1.
         23    2    1    2    0    0  0.10537888903E+04 -0.10096062875E+04  0.48337648691E+03  0.15402519384E+04  0.94590297754E+02 0.  0.
        254    2    1    2    0    0 -0.10537888903E+04  0.10096062875E+04 -0.13122140790E+04  0.21388649418E+04  0.85033027048E+03 0.  0.
        -24    2    4    4    0    0 -0.43487430443E+03  0.47681966913E+03 -0.11219764072E+04  0.12967974588E+04  0.79874483909E+02 0.  0.
         24    2    4    4    0    0 -0.61891458587E+03  0.53278661840E+03 -0.19023767181E+03  0.84206748303E+03  0.77268550241E+02 0.  0.
         13    1    3    3    0    0  0.18987539513E+03 -0.21260328823E+03  0.62879277715E+02  0.29190174273E+03  0.00000000000E+00 0. -1.
        -13    1    3    3    0    0  0.86391349516E+03 -0.79700299931E+03  0.42049720920E+03  0.12483501956E+04  0.00000000000E+00 0.  1.
          2    1    6    6  502    0 -0.36628298500E+02  0.10993206987E+02 -0.12647072539E+02  0.40279415273E+02  0.00000000000E+00 0. -1.
          1    1    5    5  503    0 -0.24996124785E+02  0.58788253113E+02 -0.90862678511E+02  0.11107155939E+03  0.00000000000E+00 0. -1.
         -2    1    5    5    0  503 -0.40987817964E+03  0.41803141602E+03 -0.10311137287E+04  0.11857258994E+04  0.00000000000E+00 0.  1.
         -1    1    6    6    0  502 -0.58228628737E+03  0.52179341142E+03 -0.17759059927E+03  0.80178806776E+03  0.00000000000E+00 0.  1.
<mgrwt>
<rscale>  0 0.35845403E+04</rscale>
<asrwt>0</asrwt>
<pdfrwt beam="1">  1        2 0.34676573E+00 0.35845403E+04</pdfrwt>
<pdfrwt beam="2">  1       -2 0.21925225E+00 0.35845403E+04</pdfrwt>
<totfact> 0.39256282E-01</totfact>
</mgrwt>
</event>
<event>
12    1  0.1562393E-007  0.2580347E+04  0.7818608E-02  0.8374908E-01
         -1   -1    0    0    0  501 -0.00000000000E+00  0.00000000000E+00  0.86851812985E+03  0.86851812985E+03  0.00000000000E+00 0.  1.
          1   -1    0    0  501    0  0.00000000000E+00 -0.00000000000E+00 -0.19165371485E+04  0.19165371485E+04  0.00000000000E+00 0. -1.
         23    2    1    2    0    0 -0.57098768162E+03 -0.97407498586E+03 -0.51838738202E+03  0.12471331831E+04  0.10847436477E+03 0.  0.
        254    2    1    2    0    0  0.57098768162E+03  0.97407498586E+03 -0.52963163667E+03  0.15379220953E+04  0.89991426822E+03 0.  0.
        -24    2    4    4    0    0  0.44342945187E+03  0.10032376281E+04 -0.12629528414E+03  0.11076859747E+04  0.88894896415E+02 0.  0.
         24    2    4    4    0    0  0.12755822975E+03 -0.29162642217E+02 -0.40333635253E+03  0.43023612063E+03  0.72810332696E+02 0.  0.
         11    1    3    3    0    0 -0.53859481338E+03 -0.89811981208E+03 -0.44962803980E+03  0.11396793163E+04  0.00000000000E+00 0. -1.
        -11    1    3    3    0    0 -0.32392868243E+02 -0.75955173775E+02 -0.68759342225E+02  0.10745386675E+03  0.00000000000E+00 0.  1.
          4    1    6    6  502    0  0.11572390524E+03 -0.11281820271E+02 -0.25374922267E+03  0.27911999161E+03  0.00000000000E+00 0. -1.
          3    1    5    5  503    0  0.33814491581E+03  0.71930232595E+03 -0.55886862136E+02  0.79678175278E+03  0.00000000000E+00 0. -1.
         -4    1    5    5    0  503  0.10528453606E+03  0.28393530213E+03 -0.70408422003E+02  0.31090422193E+03  0.00000000000E+00 0.  1.
         -3    1    6    6    0  502  0.11834324510E+02 -0.17880821947E+02 -0.14958712986E+03  0.15111612902E+03  0.00000000000E+00 0.  1.
<mgrwt>
<rscale>  0 0.25803467E+04</rscale>
<asrwt>0</asrwt>
<pdfrwt beam="1">  1        1 0.29485187E+00 0.25803467E+04</pdfrwt>
<pdfrwt beam="2">  1       -1 0.13361817E+00 0.25803467E+04</pdfrwt>
<totfact> 0.14164982E+00</totfact>
</mgrwt>
</event>
<event>
12    1  0.1562393E-007  0.2995444E+04  0.7818608E-02  0.8245033E-01
         -2   -1    0    0    0  501 -0.00000000000E+00  0.00000000000E+00  0.10388868383E+04  0.10388868383E+04  0.00000000000E+00 0.  1.
          2   -1    0    0  501    0  0.00000000000E+00 -0.00000000000E+00 -0.21592071517E+04  0.21592071517E+04  0.00000000000E+00 0. -1.
         23    2    1    2    0    0  0.13057924662E+04 -0.76365887496E+02 -0.11375791975E+03  0.13158748119E+04  0.87521098110E+02 0.  0.
        254    2    1    2    0    0 -0.13057924662E+04  0.76365887496E+02 -0.10065623937E+04  0.18822191782E+04  0.90479581611E+03 0.  0.
        -24    2    4    4    0    0 -0.39898393467E+03 -0.12870570112E+02 -0.86541016940E+03  0.95659595468E+03  0.82384631475E+02 0.  0.
         24    2    4    4    0    0 -0.90680853154E+03  0.89236457609E+02 -0.14115222426E+03  0.92562322352E+03  0.81176001732E+02 0.  0.
         11    1    3    3    0    0  0.19589614301E+03 -0.77577538451E+01  0.13979319910E+02  0.19654745731E+03  0.00000000000E+00 0. -1.
        -11    1    3    3    0    0  0.11098963232E+04 -0.68608133651E+02 -0.12773723966E+03  0.11193273546E+04  0.00000000000E+00 0.  1.
          4    1    6    6  502    0 -0.50718642751E+03  0.82659535739E+02 -0.10330593056E+03  0.52415912316E+03  0.00000000000E+00 0. -1.
          1    1    5    5  503    0 -0.93833211376E+02 -0.36799121546E+02 -0.19051219621E+03  0.21553130587E+03  0.00000000000E+00 0. -1.
         -2    1    5    5    0  503 -0.30515072329E+03  0.23928551433E+02 -0.67489797319E+03  0.74106464881E+03  0.00000000000E+00 0.  1.
         -1    1    6    6    0  502 -0.39962210403E+03  0.65769218695E+01 -0.37846293705E+02  0.40146410036E+03  0.00000000000E+00 0.  1.
<mgrwt>
<rscale>  0 0.29954445E+04</rscale>
<asrwt>0</asrwt>
<pdfrwt beam="1">  1        2 0.33218571E+00 0.29954445E+04</pdfrwt>
<pdfrwt beam="2">  1       -2 0.15982875E+00 0.29954445E+04</pdfrwt>
<totfact> 0.11776894E+00</totfact>
</mgrwt>
</event>
<event>
12    1  0.1562393E-007  0.1772029E+04  0.7818608E-02  0.8721317E-01
         -1   -1    0    0    0  501 -0.00000000000E+00  0.00000000000E+00  0.64173450600E+03  0.64173450600E+03  0.00000000000E+00 0.  1.
          1   -1    0    0  501    0  0.00000000000E+00 -0.00000000000E+00 -0.12232804770E+04  0.12232804770E+04  0.00000000000E+00 0. -1.
         23    2    1    2    0    0  0.15054111692E+03  0.56324865664E+03 -0.53109282076E+03  0.79425895589E+03  0.94212672516E+02 0.  0.
        254    2    1    2    0    0 -0.15054111692E+03 -0.56324865664E+03 -0.50453150202E+02  0.10707560271E+04  0.89669463702E+03 0.  0.
        -24    2    4    4    0    0 -0.13551708133E+01 -0.18231670074E+03 -0.45089552302E+03  0.49273745448E+03  0.79007661099E+02 0.  0.
         24    2    4    4    0    0 -0.14918594610E+03 -0.38093195590E+03  0.40044237281E+03  0.57801857259E+03  0.79911042908E+02 0.  0.
         11    1    3    3    0    0 -0.40394918704E+01 -0.12470594428E+01 -0.47313193725E+00  0.42539987841E+01  0.00000000000E+00 0.  1.
        -11    1    3    3    0    0  0.15458060879E+03  0.56449571608E+03 -0.53061968883E+03  0.79000495711E+03  0.00000000000E+00 0. -1.
          2    1    6    6  502    0 -0.34423081270E+01  0.27490194615E+01 -0.27000952722E+00  0.44135584719E+01  0.00000000000E+00 0. -1.
          1    1    5    5  503    0 -0.55696953721E+01  0.11416051091E+01 -0.66961583467E+02  0.67202518027E+02  0.00000000000E+00 0. -1.
         -2    1    5    5    0  503  0.42145245588E+01 -0.18345830585E+03 -0.38393393955E+03  0.42553493645E+03  0.00000000000E+00 0.  1.
         -1    1    6    6    0  502 -0.14574363798E+03 -0.38368097536E+03  0.40071238234E+03  0.57360501412E+03  0.00000000000E+00 0.  1.
<mgrwt>
<rscale>  0 0.17720285E+04</rscale>
<asrwt>0</asrwt>
<pdfrwt beam="1">  1        1 0.18819699E+00 0.17720285E+04</pdfrwt>
<pdfrwt beam="2">  1       -1 0.98728387E-01 0.17720285E+04</pdfrwt>
<totfact> 0.95392305E+00</totfact>
</mgrwt>
</event>
<event>
12    1  0.1562393E-007  0.1215587E+04  0.7818608E-02  0.9099322E-01
         -2   -1    0    0    0  501 -0.00000000000E+00  0.00000000000E+00  0.64083239840E+03  0.64083239840E+03  0.00000000000E+00 0.  1.
          2   -1    0    0  501    0  0.00000000000E+00 -0.00000000000E+00 -0.57645753420E+03  0.57645753420E+03  0.00000000000E+00 0. -1.
         23    2    1    2    0    0  0.95738497787E+02 -0.70096283912E+02 -0.21673277290E+03  0.26239860498E+03  0.88320915266E+02 0.  0.
        254    2    1    2    0    0 -0.95738497787E+02  0.70096283912E+02  0.28110763709E+03  0.95489132762E+03  0.90482959443E+03 0.  0.
        -24    2    4    4    0    0 -0.84933676127E+02 -0.38457003428E+03  0.28553740043E+03  0.49305491740E+03  0.80397163683E+02 0.  0.
         24    2    4    4    0    0 -0.10804821660E+02  0.45466631819E+03 -0.44297633310E+01  0.46183641022E+03  0.80218713122E+02 0.  0.
         13    1    3    3    0    0  0.88349760227E+02 -0.38745763043E+02 -0.20759801721E+03  0.22891887436E+03  0.00000000000E+00 0. -1.
        -13    1    3    3    0    0  0.73887375599E+01 -0.31350520869E+02 -0.91347556831E+01  0.33479730627E+02  0.00000000000E+00 0.  1.
          4    1    6    6  502    0  0.10847825886E+02  0.57019384949E+01 -0.14476953940E+01  0.12340310004E+02  0.00000000000E+00 0. -1.
          3    1    5    5  503    0  0.15237942497E+01 -0.78273032897E+02  0.91007793802E+02  0.12004752459E+03  0.00000000000E+00 0. -1.
         -4    1    5    5    0  503 -0.86457470377E+02 -0.30629700138E+03  0.19452960662E+03  0.37300739281E+03  0.00000000000E+00 0.  1.
         -3    1    6    6    0  502 -0.21652647546E+02  0.44896437969E+03 -0.29820679370E+01  0.44949610021E+03  0.00000000000E+00 0.  1.
<mgrwt>
<rscale>  0 0.12155865E+04</rscale>
<asrwt>0</asrwt>
<pdfrwt beam="1">  1        2 0.88685774E-01 0.12155865E+04</pdfrwt>
<pdfrwt beam="2">  1       -2 0.98589600E-01 0.12155865E+04</pdfrwt>
<totfact> 0.43840063E+01</totfact>
</mgrwt>
</event>
<event>
12    1  0.1721487E-007  0.2335822E+04  0.7818608E-02  0.8463930E-01
         -1   -1    0    0    0  501 -0.00000000000E+00  0.00000000000E+00  0.95910324268E+03  0.95910324268E+03  0.00000000000E+00 0.  1.
          1   -1    0    0  501    0  0.00000000000E+00 -0.00000000000E+00 -0.14221781667E+04  0.14221781667E+04  0.00000000000E+00 0. -1.
         23    2    1    2    0    0 -0.16774284133E+03 -0.90499115165E+03  0.98178734460E+02  0.93182647552E+03  0.10730736786E+03 0.  0.
        254    2    1    2    0    0  0.16774284133E+03  0.90499115165E+03 -0.56125365846E+03  0.14494549338E+04  0.96890004165E+03 0.  0.
        -24    2    4    4    0    0  0.12727990689E+03  0.60099531922E+03 -0.82878484827E+03  0.10348682440E+04  0.81684816395E+02 0.  0.
         24    2    4    4    0    0  0.40462934440E+02  0.30399583242E+03  0.26753118981E+03  0.41458668987E+03  0.79110496800E+02 0.  0.
         13    1    3    3    0    0 -0.16185406987E+03 -0.84679708236E+03  0.11778812830E+03  0.87013566861E+03  0.00000000000E+00 0.  1.
        -13    1    3    3    0    0 -0.58887714584E+01 -0.58194069290E+02 -0.19609393840E+02  0.61690806905E+02  0.00000000000E+00 0. -1.
          4    1    6    6  502    0  0.53033198010E+02  0.20940242028E+03  0.21869423641E+03  0.30739073302E+03  0.00000000000E+00 0. -1.
          3    1    5    5  503    0  0.13538650658E+03  0.57995792086E+03 -0.81084228572E+03  0.10060546250E+04  0.00000000000E+00 0. -1.
         -4    1    5    5    0  503 -0.81065996897E+01  0.21037398359E+02 -0.17942562545E+02  0.28813618984E+02  0.00000000000E+00 0.  1.
         -3    1    6    6    0  502 -0.12570263570E+02  0.94593412143E+02  0.48836953398E+02  0.10719595685E+03  0.00000000000E+00 0.  1.
<mgrwt>
<rscale>  0 0.23358216E+04</rscale>
<asrwt>0</asrwt>
<pdfrwt beam="1">  1        1 0.21879664E+00 0.23358216E+04</pdfrwt>
<pdfrwt beam="2">  1       -1 0.14755435E+00 0.23358216E+04</pdfrwt>
<totfact> 0.24358722E+00</totfact>
</mgrwt>
</event>
<event>
12    1  0.2449204E-007  0.1770728E+04  0.7818608E-02  0.8722023E-01
          2   -1    0    0  501    0  0.00000000000E+00  0.00000000000E+00  0.85392008819E+03  0.85392008819E+03  0.00000000000E+00 0. -1.
         -2   -1    0    0    0  501 -0.00000000000E+00 -0.00000000000E+00 -0.91796541415E+03  0.91796541415E+03  0.00000000000E+00 0.  1.
         23    2    1    2    0    0 -0.31803213162E+03  0.55178809554E+03 -0.18473482423E+03  0.66785088903E+03  0.79267367625E+02 0.  0.
        254    2    1    2    0    0  0.31803213162E+03 -0.55178809554E+03  0.12068949828E+03  0.11040346133E+04  0.89370684974E+03 0.  0.
        -24    2    4    4    0    0  0.35144235409E+03 -0.44783771611E+03 -0.30977191035E+03  0.65309076346E+03  0.80613650582E+02 0.  0.
         24    2    4    4    0    0 -0.33410222473E+02 -0.10395037943E+03  0.43046140862E+03  0.45094384985E+03  0.78303301673E+02 0.  0.
         13    1    3    3    0    0 -0.30246265419E+03  0.50057257431E+03 -0.14915697869E+03  0.60357631135E+03  0.00000000000E+00 0. -1.
        -13    1    3    3    0    0 -0.15569477424E+02  0.51215521232E+02 -0.35577845539E+02  0.64274577676E+02  0.00000000000E+00 0.  1.
          2    1    6    6  502    0  0.31038798864E+01  0.67172092951E+01  0.31772333264E+01  0.80529362766E+01  0.00000000000E+00 0. -1.
          1    1    5    5  503    0  0.69120715415E+01 -0.41885517424E+02 -0.25232202766E+02  0.49384586252E+02  0.00000000000E+00 0. -1.
         -2    1    5    5    0  503  0.34453028255E+03 -0.40595219869E+03 -0.28453970758E+03  0.60370617721E+03  0.00000000000E+00 0.  1.
         -1    1    6    6    0  502 -0.36514102360E+02 -0.11066758873E+03  0.42728417530E+03  0.44289091357E+03  0.00000000000E+00 0.  1.
<mgrwt>
<rscale>  0 0.17707277E+04</rscale>
<asrwt>0</asrwt>
<pdfrwt beam="1">  1        2 0.13137232E+00 0.17707277E+04</pdfrwt>
<pdfrwt beam="2">  1       -2 0.14122545E+00 0.17707277E+04</pdfrwt>
<totfact> 0.10475980E+01</totfact>
</mgrwt>
</event>
<event>
12    1  0.1562393E-007  0.1564974E+04  0.7818608E-02  0.8842360E-01
         -2   -1    0    0    0  501 -0.00000000000E+00  0.00000000000E+00  0.29144725447E+03  0.29144725447E+03  0.00000000000E+00 0. -1.
          2   -1    0    0  501    0  0.00000000000E+00 -0.00000000000E+00 -0.21008459637E+04  0.21008459637E+04  0.00000000000E+00 0.  1.
         23    2    1    2    0    0  0.27269647689E+03  0.26074940135E+03 -0.11593029611E+04  0.12225179164E+04  0.90626053174E+02 0.  0.
        254    2    1    2    0    0 -0.27269647689E+03 -0.26074940135E+03 -0.65009574817E+03  0.11697753018E+04  0.89632368935E+03 0.  0.
        -24    2    4    4    0    0 -0.34573378867E+03  0.17016382877E+03 -0.13815628232E+02  0.39359003807E+03  0.78959896363E+02 0.  0.
         24    2    4    4    0    0  0.73037311778E+02 -0.43091323012E+03 -0.63628011994E+03  0.77618526373E+03  0.81181967211E+02 0.  0.
         13    1    3    3    0    0  0.21652601502E+03  0.16851563370E+03 -0.91857640436E+03  0.95867807142E+03  0.00000000000E+00 0.  1.
        -13    1    3    3    0    0  0.56170461868E+02  0.92233767648E+02 -0.24072655671E+03  0.26383984495E+03  0.00000000000E+00 0. -1.
          4    1    6    6  502    0 -0.79835410924E+01 -0.37709139262E+01 -0.21213045894E+02  0.22977163365E+02  0.00000000000E+00 0. -1.
          1    1    5    5  503    0 -0.10964432994E+03  0.54568234692E+02  0.32405813411E+02  0.12668744243E+03  0.00000000000E+00 0. -1.
         -2    1    5    5    0  503 -0.23608945872E+03  0.11559559408E+03 -0.46221441643E+02  0.26690259564E+03  0.00000000000E+00 0.  1.
         -3    1    6    6    0  502  0.81020852870E+02 -0.42714231619E+03 -0.61506707405E+03  0.75320810037E+03  0.00000000000E+00 0.  1.
<mgrwt>
<rscale>  0 0.15649739E+04</rscale>
<asrwt>0</asrwt>
<pdfrwt beam="1">  1        2 0.32320708E+00 0.15649739E+04</pdfrwt>
<pdfrwt beam="2">  1       -2 0.44838038E-01 0.15649739E+04</pdfrwt>
<totfact> 0.26634895E+01</totfact>
</mgrwt>
</event>
<event>
12    1  0.1562393E-007  0.1436076E+04  0.7818608E-02  0.8928111E-01
          1   -1    0    0  501    0  0.00000000000E+00  0.00000000000E+00  0.12037138021E+04  0.12037138021E+04  0.00000000000E+00 0. -1.
         -1   -1    0    0    0  501 -0.00000000000E+00 -0.00000000000E+00 -0.42832322879E+03  0.42832322879E+03  0.00000000000E+00 0.  1.
         23    2    1    2    0    0 -0.74150018054E+02 -0.34877363798E+03  0.51757090252E+02  0.37188403762E+03  0.92074238080E+02 0.  0.
        254    2    1    2    0    0  0.74150018054E+02  0.34877363798E+03  0.72363348302E+03  0.12601529932E+04  0.96809032268E+03 0.  0.
        -24    2    4    4    0    0  0.23392525565E+03  0.54416061144E+02  0.85490385581E+03  0.89171722217E+03  0.81344137466E+02 0.  0.
         24    2    4    4    0    0 -0.15977523760E+03  0.29435757684E+03 -0.13127037278E+03  0.36843577106E+03  0.79614678511E+02 0.  0.
         11    1    3    3    0    0 -0.32838783135E+02 -0.13184433888E+03  0.65080700536E+02  0.15065461478E+03  0.00000000000E+00 0. -1.
        -11    1    3    3    0    0 -0.41311234920E+02 -0.21692929910E+03 -0.13323610285E+02  0.22122942284E+03  0.00000000000E+00 0.  1.
          4    1    6    6  502    0 -0.34692485141E+02  0.67378550294E+02  0.43931004941E+01  0.75912692595E+02  0.00000000000E+00 0. -1.
          3    1    5    5  503    0  0.88796186355E+01 -0.15399944538E+02  0.52122289801E+02  0.55070309723E+02  0.00000000000E+00 0. -1.
         -4    1    5    5    0  503  0.22504563702E+03  0.69816005682E+02  0.80278156601E+03  0.83664691245E+03  0.00000000000E+00 0.  1.
         -3    1    6    6    0  502 -0.12508275246E+03  0.22697902654E+03 -0.13566347328E+03  0.29252307846E+03  0.00000000000E+00 0.  1.
<mgrwt>
<rscale>  0 0.14360760E+04</rscale>
<asrwt>0</asrwt>
<pdfrwt beam="1">  1        1 0.18518674E+00 0.14360760E+04</pdfrwt>
<pdfrwt beam="2">  1       -1 0.65895882E-01 0.14360760E+04</pdfrwt>
<totfact> 0.24100184E+01</totfact>
</mgrwt>
</event>
<event>
12    1  0.1647676E-007  0.1753760E+04  0.7818608E-02  0.8731283E-01
         -2   -1    0    0    0  501 -0.00000000000E+00  0.00000000000E+00  0.39395622755E+03  0.39395622755E+03  0.00000000000E+00 0.  1.
          2   -1    0    0  501    0  0.00000000000E+00 -0.00000000000E+00 -0.19517867317E+04  0.19517867317E+04  0.00000000000E+00 0. -1.
         23    2    1    2    0    0 -0.60981640374E+03 -0.12892033019E+03 -0.74268907052E+03  0.97412854301E+03  0.94036509002E+02 0.  0.
        254    2    1    2    0    0  0.60981640374E+03  0.12892033019E+03 -0.81514143366E+03  0.13716144163E+04  0.91015056570E+03 0.  0.
        -24    2    4    4    0    0 -0.89140997631E+02 -0.19958242221E+03  0.17624737324E+02  0.23306628962E+03  0.78930369788E+02 0.  0.
         24    2    4    4    0    0  0.69895740137E+03  0.32850275240E+03 -0.83276617098E+03  0.11385481267E+04  0.79604232951E+02 0.  0.
         11    1    3    3    0    0 -0.40980074782E+03 -0.10730077396E+03 -0.56158414124E+03  0.70343930562E+03  0.00000000000E+00 0. -1.
        -11    1    3    3    0    0 -0.20001565592E+03 -0.21619556222E+02 -0.18110492928E+03  0.27068923739E+03  0.00000000000E+00 0.  1.
          2    1    6    6  502    0  0.80953080012E+02  0.14200669647E+02 -0.10562380528E+03  0.13383365953E+03  0.00000000000E+00 0. -1.
          3    1    5    5  503    0 -0.12045798188E+02  0.53757380258E+01  0.34235770213E+01  0.13627937956E+02  0.00000000000E+00 0. -1.
         -4    1    5    5    0  503 -0.77095199443E+02 -0.20495816024E+03  0.14201160302E+02  0.21943835166E+03  0.00000000000E+00 0.  1.
         -1    1    6    6    0  502  0.61800432136E+03  0.31430208275E+03 -0.72714236571E+03  0.10047144671E+04  0.00000000000E+00 0.  1.
<mgrwt>
<rscale>  0 0.17537600E+04</rscale>
<asrwt>0</asrwt>
<pdfrwt beam="1">  1        2 0.30027489E+00 0.17537600E+04</pdfrwt>
<pdfrwt beam="2">  1       -2 0.60608650E-01 0.17537600E+04</pdfrwt>
<totfact> 0.17071230E+01</totfact>
</mgrwt>
</event>
<event>
12    1  0.1562393E-007  0.2363492E+04  0.7818608E-02  0.8453299E-01
         -3   -1    0    0    0  501 -0.00000000000E+00  0.00000000000E+00  0.73791139803E+03  0.73791139803E+03  0.00000000000E+00 0.  1.
          3   -1    0    0  501    0  0.00000000000E+00 -0.00000000000E+00 -0.18925361638E+04  0.18925361638E+04  0.00000000000E+00 0. -1.
         23    2    1    2    0    0 -0.70538743660E+03 -0.51261322790E+03 -0.10579634598E+04  0.13740083744E+04  0.90931696652E+02 0.  0.
        254    2    1    2    0    0  0.70538743660E+03  0.51261322790E+03 -0.96661305946E+02  0.12564391874E+04  0.89941773750E+03 0.  0.
        -24    2    4    4    0    0 -0.16711567377E+03  0.40807995922E+02 -0.17561283806E+03  0.25870681739E+03  0.80600294778E+02 0.  0.
         24    2    4    4    0    0  0.87250311037E+03  0.47180523198E+03  0.78951532116E+02  0.99773237005E+03  0.73312231511E+02 0.  0.
         13    1    3    3    0    0 -0.18508814030E+03 -0.13601833747E+03 -0.21853066908E+03  0.31703984156E+03  0.00000000000E+00 0.  1.
        -13    1    3    3    0    0 -0.52029929629E+03 -0.37659489043E+03 -0.83943279074E+03  0.10569685328E+04  0.00000000000E+00 0. -1.
          2    1    6    6  502    0  0.32982641703E+03  0.16305891588E+03 -0.35422778306E+01  0.36794866918E+03  0.00000000000E+00 0. -1.
          3    1    5    5  503    0 -0.32168132548E+02 -0.17820383574E+02 -0.12035140914E+02  0.38693661486E+02  0.00000000000E+00 0. -1.
         -4    1    5    5    0  503 -0.13494754123E+03  0.58628379497E+02 -0.16357769715E+03  0.22001315590E+03  0.00000000000E+00 0.  1.
         -1    1    6    6    0  502  0.54267669334E+03  0.30874631610E+03  0.82493809947E+02  0.62978370087E+03  0.00000000000E+00 0.  1.
<mgrwt>
<rscale>  0 0.23634923E+04</rscale>
<asrwt>0</asrwt>
<pdfrwt beam="1">  1        3 0.29115940E+00 0.23634923E+04</pdfrwt>
<pdfrwt beam="2">  1       -3 0.11352483E+00 0.23634923E+04</pdfrwt>
<totfact> 0.65837695E-02</totfact>
</mgrwt>
</event>
<event>
12    1  0.1562393E-007  0.1253249E+04  0.7818608E-02  0.9067484E-01
         -2   -1    0    0    0  501 -0.00000000000E+00  0.00000000000E+00  0.38651415913E+03  0.38651415913E+03  0.00000000000E+00 0.  1.
          2   -1    0    0  501    0  0.00000000000E+00 -0.00000000000E+00 -0.10158954272E+04  0.10158954272E+04  0.00000000000E+00 0. -1.
         23    2    1    2    0    0  0.56653313734E+02  0.14511513920E+03 -0.41696216496E+03  0.45327445510E+03  0.85628751337E+02 0.  0.
        254    2    1    2    0    0 -0.56653313734E+02 -0.14511513920E+03 -0.21241910315E+03  0.94913513128E+03  0.91184846354E+03 0.  0.
        -24    2    4    4    0    0 -0.29080055483E+03 -0.44428403046E+03 -0.11854082957E+03  0.54983211123E+03  0.79436514559E+02 0.  0.
         24    2    4    4    0    0  0.23414724110E+03  0.29916889126E+03 -0.93878273579E+02  0.39930302005E+03  0.79390273698E+02 0.  0.
         11    1    3    3    0    0  0.10445400229E+02  0.72848791709E+02 -0.95508605303E+02  0.12057340721E+03  0.00000000000E+00 0.  1.
        -11    1    3    3    0    0  0.46207913504E+02  0.72266347490E+02 -0.32145355966E+03  0.33270104789E+03  0.00000000000E+00 0. -1.
          2    1    6    6  502    0  0.13302937356E+03  0.21970859345E+03 -0.40302942684E+02  0.25998655245E+03  0.00000000000E+00 0. -1.
          3    1    5    5  503    0 -0.37490272628E+02 -0.97176449985E+02 -0.46747526049E+02  0.11416704500E+03  0.00000000000E+00 0. -1.
         -4    1    5    5    0  503 -0.25331028220E+03 -0.34710758048E+03 -0.71793303524E+02  0.43566506622E+03  0.00000000000E+00 0.  1.
         -1    1    6    6    0  502  0.10111786754E+03  0.79460297813E+02 -0.53575330895E+02  0.13931646760E+03  0.00000000000E+00 0.  1.
<mgrwt>
<rscale>  0 0.12532485E+04</rscale>
<asrwt>0</asrwt>
<pdfrwt beam="1">  1        2 0.15629161E+00 0.12532485E+04</pdfrwt>
<pdfrwt beam="2">  1       -2 0.59463716E-01 0.12532485E+04</pdfrwt>
<totfact> 0.63865634E+01</totfact>
</mgrwt>
</event>
<event>
12    1  0.1562393E-007  0.1632352E+04  0.7818608E-02  0.8800916E-01
          2   -1    0    0  501    0  0.00000000000E+00  0.00000000000E+00  0.15371607306E+04  0.15371607306E+04  0.00000000000E+00 0. -1.
         -2   -1    0    0    0  501 -0.00000000000E+00 -0.00000000000E+00 -0.43335978340E+03  0.43335978340E+03  0.00000000000E+00 0.  1.
         23    2    1    2    0    0  0.22953447704E+03  0.35863816324E+03  0.77871586803E+03  0.89267943923E+03  0.95764136414E+02 0.  0.
        254    2    1    2    0    0 -0.22953447704E+03 -0.35863816324E+03  0.32508507913E+03  0.10778410747E+04  0.93528266606E+03 0.  0.
        -24    2    4    4    0    0  0.18561810509E+03 -0.19146171960E+03  0.51447883654E+03  0.58504420821E+03  0.80477209857E+02 0.  0.
         24    2    4    4    0    0 -0.41515258213E+03 -0.16717644365E+03 -0.18939375741E+03  0.49279686652E+03  0.81725923329E+02 0.  0.
         13    1    3    3    0    0  0.36487092371E+02  0.12415104910E+02  0.92286009329E+02  0.10001075071E+03  0.00000000000E+00 0.  1.
        -13    1    3    3    0    0  0.19304738467E+03  0.34622305833E+03  0.68642985870E+03  0.79266868852E+03  0.00000000000E+00 0. -1.
          4    1    6    6  502    0 -0.33792988472E+03 -0.16571458233E+03 -0.14255179987E+03  0.40246607985E+03  0.00000000000E+00 0. -1.
          3    1    5    5  503    0  0.17149128106E+03 -0.13013289262E+03  0.38573856514E+03  0.44174434898E+03  0.00000000000E+00 0. -1.
         -4    1    5    5    0  503  0.14126824034E+02 -0.61328826975E+02  0.12874027140E+03  0.14329985923E+03  0.00000000000E+00 0.  1.
         -3    1    6    6    0  502 -0.77222697409E+02 -0.14618613161E+01 -0.46841957540E+02  0.90330786666E+02  0.00000000000E+00 0.  1.
<mgrwt>
<rscale>  0 0.16323525E+04</rscale>
<asrwt>0</asrwt>
<pdfrwt beam="1">  1        2 0.23648626E+00 0.16323525E+04</pdfrwt>
<pdfrwt beam="2">  1       -2 0.66670737E-01 0.16323525E+04</pdfrwt>
<totfact> 0.23910829E+01</totfact>
</mgrwt>
</event>
<event>
12    1  0.1562393E-007  0.2234582E+04  0.7818608E-02  0.8504171E-01
         -1   -1    0    0    0  501 -0.00000000000E+00  0.00000000000E+00  0.41521639868E+03  0.41521639868E+03  0.00000000000E+00 0.  1.
          1   -1    0    0  501    0  0.00000000000E+00 -0.00000000000E+00 -0.30064788993E+04  0.30064788993E+04  0.00000000000E+00 0. -1.
         23    2    1    2    0    0  0.34734718347E+03  0.49486250842E+03 -0.22040067843E+04  0.22873049120E+04  0.92622282686E+02 0.  0.
        254    2    1    2    0    0 -0.34734718347E+03 -0.49486250842E+03 -0.38725571637E+03  0.11343903860E+04  0.87825713197E+03 0.  0.
        -24    2    4    4    0    0  0.28290362072E+02  0.22962276959E+03 -0.11762094273E+03  0.27112303013E+03  0.78396749923E+02 0.  0.
         24    2    4    4    0    0 -0.37563754554E+03 -0.72448527801E+03 -0.26963477364E+03  0.86326735586E+03  0.80901995440E+02 0.  0.
         13    1    3    3    0    0  0.21726288806E+03  0.31728686994E+03 -0.15608258773E+04  0.16074985349E+04  0.00000000000E+00 0. -1.
        -13    1    3    3    0    0  0.13008429541E+03  0.17757563848E+03 -0.64318090695E+03  0.67980637711E+03  0.00000000000E+00 0.  1.
          4    1    6    6  502    0 -0.14256729620E+02 -0.73278964687E+02 -0.34770201941E+02  0.82353068845E+02  0.00000000000E+00 0. -1.
          3    1    5    5  503    0 -0.22905162949E+02  0.46712485356E+02 -0.41289180044E+02  0.66419117479E+02  0.00000000000E+00 0. -1.
         -4    1    5    5    0  503  0.51195525022E+02  0.18291028423E+03 -0.76331762690E+02  0.20470391265E+03  0.00000000000E+00 0.  1.
         -3    1    6    6    0  502 -0.36138081592E+03 -0.65120631332E+03 -0.23486457170E+03  0.78091428701E+03  0.00000000000E+00 0.  1.
<mgrwt>
<rscale>  0 0.22345821E+04</rscale>
<asrwt>0</asrwt>
<pdfrwt beam="1">  1        1 0.46253523E+00 0.22345821E+04</pdfrwt>
<pdfrwt beam="2">  1       -1 0.63879444E-01 0.22345821E+04</pdfrwt>
<totfact> 0.13367821E+00</totfact>
</mgrwt>
</event>
<event>
12    1  0.1562393E-007  0.1215613E+04  0.7818608E-02  0.9099299E-01
         -2   -1    0    0    0  501 -0.00000000000E+00  0.00000000000E+00  0.18645641222E+03  0.18645641222E+03  0.00000000000E+00 0.  1.
          2   -1    0    0  501    0  0.00000000000E+00 -0.00000000000E+00 -0.19813147487E+04  0.19813147487E+04  0.00000000000E+00 0. -1.
         23    2    1    2    0    0  0.13745249981E+03  0.16198074709E+03 -0.12329550710E+03  0.26221810979E+03  0.91791082891E+02 0.  0.
        254    2    1    2    0    0 -0.13745249981E+03 -0.16198074709E+03 -0.16715628294E+04  0.19055530511E+04  0.88987593851E+03 0.  0.
        -24    2    4    4    0    0  0.23297987058E+03  0.81039250311E+02 -0.12889979280E+04  0.13147936767E+04  0.79497003400E+02 0.  0.
         24    2    4    4    0    0 -0.37043237039E+03 -0.24301999740E+03 -0.38256490138E+03  0.59075937448E+03  0.79761360329E+02 0.  0.
         13    1    3    3    0    0  0.19708370443E+02  0.98333234775E+01  0.13791143452E+02  0.25986722645E+02  0.00000000000E+00 0.  1.
        -13    1    3    3    0    0  0.11774412937E+03  0.15214742362E+03 -0.13708665055E+03  0.23623138715E+03  0.00000000000E+00 0. -1.
          4    1    6    6  502    0 -0.24290268899E+03 -0.20247335507E+03 -0.27481634829E+03  0.41895250461E+03  0.00000000000E+00 0. -1.
          3    1    5    5  503    0  0.11267084263E+03  0.60072842378E+02 -0.48281065132E+03  0.49940924121E+03  0.00000000000E+00 0. -1.
         -4    1    5    5    0  503  0.12030902795E+03  0.20966407933E+02 -0.80618727669E+03  0.81538443545E+03  0.00000000000E+00 0.  1.
         -3    1    6    6    0  502 -0.12752968140E+03 -0.40546642334E+02 -0.10774855309E+03  0.17180686988E+03  0.00000000000E+00 0.  1.
<mgrwt>
<rscale>  0 0.12156132E+04</rscale>
<asrwt>0</asrwt>
<pdfrwt beam="1">  1        2 0.30481765E+00 0.12156132E+04</pdfrwt>
<pdfrwt beam="2">  1       -2 0.28685602E-01 0.12156132E+04</pdfrwt>
<totfact> 0.75274966E+01</totfact>
</mgrwt>
</event>
<event>
12    1  0.1562393E-007  0.1618316E+04  0.7818608E-02  0.8809374E-01
          2   -1    0    0  501    0  0.00000000000E+00  0.00000000000E+00  0.13653295213E+04  0.13653295213E+04  0.00000000000E+00 0.  1.
         -2   -1    0    0    0  501 -0.00000000000E+00 -0.00000000000E+00 -0.47954486489E+03  0.47954486489E+03  0.00000000000E+00 0. -1.
         23    2    1    2    0    0  0.24685572778E+03 -0.48352386302E+03  0.49740102060E+03  0.74154377717E+03  0.88013190633E+02 0.  0.
        254    2    1    2    0    0 -0.24685572778E+03  0.48352386302E+03  0.38838363580E+03  0.11033306090E+04  0.87850071586E+03 0.  0.
        -24    2    4    4    0    0 -0.32278453099E+03  0.70871287695E+03  0.29259056942E+03  0.83554897581E+03  0.77904135076E+02 0.  0.
         24    2    4    4    0    0  0.75928803212E+02 -0.22518901393E+03  0.95793066381E+02  0.26778163319E+03  0.77816555792E+02 0.  0.
         11    1    3    3    0    0  0.52584713680E+01 -0.74036787633E+02  0.75911634935E+02  0.10616813911E+03  0.00000000000E+00 0.  1.
        -11    1    3    3    0    0  0.24159725641E+03 -0.40948707539E+03  0.42148938566E+03  0.63537563806E+03  0.00000000000E+00 0. -1.
          2    1    6    6  502    0  0.69274598785E+02 -0.18005932121E+03  0.10727010476E+03  0.22074239413E+03  0.00000000000E+00 0. -1.
          3    1    5    5  503    0 -0.30243455812E+03  0.65947081053E+03  0.25013599103E+03  0.76742193472E+03  0.00000000000E+00 0. -1.
         -4    1    5    5    0  503 -0.20349972875E+02  0.49242066427E+02  0.42454578388E+02  0.68127041094E+02  0.00000000000E+00 0.  1.
         -1    1    6    6    0  502  0.66542044267E+01 -0.45129692720E+02 -0.11477038376E+02  0.47039239061E+02  0.00000000000E+00 0.  1.
<mgrwt>
<rscale>  0 0.16183161E+04</rscale>
<asrwt>0</asrwt>
<pdfrwt beam="1">  1        2 0.21005069E+00 0.16183161E+04</pdfrwt>
<pdfrwt beam="2">  1       -2 0.73776133E-01 0.16183161E+04</pdfrwt>
<totfact> 0.24025983E+01</totfact>
</mgrwt>
</event>
<event>
12    1  0.1562393E-007  0.2685734E+04  0.7818608E-02  0.8339649E-01
         -1   -1    0    0    0  501 -0.00000000000E+00  0.00000000000E+00  0.87280194592E+03  0.87280194592E+03  0.00000000000E+00 0.  1.
          1   -1    0    0  501    0  0.00000000000E+00 -0.00000000000E+00 -0.20660947361E+04  0.20660947361E+04  0.00000000000E+00 0. -1.
         23    2    1    2    0    0 -0.43737836047E+03  0.22240009041E+03  0.65783959681E+03  0.82610234876E+03  0.94501455425E+02 0.  0.
        254    2    1    2    0    0  0.43737836047E+03 -0.22240009041E+03 -0.18511323870E+04  0.21127943332E+04  0.89243887751E+03 0.  0.
        -24    2    4    4    0    0  0.63624026310E+03 -0.18621125353E+03 -0.17497313410E+04  0.18728140528E+04  0.79977544444E+02 0.  0.
         24    2    4    4    0    0 -0.19886190263E+03 -0.36188836877E+02 -0.10140104601E+03  0.23998028041E+03  0.80328541789E+02 0.  0.
         11    1    3    3    0    0 -0.20515065136E+03  0.85970543407E+02  0.37145558802E+03  0.43296302147E+03  0.00000000000E+00 0.  1.
        -11    1    3    3    0    0 -0.23222770912E+03  0.13642954700E+03  0.28638400878E+03  0.39313932729E+03  0.00000000000E+00 0. -1.
          4    1    6    6  502    0 -0.35008246000E+02 -0.31224498861E+02  0.58936672068E+00  0.46913686385E+02  0.00000000000E+00 0. -1.
          1    1    5    5  503    0 -0.12773788969E+01  0.11025256879E+01 -0.71589486306E+00  0.18329662282E+01  0.00000000000E+00 0. -1.
         -2    1    5    5    0  503  0.63751764200E+03 -0.18731377922E+03 -0.17490154461E+04  0.18709810866E+04  0.00000000000E+00 0.  1.
         -3    1    6    6    0  502 -0.16385365663E+03 -0.49643380158E+01 -0.10199041273E+03  0.19306659403E+03  0.00000000000E+00 0.  1.
<mgrwt>
<rscale>  0 0.26857338E+04</rscale>
<asrwt>0</asrwt>
<pdfrwt beam="1">  1        1 0.31786073E+00 0.26857338E+04</pdfrwt>
<pdfrwt beam="2">  1       -1 0.13427722E+00 0.26857338E+04</pdfrwt>
<totfact> 0.10970129E+00</totfact>
</mgrwt>
</event>
<event>
12    1  0.1562393E-007  0.2703788E+04  0.7818608E-02  0.8333777E-01
         -1   -1    0    0    0  501 -0.00000000000E+00  0.00000000000E+00  0.69481923815E+03  0.69481923815E+03  0.00000000000E+00 0.  1.
          1   -1    0    0  501    0  0.00000000000E+00 -0.00000000000E+00 -0.26303498218E+04  0.26303498218E+04  0.00000000000E+00 0. -1.
         23    2    1    2    0    0 -0.46490283220E+03  0.34108155165E+03  0.43362991733E+03  0.72735648975E+03  0.92419098276E+02 0.  0.
        254    2    1    2    0    0  0.46490283220E+03 -0.34108155165E+03 -0.23691605009E+04  0.25978125702E+04  0.89623512662E+03 0.  0.
        -24    2    4    4    0    0  0.32770857132E+03  0.23668167325E+03 -0.13967136314E+04  0.14561205348E+04  0.77890446519E+02 0.  0.
         24    2    4    4    0    0  0.13719426088E+03 -0.57776322490E+03 -0.97244686955E+03  0.11416920353E+04  0.71938725142E+02 0.  0.
         11    1    3    3    0    0 -0.30739727137E+03  0.17179538760E+03  0.27765653425E+03  0.44844162235E+03  0.00000000000E+00 0.  1.
        -11    1    3    3    0    0 -0.15750556083E+03  0.16928616404E+03  0.15597338308E+03  0.27891486740E+03  0.00000000000E+00 0. -1.
          2    1    6    6  502    0  0.19170159307E+02 -0.18182737203E+03 -0.34465982425E+03  0.39015264023E+03  0.00000000000E+00 0. -1.
          3    1    5    5  503    0  0.18158206711E+03  0.99149588030E+02 -0.60606669926E+03  0.64040575564E+03  0.00000000000E+00 0. -1.
         -4    1    5    5    0  503  0.14612650421E+03  0.13753208522E+03 -0.79064693213E+03  0.81571477919E+03  0.00000000000E+00 0.  1.
         -1    1    6    6    0  502  0.11802410157E+03 -0.39593585287E+03 -0.62778704529E+03  0.75153939510E+03  0.00000000000E+00 0.  1.
<mgrwt>
<rscale>  0 0.27037882E+04</rscale>
<asrwt>0</asrwt>
<pdfrwt beam="1">  1        1 0.40466921E+00 0.27037882E+04</pdfrwt>
<pdfrwt beam="2">  1       -1 0.10689527E+00 0.27037882E+04</pdfrwt>
<totfact> 0.78262147E-01</totfact>
</mgrwt>
</event>
<event>
12    1  0.1562393E-007  0.1739815E+04  0.7818608E-02  0.8738977E-01
          2   -1    0    0  501    0  0.00000000000E+00  0.00000000000E+00  0.19740582063E+04  0.19740582063E+04  0.00000000000E+00 0. -1.
         -2   -1    0    0    0  501 -0.00000000000E+00 -0.00000000000E+00 -0.38334166412E+03  0.38334166412E+03  0.00000000000E+00 0.  1.
         23    2    1    2    0    0  0.29410686696E+03 -0.52884236340E+03  0.32896671879E+03  0.69470010516E+03  0.90642371548E+02 0.  0.
        254    2    1    2    0    0 -0.29410686696E+03  0.52884236340E+03  0.12617498234E+04  0.16626997653E+04  0.89798930844E+03 0.  0.
        -24    2    4    4    0    0 -0.11887319228E+03  0.76480849965E+03  0.92926130882E+03  0.12118536721E+04  0.77458799590E+02 0.  0.
         24    2    4    4    0    0 -0.17523367468E+03 -0.23596613625E+03  0.33248851460E+03  0.45084609314E+03  0.79540739034E+02 0.  0.
         11    1    3    3    0    0  0.29617293020E+03 -0.48940261459E+03  0.30189216506E+03  0.64681697803E+03  0.00000000000E+00 0.  1.
        -11    1    3    3    0    0 -0.20660632416E+01 -0.39439748810E+02  0.27074553735E+02  0.47883127127E+02  0.00000000000E+00 0. -1.
          2    1    6    6  502    0 -0.12911270277E+03 -0.21103429167E+03  0.30124971443E+03  0.38981656292E+03  0.00000000000E+00 0. -1.
          3    1    5    5  503    0 -0.11255065262E+03  0.75309321497E+03  0.92450454938E+03  0.11977168704E+04  0.00000000000E+00 0. -1.
         -4    1    5    5    0  503 -0.63225396614E+01  0.11715284679E+02  0.47567594437E+01  0.14136801735E+02  0.00000000000E+00 0.  1.
         -1    1    6    6    0  502 -0.46120971912E+02 -0.24931844577E+02  0.31238800163E+02  0.61029530227E+02  0.00000000000E+00 0.  1.
<mgrwt>
<rscale>  0 0.17398147E+04</rscale>
<asrwt>0</asrwt>
<pdfrwt beam="1">  1        2 0.30370126E+00 0.17398147E+04</pdfrwt>
<pdfrwt beam="2">  1       -2 0.58975642E-01 0.17398147E+04</pdfrwt>
<totfact> 0.17598331E+01</totfact>
</mgrwt>
</event>
<event>
12    1  0.1562393E-007  0.1615309E+04  0.7818608E-02  0.8811198E-01
         -2   -1    0    0    0  501 -0.00000000000E+00  0.00000000000E+00  0.10003242538E+04  0.10003242538E+04  0.00000000000E+00 0. -1.
          2   -1    0    0  501    0  0.00000000000E+00 -0.00000000000E+00 -0.65209403818E+03  0.65209403818E+03  0.00000000000E+00 0.  1.
         23    2    1    2    0    0  0.19825798671E+03  0.20504118840E+03 -0.36730823993E+03  0.47433690766E+03  0.93445388454E+02 0.  0.
        254    2    1    2    0    0 -0.19825798671E+03 -0.20504118840E+03  0.71553845552E+03  0.11780813843E+04  0.89136544046E+03 0.  0.
        -24    2    4    4    0    0  0.51363125947E+02 -0.48070187375E+03  0.61198292393E+03  0.78403540051E+03  0.80473274666E+02 0.  0.
         24    2    4    4    0    0 -0.24962111265E+03  0.27566068536E+03  0.10355553159E+03  0.39404598378E+03  0.79050464105E+02 0.  0.
         13    1    3    3    0    0  0.18248461852E+03  0.21317880920E+03 -0.33115284060E+03  0.43405995499E+03  0.00000000000E+00 0.  1.
        -13    1    3    3    0    0  0.15773368191E+02 -0.81376208040E+01 -0.36155399330E+02  0.40276952680E+02  0.00000000000E+00 0. -1.
          4    1    6    6  502    0 -0.23080221546E+03  0.22703576541E+03  0.67662359533E+02  0.33074627184E+03  0.00000000000E+00 0. -1.
          1    1    5    5  503    0  0.66124485291E+02 -0.44872660117E+03  0.55164078643E+03  0.71416774458E+03  0.00000000000E+00 0. -1.
         -2    1    5    5    0  503 -0.14761359344E+02 -0.31975272581E+02  0.60342137500E+02  0.69867655924E+02  0.00000000000E+00 0.  1.
         -3    1    6    6    0  502 -0.18818897194E+02  0.48624919946E+02  0.35893172062E+02  0.63299711943E+02  0.00000000000E+00 0.  1.
<mgrwt>
<rscale>  0 0.16153086E+04</rscale>
<asrwt>0</asrwt>
<pdfrwt beam="1">  1        2 0.10032216E+00 0.16153086E+04</pdfrwt>
<pdfrwt beam="2">  1       -2 0.15389604E+00 0.16153086E+04</pdfrwt>
<totfact> 0.11994894E+01</totfact>
</mgrwt>
</event>
<event>
12    1  0.1562393E-007  0.2122990E+04  0.7818608E-02  0.8551183E-01
          1   -1    0    0  501    0  0.00000000000E+00  0.00000000000E+00  0.10507964825E+04  0.10507964825E+04  0.00000000000E+00 0. -1.
         -1   -1    0    0    0  501 -0.00000000000E+00 -0.00000000000E+00 -0.10723029439E+04  0.10723029439E+04  0.00000000000E+00 0.  1.
         23    2    1    2    0    0  0.62066945307E+03  0.20517464319E+03 -0.59150174813E+03  0.88685184638E+03  0.96460744382E+02 0.  0.
        254    2    1    2    0    0 -0.62066945307E+03 -0.20517464319E+03  0.56999528674E+03  0.12362475800E+04  0.88095757442E+03 0.  0.
        -24    2    4    4    0    0  0.77685948628E+02 -0.10303925966E+03  0.49945442231E+03  0.52246331846E+03  0.82831174832E+02 0.  0.
         24    2    4    4    0    0 -0.69835540170E+03 -0.10213538353E+03  0.70540864435E+02  0.71378426152E+03  0.79875245215E+02 0.  0.
         11    1    3    3    0    0  0.60501889588E+03  0.18023999596E+03 -0.56294627238E+03  0.84583853430E+03  0.00000000000E+00 0.  1.
        -11    1    3    3    0    0  0.15650557189E+02  0.24934647228E+02 -0.28555475745E+02  0.41013312080E+02  0.00000000000E+00 0. -1.
          4    1    6    6  502    0 -0.30969522179E+03 -0.34691377848E+02  0.69622009707E+02  0.31931465098E+03  0.00000000000E+00 0. -1.
          1    1    5    5  503    0 -0.17386810209E+01 -0.59683739532E+02  0.25218390154E+03  0.25915611506E+03  0.00000000000E+00 0. -1.
         -2    1    5    5    0  503  0.79424629649E+02 -0.43355520130E+02  0.24727052077E+03  0.26330720340E+03  0.00000000000E+00 0.  1.
         -3    1    6    6    0  502 -0.38866017991E+03 -0.67444005681E+02  0.91885472781E+00  0.39446961054E+03  0.00000000000E+00 0.  1.
<mgrwt>
<rscale>  0 0.21229905E+04</rscale>
<asrwt>0</asrwt>
<pdfrwt beam="1">  1        1 0.16166100E+00 0.21229905E+04</pdfrwt>
<pdfrwt beam="2">  1       -1 0.16496968E+00 0.21229905E+04</pdfrwt>
<totfact> 0.34012025E+00</totfact>
</mgrwt>
</event>
<event>
12    1  0.1650094E-007  0.1595235E+04  0.7818608E-02  0.8823481E-01
         -2   -1    0    0    0  501 -0.00000000000E+00  0.00000000000E+00  0.27689414626E+03  0.27689414626E+03  0.00000000000E+00 0.  1.
          2   -1    0    0  501    0  0.00000000000E+00 -0.00000000000E+00 -0.22976056668E+04  0.22976056668E+04  0.00000000000E+00 0. -1.
         23    2    1    2    0    0 -0.23726858211E+02 -0.16363610494E+03 -0.15140920193E+04  0.15258512869E+04  0.91693883456E+02 0.  0.
        254    2    1    2    0    0  0.23726858211E+02  0.16363610494E+03 -0.50661950125E+03  0.10486485262E+04  0.90313934347E+03 0.  0.
        -24    2    4    4    0    0 -0.30310393513E+03  0.39507315586E+03 -0.22771617477E+03  0.55345324078E+03  0.80629023993E+02 0.  0.
         24    2    4    4    0    0  0.32683079334E+03 -0.23143705092E+03 -0.27890332649E+03  0.49519528537E+03  0.83963260495E+02 0.  0.
         13    1    3    3    0    0 -0.11132150111E+02 -0.12999310344E+03 -0.14039465674E+04  0.14099957787E+04  0.00000000000E+00 0. -1.
        -13    1    3    3    0    0 -0.12594708100E+02 -0.33643001496E+02 -0.11014545184E+03  0.11585550821E+03  0.00000000000E+00 0.  1.
          4    1    6    6  502    0  0.33079837523E+03 -0.23110701492E+03 -0.27988554361E+03  0.49109462930E+03  0.00000000000E+00 0. -1.
          3    1    5    5  503    0 -0.27388764752E+03  0.35466059248E+03 -0.22969641827E+03  0.50354644660E+03  0.00000000000E+00 0. -1.
         -4    1    5    5    0  503 -0.29216287609E+02  0.40412563386E+02  0.19802435048E+01  0.49906794181E+02  0.00000000000E+00 0.  1.
         -3    1    6    6    0  502 -0.39675818884E+01 -0.33003599818E+00  0.98221711828E+00  0.41006560779E+01  0.00000000000E+00 0.  1.
<mgrwt>
<rscale>  0 0.15952349E+04</rscale>
<asrwt>0</asrwt>
<pdfrwt beam="1">  1        2 0.35347780E+00 0.15952349E+04</pdfrwt>
<pdfrwt beam="2">  1       -2 0.42599099E-01 0.15952349E+04</pdfrwt>
<totfact> 0.22816435E+01</totfact>
</mgrwt>
</event>
<event>
12    1  0.1562393E-007  0.1637059E+04  0.7818608E-02  0.8798100E-01
         -2   -1    0    0    0  501 -0.00000000000E+00  0.00000000000E+00  0.10491082774E+04  0.10491082774E+04  0.00000000000E+00 0.  1.
          2   -1    0    0  501    0  0.00000000000E+00 -0.00000000000E+00 -0.63862821033E+03  0.63862821033E+03  0.00000000000E+00 0. -1.
         23    2    1    2    0    0  0.32208630433E+03  0.38260110804E+03  0.42289846857E+03  0.66091387392E+03  0.88548510538E+02 0.  0.
        254    2    1    2    0    0 -0.32208630433E+03 -0.38260110804E+03 -0.12418401543E+02  0.10268226138E+04  0.89670913240E+03 0.  0.
        -24    2    4    4    0    0 -0.23256711345E+03 -0.39066047083E+03 -0.40614051446E+03  0.61513505870E+03  0.82085060958E+02 0.  0.
         24    2    4    4    0    0 -0.89519190882E+02  0.80593627914E+01  0.39372211292E+03  0.41168755506E+03  0.79943116788E+02 0.  0.
         13    1    3    3    0    0  0.42622401718E+02  0.13055638914E+02  0.36204547166E+02  0.57427241543E+02  0.00000000000E+00 0.  1.
        -13    1    3    3    0    0  0.27946390261E+03  0.36954546912E+03  0.38669392141E+03  0.60348663238E+03  0.00000000000E+00 0. -1.
          2    1    6    6  502    0 -0.11488318071E+02 -0.10570370280E+02  0.76806692676E+01  0.17398472932E+02  0.00000000000E+00 0. -1.
          3    1    5    5  503    0 -0.85402088869E+02 -0.90633756860E+02 -0.14422651859E+03  0.19054994970E+03  0.00000000000E+00 0. -1.
         -4    1    5    5    0  503 -0.14716502458E+03 -0.30002671397E+03 -0.26191399587E+03  0.42458510900E+03  0.00000000000E+00 0.  1.
         -1    1    6    6    0  502 -0.78030872812E+02  0.18629733072E+02  0.38604144365E+03  0.39428908212E+03  0.00000000000E+00 0.  1.
<mgrwt>
<rscale>  0 0.16370585E+04</rscale>
<asrwt>0</asrwt>
<pdfrwt beam="1">  1        2 0.98250494E-01 0.16370585E+04</pdfrwt>
<pdfrwt beam="2">  1       -2 0.16140127E+00 0.16370585E+04</pdfrwt>
<totfact> 0.10799924E+01</totfact>
</mgrwt>
</event>
<event>
12    1  0.1562393E-007  0.3475145E+04  0.7818608E-02  0.8119706E-01
         -2   -1    0    0    0  501 -0.00000000000E+00  0.00000000000E+00  0.10980683301E+04  0.10980683301E+04  0.00000000000E+00 0.  1.
          2   -1    0    0  501    0  0.00000000000E+00 -0.00000000000E+00 -0.27495180579E+04  0.27495180579E+04  0.00000000000E+00 0. -1.
         23    2    1    2    0    0  0.12763001245E+03 -0.16032372885E+04 -0.53477147573E+03  0.16972953202E+04  0.90397174994E+02 0.  0.
        254    2    1    2    0    0 -0.12763001245E+03  0.16032372885E+04 -0.11166782521E+04  0.21502910678E+04  0.88888814504E+03 0.  0.
        -24    2    4    4    0    0  0.37255298458E+03  0.73000599535E+03 -0.57844688074E+03  0.10062422970E+04  0.78856115640E+02 0.  0.
         24    2    4    4    0    0 -0.50018299703E+03  0.87323129320E+03 -0.53823137132E+03  0.11440487708E+04  0.80241254665E+02 0.  0.
         13    1    3    3    0    0 -0.12626057269E+02 -0.23207614622E+03 -0.70137128150E+02  0.24277143925E+03  0.00000000000E+00 0. -1.
        -13    1    3    3    0    0  0.14025606972E+03 -0.13711611423E+04 -0.46463434758E+03  0.14545238810E+04  0.00000000000E+00 0.  1.
          4    1    6    6  502    0 -0.12404468353E+03  0.22407573481E+03 -0.17722412139E+03  0.31145691138E+03  0.00000000000E+00 0. -1.
          3    1    5    5  503    0  0.45816631842E+02  0.14091223839E+03 -0.81240927295E+02  0.16898375943E+03  0.00000000000E+00 0. -1.
         -4    1    5    5    0  503  0.32673635274E+03  0.58909375695E+03 -0.49720595344E+03  0.83725853762E+03  0.00000000000E+00 0.  1.
         -3    1    6    6    0  502 -0.37613831350E+03  0.64915555839E+03 -0.36100724993E+03  0.83259185942E+03  0.00000000000E+00 0.  1.
<mgrwt>
<rscale>  0 0.34751453E+04</rscale>
<asrwt>0</asrwt>
<pdfrwt beam="1">  1        2 0.42300277E+00 0.34751453E+04</pdfrwt>
<pdfrwt beam="2">  1       -2 0.16893359E+00 0.34751453E+04</pdfrwt>
<totfact> 0.44280531E-01</totfact>
</mgrwt>
</event>
<event>
12    1  0.1562393E-007  0.1872443E+04  0.7818608E-02  0.8668696E-01
         -2   -1    0    0    0  501 -0.00000000000E+00  0.00000000000E+00  0.51853914753E+03  0.51853914753E+03  0.00000000000E+00 0. -1.
          2   -1    0    0  501    0  0.00000000000E+00 -0.00000000000E+00 -0.16903453706E+04  0.16903453706E+04  0.00000000000E+00 0.  1.
         23    2    1    2    0    0 -0.41600703519E+03 -0.19853327853E+02  0.22652391717E+03  0.48264220008E+03  0.90412390155E+02 0.  0.
        254    2    1    2    0    0  0.41600703519E+03  0.19853327853E+02 -0.13983301402E+04  0.17262423180E+04  0.92256671931E+03 0.  0.
        -24    2    4    4    0    0 -0.16928054479E+02 -0.37921030361E+03 -0.76491593423E+03  0.85767310370E+03  0.80123361007E+02 0.  0.
         24    2    4    4    0    0  0.43293508967E+03  0.39906363146E+03 -0.63341420598E+03  0.86856921433E+03  0.80711522880E+02 0.  0.
         13    1    3    3    0    0 -0.37742465417E+03  0.90041611738E+01  0.20787514964E+03  0.43097856366E+03  0.00000000000E+00 0. -1.
        -13    1    3    3    0    0 -0.38582381018E+02 -0.28857489027E+02  0.18648767534E+02  0.51663636423E+02  0.00000000000E+00 0.  1.
          2    1    6    6  502    0  0.13121685797E+02 -0.12038265510E+01 -0.23023777201E+02  0.26527761932E+02  0.00000000000E+00 0. -1.
          1    1    5    5  503    0 -0.12759131009E+02 -0.69036599988E+02 -0.84337326192E+02  0.10973437087E+03  0.00000000000E+00 0. -1.
         -2    1    5    5    0  503 -0.41689234701E+01 -0.31017370362E+03 -0.68057860804E+03  0.74793873283E+03  0.00000000000E+00 0.  1.
         -3    1    6    6    0  502  0.41981340387E+03  0.40026745801E+03 -0.61039042878E+03  0.84204145240E+03  0.00000000000E+00 0.  1.
<mgrwt>
<rscale>  0 0.18724425E+04</rscale>
<asrwt>0</asrwt>
<pdfrwt beam="1">  1        2 0.26005313E+00 0.18724425E+04</pdfrwt>
<pdfrwt beam="2">  1       -2 0.79775253E-01 0.18724425E+04</pdfrwt>
<totfact> 0.12963544E+01</totfact>
</mgrwt>
</event>
<event>
12    1  0.1562393E-007  0.1255568E+04  0.7818608E-02  0.9065562E-01
         -2   -1    0    0    0  501 -0.00000000000E+00  0.00000000000E+00  0.14222063699E+03  0.14222063699E+03  0.00000000000E+00 0.  1.
          2   -1    0    0  501    0  0.00000000000E+00 -0.00000000000E+00 -0.27711350081E+04  0.27711350081E+04  0.00000000000E+00 0. -1.
         23    2    1    2    0    0 -0.13871203955E+03  0.24330451551E+03 -0.86423432708E+03  0.91388876191E+03  0.99265199668E+02 0.  0.
        254    2    1    2    0    0  0.13871203955E+03 -0.24330451551E+03 -0.17646800440E+04  0.19994668832E+04  0.89740405722E+03 0.  0.
        -24    2    4    4    0    0 -0.13826595897E+03 -0.34748913391E+03 -0.25758550402E+03  0.46153447230E+03  0.82447581210E+02 0.  0.
         24    2    4    4    0    0  0.27697799852E+03  0.10418461840E+03 -0.15070945400E+04  0.15379324109E+04  0.79566962477E+02 0.  0.
         13    1    3    3    0    0 -0.82485600008E+02  0.13249901684E+03 -0.32514348732E+03  0.36066348722E+03  0.00000000000E+00 0.  1.
        -13    1    3    3    0    0 -0.56226439547E+02  0.11080549867E+03 -0.53909083976E+03  0.55322527469E+03  0.00000000000E+00 0. -1.
          4    1    6    6  502    0  0.18862305517E+03  0.37758581045E+02 -0.84029309909E+03  0.86203066057E+03  0.00000000000E+00 0. -1.
          1    1    5    5  503    0  0.95979609663E+00 -0.33436267935E+01  0.55118699472E+01  0.65178032339E+01  0.00000000000E+00 0. -1.
         -2    1    5    5    0  503 -0.13922575506E+03 -0.34414550711E+03 -0.26309737397E+03  0.45501666907E+03  0.00000000000E+00 0.  1.
         -3    1    6    6    0  502  0.88354943347E+02  0.66426037354E+02 -0.66680144089E+03  0.67590175028E+03  0.00000000000E+00 0.  1.
<mgrwt>
<rscale>  0 0.12555677E+04</rscale>
<asrwt>0</asrwt>
<pdfrwt beam="1">  1        2 0.42632844E+00 0.12555677E+04</pdfrwt>
<pdfrwt beam="2">  1       -2 0.21880099E-01 0.12555677E+04</pdfrwt>
<totfact> 0.43536887E+01</totfact>
</mgrwt>
</event>
<event>
12    1  0.1885877E-007  0.2110654E+04  0.7818608E-02  0.8556565E-01
         -1   -1    0    0    0  501 -0.00000000000E+00  0.00000000000E+00  0.90462032939E+03  0.90462032939E+03  0.00000000000E+00 0.  1.
          1   -1    0    0  501    0  0.00000000000E+00 -0.00000000000E+00 -0.12311403515E+04  0.12311403515E+04  0.00000000000E+00 0. -1.
         23    2    1    2    0    0  0.50131457581E+03  0.60122316719E+03 -0.49186090374E+03  0.93233491297E+03  0.12056384462E+03 0.  0.
        254    2    1    2    0    0 -0.50131457581E+03 -0.60122316719E+03  0.16534088162E+03  0.12034257679E+04  0.89894959319E+03 0.  0.
        -24    2    4    4    0    0  0.30066549864E+02 -0.39182441065E+03 -0.26799944275E+03  0.48225242044E+03  0.79456462940E+02 0.  0.
         24    2    4    4    0    0 -0.53138112567E+03 -0.20939875654E+03  0.43334032437E+03  0.72117334749E+03  0.78060364065E+02 0.  0.
         11    1    3    3    0    0  0.12649204870E+03  0.14508040046E+03 -0.62658328535E+02  0.20242190375E+03  0.00000000000E+00 0. -1.
        -11    1    3    3    0    0  0.37482252711E+03  0.45614276672E+03 -0.42920257521E+03  0.72991300922E+03  0.00000000000E+00 0.  1.
          4    1    6    6  502    0 -0.26629990377E+03 -0.14004324103E+03  0.20010603933E+03  0.36134495303E+03  0.00000000000E+00 0. -1.
          3    1    5    5  503    0  0.21277278233E+02 -0.94601435894E+02 -0.10589947748E+03  0.14358570114E+03  0.00000000000E+00 0. -1.
         -4    1    5    5    0  503  0.87892716307E+01 -0.29722297476E+03 -0.16209996528E+03  0.33866671930E+03  0.00000000000E+00 0.  1.
         -3    1    6    6    0  502 -0.26508122190E+03 -0.69355515510E+02  0.23323428504E+03  0.35982839445E+03  0.00000000000E+00 0.  1.
<mgrwt>
<rscale>  0 0.21106535E+04</rscale>
<asrwt>0</asrwt>
<pdfrwt beam="1">  1        1 0.18940621E+00 0.21106535E+04</pdfrwt>
<pdfrwt beam="2">  1       -1 0.13917236E+00 0.21106535E+04</pdfrwt>
<totfact> 0.39671137E+00</totfact>
</mgrwt>
</event>
<event>
12    1  0.1562393E-007  0.1487533E+04  0.7818608E-02  0.8892786E-01
         -2   -1    0    0    0  501 -0.00000000000E+00  0.00000000000E+00  0.16285824809E+03  0.16285824809E+03  0.00000000000E+00 0.  1.
          2   -1    0    0  501    0  0.00000000000E+00 -0.00000000000E+00 -0.33967484461E+04  0.33967484461E+04  0.00000000000E+00 0. -1.
         23    2    1    2    0    0  0.35716790194E+03 -0.29078091198E+03 -0.96470355639E+03  0.10728057049E+04  0.90203546651E+02 0.  0.
        254    2    1    2    0    0 -0.35716790194E+03  0.29078091198E+03 -0.22691866416E+04  0.24868009892E+04  0.90711007978E+03 0.  0.
        -24    2    4    4    0    0 -0.70991286075E+02 -0.11288957020E+03 -0.17787265510E+04  0.17856094904E+04  0.82154069018E+02 0.  0.
         24    2    4    4    0    0 -0.28617661586E+03  0.40367048218E+03 -0.49046009055E+03  0.70119149886E+03  0.79192827946E+02 0.  0.
         13    1    3    3    0    0  0.34641863888E+03 -0.25954857544E+03 -0.92415509980E+03  0.10205067295E+04  0.00000000000E+00 0.  1.
        -13    1    3    3    0    0  0.10749263057E+02 -0.31232336535E+02 -0.40548456597E+02  0.52298975459E+02  0.00000000000E+00 0. -1.
          2    1    6    6  502    0 -0.28551650961E+03  0.40230676190E+03 -0.47228074012E+03  0.68294912359E+03  0.00000000000E+00 0. -1.
          3    1    5    5  503    0 -0.89116429596E+02 -0.85053739799E+02 -0.14385234099E+04  0.14437885848E+04  0.00000000000E+00 0. -1.
         -4    1    5    5    0  503  0.18125143521E+02 -0.27835830405E+02 -0.34020314109E+03  0.34182090557E+03  0.00000000000E+00 0.  1.
         -1    1    6    6    0  502 -0.66010625708E+00  0.13637202809E+01 -0.18179350430E+02  0.18242375266E+02  0.00000000000E+00 0.  1.
<mgrwt>
<rscale>  0 0.14875329E+04</rscale>
<asrwt>0</asrwt>
<pdfrwt beam="1">  1        2 0.52257668E+00 0.14875329E+04</pdfrwt>
<pdfrwt beam="2">  1       -2 0.25055115E-01 0.14875329E+04</pdfrwt>
<totfact> 0.13414272E+01</totfact>
</mgrwt>
</event>
<event>
12    1  0.1562393E-007  0.2225716E+04  0.7818608E-02  0.8507800E-01
          2   -1    0    0  501    0  0.00000000000E+00  0.00000000000E+00  0.16348054698E+04  0.16348054698E+04  0.00000000000E+00 0. -1.
         -2   -1    0    0    0  501 -0.00000000000E+00 -0.00000000000E+00 -0.75755403230E+03  0.75755403230E+03  0.00000000000E+00 0.  1.
         23    2    1    2    0    0 -0.54992120042E+03  0.42764791006E+02 -0.42841799761E+03  0.70439525825E+03  0.91589001279E+02 0.  0.
        254    2    1    2    0    0  0.54992120042E+03 -0.42764791006E+02  0.13056694351E+04  0.16879642438E+04  0.91662885655E+03 0.  0.
        -24    2    4    4    0    0  0.62981093035E+03 -0.32541630048E+03  0.65138336148E+03  0.96604039676E+03  0.79851036049E+02 0.  0.
         24    2    4    4    0    0 -0.79889729938E+02  0.28265150947E+03  0.65428607359E+03  0.72192384704E+03  0.82519876817E+02 0.  0.
         13    1    3    3    0    0 -0.45152999034E+03  0.11104474870E+02 -0.31333276862E+03  0.54970907344E+03  0.00000000000E+00 0.  1.
        -13    1    3    3    0    0 -0.98391210080E+02  0.31660316136E+02 -0.11508522899E+03  0.15468618481E+03  0.00000000000E+00 0. -1.
          2    1    6    6  502    0 -0.80289264409E+02  0.20460165673E+03  0.54480049838E+03  0.58746556235E+03  0.00000000000E+00 0. -1.
          1    1    5    5  503    0  0.59684050647E+03 -0.29572272432E+03  0.62983933552E+03  0.91671593660E+03  0.00000000000E+00 0. -1.
         -2    1    5    5    0  503  0.32970423882E+02 -0.29693576160E+02  0.21544025958E+02  0.49324460165E+02  0.00000000000E+00 0.  1.
         -1    1    6    6    0  502  0.39953447188E+00  0.78049852742E+02  0.10948557521E+03  0.13445828468E+03  0.00000000000E+00 0.  1.
<mgrwt>
<rscale>  0 0.22257165E+04</rscale>
<asrwt>0</asrwt>
<pdfrwt beam="1">  1        2 0.25150853E+00 0.22257165E+04</pdfrwt>
<pdfrwt beam="2">  1       -2 0.11654677E+00 0.22257165E+04</pdfrwt>
<totfact> 0.55511390E+00</totfact>
</mgrwt>
</event>
<event>
12    1  0.1562393E-007  0.2239288E+04  0.7818608E-02  0.8502251E-01
          2   -1    0    0  501    0  0.00000000000E+00  0.00000000000E+00  0.32451686695E+04  0.32451686695E+04  0.00000000000E+00 0. -1.
         -2   -1    0    0    0  501 -0.00000000000E+00 -0.00000000000E+00 -0.38629824764E+03  0.38629824764E+03  0.00000000000E+00 0.  1.
         23    2    1    2    0    0  0.43011548132E+02 -0.35760942043E+02 -0.31202259373E+03  0.32992326726E+03  0.91446295869E+02 0.  0.
        254    2    1    2    0    0 -0.43011548132E+02  0.35760942043E+02  0.31708930156E+04  0.33015436499E+04  0.91787750678E+03 0.  0.
        -24    2    4    4    0    0  0.29157171263E+03 -0.21297595949E+03  0.23350600264E+04  0.23642254174E+04  0.81753741569E+02 0.  0.
         24    2    4    4    0    0 -0.33458326076E+03  0.24873690153E+03  0.83583298921E+03  0.93731823254E+03  0.78311420783E+02 0.  0.
         13    1    3    3    0    0  0.90638646131E+01  0.19882018754E+02 -0.16723107287E+02  0.27515643347E+02  0.00000000000E+00 0. -1.
        -13    1    3    3    0    0  0.33947683519E+02 -0.55642960797E+02 -0.29529948645E+03  0.30240762391E+03  0.00000000000E+00 0.  1.
          2    1    6    6  502    0 -0.30234872947E+03  0.21655419403E+03  0.78752211638E+03  0.87091994865E+03  0.00000000000E+00 0. -1.
          3    1    5    5  503    0  0.17622829444E+03 -0.16688679902E+03  0.16869255928E+04  0.17042962099E+04  0.00000000000E+00 0. -1.
         -4    1    5    5    0  503  0.11534341819E+03 -0.46089160470E+02  0.64813443365E+03  0.65992920750E+03  0.00000000000E+00 0.  1.
         -1    1    6    6    0  502 -0.32234531292E+02  0.32182707500E+02  0.48310872832E+02  0.66398283889E+02  0.00000000000E+00 0.  1.
<mgrwt>
<rscale>  0 0.22392883E+04</rscale>
<asrwt>0</asrwt>
<pdfrwt beam="1">  1        2 0.49925670E+00 0.22392883E+04</pdfrwt>
<pdfrwt beam="2">  1       -2 0.59430502E-01 0.22392883E+04</pdfrwt>
<totfact> 0.29219763E+00</totfact>
</mgrwt>
</event>
<event>
12    1  0.1562393E-007  0.2603319E+04  0.7818608E-02  0.8367075E-01
          1   -1    0    0  501    0  0.00000000000E+00  0.00000000000E+00  0.77537050764E+03  0.77537050764E+03  0.00000000000E+00 0. -1.
         -1   -1    0    0    0  501 -0.00000000000E+00 -0.00000000000E+00 -0.21851707720E+04  0.21851707720E+04  0.00000000000E+00 0.  1.
         23    2    1    2    0    0  0.10843219322E+04 -0.50069942128E+02 -0.21683469659E+03  0.11105210855E+04  0.89323814485E+02 0.  0.
        254    2    1    2    0    0 -0.10843219322E+04  0.50069942128E+02 -0.11929655678E+04  0.18500201942E+04  0.90617151861E+03 0.  0.
        -24    2    4    4    0    0 -0.38350232054E+03  0.34651827961E+03 -0.12694746227E+03  0.53799882038E+03  0.78601047001E+02 0.  0.
         24    2    4    4    0    0 -0.70081961169E+03 -0.29644833748E+03 -0.10660181055E+04  0.13120213738E+04  0.77302904969E+02 0.  0.
         11    1    3    3    0    0  0.63358817717E+03 -0.21746301592E+02 -0.17074764891E+03  0.65655284592E+03  0.00000000000E+00 0.  1.
        -11    1    3    3    0    0  0.45073375506E+03 -0.28323640536E+02 -0.46087047686E+02  0.45396823956E+03  0.00000000000E+00 0. -1.
          2    1    6    6  502    0 -0.21585408198E+03 -0.60624528648E+02 -0.27786015429E+03  0.35703582947E+03  0.00000000000E+00 0. -1.
          3    1    5    5  503    0 -0.78048418744E+02  0.35370335574E+02 -0.33950812071E+02  0.92169810390E+02  0.00000000000E+00 0. -1.
         -4    1    5    5    0  503 -0.30545390179E+03  0.31114794403E+03 -0.92996650201E+02  0.44582900999E+03  0.00000000000E+00 0.  1.
         -1    1    6    6    0  502 -0.48496552971E+03 -0.23582380883E+03 -0.78815795122E+03  0.95498554434E+03  0.00000000000E+00 0.  1.
<mgrwt>
<rscale>  0 0.26033186E+04</rscale>
<asrwt>0</asrwt>
<pdfrwt beam="1">  1        1 0.11928777E+00 0.26033186E+04</pdfrwt>
<pdfrwt beam="2">  1       -1 0.33618011E+00 0.26033186E+04</pdfrwt>
<totfact> 0.39240960E-01</totfact>
</mgrwt>
</event>
<event>
12    1  0.1562393E-007  0.2200437E+04  0.7818608E-02  0.8518246E-01
          2   -1    0    0  501    0  0.00000000000E+00  0.00000000000E+00  0.62907619506E+03  0.62907619506E+03  0.00000000000E+00 0. -1.
         -2   -1    0    0    0  501 -0.00000000000E+00 -0.00000000000E+00 -0.19242197958E+04  0.19242197958E+04  0.00000000000E+00 0.  1.
         23    2    1    2    0    0  0.72553608007E+02 -0.49532769853E+03  0.34459773506E+03  0.61443349792E+03  0.90373499375E+02 0.  0.
        254    2    1    2    0    0 -0.72553608007E+02  0.49532769853E+03 -0.16397413358E+04  0.19388624930E+04  0.90544053549E+03 0.  0.
        -24    2    4    4    0    0  0.64620587356E+02 -0.23793139723E+03 -0.25599535024E+03  0.36473953165E+03  0.81939834658E+02 0.  0.
         24    2    4    4    0    0 -0.13717419536E+03  0.73325909576E+03 -0.13837459856E+04  0.15741229614E+04  0.81390929454E+02 0.  0.
         13    1    3    3    0    0  0.71721177011E+02 -0.22106869734E+03  0.13083609314E+03  0.26670841652E+03  0.00000000000E+00 0.  1.
        -13    1    3    3    0    0  0.83243099597E+00 -0.27425900119E+03  0.21376164192E+03  0.34772508139E+03  0.00000000000E+00 0. -1.
          2    1    6    6  502    0 -0.50837195540E+02  0.12259491924E+03 -0.21588896315E+03  0.25342055773E+03  0.00000000000E+00 0. -1.
          3    1    5    5  503    0 -0.19590830663E+02 -0.36756764656E+02 -0.44194157787E+02  0.60728773876E+02  0.00000000000E+00 0. -1.
         -4    1    5    5    0  503  0.84211418018E+02 -0.20117463257E+03 -0.21180119245E+03  0.30401075777E+03  0.00000000000E+00 0.  1.
         -1    1    6    6    0  502 -0.86336999823E+02  0.61066417652E+03 -0.11678570225E+04  0.13207024036E+04  0.00000000000E+00 0.  1.
<mgrwt>
<rscale>  0 0.22004371E+04</rscale>
<asrwt>0</asrwt>
<pdfrwt beam="1">  1        2 0.96780955E-01 0.22004371E+04</pdfrwt>
<pdfrwt beam="2">  1       -2 0.29603381E+00 0.22004371E+04</pdfrwt>
<totfact> 0.14388408E+00</totfact>
</mgrwt>
</event>
<event>
12    1  0.1562393E-007  0.1139886E+04  0.7818608E-02  0.9167165E-01
         -3   -1    0    0    0  501 -0.00000000000E+00  0.00000000000E+00  0.41864966526E+03  0.41864966526E+03  0.00000000000E+00 0.  1.
          3   -1    0    0  501    0  0.00000000000E+00 -0.00000000000E+00 -0.77591148404E+03  0.77591148404E+03  0.00000000000E+00 0. -1.
         23    2    1    2    0    0 -0.62569884066E+02 -0.11675443605E+03  0.82713250345E+02  0.18439726529E+03  0.98052439716E+02 0.  0.
        254    2    1    2    0    0  0.62569884066E+02  0.11675443605E+03 -0.43997506913E+03  0.10101638840E+04  0.89961459658E+03 0.  0.
        -24    2    4    4    0    0  0.14709989142E+03  0.57045169087E+02 -0.69834679444E+03  0.72030877932E+03  0.79145201233E+02 0.  0.
         24    2    4    4    0    0 -0.84530007359E+02  0.59709266961E+02  0.25837172531E+03  0.28985510470E+03  0.80929071249E+02 0.  0.
         11    1    3    3    0    0 -0.62560479132E+02 -0.42512609970E+02  0.80014265968E+02  0.11010639543E+03  0.00000000000E+00 0.  1.
        -11    1    3    3    0    0 -0.94049333240E-02 -0.74241826078E+02  0.26989843766E+01  0.74290869860E+02  0.00000000000E+00 0. -1.
          4    1    6    6  502    0 -0.84252456938E+02  0.30821441962E+02  0.12792279698E+03  0.15624557521E+03  0.00000000000E+00 0. -1.
          1    1    5    5  503    0  0.73448273801E+02  0.48248984816E+02 -0.23173414038E+03  0.24783729598E+03  0.00000000000E+00 0. -1.
         -2    1    5    5    0  503  0.73651617624E+02  0.87961842705E+01 -0.46661265406E+03  0.47247148334E+03  0.00000000000E+00 0.  1.
         -3    1    6    6    0  502 -0.27755042082E+00  0.28887824999E+02  0.13044892833E+03  0.13360952949E+03  0.00000000000E+00 0.  1.
<mgrwt>
<rscale>  0 0.11398861E+04</rscale>
<asrwt>0</asrwt>
<pdfrwt beam="1">  1        3 0.11937100E+00 0.11398861E+04</pdfrwt>
<pdfrwt beam="2">  1       -3 0.64407642E-01 0.11398861E+04</pdfrwt>
<totfact> 0.34792009E+00</totfact>
</mgrwt>
</event>
<event>
12    1  0.1562393E-007  0.1577167E+04  0.7818608E-02  0.8834699E-01
          2   -1    0    0  501    0  0.00000000000E+00  0.00000000000E+00  0.31467213656E+04  0.31467213656E+04  0.00000000000E+00 0.  1.
         -2   -1    0    0    0  501 -0.00000000000E+00 -0.00000000000E+00 -0.19762285235E+03  0.19762285235E+03  0.00000000000E+00 0. -1.
         23    2    1    2    0    0 -0.52452603838E+03  0.39131710087E+02  0.11025219877E+04  0.12240643567E+04  0.78230176522E+02 0.  0.
        254    2    1    2    0    0  0.52452603838E+03 -0.39131710087E+02  0.18465765256E+04  0.21202798612E+04  0.89949039418E+03 0.  0.
        -24    2    4    4    0    0  0.68688829465E+03 -0.12564415952E+03  0.84595326138E+03  0.10997890357E+04  0.79353754798E+02 0.  0.
         24    2    4    4    0    0 -0.16236225626E+03  0.86512449434E+02  0.10006232642E+04  0.10204908255E+04  0.79427337380E+02 0.  0.
         13    1    3    3    0    0 -0.37455524290E+03  0.63280575594E+02  0.78551956030E+03  0.87254629725E+03  0.00000000000E+00 0.  1.
        -13    1    3    3    0    0 -0.14997079548E+03 -0.24148865507E+02  0.31700242736E+03  0.35151805950E+03  0.00000000000E+00 0. -1.
          4    1    6    6  502    0 -0.16323880365E+03  0.88329380865E+02  0.10013047386E+04  0.10183615105E+04  0.00000000000E+00 0. -1.
          1    1    5    5  503    0  0.67629347630E+03 -0.12348756762E+03  0.81086613576E+03  0.10630738147E+04  0.00000000000E+00 0. -1.
         -2    1    5    5    0  503  0.10594818346E+02 -0.21565919011E+01  0.35087125627E+02  0.36715220946E+02  0.00000000000E+00 0.  1.
         -3    1    6    6    0  502  0.87654738889E+00 -0.18169314305E+01 -0.68147437585E+00  0.21293150244E+01  0.00000000000E+00 0.  1.
<mgrwt>
<rscale>  0 0.15771671E+04</rscale>
<asrwt>0</asrwt>
<pdfrwt beam="1">  1        2 0.48411094E+00 0.15771671E+04</pdfrwt>
<pdfrwt beam="2">  1       -2 0.30403518E-01 0.15771671E+04</pdfrwt>
<totfact> 0.13597570E+01</totfact>
</mgrwt>
</event>
<event>
12    1  0.1562393E-007  0.1553163E+04  0.7818608E-02  0.8849850E-01
         -2   -1    0    0    0  501 -0.00000000000E+00  0.00000000000E+00  0.92539510250E+03  0.92539510250E+03  0.00000000000E+00 0.  1.
          2   -1    0    0  501    0  0.00000000000E+00 -0.00000000000E+00 -0.65169868596E+03  0.65169868596E+03  0.00000000000E+00 0. -1.
         23    2    1    2    0    0 -0.32230027877E+03  0.39028149019E+03  0.16360940809E+03  0.53966658715E+03  0.90966343152E+02 0.  0.
        254    2    1    2    0    0  0.32230027877E+03 -0.39028149019E+03  0.11008700845E+03  0.10374272013E+04  0.89885423584E+03 0.  0.
        -24    2    4    4    0    0 -0.71132589597E+02 -0.27337178707E+03  0.42307387445E+03  0.51511837214E+03  0.81015151714E+02 0.  0.
         24    2    4    4    0    0  0.39343286837E+03 -0.11690970312E+03 -0.31298686600E+03  0.52230882916E+03  0.79927680669E+02 0.  0.
         13    1    3    3    0    0 -0.28181176427E+03  0.28235364780E+03  0.12319055959E+03  0.41751331342E+03  0.00000000000E+00 0.  1.
        -13    1    3    3    0    0 -0.40488514502E+02  0.10792784239E+03  0.40418848492E+02  0.12215327373E+03  0.00000000000E+00 0. -1.
          2    1    6    6  502    0  0.24287520593E+03 -0.31176858014E+02 -0.18588916431E+03  0.30743315296E+03  0.00000000000E+00 0. -1.
          1    1    5    5  503    0 -0.90395190360E+01 -0.13862163021E+03  0.25904985770E+03  0.29394642036E+03  0.00000000000E+00 0. -1.
         -2    1    5    5    0  503 -0.62093070561E+02 -0.13475015686E+03  0.16402401675E+03  0.22117195178E+03  0.00000000000E+00 0.  1.
         -1    1    6    6    0  502  0.15055766244E+03 -0.85732845105E+02 -0.12709770169E+03  0.21487567620E+03  0.00000000000E+00 0.  1.
<mgrwt>
<rscale>  0 0.15531629E+04</rscale>
<asrwt>0</asrwt>
<pdfrwt beam="1">  1        2 0.10026134E+00 0.15531629E+04</pdfrwt>
<pdfrwt beam="2">  1       -2 0.14236848E+00 0.15531629E+04</pdfrwt>
<totfact> 0.14819411E+01</totfact>
</mgrwt>
</event>
<event>
12    1  0.1562393E-007  0.1929709E+04  0.7818608E-02  0.8640208E-01
          2   -1    0    0  501    0  0.00000000000E+00  0.00000000000E+00  0.21748647157E+04  0.21748647157E+04  0.00000000000E+00 0. -1.
         -2   -1    0    0    0  501 -0.00000000000E+00 -0.00000000000E+00 -0.42804696560E+03  0.42804696560E+03  0.00000000000E+00 0.  1.
         23    2    1    2    0    0  0.12399524797E+03  0.60553429447E+03  0.10607098919E+03  0.63375759062E+03  0.91383946264E+02 0.  0.
        254    2    1    2    0    0 -0.12399524797E+03 -0.60553429447E+03  0.16407467609E+04  0.19691540907E+04  0.89636560403E+03 0.  0.
        -24    2    4    4    0    0 -0.13239494848E+03 -0.14731132576E+03  0.14514227426E+04  0.14669277278E+04  0.77588218890E+02 0.  0.
         24    2    4    4    0    0  0.83997005169E+01 -0.45822296871E+03  0.18932401832E+03  0.50222636290E+03  0.79679932596E+02 0.  0.
         13    1    3    3    0    0  0.11272657231E+03  0.46542099981E+03  0.11637246248E+03  0.49281491170E+03  0.00000000000E+00 0.  1.
        -13    1    3    3    0    0  0.11268675651E+02  0.14011329465E+03 -0.10301473296E+02  0.14094267892E+03  0.00000000000E+00 0. -1.
          4    1    6    6  502    0  0.21155871493E+02 -0.33336760001E+03  0.10176248047E+03  0.34919497429E+03  0.00000000000E+00 0. -1.
          3    1    5    5  503    0 -0.26754920378E+02 -0.59508652384E+02  0.28119643610E+03  0.28866683417E+03  0.00000000000E+00 0. -1.
         -4    1    5    5    0  503 -0.10564002810E+03 -0.87802673375E+02  0.11702263065E+04  0.11782608936E+04  0.00000000000E+00 0.  1.
         -3    1    6    6    0  502 -0.12756170976E+02 -0.12485536870E+03  0.87561537846E+02  0.15303138861E+03  0.00000000000E+00 0.  1.
<mgrwt>
<rscale>  0 0.19297090E+04</rscale>
<asrwt>0</asrwt>
<pdfrwt beam="1">  1        2 0.33459457E+00 0.19297090E+04</pdfrwt>
<pdfrwt beam="2">  1       -2 0.65853380E-01 0.19297090E+04</pdfrwt>
<totfact> 0.10580719E+01</totfact>
</mgrwt>
</event>
<event>
12    1  0.1562393E-007  0.1619007E+04  0.7818608E-02  0.8808956E-01
         -2   -1    0    0    0  501 -0.00000000000E+00  0.00000000000E+00  0.12135715596E+04  0.12135715596E+04  0.00000000000E+00 0.  1.
          2   -1    0    0  501    0  0.00000000000E+00 -0.00000000000E+00 -0.53997303377E+03  0.53997303377E+03  0.00000000000E+00 0. -1.
         23    2    1    2    0    0 -0.41981581069E+03 -0.28927019452E+03 -0.59346074069E+01  0.51801290517E+03  0.91540100562E+02 0.  0.
        254    2    1    2    0    0  0.41981581069E+03  0.28927019452E+03  0.67953313326E+03  0.12355316882E+04  0.89713472403E+03 0.  0.
        -24    2    4    4    0    0  0.25260092445E+03  0.60586017346E+03  0.38686812742E+03  0.76636911205E+03  0.82346166159E+02 0.  0.
         24    2    4    4    0    0  0.16721488625E+03 -0.31658997894E+03  0.29266500584E+03  0.46916257617E+03  0.79187652343E+02 0.  0.
         11    1    3    3    0    0 -0.49929049208E+02 -0.60749563286E+02 -0.25843020132E+02  0.82772465735E+02  0.00000000000E+00 0.  1.
        -11    1    3    3    0    0 -0.36988676148E+03 -0.22852063123E+03  0.19908412725E+02  0.43524043943E+03  0.00000000000E+00 0. -1.
          4    1    6    6  502    0  0.34647718540E+01 -0.65928400189E+02  0.38522368102E+02  0.76436453605E+02  0.00000000000E+00 0. -1.
          1    1    5    5  503    0  0.60417977096E+02  0.10849501099E+03  0.40840889760E+02  0.13072672887E+03  0.00000000000E+00 0. -1.
         -2    1    5    5    0  503  0.19218294735E+03  0.49736516247E+03  0.34602723766E+03  0.63564238318E+03  0.00000000000E+00 0.  1.
         -1    1    6    6    0  502  0.16375011439E+03 -0.25066157875E+03  0.25414263774E+03  0.39272612256E+03  0.00000000000E+00 0.  1.
<mgrwt>
<rscale>  0 0.16190070E+04</rscale>
<asrwt>0</asrwt>
<pdfrwt beam="1">  1        2 0.83072775E-01 0.16190070E+04</pdfrwt>
<pdfrwt beam="2">  1       -2 0.18670332E+00 0.16190070E+04</pdfrwt>
<totfact> 0.87807402E+00</totfact>
</mgrwt>
</event>
<event>
12    1  0.1562393E-007  0.2736400E+04  0.7818608E-02  0.8323290E-01
         -1   -1    0    0    0  501 -0.00000000000E+00  0.00000000000E+00  0.13733629266E+04  0.13733629266E+04  0.00000000000E+00 0.  1.
          1   -1    0    0  501    0  0.00000000000E+00 -0.00000000000E+00 -0.13630565881E+04  0.13630565881E+04  0.00000000000E+00 0. -1.
         23    2    1    2    0    0 -0.11403440558E+04 -0.12621762633E+03  0.44863461898E+03  0.12353019796E+04  0.91556018910E+02 0.  0.
        254    2    1    2    0    0  0.11403440558E+04  0.12621762633E+03 -0.43832828043E+03  0.15011175352E+04  0.86307978667E+03 0.  0.
        -24    2    4    4    0    0  0.21798745253E+03 -0.39363804438E+02  0.24192649745E+03  0.34018923004E+03  0.90178952676E+02 0.  0.
         24    2    4    4    0    0  0.92235660327E+03  0.16558143077E+03 -0.68025477788E+03  0.11609283051E+04  0.82759005545E+02 0.  0.
         11    1    3    3    0    0 -0.54063158548E+02 -0.21226112668E+02  0.91740764156E+01  0.58800821842E+02  0.00000000000E+00 0. -1.
        -11    1    3    3    0    0 -0.10862808973E+04 -0.10499151366E+03  0.43946054256E+03  0.11765011577E+04  0.00000000000E+00 0.  1.
          2    1    6    6  502    0  0.73896513101E+02  0.11787204529E+02 -0.28642688715E+02  0.80125129990E+02  0.00000000000E+00 0. -1.
          1    1    5    5  503    0  0.13961533087E+03 -0.10475368818E+01  0.93535158893E+02  0.16805464556E+03  0.00000000000E+00 0. -1.
         -2    1    5    5    0  503  0.78372121662E+02 -0.38316267556E+02  0.14839133856E+03  0.17213458447E+03  0.00000000000E+00 0.  1.
         -1    1    6    6    0  502  0.84846009017E+03  0.15379422624E+03 -0.65161208916E+03  0.10808031751E+04  0.00000000000E+00 0.  1.
<mgrwt>
<rscale>  0 0.27364001E+04</rscale>
<asrwt>0</asrwt>
<pdfrwt beam="1">  1        1 0.20970101E+00 0.27364001E+04</pdfrwt>
<pdfrwt beam="2">  1       -1 0.21128660E+00 0.27364001E+04</pdfrwt>
<totfact> 0.89474598E-01</totfact>
</mgrwt>
</event>
<event>
12    1  0.1562393E-007  0.1438379E+04  0.7818608E-02  0.8926497E-01
          1   -1    0    0  501    0  0.00000000000E+00  0.00000000000E+00  0.52601947792E+03  0.52601947792E+03  0.00000000000E+00 0. -1.
         -1   -1    0    0    0  501 -0.00000000000E+00 -0.00000000000E+00 -0.98329732160E+03  0.98329732160E+03  0.00000000000E+00 0.  1.
         23    2    1    2    0    0 -0.50176323818E+02  0.12423538730E+03  0.29604489006E+03  0.33735812412E+03  0.90641227123E+02 0.  0.
        254    2    1    2    0    0  0.50176323818E+02 -0.12423538730E+03 -0.75332273373E+03  0.11719586754E+04  0.88771611496E+03 0.  0.
        -24    2    4    4    0    0  0.90656998143E+02 -0.49634288143E+03 -0.37399551973E+03  0.63305741585E+03  0.79461284432E+02 0.  0.
         24    2    4    4    0    0 -0.40480674325E+02  0.37210749414E+03 -0.37932721400E+03  0.53890125955E+03  0.80142124220E+02 0.  0.
         11    1    3    3    0    0 -0.66398016318E+02  0.10105267680E+03  0.17277578295E+03  0.21088340673E+03  0.00000000000E+00 0.  1.
        -11    1    3    3    0    0  0.16221692500E+02  0.23182710501E+02  0.12326910710E+03  0.12647471739E+03  0.00000000000E+00 0. -1.
          2    1    6    6  502    0 -0.45312825822E+02  0.91631783666E+02 -0.97652045623E+02  0.14137028675E+03  0.00000000000E+00 0. -1.
          1    1    5    5  503    0 -0.39622664538E+01 -0.43308092144E+02 -0.10957038089E+02  0.44848044376E+02  0.00000000000E+00 0. -1.
         -4    1    5    5    0  503  0.94619264597E+02 -0.45303478929E+03 -0.36303848164E+03  0.58820937148E+03  0.00000000000E+00 0.  1.
         -1    1    6    6    0  502  0.48321514968E+01  0.28047571047E+03 -0.28167516838E+03  0.39753097280E+03  0.00000000000E+00 0.  1.
<mgrwt>
<rscale>  0 0.14383790E+04</rscale>
<asrwt>0</asrwt>
<pdfrwt beam="1">  1        1 0.80926075E-01 0.14383790E+04</pdfrwt>
<pdfrwt beam="2">  1       -1 0.15127651E+00 0.14383790E+04</pdfrwt>
<totfact> 0.13691968E+01</totfact>
</mgrwt>
</event>
<event>
12    1  0.1562393E-007  0.1748042E+04  0.7818608E-02  0.8734429E-01
         -2   -1    0    0    0  501 -0.00000000000E+00  0.00000000000E+00  0.42115990238E+03  0.42115990238E+03  0.00000000000E+00 0.  1.
          2   -1    0    0  501    0  0.00000000000E+00 -0.00000000000E+00 -0.18138299876E+04  0.18138299876E+04  0.00000000000E+00 0. -1.
         23    2    1    2    0    0  0.25429247162E+03  0.49824214391E+03 -0.89322170482E+03  0.10582692524E+04  0.95806584355E+02 0.  0.
        254    2    1    2    0    0 -0.25429247162E+03 -0.49824214391E+03 -0.49944838037E+03  0.11767206375E+04  0.90681468834E+03 0.  0.
        -24    2    4    4    0    0 -0.88257284236E+02  0.23048297031E+03 -0.30492303517E+03  0.40042495036E+03  0.80313981780E+02 0.  0.
         24    2    4    4    0    0 -0.16603518739E+03 -0.72872511422E+03 -0.19452534520E+03  0.77629568715E+03  0.78656903142E+02 0.  0.
         11    1    3    3    0    0  0.11860804961E+02  0.90554452919E+02 -0.17795140909E+03  0.20001872821E+03  0.00000000000E+00 0.  1.
        -11    1    3    3    0    0  0.24243166666E+03  0.40768769099E+03 -0.71527029572E+03  0.85825052422E+03  0.00000000000E+00 0. -1.
          2    1    6    6  502    0 -0.10448410331E+03 -0.50130632298E+03 -0.16933985033E+03  0.53935233588E+03  0.00000000000E+00 0. -1.
          1    1    5    5  503    0 -0.77026209952E+02  0.20475439666E+03 -0.21701938371E+03  0.30814738824E+03  0.00000000000E+00 0. -1.
         -2    1    5    5    0  503 -0.11231074284E+02  0.25728573652E+02 -0.87903651456E+02  0.92277562121E+02  0.00000000000E+00 0.  1.
         -1    1    6    6    0  502 -0.61551084077E+02 -0.22741879124E+03 -0.25185494871E+02  0.23694335127E+03  0.00000000000E+00 0.  1.
<mgrwt>
<rscale>  0 0.17480417E+04</rscale>
<asrwt>0</asrwt>
<pdfrwt beam="1">  1        2 0.27905077E+00 0.17480417E+04</pdfrwt>
<pdfrwt beam="2">  1       -2 0.64793832E-01 0.17480417E+04</pdfrwt>
<totfact> 0.17663493E+01</totfact>
</mgrwt>
</event>
<event>
12    1  0.1562393E-007  0.1520847E+04  0.7818608E-02  0.8870707E-01
          2   -1    0    0  501    0  0.00000000000E+00  0.00000000000E+00  0.37979469168E+04  0.37979469168E+04  0.00000000000E+00 0. -1.
         -2   -1    0    0    0  501 -0.00000000000E+00 -0.00000000000E+00 -0.15225168492E+03  0.15225168492E+03  0.00000000000E+00 0.  1.
         23    2    1    2    0    0 -0.32685801265E+02  0.43823421058E+03  0.17071786669E+04  0.17651609734E+04  0.90645885694E+02 0.  0.
        254    2    1    2    0    0  0.32685801265E+02 -0.43823421058E+03  0.19385165650E+04  0.21850376283E+04  0.90742789203E+03 0.  0.
        -24    2    4    4    0    0 -0.38233987472E+03 -0.11171339775E+03  0.46456279572E+03  0.61726468748E+03  0.80829698779E+02 0.  0.
         24    2    4    4    0    0  0.41502567599E+03 -0.32652081283E+03  0.14739537693E+04  0.15677729408E+04  0.80685357700E+02 0.  0.
         11    1    3    3    0    0 -0.16141657413E+02  0.14277622058E+03  0.40353250586E+03  0.42835042378E+03  0.00000000000E+00 0.  1.
        -11    1    3    3    0    0 -0.16544143852E+02  0.29545799000E+03  0.13036461610E+04  0.13368105497E+04  0.00000000000E+00 0. -1.
          2    1    6    6  502    0  0.38080248886E+03 -0.28052100959E+03  0.13655682779E+04  0.14451571866E+04  0.00000000000E+00 0. -1.
          1    1    5    5  503    0 -0.37409738751E+03 -0.10387953561E+03  0.46513388988E+03  0.60587898856E+03  0.00000000000E+00 0. -1.
         -2    1    5    5    0  503 -0.82424872115E+01 -0.78338621369E+01 -0.57109416073E+00  0.11385698922E+02  0.00000000000E+00 0.  1.
         -1    1    6    6    0  502  0.34223187128E+02 -0.45999803237E+02  0.10838549135E+03  0.12261575416E+03  0.00000000000E+00 0.  1.
<mgrwt>
<rscale>  0 0.15208469E+04</rscale>
<asrwt>0</asrwt>
<pdfrwt beam="1">  1        2 0.58429945E+00 0.15208469E+04</pdfrwt>
<pdfrwt beam="2">  1       -2 0.23423339E-01 0.15208469E+04</pdfrwt>
<totfact> 0.78195161E+00</totfact>
</mgrwt>
</event>
<event>
12    1  0.1562393E-007  0.2422066E+04  0.7818608E-02  0.8431288E-01
         -1   -1    0    0    0  501 -0.00000000000E+00  0.00000000000E+00  0.56931120175E+03  0.56931120175E+03  0.00000000000E+00 0.  1.
          1   -1    0    0  501    0  0.00000000000E+00 -0.00000000000E+00 -0.25760979360E+04  0.25760979360E+04  0.00000000000E+00 0. -1.
         23    2    1    2    0    0  0.35277098432E+03  0.33214689248E+02 -0.21505506227E+04  0.21812397288E+04  0.85954586160E+02 0.  0.
        254    2    1    2    0    0 -0.35277098432E+03 -0.33214689248E+02  0.14376388848E+03  0.96416940888E+03  0.88510113006E+03 0.  0.
        -24    2    4    4    0    0 -0.30930032193E+03 -0.23405950919E+03 -0.28113571804E+03  0.48549362879E+03  0.78843063453E+02 0.  0.
         24    2    4    4    0    0 -0.43470662387E+02  0.20084481995E+03  0.42489960651E+03  0.47867578009E+03  0.79765196926E+02 0.  0.
         13    1    3    3    0    0  0.17699738985E+02  0.17164827069E+02 -0.80712358324E+02  0.84394293851E+02  0.00000000000E+00 0.  1.
        -13    1    3    3    0    0  0.33507124533E+03  0.16049862179E+02 -0.20698382644E+04  0.20968454350E+04  0.00000000000E+00 0. -1.
          4    1    6    6  502    0  0.24600525184E+01  0.11646410736E+02  0.93982661902E+02  0.94733476024E+02  0.00000000000E+00 0. -1.
          3    1    5    5  503    0 -0.15474660138E+02 -0.35810428196E+02 -0.13257484982E+02  0.41202096816E+02  0.00000000000E+00 0. -1.
         -4    1    5    5    0  503 -0.29382566179E+03 -0.19824908100E+03 -0.26787823305E+03  0.44429153198E+03  0.00000000000E+00 0.  1.
         -3    1    6    6    0  502 -0.45930714905E+02  0.18919840921E+03  0.33091694461E+03  0.38394230407E+03  0.00000000000E+00 0.  1.
<mgrwt>
<rscale>  0 0.24220664E+04</rscale>
<asrwt>0</asrwt>
<pdfrwt beam="1">  1        1 0.39632276E+00 0.24220664E+04</pdfrwt>
<pdfrwt beam="2">  1       -1 0.87586338E-01 0.24220664E+04</pdfrwt>
<totfact> 0.13751078E+00</totfact>
</mgrwt>
</event>
<event>
12    1  0.1562393E-007  0.2292472E+04  0.7818608E-02  0.8480895E-01
          2   -1    0    0  501    0  0.00000000000E+00  0.00000000000E+00  0.26429804755E+04  0.26429804755E+04  0.00000000000E+00 0. -1.
         -2   -1    0    0    0  501 -0.00000000000E+00 -0.00000000000E+00 -0.49711180437E+03  0.49711180437E+03  0.00000000000E+00 0.  1.
         23    2    1    2    0    0 -0.36233866897E+02 -0.67976722427E+03  0.18548811146E+04  0.19778888820E+04  0.89800378706E+02 0.  0.
        254    2    1    2    0    0  0.36233866897E+02  0.67976722427E+03  0.29098755656E+03  0.11622033979E+04  0.89590546802E+03 0.  0.
        -24    2    4    4    0    0  0.42866537050E+03  0.43884713575E+03  0.15067264657E+02  0.61944602799E+03  0.84531359340E+02 0.  0.
         24    2    4    4    0    0 -0.39243150360E+03  0.24092008852E+03  0.27592029190E+03  0.54275736987E+03  0.80053613275E+02 0.  0.
         13    1    3    3    0    0 -0.29465922494E+02 -0.45674576497E+03  0.13622572287E+04  0.14370907040E+04  0.00000000000E+00 0. -1.
        -13    1    3    3    0    0 -0.67679444031E+01 -0.22302145930E+03  0.49262388590E+03  0.54079817801E+03  0.00000000000E+00 0.  1.
          2    1    6    6  502    0 -0.37121789708E+03  0.21587674118E+03  0.23249069375E+03  0.48832101857E+03  0.00000000000E+00 0. -1.
          3    1    5    5  503    0  0.28472897375E+03  0.30910172007E+03  0.47634403104E+02  0.42294621195E+03  0.00000000000E+00 0. -1.
         -4    1    5    5    0  503  0.14393639675E+03  0.12974541568E+03 -0.32567138447E+02  0.19649981605E+03  0.00000000000E+00 0.  1.
         -1    1    6    6    0  502 -0.21213606516E+02  0.25043347347E+02  0.43429598153E+02  0.54436351306E+02  0.00000000000E+00 0.  1.
<mgrwt>
<rscale>  0 0.22924718E+04</rscale>
<asrwt>0</asrwt>
<pdfrwt beam="1">  1        2 0.40661237E+00 0.22924718E+04</pdfrwt>
<pdfrwt beam="2">  1       -2 0.76478741E-01 0.22924718E+04</pdfrwt>
<totfact> 0.39823526E+00</totfact>
</mgrwt>
</event>
<event>
12    1  0.1562393E-007  0.1542435E+04  0.7818608E-02  0.8856714E-01
         -2   -1    0    0    0  501 -0.00000000000E+00  0.00000000000E+00  0.45569988937E+03  0.45569988937E+03  0.00000000000E+00 0.  1.
          2   -1    0    0  501    0  0.00000000000E+00 -0.00000000000E+00 -0.13051932657E+04  0.13051932657E+04  0.00000000000E+00 0. -1.
         23    2    1    2    0    0  0.84430081482E+02 -0.85395301791E+02  0.28015470265E+03  0.32025939248E+03  0.98278302947E+02 0.  0.
        254    2    1    2    0    0 -0.84430081482E+02  0.85395301791E+02 -0.11296480790E+04  0.14406337626E+04  0.88594585576E+03 0.  0.
        -24    2    4    4    0    0  0.85775789788E+02  0.38068280684E+03 -0.19688248818E+03  0.44438251736E+03  0.80226068379E+02 0.  0.
         24    2    4    4    0    0 -0.17020587127E+03 -0.29528750505E+03 -0.93276559079E+03  0.99625124521E+03  0.79373465171E+02 0.  0.
         13    1    3    3    0    0  0.66395118593E+02 -0.10286980158E+03  0.26223493433E+03  0.28940917164E+03  0.00000000000E+00 0.  1.
        -13    1    3    3    0    0  0.18034962889E+02  0.17474499787E+02  0.17919768325E+02  0.30850220843E+02  0.00000000000E+00 0. -1.
          4    1    6    6  502    0 -0.10135655627E+03 -0.10300873815E+03 -0.34639563614E+03  0.37533170446E+03  0.00000000000E+00 0. -1.
          1    1    5    5  503    0  0.16266057200E+02  0.73814298685E+01 -0.32920941770E+01  0.18163369946E+02  0.00000000000E+00 0. -1.
         -2    1    5    5    0  503  0.69509732588E+02  0.37330137697E+03 -0.19359039400E+03  0.42621914742E+03  0.00000000000E+00 0.  1.
         -3    1    6    6    0  502 -0.68849315005E+02 -0.19227876691E+03 -0.58636995464E+03  0.62091954075E+03  0.00000000000E+00 0.  1.
<mgrwt>
<rscale>  0 0.15424350E+04</rscale>
<asrwt>0</asrwt>
<pdfrwt beam="1">  1        2 0.20079896E+00 0.15424350E+04</pdfrwt>
<pdfrwt beam="2">  1       -2 0.70107676E-01 0.15424350E+04</pdfrwt>
<totfact> 0.29293439E+01</totfact>
</mgrwt>
</event>
<event>
12    1  0.1562393E-007  0.2056025E+04  0.7818608E-02  0.8580866E-01
         -2   -1    0    0    0  501 -0.00000000000E+00  0.00000000000E+00  0.15177164381E+04  0.15177164381E+04  0.00000000000E+00 0.  1.
          2   -1    0    0  501    0  0.00000000000E+00 -0.00000000000E+00 -0.69631562749E+03  0.69631562749E+03  0.00000000000E+00 0. -1.
         23    2    1    2    0    0  0.12854620436E+03 -0.26459627795E+03 -0.49937131842E+03  0.58679899140E+03  0.91793385839E+02 0.  0.
        254    2    1    2    0    0 -0.12854620436E+03  0.26459627795E+03  0.13207721290E+04  0.16272330742E+04  0.90383247561E+03 0.  0.
        -24    2    4    4    0    0 -0.42546624907E+03 -0.96563805802E+01  0.10450927384E+04  0.11312542862E+04  0.80016581870E+02 0.  0.
         24    2    4    4    0    0  0.29692004471E+03  0.27425265853E+03  0.27567939065E+03  0.49597878803E+03  0.81362141554E+02 0.  0.
         13    1    3    3    0    0  0.88946633715E+02 -0.21958381070E+03 -0.32339116130E+03  0.40088701248E+03  0.00000000000E+00 0.  1.
        -13    1    3    3    0    0  0.39599570648E+02 -0.45012467249E+02 -0.17598015713E+03  0.18591197892E+03  0.00000000000E+00 0. -1.
          2    1    6    6  502    0  0.13637074005E+03  0.11109245679E+03  0.16715730413E+03  0.24265217292E+03  0.00000000000E+00 0. -1.
          3    1    5    5  503    0 -0.23395302283E+02  0.11242194619E+02  0.11267573967E+03  0.11562676774E+03  0.00000000000E+00 0. -1.
         -4    1    5    5    0  503 -0.40207094679E+03 -0.20898575199E+02  0.93241699872E+03  0.10156275184E+04  0.00000000000E+00 0.  1.
         -1    1    6    6    0  502  0.16054930466E+03  0.16316020174E+03  0.10852208653E+03  0.25332661511E+03  0.00000000000E+00 0.  1.
<mgrwt>
<rscale>  0 0.20560250E+04</rscale>
<asrwt>0</asrwt>
<pdfrwt beam="1">  1        2 0.10712548E+00 0.20560250E+04</pdfrwt>
<pdfrwt beam="2">  1       -2 0.23349484E+00 0.20560250E+04</pdfrwt>
<totfact> 0.31003894E+00</totfact>
</mgrwt>
</event>
<event>
12    1  0.1562393E-007  0.1293334E+04  0.7818608E-02  0.9034868E-01
          1   -1    0    0  501    0  0.00000000000E+00  0.00000000000E+00  0.20314647044E+04  0.20314647044E+04  0.00000000000E+00 0. -1.
         -1   -1    0    0    0  501 -0.00000000000E+00 -0.00000000000E+00 -0.20585064917E+03  0.20585064917E+03  0.00000000000E+00 0.  1.
         23    2    1    2    0    0  0.18402486612E+03 -0.17950043302E+03  0.13490873206E+03  0.30353751063E+03  0.88595132866E+02 0.  0.
        254    2    1    2    0    0 -0.18402486612E+03  0.17950043302E+03  0.16907053232E+04  0.19337778430E+04  0.90273290582E+03 0.  0.
        -24    2    4    4    0    0 -0.17735414244E+03  0.33882103886E+03  0.17104790757E+04  0.17543543400E+04  0.75936115494E+02 0.  0.
         24    2    4    4    0    0 -0.66707236857E+01 -0.15932060584E+03 -0.19773752482E+02  0.17942350299E+03  0.79838826003E+02 0.  0.
         11    1    3    3    0    0  0.18933095057E+03 -0.16391779678E+03  0.10963839513E+03  0.27337854822E+03  0.00000000000E+00 0.  1.
        -11    1    3    3    0    0 -0.53060844492E+01 -0.15582636244E+02  0.25270336936E+02  0.30158962405E+02  0.00000000000E+00 0. -1.
          4    1    6    6  502    0 -0.37018955712E+02 -0.50398526783E+02  0.78584848735E+01  0.63025156631E+02  0.00000000000E+00 0. -1.
          1    1    5    5  503    0  0.67982196613E+01  0.26224759983E+02  0.11884586692E+03  0.12189460164E+03  0.00000000000E+00 0. -1.
         -2    1    5    5    0  503 -0.18415236210E+03  0.31259627888E+03  0.15916332088E+04  0.16324597383E+04  0.00000000000E+00 0.  1.
         -3    1    6    6    0  502  0.30348232026E+02 -0.10892207906E+03 -0.27632237356E+02  0.11639834636E+03  0.00000000000E+00 0.  1.
<mgrwt>
<rscale>  0 0.12933342E+04</rscale>
<asrwt>0</asrwt>
<pdfrwt beam="1">  1        1 0.31253302E+00 0.12933342E+04</pdfrwt>
<pdfrwt beam="2">  1       -1 0.31669332E-01 0.12933342E+04</pdfrwt>
<totfact> 0.25901590E+01</totfact>
</mgrwt>
</event>
<event>
12    1  0.1562393E-007  0.1314529E+04  0.7818608E-02  0.9018122E-01
         -2   -1    0    0    0  501 -0.00000000000E+00  0.00000000000E+00  0.53563547678E+03  0.53563547678E+03  0.00000000000E+00 0.  1.
          2   -1    0    0  501    0  0.00000000000E+00 -0.00000000000E+00 -0.80651211568E+03  0.80651211568E+03  0.00000000000E+00 0. -1.
         23    2    1    2    0    0 -0.12074035026E+03  0.17603183615E+03 -0.34398614802E+03  0.41451219333E+03  0.89041837741E+02 0.  0.
        254    2    1    2    0    0  0.12074035026E+03 -0.17603183615E+03  0.73109509119E+02  0.92763539914E+03  0.89977607986E+03 0.  0.
        -24    2    4    4    0    0  0.87875269790E+02 -0.53776293802E+03  0.76875865821E+02  0.55627115215E+03  0.81342826483E+02 0.  0.
         24    2    4    4    0    0  0.32865080469E+02  0.36173110187E+03 -0.37663567019E+01  0.37136424699E+03  0.77250986564E+02 0.  0.
         13    1    3    3    0    0 -0.35793277184E+02  0.35099185112E+01 -0.32648161293E+02  0.48573456284E+02  0.00000000000E+00 0.  1.
        -13    1    3    3    0    0 -0.84947073075E+02  0.17252191763E+03 -0.31133798673E+03  0.36593873704E+03  0.00000000000E+00 0. -1.
          2    1    6    6  502    0  0.44119860261E+02  0.32106003063E+03  0.16610071857E+02  0.32450269618E+03  0.00000000000E+00 0. -1.
          3    1    5    5  503    0  0.94117030269E+02 -0.48328970286E+03  0.88405331417E+02  0.50024239614E+03  0.00000000000E+00 0. -1.
         -4    1    5    5    0  503 -0.62417604789E+01 -0.54473235160E+02 -0.11529465596E+02  0.56028756006E+02  0.00000000000E+00 0.  1.
         -1    1    6    6    0  502 -0.11254779792E+02  0.40671071238E+02 -0.20376428558E+02  0.46861550813E+02  0.00000000000E+00 0.  1.
<mgrwt>
<rscale>  0 0.13145288E+04</rscale>
<asrwt>0</asrwt>
<pdfrwt beam="1">  1        2 0.12407879E+00 0.13145288E+04</pdfrwt>
<pdfrwt beam="2">  1       -2 0.82405459E-01 0.13145288E+04</pdfrwt>
<totfact> 0.43154393E+01</totfact>
</mgrwt>
</event>
<event>
12    1  0.1562393E-007  0.1255132E+04  0.7818608E-02  0.9065923E-01
         -1   -1    0    0    0  501 -0.00000000000E+00  0.00000000000E+00  0.67218045190E+03  0.67218045190E+03  0.00000000000E+00 0.  1.
          1   -1    0    0  501    0  0.00000000000E+00 -0.00000000000E+00 -0.58591241780E+03  0.58591241780E+03  0.00000000000E+00 0. -1.
         23    2    1    2    0    0 -0.72580123781E+02  0.21851542834E+03  0.20506941842E+03  0.32134880722E+03  0.90524707883E+02 0.  0.
        254    2    1    2    0    0  0.72580123781E+02 -0.21851542834E+03 -0.11880138432E+03  0.93674406248E+03  0.90019931287E+03 0.  0.
        -24    2    4    4    0    0  0.34255102293E+03  0.21545558701E+03 -0.59620814698E+02  0.41659272372E+03  0.78946454174E+02 0.  0.
         24    2    4    4    0    0 -0.26997089915E+03 -0.43397101536E+03 -0.59180569617E+02  0.52015133876E+03  0.76419544865E+02 0.  0.
         11    1    3    3    0    0 -0.61390330797E+02  0.57232327125E+02  0.52142185949E+02  0.98808499326E+02  0.00000000000E+00 0. -1.
        -11    1    3    3    0    0 -0.11189792984E+02  0.16128310122E+03  0.15292723247E+03  0.22254030789E+03  0.00000000000E+00 0.  1.
          2    1    6    6  502    0 -0.54190480327E+02 -0.65015614080E+02 -0.36369101578E+02  0.92121386126E+02  0.00000000000E+00 0. -1.
          3    1    5    5  503    0  0.25740359408E+03  0.18727579108E+03 -0.71117553431E+02  0.32616949363E+03  0.00000000000E+00 0. -1.
         -4    1    5    5    0  503  0.85147428846E+02  0.28179795936E+02  0.11496738733E+02  0.90423230088E+02  0.00000000000E+00 0.  1.
         -3    1    6    6    0  502 -0.21578041882E+03 -0.36895540128E+03 -0.22811468040E+02  0.42802995263E+03  0.00000000000E+00 0.  1.
<mgrwt>
<rscale>  0 0.12551317E+04</rscale>
<asrwt>0</asrwt>
<pdfrwt beam="1">  1        1 0.90140372E-01 0.12551317E+04</pdfrwt>
<pdfrwt beam="2">  1       -1 0.10341238E+00 0.12551317E+04</pdfrwt>
<totfact> 0.30836124E+01</totfact>
</mgrwt>
</event>
<event>
12    1  0.1562393E-007  0.1928871E+04  0.7818608E-02  0.8640617E-01
          2   -1    0    0  501    0  0.00000000000E+00  0.00000000000E+00  0.17597412788E+04  0.17597412788E+04  0.00000000000E+00 0.  1.
         -2   -1    0    0    0  501 -0.00000000000E+00 -0.00000000000E+00 -0.52856406944E+03  0.52856406944E+03  0.00000000000E+00 0. -1.
         23    2    1    2    0    0 -0.63137848127E+03  0.13941320769E+03  0.94238074713E+03  0.11466349809E+04  0.92819598246E+02 0.  0.
        254    2    1    2    0    0  0.63137848127E+03 -0.13941320769E+03  0.28879646219E+03  0.11416703673E+04  0.89550711994E+03 0.  0.
        -24    2    4    4    0    0  0.84356955564E+03 -0.71861278305E+02  0.30700816564E+03  0.90402612502E+03  0.78965704024E+02 0.  0.
         24    2    4    4    0    0 -0.21219107438E+03 -0.67551929380E+02 -0.18211703454E+02  0.23764424226E+03  0.80961747330E+02 0.  0.
         13    1    3    3    0    0 -0.25223180603E+03  0.96903436495E+02  0.42917650225E+03  0.50715247220E+03  0.00000000000E+00 0. -1.
        -13    1    3    3    0    0 -0.37914667523E+03  0.42509771190E+02  0.51320424488E+03  0.63948250871E+03  0.00000000000E+00 0.  1.
          4    1    6    6  502    0 -0.16862025384E+03 -0.15905871777E+02 -0.12228854114E+02  0.16980969241E+03  0.00000000000E+00 0. -1.
          3    1    5    5  503    0  0.43573788256E+03 -0.77007047244E+00  0.14074963422E+03  0.45790670975E+03  0.00000000000E+00 0. -1.
         -4    1    5    5    0  503  0.40783167309E+03 -0.71091207833E+02  0.16625853143E+03  0.44611941526E+03  0.00000000000E+00 0.  1.
         -3    1    6    6    0  502 -0.43570820534E+02 -0.51646057603E+02 -0.59828493403E+01  0.67834549856E+02  0.00000000000E+00 0.  1.
<mgrwt>
<rscale>  0 0.19288712E+04</rscale>
<asrwt>0</asrwt>
<pdfrwt beam="1">  1        2 0.27072942E+00 0.19288712E+04</pdfrwt>
<pdfrwt beam="2">  1       -2 0.81317550E-01 0.19288712E+04</pdfrwt>
<totfact> 0.11308768E+01</totfact>
</mgrwt>
</event>
<event>
12    1  0.1562393E-007  0.1881555E+04  0.7818608E-02  0.8664092E-01
         -2   -1    0    0    0  501 -0.00000000000E+00  0.00000000000E+00  0.10445100832E+04  0.10445100832E+04  0.00000000000E+00 0.  1.
          2   -1    0    0  501    0  0.00000000000E+00 -0.00000000000E+00 -0.84734693519E+03  0.84734693519E+03  0.00000000000E+00 0. -1.
         23    2    1    2    0    0  0.23794277563E+03 -0.38457354239E+03 -0.49067103447E+03  0.67353336285E+03  0.91518046411E+02 0.  0.
        254    2    1    2    0    0 -0.23794277563E+03  0.38457354239E+03  0.68783418246E+03  0.12183236555E+04  0.89815538358E+03 0.  0.
        -24    2    4    4    0    0  0.88934419318E+02  0.36842518537E+03 -0.65573027516E+02  0.39280810796E+03  0.79699056371E+02 0.  0.
         24    2    4    4    0    0 -0.32687719495E+03  0.16148357020E+02  0.75340720998E+03  0.82551554756E+03  0.82122014134E+02 0.  0.
         13    1    3    3    0    0  0.21018234945E+03 -0.27753784221E+03 -0.33985843317E+03  0.48652608200E+03  0.00000000000E+00 0.  1.
        -13    1    3    3    0    0  0.27760426178E+02 -0.10703570018E+03 -0.15081260131E+03  0.18700728084E+03  0.00000000000E+00 0. -1.
          4    1    6    6  502    0 -0.81349964491E+02 -0.17162085987E+02  0.12604111070E+03  0.15099243526E+03  0.00000000000E+00 0. -1.
          1    1    5    5  503    0  0.69753006808E+01  0.30971076523E+01 -0.12515106318E+02  0.14658607763E+02  0.00000000000E+00 0. -1.
         -2    1    5    5    0  503  0.81959118637E+02  0.36532807771E+03 -0.53057921198E+02  0.37814950019E+03  0.00000000000E+00 0.  1.
         -3    1    6    6    0  502 -0.24552723046E+03  0.33310443007E+02  0.62736609928E+03  0.67452311230E+03  0.00000000000E+00 0.  1.
<mgrwt>
<rscale>  0 0.18815551E+04</rscale>
<asrwt>0</asrwt>
<pdfrwt beam="1">  1        2 0.13036107E+00 0.18815551E+04</pdfrwt>
<pdfrwt beam="2">  1       -2 0.16069386E+00 0.18815551E+04</pdfrwt>
<totfact> 0.74395621E+00</totfact>
</mgrwt>
</event>
<event>
12    1  0.1562393E-007  0.2192538E+04  0.7818608E-02  0.8521540E-01
         -2   -1    0    0    0  501 -0.00000000000E+00  0.00000000000E+00  0.51065839359E+03  0.51065839359E+03  0.00000000000E+00 0.  1.
          2   -1    0    0  501    0  0.00000000000E+00 -0.00000000000E+00 -0.23534444683E+04  0.23534444683E+04  0.00000000000E+00 0. -1.
         23    2    1    2    0    0  0.65804174428E+03 -0.93457909535E+02 -0.15509051204E+04  0.16897249765E+04  0.90058233339E+02 0.  0.
        254    2    1    2    0    0 -0.65804174428E+03  0.93457909535E+02 -0.29188095430E+03  0.11743778855E+04  0.92315524604E+03 0.  0.
        -24    2    4    4    0    0 -0.29273590137E+03 -0.78618543057E+02 -0.58863608446E+03  0.66695694020E+03  0.80398612484E+02 0.  0.
         24    2    4    4    0    0 -0.36530584291E+03  0.17207645259E+03  0.29675513016E+03  0.50742094525E+03  0.79710375742E+02 0.  0.
         11    1    3    3    0    0  0.33707050485E+03 -0.59769865861E+02 -0.68847550611E+03  0.76888717288E+03  0.00000000000E+00 0. -1.
        -11    1    3    3    0    0  0.32097123943E+03 -0.33688043674E+02 -0.86242961433E+03  0.92083780358E+03  0.00000000000E+00 0.  1.
          4    1    6    6  502    0 -0.36576164103E+03  0.17244454897E+03  0.28279562808E+03  0.49344915420E+03  0.00000000000E+00 0. -1.
          3    1    5    5  503    0 -0.29534075741E+03 -0.73032874698E+02 -0.55648446020E+03  0.63421992891E+03  0.00000000000E+00 0. -1.
         -4    1    5    5    0  503  0.26048560424E+01 -0.55856683585E+01 -0.32151624259E+02  0.32737011295E+02  0.00000000000E+00 0.  1.
         -3    1    6    6    0  502  0.45579811502E+00 -0.36809638024E+00  0.13959502085E+02  0.13971791056E+02  0.00000000000E+00 0.  1.
<mgrwt>
<rscale>  0 0.21925384E+04</rscale>
<asrwt>0</asrwt>
<pdfrwt beam="1">  1        2 0.36206838E+00 0.21925384E+04</pdfrwt>
<pdfrwt beam="2">  1       -2 0.78562830E-01 0.21925384E+04</pdfrwt>
<totfact> 0.55658023E+00</totfact>
</mgrwt>
</event>
<event>
12    1  0.1562393E-007  0.2845786E+04  0.7818608E-02  0.8289193E-01
          1   -1    0    0  501    0  0.00000000000E+00  0.00000000000E+00  0.33001390876E+04  0.33001390876E+04  0.00000000000E+00 0. -1.
         -1   -1    0    0    0  501 -0.00000000000E+00 -0.00000000000E+00 -0.61349673220E+03  0.61349673220E+03  0.00000000000E+00 0.  1.
         23    2    1    2    0    0 -0.80767475809E+03 -0.76811683712E+03  0.36259908883E+03  0.11757902187E+04  0.93072815074E+02 0.  0.
        254    2    1    2    0    0  0.80767475809E+03  0.76811683712E+03  0.23240432666E+04  0.27378456011E+04  0.92318981807E+03 0.  0.
        -24    2    4    4    0    0  0.63193316926E+03  0.71004592042E+03  0.23481355798E+04  0.25345599069E+04  0.82149138573E+02 0.  0.
         24    2    4    4    0    0  0.17574158883E+03  0.58070916694E+02 -0.24092313207E+02  0.20328569422E+03  0.80543755235E+02 0.  0.
         11    1    3    3    0    0 -0.71155770736E+03 -0.69211723206E+03  0.35030540563E+03  0.10526416822E+04  0.00000000000E+00 0.  1.
        -11    1    3    3    0    0 -0.96117050735E+02 -0.75999605059E+02  0.12293683204E+02  0.12314853656E+03  0.00000000000E+00 0. -1.
          4    1    6    6  502    0  0.50947916502E+02  0.36880611287E+01  0.27130471927E+02  0.57839039565E+02  0.00000000000E+00 0. -1.
          3    1    5    5  503    0  0.39061500906E+03  0.49067161828E+03  0.15927310366E+04  0.17117625061E+04  0.00000000000E+00 0. -1.
         -4    1    5    5    0  503  0.24131816020E+03  0.21937430214E+03  0.75540454318E+03  0.82279740079E+03  0.00000000000E+00 0.  1.
         -3    1    6    6    0  502  0.12479367233E+03  0.54382855566E+02 -0.51222785134E+02  0.14544665465E+03  0.00000000000E+00 0.  1.
<mgrwt>
<rscale>  0 0.28457860E+04</rscale>
<asrwt>0</asrwt>
<pdfrwt beam="1">  1        1 0.50771370E+00 0.28457860E+04</pdfrwt>
<pdfrwt beam="2">  1       -1 0.94384114E-01 0.28457860E+04</pdfrwt>
<totfact> 0.33433618E-01</totfact>
</mgrwt>
</event>
<event>
12    1  0.1562393E-007  0.1123931E+04  0.7818608E-02  0.9182176E-01
          2   -1    0    0  501    0  0.00000000000E+00  0.00000000000E+00  0.93136707248E+03  0.93136707248E+03  0.00000000000E+00 0. -1.
         -2   -1    0    0    0  501 -0.00000000000E+00 -0.00000000000E+00 -0.33907705876E+03  0.33907705876E+03  0.00000000000E+00 0.  1.
         23    2    1    2    0    0  0.10917006695E+03 -0.89187792411E+02 -0.33066292390E+02  0.17119265414E+03  0.91328962039E+02 0.  0.
        254    2    1    2    0    0 -0.10917006695E+03  0.89187792411E+02  0.62535630611E+03  0.10992514771E+04  0.89297857447E+03 0.  0.
        -24    2    4    4    0    0  0.15118072792E+03 -0.29052826641E+03  0.52045744310E+03  0.62006147022E+03  0.79611498591E+02 0.  0.
         24    2    4    4    0    0 -0.26035079487E+03  0.37971605882E+03  0.10489886302E+03  0.47919000687E+03  0.81562672251E+02 0.  0.
         11    1    3    3    0    0 -0.59725537305E+01 -0.41554510571E+02 -0.18003889594E+02  0.45679194251E+02  0.00000000000E+00 0. -1.
        -11    1    3    3    0    0  0.11514262068E+03 -0.47633281840E+02 -0.15062402796E+02  0.12551345989E+03  0.00000000000E+00 0.  1.
          2    1    6    6  502    0 -0.16182093847E+03  0.22646181001E+03  0.10359699568E+03  0.29699041236E+03  0.00000000000E+00 0. -1.
          1    1    5    5  503    0  0.10837784848E+03 -0.15307277169E+03  0.23789428052E+03  0.30293682539E+03  0.00000000000E+00 0. -1.
         -2    1    5    5    0  503  0.42802879439E+02 -0.13745549472E+03  0.28256316257E+03  0.31712464483E+03  0.00000000000E+00 0.  1.
         -3    1    6    6    0  502 -0.98529856400E+02  0.15325424880E+03  0.13018673398E+01  0.18219959450E+03  0.00000000000E+00 0.  1.
<mgrwt>
<rscale>  0 0.11239310E+04</rscale>
<asrwt>0</asrwt>
<pdfrwt beam="1">  1        2 0.14328724E+00 0.11239310E+04</pdfrwt>
<pdfrwt beam="2">  1       -2 0.52165702E-01 0.11239310E+04</pdfrwt>
<totfact> 0.96065034E+01</totfact>
</mgrwt>
</event>
<event>
12    1  0.1562393E-007  0.1626846E+04  0.7818608E-02  0.8804223E-01
         -1   -1    0    0    0  501 -0.00000000000E+00  0.00000000000E+00  0.51105636542E+03  0.51105636542E+03  0.00000000000E+00 0.  1.
          1   -1    0    0  501    0  0.00000000000E+00 -0.00000000000E+00 -0.12946845173E+04  0.12946845173E+04  0.00000000000E+00 0. -1.
         23    2    1    2    0    0  0.20829646911E+03  0.49889068059E+03 -0.39040995963E+03  0.67312026873E+03  0.91605836977E+02 0.  0.
        254    2    1    2    0    0 -0.20829646911E+03 -0.49889068059E+03 -0.39321819225E+03  0.11326206140E+04  0.91429184525E+03 0.  0.
        -24    2    4    4    0    0  0.29588139333E+03 -0.44421062623E+03 -0.27554944279E+03  0.60618215636E+03  0.81611469115E+02 0.  0.
         24    2    4    4    0    0 -0.50417786244E+03 -0.54680054360E+02 -0.11766874946E+03  0.52643845762E+03  0.78142752363E+02 0.  0.
         11    1    3    3    0    0  0.16669257119E+03  0.39001155808E+03 -0.34951778184E+03  0.54959813368E+03  0.00000000000E+00 0.  1.
        -11    1    3    3    0    0  0.41603897920E+02  0.10887912251E+03 -0.40892177785E+02  0.12352213504E+03  0.00000000000E+00 0. -1.
          4    1    6    6  502    0 -0.18778865937E+02  0.98079285479E+01  0.47322207917E+01  0.21707952043E+02  0.00000000000E+00 0. -1.
          1    1    5    5  503    0  0.95896748401E+02 -0.98811454960E+02 -0.99933403598E+02  0.17013693056E+03  0.00000000000E+00 0. -1.
         -2    1    5    5    0  503  0.19998464493E+03 -0.34539917127E+03 -0.17561603919E+03  0.43604522580E+03  0.00000000000E+00 0.  1.
         -3    1    6    6    0  502 -0.48539899650E+03 -0.64487982908E+02 -0.12240097025E+03  0.50473050558E+03  0.00000000000E+00 0.  1.
<mgrwt>
<rscale>  0 0.16268457E+04</rscale>
<asrwt>0</asrwt>
<pdfrwt beam="1">  1        1 0.19918223E+00 0.16268457E+04</pdfrwt>
<pdfrwt beam="2">  1       -1 0.78624058E-01 0.16268457E+04</pdfrwt>
<totfact> 0.14141325E+01</totfact>
</mgrwt>
</event>
<event>
12    1  0.1562393E-007  0.1097723E+04  0.7818608E-02  0.9207414E-01
         -2   -1    0    0    0  501 -0.00000000000E+00  0.00000000000E+00  0.19727429006E+03  0.19727429006E+03  0.00000000000E+00 0.  1.
          2   -1    0    0  501    0  0.00000000000E+00 -0.00000000000E+00 -0.15270553829E+04  0.15270553829E+04  0.00000000000E+00 0. -1.
         23    2    1    2    0    0  0.12306400117E+03  0.50760122685E+02 -0.99026505307E+02  0.18828259474E+03  0.89009821298E+02 0.  0.
        254    2    1    2    0    0 -0.12306400117E+03 -0.50760122685E+02 -0.12307545875E+04  0.15360470782E+04  0.90937474856E+03 0.  0.
        -24    2    4    4    0    0  0.19891681475E+03 -0.19791934750E+03 -0.11191862091E+04  0.11565297362E+04  0.79014509914E+02 0.  0.
         24    2    4    4    0    0 -0.32198081592E+03  0.14715922482E+03 -0.11156837838E+03  0.37951734197E+03  0.79110217582E+02 0.  0.
         11    1    3    3    0    0  0.60474663581E+02  0.63039086141E+02 -0.87167652861E+02  0.12340709470E+03  0.00000000000E+00 0. -1.
        -11    1    3    3    0    0  0.62589337592E+02 -0.12278963456E+02 -0.11858852447E+02  0.64875500038E+02  0.00000000000E+00 0.  1.
          2    1    6    6  502    0 -0.66489322921E+02  0.32526694891E+01 -0.23644622826E+01  0.66610814462E+02  0.00000000000E+00 0. -1.
          1    1    5    5  503    0  0.36335310499E+02 -0.11268348381E+02 -0.84862028049E+02  0.92998893912E+02  0.00000000000E+00 0. -1.
         -2    1    5    5    0  503  0.16258150425E+03 -0.18665099912E+03 -0.10343241811E+04  0.10635308423E+04  0.00000000000E+00 0.  1.
         -1    1    6    6    0  502 -0.25549149300E+03  0.14390655533E+03 -0.10920391610E+03  0.31290652750E+03  0.00000000000E+00 0.  1.
<mgrwt>
<rscale>  0 0.10977227E+04</rscale>
<asrwt>0</asrwt>
<pdfrwt beam="1">  1        2 0.23493160E+00 0.10977227E+04</pdfrwt>
<pdfrwt beam="2">  1       -2 0.30349890E-01 0.10977227E+04</pdfrwt>
<totfact> 0.12202850E+02</totfact>
</mgrwt>
</event>
<event>
12    1  0.1562393E-007  0.1648738E+04  0.7818608E-02  0.8791153E-01
          2   -1    0    0  501    0  0.00000000000E+00  0.00000000000E+00  0.14463605327E+04  0.14463605327E+04  0.00000000000E+00 0. -1.
         -2   -1    0    0    0  501 -0.00000000000E+00 -0.00000000000E+00 -0.46985832560E+03  0.46985832560E+03  0.00000000000E+00 0.  1.
         23    2    1    2    0    0  0.30584460368E+03  0.42451736900E+03  0.71395280763E+02  0.53596220453E+03  0.91663953626E+02 0.  0.
        254    2    1    2    0    0 -0.30584460368E+03 -0.42451736900E+03  0.90510692630E+03  0.13802566537E+04  0.90118475574E+03 0.  0.
        -24    2    4    4    0    0 -0.56580173079E+03 -0.35800943748E+03  0.35232851502E+03  0.76060893816E+03  0.78027036498E+02 0.  0.
         24    2    4    4    0    0  0.25995712711E+03 -0.66507931516E+02  0.55277841127E+03  0.61964771557E+03  0.79989415266E+02 0.  0.
         11    1    3    3    0    0  0.17042974554E+03  0.22050809475E+03  0.83107284133E+02  0.29082114553E+03  0.00000000000E+00 0. -1.
        -11    1    3    3    0    0  0.13541485814E+03  0.20400927425E+03 -0.11712003370E+02  0.24514105900E+03  0.00000000000E+00 0.  1.
          2    1    6    6  502    0 -0.15857271788E+00 -0.11429866125E+02  0.97637783508E+01  0.15033241588E+02  0.00000000000E+00 0. -1.
          1    1    5    5  503    0 -0.27050839536E+02 -0.15807557562E+02  0.37729428344E+02  0.49042191620E+02  0.00000000000E+00 0. -1.
         -2    1    5    5    0  503 -0.53875089125E+03 -0.34220187992E+03  0.31459908668E+03  0.71156674654E+03  0.00000000000E+00 0.  1.
         -1    1    6    6    0  502  0.26011569983E+03 -0.55078065391E+02  0.54301463292E+03  0.60461447399E+03  0.00000000000E+00 0.  1.
<mgrwt>
<rscale>  0 0.16487384E+04</rscale>
<asrwt>0</asrwt>
<pdfrwt beam="1">  1        2 0.22251700E+00 0.16487384E+04</pdfrwt>
<pdfrwt beam="2">  1       -2 0.72285897E-01 0.16487384E+04</pdfrwt>
<totfact> 0.22532042E+01</totfact>
</mgrwt>
</event>
<event>
12    1  0.1562393E-007  0.1810373E+04  0.7818608E-02  0.8700803E-01
          2   -1    0    0  501    0  0.00000000000E+00  0.00000000000E+00  0.26431160265E+04  0.26431160265E+04  0.00000000000E+00 0. -1.
         -2   -1    0    0    0  501 -0.00000000000E+00 -0.00000000000E+00 -0.30999857381E+03  0.30999857381E+03  0.00000000000E+00 0.  1.
         23    2    1    2    0    0 -0.18181455648E+03  0.50493822720E+03  0.15513687959E+04  0.16441264629E+04  0.91583507613E+02 0.  0.
        254    2    1    2    0    0  0.18181455648E+03 -0.50493822720E+03  0.78174865682E+03  0.13089881375E+04  0.90238563559E+03 0.  0.
        -24    2    4    4    0    0 -0.67064416579E+02  0.18733254115E+03  0.44876278057E+03  0.49740960053E+03  0.80231917147E+02 0.  0.
         24    2    4    4    0    0  0.24887897306E+03 -0.69227076834E+03  0.33298587625E+03  0.81157853692E+03  0.81243879024E+02 0.  0.
         13    1    3    3    0    0 -0.97763996157E+02  0.38804994711E+03  0.11640623665E+04  0.12309271926E+04  0.00000000000E+00 0. -1.
        -13    1    3    3    0    0 -0.84050560326E+02  0.11688828009E+03  0.38730642941E+03  0.41319927030E+03  0.00000000000E+00 0.  1.
          4    1    6    6  502    0  0.14663722586E+03 -0.31459913235E+03  0.18450055778E+03  0.39308465488E+03  0.00000000000E+00 0. -1.
          3    1    5    5  503    0 -0.18345924721E+02  0.37379974560E+02  0.34224520718E+02  0.53899473749E+02  0.00000000000E+00 0. -1.
         -4    1    5    5    0  503 -0.48718491858E+02  0.14995256658E+03  0.41453825985E+03  0.44351012678E+03  0.00000000000E+00 0.  1.
         -3    1    6    6    0  502  0.10224174720E+03 -0.37767163599E+03  0.14848531847E+03  0.41849388204E+03  0.00000000000E+00 0.  1.
<mgrwt>
<rscale>  0 0.18103726E+04</rscale>
<asrwt>0</asrwt>
<pdfrwt beam="1">  1        2 0.40663322E+00 0.18103726E+04</pdfrwt>
<pdfrwt beam="2">  1       -2 0.47692090E-01 0.18103726E+04</pdfrwt>
<totfact> 0.11299045E+01</totfact>
</mgrwt>
</event>
<event>
12    1  0.1562393E-007  0.2541881E+04  0.7818608E-02  0.8388215E-01
          2   -1    0    0  501    0  0.00000000000E+00  0.00000000000E+00  0.17653092955E+04  0.17653092955E+04  0.00000000000E+00 0. -1.
         -2   -1    0    0    0  501 -0.00000000000E+00 -0.00000000000E+00 -0.91501773336E+03  0.91501773336E+03  0.00000000000E+00 0.  1.
         23    2    1    2    0    0  0.59905885926E+03 -0.35503597595E+03  0.12823382581E+04  0.14617232327E+04  0.85564828748E+02 0.  0.
        254    2    1    2    0    0 -0.59905885926E+03  0.35503597595E+03 -0.43204669597E+03  0.12186037961E+04  0.90189179133E+03 0.  0.
        -24    2    4    4    0    0 -0.82641556829E+03  0.33371357925E+03 -0.30327657487E+03  0.94478466348E+03  0.79460273059E+02 0.  0.
         24    2    4    4    0    0  0.22735670903E+03  0.21322396702E+02 -0.12877012110E+03  0.27381913261E+03  0.79053498047E+02 0.  0.
         11    1    3    3    0    0  0.36685813907E+03 -0.24831498392E+03  0.87735892770E+03  0.98285498088E+03  0.00000000000E+00 0. -1.
        -11    1    3    3    0    0  0.23220072019E+03 -0.10672099203E+03  0.40497933037E+03  0.47886825184E+03  0.00000000000E+00 0.  1.
          4    1    6    6  502    0  0.13756994875E+03 -0.10699303165E+02 -0.40261842749E+02  0.14373928436E+03  0.00000000000E+00 0. -1.
          1    1    5    5  503    0 -0.57510687408E+03  0.27025609510E+03 -0.22316363747E+03  0.67348963068E+03  0.00000000000E+00 0. -1.
         -2    1    5    5    0  503 -0.25130869421E+03  0.63457484154E+02 -0.80112937403E+02  0.27129503280E+03  0.00000000000E+00 0.  1.
         -3    1    6    6    0  502  0.89786760283E+02  0.32021699867E+02 -0.88508278351E+02  0.13007984825E+03  0.00000000000E+00 0.  1.
<mgrwt>
<rscale>  0 0.25418807E+04</rscale>
<asrwt>0</asrwt>
<pdfrwt beam="1">  1        2 0.27158605E+00 0.25418807E+04</pdfrwt>
<pdfrwt beam="2">  1       -2 0.14077196E+00 0.25418807E+04</pdfrwt>
<totfact> 0.28389422E+00</totfact>
</mgrwt>
</event>
<event>
12    1  0.1562393E-007  0.1593377E+04  0.7818608E-02  0.8824627E-01
         -2   -1    0    0    0  501 -0.00000000000E+00  0.00000000000E+00  0.63862366976E+03  0.63862366976E+03  0.00000000000E+00 0.  1.
          2   -1    0    0  501    0  0.00000000000E+00 -0.00000000000E+00 -0.99387619015E+03  0.99387619015E+03  0.00000000000E+00 0. -1.
         23    2    1    2    0    0  0.17159535141E+03 -0.40581100073E+03  0.22088854597E+03  0.50114593648E+03  0.90708141749E+02 0.  0.
        254    2    1    2    0    0 -0.17159535141E+03  0.40581100073E+03 -0.57614106636E+03  0.11313539234E+04  0.86827163881E+03 0.  0.
        -24    2    4    4    0    0  0.25619248488E+03 -0.79532744090E+02 -0.33146181933E+03  0.43390324952E+03  0.80281041217E+02 0.  0.
         24    2    4    4    0    0 -0.42778783630E+03  0.48534374482E+03 -0.24467924703E+03  0.69745067390E+03  0.89490363074E+02 0.  0.
         11    1    3    3    0    0  0.18223771195E+03 -0.38563592314E+03  0.20423397158E+03  0.47290291184E+03  0.00000000000E+00 0.  1.
        -11    1    3    3    0    0 -0.10642360539E+02 -0.20175077583E+02  0.16654574387E+02  0.28243024649E+02  0.00000000000E+00 0. -1.
          2    1    6    6  502    0 -0.22816460475E+03  0.19491056533E+03 -0.12768056337E+03  0.32611584077E+03  0.00000000000E+00 0. -1.
          3    1    5    5  503    0  0.12918959934E+03 -0.98800541833E+01 -0.19994852156E+03  0.23825821984E+03  0.00000000000E+00 0. -1.
         -4    1    5    5    0  503  0.12700288555E+03 -0.69652689907E+02 -0.13151329776E+03  0.19564502968E+03  0.00000000000E+00 0.  1.
         -1    1    6    6    0  502 -0.19962323155E+03  0.29043317949E+03 -0.11699868366E+03  0.37133483313E+03  0.00000000000E+00 0.  1.
<mgrwt>
<rscale>  0 0.15933774E+04</rscale>
<asrwt>0</asrwt>
<pdfrwt beam="1">  1        2 0.15290403E+00 0.15933774E+04</pdfrwt>
<pdfrwt beam="2">  1       -2 0.98249796E-01 0.15933774E+04</pdfrwt>
<totfact> 0.21006516E+01</totfact>
</mgrwt>
</event>
<event>
12    1  0.1562393E-007  0.1749443E+04  0.7818608E-02  0.8733657E-01
         -1   -1    0    0    0  501 -0.00000000000E+00  0.00000000000E+00  0.27244573164E+03  0.27244573164E+03  0.00000000000E+00 0.  1.
          1   -1    0    0  501    0  0.00000000000E+00 -0.00000000000E+00 -0.28084051736E+04  0.28084051736E+04  0.00000000000E+00 0. -1.
         23    2    1    2    0    0 -0.44376412040E+03 -0.28960372793E+03 -0.51818710034E+03  0.74634921541E+03  0.87876997004E+02 0.  0.
        254    2    1    2    0    0  0.44376412040E+03  0.28960372793E+03 -0.20177723416E+04  0.23345016898E+04  0.10477098851E+04 0.  0.
        -24    2    4    4    0    0  0.78165917024E+03  0.15059502894E+03 -0.13460558831E+04  0.15658249553E+04  0.79192355208E+02 0.  0.
         24    2    4    4    0    0 -0.33789504983E+03  0.13900869899E+03 -0.67171645847E+03  0.76867673446E+03  0.78513937694E+02 0.  0.
         13    1    3    3    0    0 -0.21313514230E+03 -0.12942312895E+03 -0.18422375958E+03  0.31002472286E+03  0.00000000000E+00 0.  1.
        -13    1    3    3    0    0 -0.23062897810E+03 -0.16018059897E+03 -0.33396334076E+03  0.43632449255E+03  0.00000000000E+00 0. -1.
          4    1    6    6  502    0 -0.19212039430E+03  0.53093118878E+02 -0.42611711900E+03  0.47043057329E+03  0.00000000000E+00 0. -1.
          3    1    5    5  503    0  0.35115368608E+03  0.10783109963E+03 -0.61629923417E+03  0.71746860791E+03  0.00000000000E+00 0. -1.
         -4    1    5    5    0  503  0.43050548415E+03  0.42763929306E+02 -0.72975664895E+03  0.84835634743E+03  0.00000000000E+00 0.  1.
         -3    1    6    6    0  502 -0.14577465554E+03  0.85915580113E+02 -0.24559933947E+03  0.29824616117E+03  0.00000000000E+00 0.  1.
<mgrwt>
<rscale>  0 0.17494433E+04</rscale>
<asrwt>0</asrwt>
<pdfrwt beam="1">  1        1 0.43206235E+00 0.17494433E+04</pdfrwt>
<pdfrwt beam="2">  1       -1 0.41914726E-01 0.17494433E+04</pdfrwt>
<totfact> 0.43643609E+00</totfact>
</mgrwt>
</event>
<event>
12    1  0.1562393E-007  0.1426727E+04  0.7818608E-02  0.8934696E-01
          2   -1    0    0  501    0  0.00000000000E+00  0.00000000000E+00  0.26049013329E+04  0.26049013329E+04  0.00000000000E+00 0. -1.
         -2   -1    0    0    0  501 -0.00000000000E+00 -0.00000000000E+00 -0.19535768900E+03  0.19535768900E+03  0.00000000000E+00 0.  1.
         23    2    1    2    0    0 -0.38193967760E+03  0.10474900275E+02  0.10894264776E+04  0.11581289722E+04  0.91787936789E+02 0.  0.
        254    2    1    2    0    0  0.38193967760E+03 -0.10474900275E+02  0.13201171663E+04  0.16421300497E+04  0.89882930883E+03 0.  0.
        -24    2    4    4    0    0  0.61214681263E+03 -0.12691645892E+03  0.11807113167E+04  0.13383817396E+04  0.79718000629E+02 0.  0.
         24    2    4    4    0    0 -0.23020713503E+03  0.11644155864E+03  0.13940584958E+03  0.30374831010E+03  0.79215423991E+02 0.  0.
         13    1    3    3    0    0 -0.77298423492E+02  0.31748435185E+01  0.34852533177E+03  0.35700844919E+03  0.00000000000E+00 0. -1.
        -13    1    3    3    0    0 -0.30464125411E+03  0.73000567560E+01  0.74090114583E+03  0.80112052304E+03  0.00000000000E+00 0.  1.
          4    1    6    6  502    0 -0.21983035252E+03  0.12796344969E+03  0.13123342474E+03  0.28622061442E+03  0.00000000000E+00 0. -1.
          1    1    5    5  503    0  0.23311135765E+03 -0.77051571152E+02  0.40563571232E+03  0.47414995602E+03  0.00000000000E+00 0. -1.
         -2    1    5    5    0  503  0.37903545498E+03 -0.49864887765E+02  0.77507560440E+03  0.86423178355E+03  0.00000000000E+00 0.  1.
         -3    1    6    6    0  502 -0.10376782501E+02 -0.11521891047E+02  0.81724248370E+01  0.17527695687E+02  0.00000000000E+00 0.  1.
<mgrwt>
<rscale>  0 0.14267270E+04</rscale>
<asrwt>0</asrwt>
<pdfrwt beam="1">  1        2 0.40075403E+00 0.14267270E+04</pdfrwt>
<pdfrwt beam="2">  1       -2 0.30055031E-01 0.14267270E+04</pdfrwt>
<totfact> 0.30141656E+01</totfact>
</mgrwt>
</event>
<event>
12    1  0.1562393E-007  0.1492153E+04  0.7818608E-02  0.8889688E-01
         -2   -1    0    0    0  501 -0.00000000000E+00  0.00000000000E+00  0.37853244024E+03  0.37853244024E+03  0.00000000000E+00 0.  1.
          2   -1    0    0  501    0  0.00000000000E+00 -0.00000000000E+00 -0.14704944043E+04  0.14704944043E+04  0.00000000000E+00 0. -1.
         23    2    1    2    0    0 -0.24061847672E+03  0.33544460661E+03 -0.58218683501E+03  0.71958639402E+03  0.91884341219E+02 0.  0.
        254    2    1    2    0    0  0.24061847672E+03 -0.33544460661E+03 -0.50977512909E+03  0.11294404506E+04  0.91942629594E+03 0.  0.
        -24    2    4    4    0    0  0.94238623914E+02 -0.57795702997E+03 -0.57832674315E+03  0.82690735125E+03  0.79991868138E+02 0.  0.
         24    2    4    4    0    0  0.14637985281E+03  0.24251242337E+03  0.68551614064E+02  0.30253309930E+03  0.81164127473E+02 0.  0.
         13    1    3    3    0    0  0.73375189285E+01  0.30481013864E+01 -0.14935411384E+02  0.16917346698E+02  0.00000000000E+00 0.  1.
        -13    1    3    3    0    0 -0.24795599565E+03  0.33239650522E+03 -0.56725142362E+03  0.70266904732E+03  0.00000000000E+00 0. -1.
          2    1    6    6  502    0  0.68998027567E+02  0.17671556142E+03  0.66218417175E+02  0.20093281521E+03  0.00000000000E+00 0. -1.
          3    1    5    5  503    0  0.84844282880E+02 -0.54988644855E+03 -0.56911686322E+03  0.79590681781E+03  0.00000000000E+00 0. -1.
         -4    1    5    5    0  503  0.93943410333E+01 -0.28070581425E+02 -0.92098799310E+01  0.31000533436E+02  0.00000000000E+00 0.  1.
         -1    1    6    6    0  502  0.77381825243E+02  0.65796861947E+02  0.23331968896E+01  0.10160028409E+03  0.00000000000E+00 0.  1.
<mgrwt>
<rscale>  0 0.14921526E+04</rscale>
<asrwt>0</asrwt>
<pdfrwt beam="1">  1        2 0.22622990E+00 0.14921526E+04</pdfrwt>
<pdfrwt beam="2">  1       -2 0.58235761E-01 0.14921526E+04</pdfrwt>
<totfact> 0.35172773E+01</totfact>
</mgrwt>
</event>
<event>
12    1  0.1562393E-007  0.1222524E+04  0.7818608E-02  0.9093366E-01
         -3   -1    0    0    0  501 -0.00000000000E+00  0.00000000000E+00  0.43973678824E+03  0.43973678824E+03  0.00000000000E+00 0.  1.
          3   -1    0    0  501    0  0.00000000000E+00 -0.00000000000E+00 -0.84969350308E+03  0.84969350308E+03  0.00000000000E+00 0. -1.
         23    2    1    2    0    0 -0.14867458232E+02 -0.22745341823E+03  0.61751936401E+02  0.25374250585E+03  0.92821650757E+02 0.  0.
        254    2    1    2    0    0  0.14867458232E+02  0.22745341823E+03 -0.47170865124E+03  0.10356877855E+04  0.89341146093E+03 0.  0.
        -24    2    4    4    0    0  0.27742284913E+03 -0.50367489073E+02 -0.56280721569E+03  0.63478613348E+03  0.81860564706E+02 0.  0.
         24    2    4    4    0    0 -0.26255539090E+03  0.27782090730E+03  0.91098564445E+02  0.40090165198E+03  0.79393931101E+02 0.  0.
         11    1    3    3    0    0 -0.44231488005E+02 -0.14958558095E+03  0.11240858742E+02  0.15639254287E+03  0.00000000000E+00 0. -1.
        -11    1    3    3    0    0  0.29364029774E+02 -0.77867837276E+02  0.50511077659E+02  0.97349962983E+02  0.00000000000E+00 0.  1.
          2    1    6    6  502    0 -0.61703356394E+02  0.59922551278E+02 -0.12612557471E+02  0.86931541732E+02  0.00000000000E+00 0. -1.
          3    1    5    5  503    0  0.62155350769E+02 -0.47315090386E+02 -0.13975385392E+03  0.16010354491E+03  0.00000000000E+00 0. -1.
         -4    1    5    5    0  503  0.21526749836E+03 -0.30523986869E+01 -0.42305336177E+03  0.47468258857E+03  0.00000000000E+00 0.  1.
         -1    1    6    6    0  502 -0.20085203450E+03  0.21789835602E+03  0.10371112192E+03  0.31397011025E+03  0.00000000000E+00 0.  1.
<mgrwt>
<rscale>  0 0.12225244E+04</rscale>
<asrwt>0</asrwt>
<pdfrwt beam="1">  1        3 0.13072208E+00 0.12225244E+04</pdfrwt>
<pdfrwt beam="2">  1       -3 0.67651814E-01 0.12225244E+04</pdfrwt>
<totfact> 0.24894954E+00</totfact>
</mgrwt>
</event>
<event>
12    1  0.1562393E-007  0.2117440E+04  0.7818608E-02  0.8553600E-01
          2   -1    0    0  501    0  0.00000000000E+00  0.00000000000E+00  0.10787960187E+04  0.10787960187E+04  0.00000000000E+00 0. -1.
         -2   -1    0    0    0  501 -0.00000000000E+00 -0.00000000000E+00 -0.10390172625E+04  0.10390172625E+04  0.00000000000E+00 0.  1.
         23    2    1    2    0    0 -0.68589625356E+03 -0.39363320675E+03  0.36860129190E+03  0.87739007648E+03  0.92442748890E+02 0.  0.
        254    2    1    2    0    0  0.68589625356E+03  0.39363320675E+03 -0.32882253568E+03  0.12404232047E+04  0.89728740917E+03 0.  0.
        -24    2    4    4    0    0  0.15176927549E+03  0.17430169121E+03  0.29744701256E+03  0.38491224027E+03  0.79168900996E+02 0.  0.
         24    2    4    4    0    0  0.53412697807E+03  0.21933151554E+03 -0.62626954823E+03  0.85551096442E+03  0.79293888745E+02 0.  0.
         13    1    3    3    0    0 -0.41884763059E+02 -0.30713306423E+01  0.29892502467E+02  0.51549278871E+02  0.00000000000E+00 0.  1.
        -13    1    3    3    0    0 -0.64401149050E+03 -0.39056187611E+03  0.33870878943E+03  0.82584079761E+03  0.00000000000E+00 0. -1.
          2    1    6    6  502    0  0.67628500735E+02  0.50633059771E+02 -0.66115818782E+02  0.10727824731E+03  0.00000000000E+00 0. -1.
          1    1    5    5  503    0  0.26894214961E+02  0.26760887012E+02  0.11280522666E+02  0.39581486375E+02  0.00000000000E+00 0. -1.
         -2    1    5    5    0  503  0.12487506053E+03  0.14754080420E+03  0.28616648989E+03  0.34533075389E+03  0.00000000000E+00 0.  1.
         -1    1    6    6    0  502  0.46649847733E+03  0.16869845577E+03 -0.56015372945E+03  0.74823271711E+03  0.00000000000E+00 0.  1.
<mgrwt>
<rscale>  0 0.21174397E+04</rscale>
<asrwt>0</asrwt>
<pdfrwt beam="1">  1        2 0.16596862E+00 0.21174397E+04</pdfrwt>
<pdfrwt beam="2">  1       -2 0.15984881E+00 0.21174397E+04</pdfrwt>
<totfact> 0.52184885E+00</totfact>
</mgrwt>
</event>
<event>
12    1  0.1562393E-007  0.1392129E+04  0.7818608E-02  0.8959535E-01
         -2   -1    0    0    0  501 -0.00000000000E+00  0.00000000000E+00  0.11205680449E+04  0.11205680449E+04  0.00000000000E+00 0.  1.
          2   -1    0    0  501    0  0.00000000000E+00 -0.00000000000E+00 -0.43237546946E+03  0.43237546946E+03  0.00000000000E+00 0. -1.
         23    2    1    2    0    0 -0.94264453672E+02  0.34073457977E+03  0.17859278343E+02  0.36513087202E+03  0.89530770168E+02 0.  0.
        254    2    1    2    0    0  0.94264453672E+02 -0.34073457977E+03  0.67033329711E+03  0.11878126423E+04  0.91463998547E+03 0.  0.
        -24    2    4    4    0    0  0.10526228234E+03 -0.35765769781E+03 -0.11502812293E+03  0.39826299533E+03  0.79892224302E+02 0.  0.
         24    2    4    4    0    0 -0.10997828669E+02  0.16923118043E+02  0.78536142003E+03  0.78954964701E+03  0.78668550610E+02 0.  0.
         13    1    3    3    0    0 -0.23003658181E+02  0.11923381482E+03 -0.35289599208E+02  0.12645642213E+03  0.00000000000E+00 0. -1.
        -13    1    3    3    0    0 -0.71260795491E+02  0.22150076495E+03  0.53148877551E+02  0.23867444989E+03  0.00000000000E+00 0.  1.
          2    1    6    6  502    0  0.13823837571E+02  0.17302481050E+02  0.63313950107E+02  0.67075558990E+02  0.00000000000E+00 0. -1.
          1    1    5    5  503    0  0.32339438504E+02 -0.10950779228E+03  0.24062362914E+01  0.11420851906E+03  0.00000000000E+00 0. -1.
         -2    1    5    5    0  503  0.72922843838E+02 -0.24814990553E+03 -0.11743435922E+03  0.28405447628E+03  0.00000000000E+00 0.  1.
         -1    1    6    6    0  502 -0.24821666240E+02 -0.37936300706E+00  0.72204746993E+03  0.72247408802E+03  0.00000000000E+00 0.  1.
<mgrwt>
<rscale>  0 0.13921295E+04</rscale>
<asrwt>0</asrwt>
<pdfrwt beam="1">  1        2 0.66519303E-01 0.13921295E+04</pdfrwt>
<pdfrwt beam="2">  1       -2 0.17239508E+00 0.13921295E+04</pdfrwt>
<totfact> 0.14513428E+01</totfact>
</mgrwt>
</event>
<event>
12    1  0.1562393E-007  0.2023381E+04  0.7818608E-02  0.8595766E-01
         -2   -1    0    0    0  501 -0.00000000000E+00  0.00000000000E+00  0.44351148360E+03  0.44351148360E+03  0.00000000000E+00 0.  1.
          2   -1    0    0  501    0  0.00000000000E+00 -0.00000000000E+00 -0.23077599693E+04  0.23077599693E+04  0.00000000000E+00 0. -1.
         23    2    1    2    0    0  0.29299100110E+02  0.26093890694E+03  0.30202536353E+03  0.40438260603E+03  0.57951888837E+02 0.  0.
        254    2    1    2    0    0 -0.29299100110E+02 -0.26093890694E+03 -0.21662738492E+04  0.23468888469E+04  0.86382713506E+03 0.  0.
        -24    2    4    4    0    0 -0.25058443377E+03  0.18076941537E+02 -0.16571218532E+03  0.31329320182E+03  0.87021650631E+02 0.  0.
         24    2    4    4    0    0  0.22128533366E+03 -0.27901584847E+03 -0.20005616639E+04  0.20335956450E+04  0.80294668875E+02 0.  0.
         13    1    3    3    0    0 -0.11723858312E+02  0.42651377744E+02  0.72922849103E+02  0.85289687527E+02  0.00000000000E+00 0. -1.
        -13    1    3    3    0    0  0.41022958422E+02  0.21828752919E+03  0.22910251443E+03  0.31909291850E+03  0.00000000000E+00 0.  1.
          2    1    6    6  502    0  0.82582687144E+02 -0.16796305453E+03 -0.10602372322E+04  0.10766310772E+04  0.00000000000E+00 0. -1.
          3    1    5    5  503    0 -0.25639037802E+03  0.19209749821E+02 -0.15279057329E+03  0.29908192810E+03  0.00000000000E+00 0. -1.
         -4    1    5    5    0  503  0.58059442498E+01 -0.11328082839E+01 -0.12921612030E+02  0.14211273718E+02  0.00000000000E+00 0.  1.
         -1    1    6    6    0  502  0.13870264652E+03 -0.11105279394E+03 -0.94032443169E+03  0.95696456780E+03  0.00000000000E+00 0.  1.
<mgrwt>
<rscale>  0 0.20233814E+04</rscale>
<asrwt>0</asrwt>
<pdfrwt beam="1">  1        2 0.35503999E+00 0.20233814E+04</pdfrwt>
<pdfrwt beam="2">  1       -2 0.68232537E-01 0.20233814E+04</pdfrwt>
<totfact> 0.81807914E+00</totfact>
</mgrwt>
</event>
<event>
12    1  0.1562393E-007  0.2948801E+04  0.7818608E-02  0.8258504E-01
         -1   -1    0    0    0  501 -0.00000000000E+00  0.00000000000E+00  0.56408171173E+03  0.56408171173E+03  0.00000000000E+00 0. -1.
          1   -1    0    0  501    0  0.00000000000E+00 -0.00000000000E+00 -0.38537982068E+04  0.38537982068E+04  0.00000000000E+00 0.  1.
         23    2    1    2    0    0  0.68445354925E+03 -0.10401006902E+03  0.21943363104E+03  0.73189610902E+03  0.90697521667E+02 0.  0.
        254    2    1    2    0    0 -0.68445354925E+03  0.10401006902E+03 -0.35091501261E+04  0.36859838095E+04  0.89053202126E+03 0.  0.
        -24    2    4    4    0    0 -0.25894482099E+03 -0.18712423466E+03 -0.27207476996E+04  0.27405981998E+04  0.79640119102E+02 0.  0.
         24    2    4    4    0    0 -0.42550872826E+03  0.29113430368E+03 -0.78840242657E+03  0.94538560973E+03  0.79741483990E+02 0.  0.
         13    1    3    3    0    0  0.47932298051E+03 -0.98508188840E+02  0.18841259987E+03  0.52436026805E+03  0.00000000000E+00 0. -1.
        -13    1    3    3    0    0  0.20513056873E+03 -0.55018801770E+01  0.31021031173E+02  0.20753584098E+03  0.00000000000E+00 0.  1.
          2    1    6    6  502    0 -0.35795879326E+03  0.20742775343E+03 -0.64080210890E+03  0.76275036108E+03  0.00000000000E+00 0. -1.
          1    1    5    5  503    0 -0.21851933487E+03 -0.16897426337E+03 -0.20709060230E+04  0.20892474142E+04  0.00000000000E+00 0. -1.
         -2    1    5    5    0  503 -0.40425486118E+02 -0.18149971295E+02 -0.64984167651E+03  0.65135078561E+03  0.00000000000E+00 0.  1.
         -1    1    6    6    0  502 -0.67549934993E+02  0.83706550247E+02 -0.14760031767E+03  0.18263524865E+03  0.00000000000E+00 0.  1.
<mgrwt>
<rscale>  0 0.29488012E+04</rscale>
<asrwt>0</asrwt>
<pdfrwt beam="1">  1        1 0.59289201E+00 0.29488012E+04</pdfrwt>
<pdfrwt beam="2">  1       -1 0.86781805E-01 0.29488012E+04</pdfrwt>
<totfact> 0.14351293E-01</totfact>
</mgrwt>
</event>
<event>
12    1  0.1562393E-007  0.1039090E+04  0.7818608E-02  0.9266681E-01
          2   -1    0    0  501    0  0.00000000000E+00  0.00000000000E+00  0.20403246605E+04  0.20403246605E+04  0.00000000000E+00 0.  1.
         -2   -1    0    0    0  501 -0.00000000000E+00 -0.00000000000E+00 -0.13229601717E+03  0.13229601717E+03  0.00000000000E+00 0. -1.
         23    2    1    2    0    0  0.53341779924E+02  0.74132425400E+02  0.15157471567E+03  0.19974442762E+03  0.92638976437E+02 0.  0.
        254    2    1    2    0    0 -0.53341779924E+02 -0.74132425400E+02  0.17564539276E+04  0.19728762500E+04  0.89373896413E+03 0.  0.
        -24    2    4    4    0    0  0.33823226958E+03  0.50037251204E+02  0.31322284723E+03  0.47015696935E+03  0.77680300657E+02 0.  0.
         24    2    4    4    0    0 -0.39157404950E+03 -0.12416967660E+03  0.14432310804E+04  0.15027192807E+04  0.80628408264E+02 0.  0.
         11    1    3    3    0    0  0.23057131344E+02  0.24027994820E+02  0.13478609173E+03  0.13883899439E+03  0.00000000000E+00 0.  1.
        -11    1    3    3    0    0  0.30284648580E+02  0.50104430580E+02  0.16788623945E+02  0.60905433233E+02  0.00000000000E+00 0. -1.
          2    1    6    6  502    0 -0.24566012823E+03 -0.11807737735E+03  0.94716642872E+03  0.98560408346E+03  0.00000000000E+00 0. -1.
          1    1    5    5  503    0  0.27194033390E+03  0.70737375845E+02  0.24490864419E+03  0.37274061429E+03  0.00000000000E+00 0. -1.
         -2    1    5    5    0  503  0.66291935677E+02 -0.20700124641E+02  0.68314203039E+02  0.97416355058E+02  0.00000000000E+00 0.  1.
         -1    1    6    6    0  502 -0.14591392127E+03 -0.60922992507E+01  0.49606465169E+03  0.51711519722E+03  0.00000000000E+00 0.  1.
<mgrwt>
<rscale>  0 0.10390897E+04</rscale>
<asrwt>0</asrwt>
<pdfrwt beam="1">  1        2 0.31389608E+00 0.10390897E+04</pdfrwt>
<pdfrwt beam="2">  1       -2 0.20353235E-01 0.10390897E+04</pdfrwt>
<totfact> 0.13146345E+02</totfact>
</mgrwt>
</event>
<event>
12    1  0.1562393E-007  0.1580371E+04  0.7818608E-02  0.8832698E-01
         -2   -1    0    0    0  501 -0.00000000000E+00  0.00000000000E+00  0.34692607785E+03  0.34692607785E+03  0.00000000000E+00 0.  1.
          2   -1    0    0  501    0  0.00000000000E+00 -0.00000000000E+00 -0.17997881639E+04  0.17997881639E+04  0.00000000000E+00 0. -1.
         23    2    1    2    0    0 -0.21660457740E+03 -0.38377496773E+03 -0.95813962482E+02  0.45886034073E+03  0.84686056030E+02 0.  0.
        254    2    1    2    0    0  0.21660457740E+03  0.38377496773E+03 -0.13570481236E+04  0.16878539010E+04  0.90170417138E+03 0.  0.
        -24    2    4    4    0    0  0.50661785479E+03  0.44064474776E+03 -0.10855394406E+04  0.12788467864E+04  0.78890946134E+02 0.  0.
         24    2    4    4    0    0 -0.29001327739E+03 -0.56869780028E+02 -0.27150868297E+03  0.40900711465E+03  0.78917564382E+02 0.  0.
         13    1    3    3    0    0 -0.47314240057E+02 -0.15714172549E+03 -0.54819194550E+02  0.17302399629E+03  0.00000000000E+00 0. -1.
        -13    1    3    3    0    0 -0.16929033734E+03 -0.22663324224E+03 -0.40994767932E+02  0.28583634444E+03  0.00000000000E+00 0.  1.
          2    1    6    6  502    0 -0.11668465609E+02 -0.22299346291E+02 -0.18066860852E+02  0.30981048977E+02  0.00000000000E+00 0. -1.
          3    1    5    5  503    0  0.18497341244E+03  0.21139153902E+03 -0.43668913515E+03  0.51922918528E+03  0.00000000000E+00 0. -1.
         -4    1    5    5    0  503  0.32164444234E+03  0.22925320873E+03 -0.64885030544E+03  0.75961760108E+03  0.00000000000E+00 0.  1.
         -1    1    6    6    0  502 -0.27834481178E+03 -0.34570433737E+02 -0.25344182211E+03  0.37802606567E+03  0.00000000000E+00 0.  1.
<mgrwt>
<rscale>  0 0.15803714E+04</rscale>
<asrwt>0</asrwt>
<pdfrwt beam="1">  1        2 0.27689049E+00 0.15803714E+04</pdfrwt>
<pdfrwt beam="2">  1       -2 0.53373242E-01 0.15803714E+04</pdfrwt>
<totfact> 0.27425881E+01</totfact>
</mgrwt>
</event>
<event>
12    1  0.1562393E-007  0.1834376E+04  0.7818608E-02  0.8688229E-01
          2   -1    0    0  501    0  0.00000000000E+00  0.00000000000E+00  0.30358653708E+04  0.30358653708E+04  0.00000000000E+00 0. -1.
         -2   -1    0    0    0  501 -0.00000000000E+00 -0.00000000000E+00 -0.27709862537E+03  0.27709862537E+03  0.00000000000E+00 0.  1.
         23    2    1    2    0    0  0.36457760401E+03 -0.11402865068E+03  0.22189767242E+04  0.22534164860E+04  0.90048843235E+02 0.  0.
        254    2    1    2    0    0 -0.36457760401E+03  0.11402865068E+03  0.53979002123E+03  0.10595475102E+04  0.82785765495E+03 0.  0.
        -24    2    4    4    0    0 -0.34500968635E+03  0.36622452969E+03  0.62019458591E+02  0.51279169553E+03  0.77180437483E+02 0.  0.
         24    2    4    4    0    0 -0.19567917657E+02 -0.25219587902E+03  0.47777056264E+03  0.54675581469E+03  0.81801867804E+02 0.  0.
         11    1    3    3    0    0  0.60727157689E+02 -0.39595728494E+02  0.61147084504E+03  0.61575336275E+03  0.00000000000E+00 0.  1.
        -11    1    3    3    0    0  0.30385044632E+03 -0.74432922182E+02  0.16075058792E+04  0.16376631232E+04  0.00000000000E+00 0. -1.
          2    1    6    6  502    0 -0.34775578928E+02 -0.51181807087E+02  0.14555786862E+03  0.15816450735E+03  0.00000000000E+00 0. -1.
          1    1    5    5  503    0 -0.18179274774E+02  0.49914426939E+01  0.13607182673E+02  0.23249859177E+02  0.00000000000E+00 0. -1.
         -2    1    5    5    0  503 -0.32683041158E+03  0.36123308700E+03  0.48412275918E+02  0.48954183635E+03  0.00000000000E+00 0.  1.
         -1    1    6    6    0  502  0.15207661271E+02 -0.20101407193E+03  0.33221269402E+03  0.38859130734E+03  0.00000000000E+00 0.  1.
<mgrwt>
<rscale>  0 0.18343763E+04</rscale>
<asrwt>0</asrwt>
<pdfrwt beam="1">  1        2 0.46705619E+00 0.18343763E+04</pdfrwt>
<pdfrwt beam="2">  1       -2 0.42630560E-01 0.18343763E+04</pdfrwt>
<totfact> 0.81484601E+00</totfact>
</mgrwt>
</event>
<event>
12    1  0.1562393E-007  0.1739773E+04  0.7818608E-02  0.8739000E-01
         -1   -1    0    0    0  501 -0.00000000000E+00  0.00000000000E+00  0.40974026370E+03  0.40974026370E+03  0.00000000000E+00 0.  1.
          1   -1    0    0  501    0  0.00000000000E+00 -0.00000000000E+00 -0.18467850856E+04  0.18467850856E+04  0.00000000000E+00 0. -1.
         23    2    1    2    0    0  0.40261185450E+03 -0.25260892189E+03  0.18264470277E+02  0.48428911073E+03  0.91075677854E+02 0.  0.
        254    2    1    2    0    0 -0.40261185450E+03  0.25260892189E+03 -0.14553092922E+04  0.17722362386E+04  0.89274216693E+03 0.  0.
        -24    2    4    4    0    0  0.27354315027E+03  0.31342617102E+01 -0.44277576447E+03  0.52689501672E+03  0.82050608695E+02 0.  0.
         24    2    4    4    0    0 -0.67615500476E+03  0.24947466018E+03 -0.10125335277E+04  0.12453412218E+04  0.78913988501E+02 0.  0.
         13    1    3    3    0    0  0.12902551834E+03 -0.42718461900E+02 -0.19888945115E+02  0.13736091696E+03  0.00000000000E+00 0. -1.
        -13    1    3    3    0    0  0.27358633615E+03 -0.20989045999E+03  0.38153415392E+02  0.34692819377E+03  0.00000000000E+00 0.  1.
          4    1    6    6  502    0 -0.64405256546E+03  0.24712356109E+03 -0.93980064963E+03  0.11658040241E+04  0.00000000000E+00 0. -1.
          3    1    5    5  503    0  0.24090213450E+03  0.18711865168E+02 -0.33381088931E+03  0.41208455702E+03  0.00000000000E+00 0. -1.
         -4    1    5    5    0  503  0.32641015765E+02 -0.15577603458E+02 -0.10896487516E+03  0.11481045971E+03  0.00000000000E+00 0.  1.
         -3    1    6    6    0  502 -0.32102439301E+02  0.23510990856E+01 -0.72732878063E+02  0.79537197759E+02  0.00000000000E+00 0.  1.
<mgrwt>
<rscale>  0 0.17397726E+04</rscale>
<asrwt>0</asrwt>
<pdfrwt beam="1">  1        1 0.28412079E+00 0.17397726E+04</pdfrwt>
<pdfrwt beam="2">  1       -1 0.63036962E-01 0.17397726E+04</pdfrwt>
<totfact> 0.91666199E+00</totfact>
</mgrwt>
</event>
<event>
12    1  0.1562393E-007  0.1186668E+04  0.7818608E-02  0.9124607E-01
          1   -1    0    0  501    0  0.00000000000E+00  0.00000000000E+00  0.26074095189E+03  0.26074095189E+03  0.00000000000E+00 0. -1.
         -1   -1    0    0    0  501 -0.00000000000E+00 -0.00000000000E+00 -0.13501714016E+04  0.13501714016E+04  0.00000000000E+00 0.  1.
         23    2    1    2    0    0 -0.22743036080E+03  0.58565262241E+02 -0.36781752326E+03  0.44574085809E+03  0.90778429140E+02 0.  0.
        254    2    1    2    0    0  0.22743036080E+03 -0.58565262241E+02 -0.72161292642E+03  0.11651714954E+04  0.88416341199E+03 0.  0.
        -24    2    4    4    0    0  0.11299167991E+02  0.24796367205E+03  0.83499636371E+02  0.27351070742E+03  0.78881328243E+02 0.  0.
         24    2    4    4    0    0  0.21613119281E+03 -0.30652893429E+03 -0.80511256280E+03  0.89166078796E+03  0.78613242893E+02 0.  0.
         13    1    3    3    0    0 -0.19320923545E+03  0.11752181823E+02 -0.29087645601E+03  0.34939524195E+03  0.00000000000E+00 0.  1.
        -13    1    3    3    0    0 -0.34221125355E+02  0.46813080417E+02 -0.76941067246E+02  0.96345616131E+02  0.00000000000E+00 0. -1.
          2    1    6    6  502    0  0.12730069710E+03 -0.24141158087E+03 -0.56208397647E+03  0.62483871156E+03  0.00000000000E+00 0. -1.
          1    1    5    5  503    0  0.36198408288E+02  0.18886682318E+03  0.82816436095E+02  0.20937899548E+03  0.00000000000E+00 0. -1.
         -2    1    5    5    0  503 -0.24899240297E+02  0.59096848864E+02  0.68320027618E+00  0.64131711934E+02  0.00000000000E+00 0.  1.
         -1    1    6    6    0  502  0.88830495715E+02 -0.65117353422E+02 -0.24302858633E+03  0.26682207641E+03  0.00000000000E+00 0.  1.
<mgrwt>
<rscale>  0 0.11866676E+04</rscale>
<asrwt>0</asrwt>
<pdfrwt beam="1">  1        1 0.40113993E-01 0.11866676E+04</pdfrwt>
<pdfrwt beam="2">  1       -1 0.20771868E+00 0.11866676E+04</pdfrwt>
<totfact> 0.13903590E+01</totfact>
</mgrwt>
</event>
<event>
12    1  0.1562393E-007  0.1629141E+04  0.7818608E-02  0.8802843E-01
          2   -1    0    0  501    0  0.00000000000E+00  0.00000000000E+00  0.34325872580E+04  0.34325872580E+04  0.00000000000E+00 0. -1.
         -2   -1    0    0    0  501 -0.00000000000E+00 -0.00000000000E+00 -0.19330173530E+03  0.19330173530E+03  0.00000000000E+00 0.  1.
         23    2    1    2    0    0  0.14862221809E+03 -0.52179460082E+03  0.14426675502E+04  0.15439479683E+04  0.90152644742E+02 0.  0.
        254    2    1    2    0    0 -0.14862221809E+03  0.52179460082E+03  0.17966179725E+04  0.20819410250E+04  0.90126806402E+03 0.  0.
        -24    2    4    4    0    0  0.18958061778E+02 -0.18206316336E+03  0.92292351114E+03  0.94438733585E+03  0.81075453314E+02 0.  0.
         24    2    4    4    0    0 -0.16758027987E+03  0.70385776418E+03  0.87369446137E+03  0.11375536891E+04  0.84779015413E+02 0.  0.
         11    1    3    3    0    0 -0.96267588602E+01 -0.45216350625E+02  0.92255998565E+02  0.10319090135E+03  0.00000000000E+00 0.  1.
        -11    1    3    3    0    0  0.15824897695E+03 -0.47657825019E+03  0.13504115516E+04  0.14407570670E+04  0.00000000000E+00 0. -1.
          2    1    6    6  502    0 -0.25132688589E+02  0.27537504265E+03  0.35074964001E+03  0.44664121632E+03  0.00000000000E+00 0. -1.
          1    1    5    5  503    0  0.19494591465E+02 -0.50806640935E+01  0.54295732221E+02  0.57912682388E+02  0.00000000000E+00 0. -1.
         -2    1    5    5    0  503 -0.53652968654E+00 -0.17698249927E+03  0.86862777892E+03  0.88647465346E+03  0.00000000000E+00 0.  1.
         -1    1    6    6    0  502 -0.14244759128E+03  0.42848272153E+03  0.52294482136E+03  0.69091247282E+03  0.00000000000E+00 0.  1.
<mgrwt>
<rscale>  0 0.16291410E+04</rscale>
<asrwt>0</asrwt>
<pdfrwt beam="1">  1        2 0.52809030E+00 0.16291410E+04</pdfrwt>
<pdfrwt beam="2">  1       -2 0.29738731E-01 0.16291410E+04</pdfrwt>
<totfact> 0.91254628E+00</totfact>
</mgrwt>
</event>
<event>
12    1  0.1562393E-007  0.1921846E+04  0.7818608E-02  0.8644058E-01
         -2   -1    0    0    0  501 -0.00000000000E+00  0.00000000000E+00  0.28850264524E+03  0.28850264524E+03  0.00000000000E+00 0.  1.
          2   -1    0    0  501    0  0.00000000000E+00 -0.00000000000E+00 -0.32005692766E+04  0.32005692766E+04  0.00000000000E+00 0. -1.
         23    2    1    2    0    0 -0.24630780873E+03  0.57156420094E+03 -0.17948093182E+04  0.19016606857E+04  0.87290907246E+02 0.  0.
        254    2    1    2    0    0  0.24630780873E+03 -0.57156420094E+03 -0.11172573132E+04  0.15874112362E+04  0.94034959262E+03 0.  0.
        -24    2    4    4    0    0  0.42035868628E+03 -0.56352424673E+03 -0.33593904099E+03  0.78328741725E+03  0.80144475664E+02 0.  0.
         24    2    4    4    0    0 -0.17405087755E+03 -0.80399542089E+01 -0.78131827221E+03  0.80412381890E+03  0.76148045285E+02 0.  0.
         13    1    3    3    0    0 -0.22964323918E+02  0.13103986673E+03 -0.43755678441E+03  0.45733439236E+03  0.00000000000E+00 0.  1.
        -13    1    3    3    0    0 -0.22334348481E+03  0.44052433421E+03 -0.13572525338E+04  0.14443262933E+04  0.00000000000E+00 0. -1.
          2    1    6    6  502    0 -0.64628212921E+02 -0.22752374142E+02 -0.17691683508E+03  0.18972096081E+03  0.00000000000E+00 0. -1.
          3    1    5    5  503    0  0.61300752060E+02 -0.47733244639E+02 -0.53150680851E+02  0.94134158103E+02  0.00000000000E+00 0. -1.
         -4    1    5    5    0  503  0.35905793422E+03 -0.51579100209E+03 -0.28278836014E+03  0.68915325915E+03  0.00000000000E+00 0.  1.
         -1    1    6    6    0  502 -0.10942266463E+03  0.14712419934E+02 -0.60440143712E+03  0.61440285809E+03  0.00000000000E+00 0.  1.
<mgrwt>
<rscale>  0 0.19218457E+04</rscale>
<asrwt>0</asrwt>
<pdfrwt beam="1">  1        2 0.49239528E+00 0.19218457E+04</pdfrwt>
<pdfrwt beam="2">  1       -2 0.44385022E-01 0.19218457E+04</pdfrwt>
<totfact> 0.58557125E+00</totfact>
</mgrwt>
</event>
<event>
12    1  0.1562393E-007  0.1555158E+04  0.7818608E-02  0.8848580E-01
         -1   -1    0    0    0  501 -0.00000000000E+00  0.00000000000E+00  0.12533198289E+04  0.12533198289E+04  0.00000000000E+00 0.  1.
          1   -1    0    0  501    0  0.00000000000E+00 -0.00000000000E+00 -0.48242177343E+03  0.48242177343E+03  0.00000000000E+00 0. -1.
         23    2    1    2    0    0  0.11898551105E+02  0.32384955777E+02 -0.29491182416E+03  0.31076632235E+03  0.91718930430E+02 0.  0.
        254    2    1    2    0    0 -0.11898551105E+02 -0.32384955777E+02  0.10658098796E+04  0.14249752800E+04  0.94520552692E+03 0.  0.
        -24    2    4    4    0    0 -0.32143503616E+03  0.22481122668E+03  0.89443042248E+03  0.98040063485E+03  0.85551470210E+02 0.  0.
         24    2    4    4    0    0  0.30953648506E+03 -0.25719618246E+03  0.17137945714E+03  0.44457464511E+03  0.79454294343E+02 0.  0.
         13    1    3    3    0    0 -0.12502237649E+01 -0.16542187066E+02 -0.21822937844E+03  0.21885901541E+03  0.00000000000E+00 0. -1.
        -13    1    3    3    0    0  0.13148774870E+02  0.48927142843E+02 -0.76682445718E+02  0.91907306938E+02  0.00000000000E+00 0.  1.
          4    1    6    6  502    0  0.48964569556E+02 -0.80561659137E+02  0.25776380752E+02  0.97735008054E+02  0.00000000000E+00 0. -1.
          1    1    5    5  503    0 -0.25627589017E+02 -0.78374208122E+00  0.99139770114E+02  0.10240157025E+03  0.00000000000E+00 0. -1.
         -2    1    5    5    0  503 -0.29580744714E+03  0.22559496876E+03  0.79529065236E+03  0.87799906461E+03  0.00000000000E+00 0.  1.
         -3    1    6    6    0  502  0.26057191550E+03 -0.17663452332E+03  0.14560307639E+03  0.34683963705E+03  0.00000000000E+00 0.  1.
<mgrwt>
<rscale>  0 0.15551576E+04</rscale>
<asrwt>0</asrwt>
<pdfrwt beam="1">  1        1 0.74218735E-01 0.15551576E+04</pdfrwt>
<pdfrwt beam="2">  1       -1 0.19281843E+00 0.15551576E+04</pdfrwt>
<totfact> 0.75699647E+00</totfact>
</mgrwt>
</event>
<event>
12    1  0.1562393E-007  0.2438229E+04  0.7818608E-02  0.8425328E-01
         -1   -1    0    0    0  501 -0.00000000000E+00  0.00000000000E+00  0.14042430393E+04  0.14042430393E+04  0.00000000000E+00 0.  1.
          1   -1    0    0  501    0  0.00000000000E+00 -0.00000000000E+00 -0.10583926000E+04  0.10583926000E+04  0.00000000000E+00 0. -1.
         23    2    1    2    0    0  0.56295728777E+03  0.42355283456E+03  0.93510241953E+03  0.11742263759E+04  0.89850628381E+02 0.  0.
        254    2    1    2    0    0 -0.56295728777E+03 -0.42355283456E+03 -0.58925198015E+03  0.12884092633E+04  0.90358321268E+03 0.  0.
        -24    2    4    4    0    0 -0.19542375689E+03  0.61713522515E+02  0.19369884013E+03  0.29362722822E+03  0.81845616057E+02 0.  0.
         24    2    4    4    0    0 -0.36753353088E+03 -0.48526635707E+03 -0.78295082028E+03  0.99478203512E+03  0.77556281381E+02 0.  0.
         13    1    3    3    0    0  0.14859398790E+02  0.34013414378E+02  0.38348992093E+02  0.53370022340E+02  0.00000000000E+00 0. -1.
        -13    1    3    3    0    0  0.54809788898E+03  0.38953942018E+03  0.89675342743E+03  0.11208563536E+04  0.00000000000E+00 0.  1.
          4    1    6    6  502    0 -0.39756749632E+02 -0.89427919314E+02 -0.98399190144E+02  0.13878167212E+03  0.00000000000E+00 0. -1.
          1    1    5    5  503    0 -0.65316118148E+02  0.62383176731E+02  0.86214411554E+02  0.12486304813E+03  0.00000000000E+00 0. -1.
         -2    1    5    5    0  503 -0.13010763874E+03 -0.66965421583E+00  0.10748442858E+03  0.16876418009E+03  0.00000000000E+00 0.  1.
         -3    1    6    6    0  502 -0.32777678125E+03 -0.39583843776E+03 -0.68455163014E+03  0.85600036300E+03  0.00000000000E+00 0.  1.
<mgrwt>
<rscale>  0 0.24382292E+04</rscale>
<asrwt>0</asrwt>
<pdfrwt beam="1">  1        1 0.16282963E+00 0.24382292E+04</pdfrwt>
<pdfrwt beam="2">  1       -1 0.21603739E+00 0.24382292E+04</pdfrwt>
<totfact> 0.14250562E+00</totfact>
</mgrwt>
</event>
<event>
12    1  0.1562393E-007  0.1354116E+04  0.7818608E-02  0.8987719E-01
         -2   -1    0    0    0  501 -0.00000000000E+00  0.00000000000E+00  0.24278632116E+03  0.24278632116E+03  0.00000000000E+00 0.  1.
          2   -1    0    0  501    0  0.00000000000E+00 -0.00000000000E+00 -0.18881097977E+04  0.18881097977E+04  0.00000000000E+00 0. -1.
         23    2    1    2    0    0  0.13059948416E+03 -0.29422236554E+03 -0.28494114812E+03  0.44034090150E+03  0.95318550094E+02 0.  0.
        254    2    1    2    0    0 -0.13059948416E+03  0.29422236554E+03 -0.13603823285E+04  0.16905552174E+04  0.95063864738E+03 0.  0.
        -24    2    4    4    0    0 -0.14242411110E+03  0.60055526407E+03 -0.11572936526E+04  0.13140408379E+04  0.80146570706E+02 0.  0.
         24    2    4    4    0    0  0.11824626938E+02 -0.30633289852E+03 -0.20308867587E+03  0.37651437948E+03  0.80860380727E+02 0.  0.
         13    1    3    3    0    0 -0.85671519777E+01 -0.70113466873E+02 -0.45081150735E+02  0.83795014658E+02  0.00000000000E+00 0.  1.
        -13    1    3    3    0    0  0.13916663614E+03 -0.22410889867E+03 -0.23985999739E+03  0.35654588684E+03  0.00000000000E+00 0. -1.
          2    1    6    6  502    0 -0.17901620852E+02 -0.26236153771E+03 -0.15737431863E+03  0.30646487672E+03  0.00000000000E+00 0. -1.
          1    1    5    5  503    0 -0.37762807332E+02  0.32818628683E+03 -0.63333002170E+03  0.71431028612E+03  0.00000000000E+00 0. -1.
         -2    1    5    5    0  503 -0.10466130377E+03  0.27236897723E+03 -0.52396363090E+03  0.59973055181E+03  0.00000000000E+00 0.  1.
         -1    1    6    6    0  502  0.29726247791E+02 -0.43971360809E+02 -0.45714357237E+02  0.70049502758E+02  0.00000000000E+00 0.  1.
<mgrwt>
<rscale>  0 0.13541156E+04</rscale>
<asrwt>0</asrwt>
<pdfrwt beam="1">  1        2 0.29047843E+00 0.13541156E+04</pdfrwt>
<pdfrwt beam="2">  1       -2 0.37351741E-01 0.13541156E+04</pdfrwt>
<totfact> 0.50899699E+01</totfact>
</mgrwt>
</event>
<event>
12    1  0.1562393E-007  0.2877707E+04  0.7818608E-02  0.8279541E-01
         -3   -1    0    0    0  501 -0.00000000000E+00  0.00000000000E+00  0.19476631566E+04  0.19476631566E+04  0.00000000000E+00 0.  1.
          3   -1    0    0  501    0  0.00000000000E+00 -0.00000000000E+00 -0.10629654693E+04  0.10629654693E+04  0.00000000000E+00 0. -1.
         23    2    1    2    0    0 -0.89270601209E+02 -0.27033123770E+03  0.17649414733E+04  0.17905292294E+04  0.99640849823E+02 0.  0.
        254    2    1    2    0    0  0.89270601209E+02  0.27033123770E+03 -0.88024378599E+03  0.12200993965E+04  0.79546539596E+03 0.  0.
        -24    2    4    4    0    0  0.18232927380E+02 -0.38459425724E+02 -0.88935731797E+03  0.89371628769E+03  0.77206196625E+02 0.  0.
         24    2    4    4    0    0  0.71037673828E+02  0.30879066342E+03  0.91135319818E+01  0.32638310877E+03  0.77748648266E+02 0.  0.
         11    1    3    3    0    0 -0.14034659272E+02 -0.19123593307E+03  0.10644813160E+04  0.10816138987E+04  0.00000000000E+00 0.  1.
        -11    1    3    3    0    0 -0.75235941937E+02 -0.79095304632E+02  0.70046015725E+03  0.70891533067E+03  0.00000000000E+00 0. -1.
          4    1    6    6  502    0  0.20264399881E+02  0.59156108150E+02 -0.28777646426E+02  0.68834903703E+02  0.00000000000E+00 0. -1.
          1    1    5    5  503    0 -0.26423280624E+02  0.33869143599E+01 -0.30614572024E+03  0.30730255933E+03  0.00000000000E+00 0. -1.
         -2    1    5    5    0  503  0.44656208004E+02 -0.41846340084E+02 -0.58321159772E+03  0.58641372836E+03  0.00000000000E+00 0.  1.
         -3    1    6    6    0  502  0.50773273947E+02  0.24963455527E+03  0.37891178408E+02  0.25754820507E+03  0.00000000000E+00 0.  1.
<mgrwt>
<rscale>  0 0.28777065E+04</rscale>
<asrwt>0</asrwt>
<pdfrwt beam="1">  1        3 0.16353315E+00 0.28777065E+04</pdfrwt>
<pdfrwt beam="2">  1       -3 0.29964048E+00 0.28777065E+04</pdfrwt>
<totfact> 0.22092528E-02</totfact>
</mgrwt>
</event>
<event>
12    1  0.1562393E-007  0.2876341E+04  0.7818608E-02  0.8279952E-01
         -2   -1    0    0    0  501 -0.00000000000E+00  0.00000000000E+00  0.15012742360E+04  0.15012742360E+04  0.00000000000E+00 0.  1.
          2   -1    0    0  501    0  0.00000000000E+00 -0.00000000000E+00 -0.13777189841E+04  0.13777189841E+04  0.00000000000E+00 0. -1.
         23    2    1    2    0    0  0.10154566515E+04 -0.36791620634E+03 -0.66068572385E+03  0.12695912402E+04  0.94030556887E+02 0.  0.
        254    2    1    2    0    0 -0.10154566515E+04  0.36791620634E+03  0.78424097574E+03  0.16094019799E+04  0.89923649777E+03 0.  0.
        -24    2    4    4    0    0 -0.35673193862E+03  0.35129034261E+03  0.79839744399E+03  0.94572871838E+03  0.79383558453E+02 0.  0.
         24    2    4    4    0    0 -0.65872471285E+03  0.16625863729E+02 -0.14156468245E+02  0.66367326151E+03  0.77891756829E+02 0.  0.
         11    1    3    3    0    0  0.96331836088E+03 -0.34007305529E+03 -0.59939640125E+03  0.11844441706E+04  0.00000000000E+00 0. -1.
        -11    1    3    3    0    0  0.52138290596E+02 -0.27843151052E+02 -0.61289322603E+02  0.85147069661E+02  0.00000000000E+00 0.  1.
          4    1    6    6  502    0 -0.77280398324E+01 -0.45554611233E+01  0.79076351078E+01  0.11958491489E+02  0.00000000000E+00 0. -1.
          3    1    5    5  503    0 -0.27363945034E+03  0.22001666954E+03  0.57127927049E+03  0.67055640221E+03  0.00000000000E+00 0. -1.
         -4    1    5    5    0  503 -0.83092488283E+02  0.13127367307E+03  0.22711817350E+03  0.27517231616E+03  0.00000000000E+00 0.  1.
         -3    1    6    6    0  502 -0.65099667302E+03  0.21181324852E+02 -0.22064103353E+02  0.65171477002E+03  0.00000000000E+00 0.  1.
<mgrwt>
<rscale>  0 0.28763407E+04</rscale>
<asrwt>0</asrwt>
<pdfrwt beam="1">  1        2 0.21195677E+00 0.28763407E+04</pdfrwt>
<pdfrwt beam="2">  1       -2 0.23096527E+00 0.28763407E+04</pdfrwt>
<totfact> 0.10866669E+00</totfact>
</mgrwt>
</event>
<event>
12    1  0.1562393E-007  0.1925406E+04  0.7818608E-02  0.8642313E-01
         -2   -1    0    0    0  501 -0.00000000000E+00  0.00000000000E+00  0.30893703253E+03  0.30893703253E+03  0.00000000000E+00 0.  1.
          2   -1    0    0  501    0  0.00000000000E+00 -0.00000000000E+00 -0.29999530342E+04  0.29999530342E+04  0.00000000000E+00 0. -1.
         23    2    1    2    0    0  0.42135649508E+03 -0.19029911634E+03 -0.43082548123E+02  0.47318966388E+03  0.91089529743E+02 0.  0.
        254    2    1    2    0    0 -0.42135649508E+03  0.19029911634E+03 -0.26479334536E+04  0.28357004029E+04  0.90326637860E+03 0.  0.
        -24    2    4    4    0    0 -0.22295608772E+03 -0.20103683310E+03 -0.21278824761E+04  0.21504264364E+04  0.79528615959E+02 0.  0.
         24    2    4    4    0    0 -0.19840040736E+03  0.39133594944E+03 -0.52005097744E+03  0.68527396649E+03  0.81491367930E+02 0.  0.
         13    1    3    3    0    0  0.26100973822E+03 -0.68462417606E+02 -0.24032363820E+02  0.27090725458E+03  0.00000000000E+00 0.  1.
        -13    1    3    3    0    0  0.16034675685E+03 -0.12183669874E+03 -0.19050184303E+02  0.20228240931E+03  0.00000000000E+00 0. -1.
          2    1    6    6  502    0 -0.20551595074E+03  0.38110364638E+03 -0.49770264328E+03  0.65968531620E+03  0.00000000000E+00 0. -1.
          1    1    5    5  503    0 -0.12256863816E+03 -0.13719081817E+03 -0.15127000968E+04  0.15238457844E+04  0.00000000000E+00 0. -1.
         -2    1    5    5    0  503 -0.10038744956E+03 -0.63846014928E+02 -0.61518237934E+03  0.62658065203E+03  0.00000000000E+00 0.  1.
         -1    1    6    6    0  502  0.71155433814E+01  0.10232303067E+02 -0.22348334161E+02  0.25588650286E+02  0.00000000000E+00 0.  1.
<mgrwt>
<rscale>  0 0.19254055E+04</rscale>
<asrwt>0</asrwt>
<pdfrwt beam="1">  1        2 0.46153124E+00 0.19254055E+04</pdfrwt>
<pdfrwt beam="2">  1       -2 0.47528774E-01 0.19254055E+04</pdfrwt>
<totfact> 0.68472193E+00</totfact>
</mgrwt>
</event>
<event>
12    1  0.1562393E-007  0.2637609E+04  0.7818608E-02  0.8355537E-01
          2   -1    0    0  501    0  0.00000000000E+00  0.00000000000E+00  0.12053974347E+04  0.12053974347E+04  0.00000000000E+00 0. -1.
         -2   -1    0    0    0  501 -0.00000000000E+00 -0.00000000000E+00 -0.14428809044E+04  0.14428809044E+04  0.00000000000E+00 0.  1.
         23    2    1    2    0    0  0.11075722659E+04 -0.35304513074E+03  0.63054448502E+01  0.11659810452E+04  0.90082464496E+02 0.  0.
        254    2    1    2    0    0 -0.11075722659E+04  0.35304513074E+03 -0.24378891456E+03  0.14822972939E+04  0.88680045333E+03 0.  0.
        -24    2    4    4    0    0 -0.10868462470E+04  0.51366446916E+03 -0.37174638337E+03  0.12609287706E+04  0.81609066115E+02 0.  0.
         24    2    4    4    0    0 -0.20726018996E+02 -0.16061933842E+03  0.12795746881E+03  0.22136852327E+03  0.80017307719E+02 0.  0.
         13    1    3    3    0    0  0.24077572944E+03 -0.81647451527E+02  0.38383196412E+02  0.25712356561E+03  0.00000000000E+00 0. -1.
        -13    1    3    3    0    0  0.86679653651E+03 -0.27139767921E+03 -0.32077751562E+02  0.90885747955E+03  0.00000000000E+00 0.  1.
          2    1    6    6  502    0 -0.49844073171E+02 -0.82205308414E+02  0.79133259397E+02  0.12451593113E+03  0.00000000000E+00 0. -1.
          1    1    5    5  503    0 -0.23740127529E+03  0.13077446013E+03 -0.11520025807E+03  0.29450369164E+03  0.00000000000E+00 0. -1.
         -2    1    5    5    0  503 -0.84944497167E+03  0.38289000903E+03 -0.25654612530E+03  0.96642507900E+03  0.00000000000E+00 0.  1.
         -1    1    6    6    0  502  0.29118054175E+02 -0.78414030006E+02  0.48824209408E+02  0.96852592144E+02  0.00000000000E+00 0.  1.
<mgrwt>
<rscale>  0 0.26376087E+04</rscale>
<asrwt>0</asrwt>
<pdfrwt beam="1">  1        2 0.18544576E+00 0.26376087E+04</pdfrwt>
<pdfrwt beam="2">  1       -2 0.22198168E+00 0.26376087E+04</pdfrwt>
<totfact> 0.15918650E+00</totfact>
</mgrwt>
</event>
<event>
12    1  0.1562393E-007  0.1464979E+04  0.7818608E-02  0.8908082E-01
         -2   -1    0    0    0  501 -0.00000000000E+00  0.00000000000E+00  0.17212657558E+04  0.17212657558E+04  0.00000000000E+00 0.  1.
          2   -1    0    0  501    0  0.00000000000E+00 -0.00000000000E+00 -0.31171278929E+03  0.31171278929E+03  0.00000000000E+00 0. -1.
         23    2    1    2    0    0  0.31401038754E+03 -0.22895684701E+03  0.14225686235E+03  0.42258672881E+03  0.85549793726E+02 0.  0.
        254    2    1    2    0    0 -0.31401038754E+03  0.22895684701E+03  0.12672961042E+04  0.16103918163E+04  0.91449364407E+03 0.  0.
        -24    2    4    4    0    0 -0.39470726008E+03 -0.69707508818E+02  0.12197554499E+04  0.12868520202E+04  0.86785980487E+02 0.  0.
         24    2    4    4    0    0  0.80696872536E+02  0.29866435583E+03  0.47540654282E+02  0.32353979609E+03  0.81887136739E+02 0.  0.
         11    1    3    3    0    0  0.46455048241E+02 -0.84788793145E+01 -0.15577430499E+01  0.47248168906E+02  0.00000000000E+00 0.  1.
        -11    1    3    3    0    0  0.26755533930E+03 -0.22047796769E+03  0.14381460540E+03  0.37533855991E+03  0.00000000000E+00 0. -1.
          2    1    6    6  502    0  0.47281481564E+02  0.13166261853E+03  0.61168981630E+02  0.15268342389E+03  0.00000000000E+00 0. -1.
          1    1    5    5  503    0 -0.25986119405E+02 -0.24041055969E+02  0.68156400619E+02  0.76801990333E+02  0.00000000000E+00 0. -1.
         -2    1    5    5    0  503 -0.36872114067E+03 -0.45666452850E+02  0.11515990493E+04  0.12100500299E+04  0.00000000000E+00 0.  1.
         -1    1    6    6    0  502  0.33415390972E+02  0.16700173729E+03 -0.13628327348E+02  0.17085637219E+03  0.00000000000E+00 0.  1.
<mgrwt>
<rscale>  0 0.14649786E+04</rscale>
<asrwt>0</asrwt>
<pdfrwt beam="1">  1        2 0.47955815E-01 0.14649786E+04</pdfrwt>
<pdfrwt beam="2">  1       -2 0.26481011E+00 0.14649786E+04</pdfrwt>
<totfact> 0.53219163E+00</totfact>
</mgrwt>
</event>
<event>
12    1  0.1562393E-007  0.1758925E+04  0.7818608E-02  0.8728453E-01
          1   -1    0    0  501    0  0.00000000000E+00  0.00000000000E+00  0.41631161613E+04  0.41631161613E+04  0.00000000000E+00 0. -1.
         -1   -1    0    0    0  501 -0.00000000000E+00 -0.00000000000E+00 -0.18578741107E+03  0.18578741107E+03  0.00000000000E+00 0.  1.
         23    2    1    2    0    0  0.75432138292E+02 -0.15602094208E+03 -0.63735324507E+02  0.20455200956E+03  0.88015857498E+02 0.  0.
        254    2    1    2    0    0 -0.75432138292E+02  0.15602094208E+03  0.40410640748E+04  0.41443515628E+04  0.90300524817E+03 0.  0.
        -24    2    4    4    0    0 -0.45448267807E+03  0.11714743074E+03  0.15021009303E+04  0.15757381419E+04  0.79783843357E+02 0.  0.
         24    2    4    4    0    0  0.37905053978E+03  0.38873511337E+02  0.25389631444E+04  0.25686134209E+04  0.79060710783E+02 0.  0.
         13    1    3    3    0    0  0.26961736097E+02 -0.76487026528E+02  0.15140498903E+02  0.82501122098E+02  0.00000000000E+00 0. -1.
        -13    1    3    3    0    0  0.48470402195E+02 -0.79533915550E+02 -0.78875823410E+02  0.12205088746E+03  0.00000000000E+00 0.  1.
          4    1    6    6  502    0  0.20671130326E+03  0.52535401464E+02  0.12421848306E+04  0.12603621245E+04  0.00000000000E+00 0. -1.
          1    1    5    5  503    0 -0.19431288871E+03  0.96037248337E+01  0.61387143255E+03  0.64396262775E+03  0.00000000000E+00 0. -1.
         -2    1    5    5    0  503 -0.26016978936E+03  0.10754370591E+03  0.88822949780E+03  0.93177551413E+03  0.00000000000E+00 0.  1.
         -3    1    6    6    0  502  0.17233923652E+03 -0.13661890127E+02  0.12967783138E+04  0.13082512965E+04  0.00000000000E+00 0.  1.
<mgrwt>
<rscale>  0 0.17589253E+04</rscale>
<asrwt>0</asrwt>
<pdfrwt beam="1">  1        1 0.64047934E+00 0.17589253E+04</pdfrwt>
<pdfrwt beam="2">  1       -1 0.28582682E-01 0.17589253E+04</pdfrwt>
<totfact> 0.73026044E-01</totfact>
</mgrwt>
</event>
<event>
12    1  0.1562393E-007  0.1842569E+04  0.7818608E-02  0.8683984E-01
         -2   -1    0    0    0  501 -0.00000000000E+00  0.00000000000E+00  0.79539191553E+03  0.79539191553E+03  0.00000000000E+00 0.  1.
          2   -1    0    0  501    0  0.00000000000E+00 -0.00000000000E+00 -0.10671026409E+04  0.10671026409E+04  0.00000000000E+00 0. -1.
         23    2    1    2    0    0  0.28317862713E+03 -0.29795737120E+03 -0.67163213155E+03  0.79278923015E+03  0.91958215501E+02 0.  0.
        254    2    1    2    0    0 -0.28317862713E+03  0.29795737120E+03  0.39992140615E+03  0.10697053263E+04  0.90297487456E+03 0.  0.
        -24    2    4    4    0    0 -0.53384251712E+03 -0.19725832435E+02  0.76702935762E+02  0.54574733978E+03  0.81116440822E+02 0.  0.
         24    2    4    4    0    0  0.25066388998E+03  0.31768320363E+03  0.32321847039E+03  0.52395798652E+03  0.79415290869E+02 0.  0.
         11    1    3    3    0    0  0.57627281455E+02 -0.18832472236E+02 -0.73698025810E+02  0.95430417513E+02  0.00000000000E+00 0.  1.
        -11    1    3    3    0    0  0.22555134568E+03 -0.27912489896E+03 -0.59793410574E+03  0.69735881264E+03  0.00000000000E+00 0. -1.
          2    1    6    6  502    0  0.16037617678E+03  0.16461737479E+03  0.22153282630E+03  0.31921182824E+03  0.00000000000E+00 0. -1.
          3    1    5    5  503    0 -0.48093374038E+03  0.28402423497E+01  0.82384559724E+02  0.48794727717E+03  0.00000000000E+00 0. -1.
         -4    1    5    5    0  503 -0.52908776737E+02 -0.22566074784E+02 -0.56816239618E+01  0.57800062610E+02  0.00000000000E+00 0.  1.
         -1    1    6    6    0  502  0.90287713203E+02  0.15306582885E+03  0.10168564409E+03  0.20474615828E+03  0.00000000000E+00 0.  1.
<mgrwt>
<rscale>  0 0.18425687E+04</rscale>
<asrwt>0</asrwt>
<pdfrwt beam="1">  1        2 0.16416964E+00 0.18425687E+04</pdfrwt>
<pdfrwt beam="2">  1       -2 0.12236799E+00 0.18425687E+04</pdfrwt>
<totfact> 0.10867622E+01</totfact>
</mgrwt>
</event>
<event>
12    1  0.1562393E-007  0.1451373E+04  0.7818608E-02  0.8917449E-01
          2   -1    0    0  501    0  0.00000000000E+00  0.00000000000E+00  0.23459509531E+04  0.23459509531E+04  0.00000000000E+00 0. -1.
         -2   -1    0    0    0  501 -0.00000000000E+00 -0.00000000000E+00 -0.22448073512E+03  0.22448073512E+03  0.00000000000E+00 0.  1.
         23    2    1    2    0    0  0.94000724511E+02  0.12585536134E+02 -0.10061474659E+03  0.16584713724E+03  0.91582824654E+02 0.  0.
        254    2    1    2    0    0 -0.94000724511E+02 -0.12585536134E+02  0.22220849646E+04  0.24045845510E+04  0.91398618215E+03 0.  0.
        -24    2    4    4    0    0  0.12987112089E+03 -0.33395453500E+03  0.41699417100E+03  0.55573768678E+03  0.81043805242E+02 0.  0.
         24    2    4    4    0    0 -0.22387184540E+03  0.32136899887E+03  0.18050907936E+04  0.18488468642E+04  0.80531470000E+02 0.  0.
         13    1    3    3    0    0  0.36072564359E+02  0.39299285556E+02 -0.88282830203E+01  0.54070346085E+02  0.00000000000E+00 0. -1.
        -13    1    3    3    0    0  0.57928160152E+02 -0.26713749422E+02 -0.91786463567E+02  0.11177679116E+03  0.00000000000E+00 0.  1.
          4    1    6    6  502    0 -0.11639593022E+03  0.99557742914E+02  0.66298359064E+03  0.68044617583E+03  0.00000000000E+00 0. -1.
          1    1    5    5  503    0  0.30064511078E+02 -0.51523245295E+02  0.31243735145E+02  0.67340111508E+02  0.00000000000E+00 0. -1.
         -2    1    5    5    0  503  0.99806609812E+02 -0.28243128971E+03  0.38575043585E+03  0.48839757527E+03  0.00000000000E+00 0.  1.
         -3    1    6    6    0  502 -0.10747591518E+03  0.22181125595E+03  0.11421072030E+04  0.11684006884E+04  0.00000000000E+00 0.  1.
<mgrwt>
<rscale>  0 0.14513729E+04</rscale>
<asrwt>0</asrwt>
<pdfrwt beam="1">  1        2 0.36091552E+00 0.14513729E+04</pdfrwt>
<pdfrwt beam="2">  1       -2 0.34535499E-01 0.14513729E+04</pdfrwt>
<totfact> 0.32600645E+01</totfact>
</mgrwt>
</event>
<event>
12    1  0.1562393E-007  0.1318488E+04  0.7818608E-02  0.9015031E-01
          2   -1    0    0  501    0  0.00000000000E+00  0.00000000000E+00  0.21858338650E+04  0.21858338650E+04  0.00000000000E+00 0. -1.
         -2   -1    0    0    0  501 -0.00000000000E+00 -0.00000000000E+00 -0.19882705437E+03  0.19882705437E+03  0.00000000000E+00 0.  1.
         23    2    1    2    0    0 -0.16534919613E+03 -0.27030098021E+03  0.31009921712E+03  0.45238412243E+03  0.89927154993E+02 0.  0.
        254    2    1    2    0    0  0.16534919613E+03  0.27030098021E+03  0.16769075935E+04  0.19322767969E+04  0.90624034686E+03 0.  0.
        -24    2    4    4    0    0 -0.16835048581E+03 -0.25879943961E+03  0.70349693522E+03  0.77242658995E+03  0.80099082211E+02 0.  0.
         24    2    4    4    0    0  0.33369968194E+03  0.52910041982E+03  0.97341065826E+03  0.11598502070E+04  0.80134019162E+02 0.  0.
         11    1    3    3    0    0 -0.10750530940E+03 -0.22969096659E+03  0.27279232770E+03  0.37246608669E+03  0.00000000000E+00 0. -1.
        -11    1    3    3    0    0 -0.57843886729E+02 -0.40610013622E+02  0.37306889415E+02  0.79918035738E+02  0.00000000000E+00 0.  1.
          2    1    6    6  502    0  0.26311674691E+03  0.45921319880E+03  0.78302769709E+03  0.94511351639E+03  0.00000000000E+00 0. -1.
          1    1    5    5  503    0 -0.81321230185E+02 -0.78057633078E+02  0.18707016731E+03  0.21840646524E+03  0.00000000000E+00 0. -1.
         -2    1    5    5    0  503 -0.87029255624E+02 -0.18074180654E+03  0.51642676791E+03  0.55402012470E+03  0.00000000000E+00 0.  1.
         -1    1    6    6    0  502  0.70582935028E+02  0.69887221024E+02  0.19038296117E+03  0.21473669058E+03  0.00000000000E+00 0.  1.
<mgrwt>
<rscale>  0 0.13184884E+04</rscale>
<asrwt>0</asrwt>
<pdfrwt beam="1">  1        2 0.33628212E+00 0.13184884E+04</pdfrwt>
<pdfrwt beam="2">  1       -2 0.30588779E-01 0.13184884E+04</pdfrwt>
<totfact> 0.51007777E+01</totfact>
</mgrwt>
</event>
<event>
12    1  0.1562393E-007  0.2566494E+04  0.7818608E-02  0.8379672E-01
         -2   -1    0    0    0  501 -0.00000000000E+00  0.00000000000E+00  0.22433810309E+04  0.22433810309E+04  0.00000000000E+00 0.  1.
          2   -1    0    0  501    0  0.00000000000E+00 -0.00000000000E+00 -0.73403634301E+03  0.73403634301E+03  0.00000000000E+00 0. -1.
         23    2    1    2    0    0 -0.72631854995E+03  0.84528481535E+03  0.82823886592E+03  0.13917286751E+04  0.94255137799E+02 0.  0.
        254    2    1    2    0    0  0.72631854995E+03 -0.84528481535E+03  0.68110582199E+03  0.15856886988E+04  0.89914317759E+03 0.  0.
        -24    2    4    4    0    0  0.69406453871E+03 -0.77604428451E+03  0.87506989641E+03  0.13624100472E+04  0.80271400109E+02 0.  0.
         24    2    4    4    0    0  0.32254011245E+02 -0.69240530832E+02 -0.19396407442E+03  0.22327865165E+03  0.79979508407E+02 0.  0.
         11    1    3    3    0    0 -0.70658861931E+03  0.79393795298E+03  0.79706737183E+03  0.13285034232E+04  0.00000000000E+00 0. -1.
        -11    1    3    3    0    0 -0.19729930643E+02  0.51346862368E+02  0.31171494091E+02  0.63225251933E+02  0.00000000000E+00 0.  1.
          2    1    6    6  502    0  0.44298750101E+02 -0.96019586931E+01 -0.11487499368E+03  0.12349429559E+03  0.00000000000E+00 0. -1.
          1    1    5    5  503    0  0.62135642826E+03 -0.70363075238E+03  0.81728307443E+03  0.12446411814E+04  0.00000000000E+00 0. -1.
         -2    1    5    5    0  503  0.72708110449E+02 -0.72413532130E+02  0.57786821981E+02  0.11776886581E+03  0.00000000000E+00 0.  1.
         -3    1    6    6    0  502 -0.12044738855E+02 -0.59638572139E+02 -0.79089080737E+02  0.99784356052E+02  0.00000000000E+00 0.  1.
<mgrwt>
<rscale>  0 0.25664943E+04</rscale>
<asrwt>0</asrwt>
<pdfrwt beam="1">  1        2 0.11292867E+00 0.25664943E+04</pdfrwt>
<pdfrwt beam="2">  1       -2 0.34513554E+00 0.25664943E+04</pdfrwt>
<totfact> 0.57120171E-01</totfact>
</mgrwt>
</event>
<event>
12    1  0.1562393E-007  0.1732929E+04  0.7818608E-02  0.8742803E-01
          3   -1    0    0  501    0  0.00000000000E+00  0.00000000000E+00  0.32097100401E+03  0.32097100401E+03  0.00000000000E+00 0. -1.
         -3   -1    0    0    0  501 -0.00000000000E+00 -0.00000000000E+00 -0.23390302486E+04  0.23390302486E+04  0.00000000000E+00 0.  1.
         23    2    1    2    0    0 -0.44750959461E+03  0.11686971980E+03 -0.10545006637E+03  0.48312967043E+03  0.91494225378E+02 0.  0.
        254    2    1    2    0    0  0.44750959461E+03 -0.11686971980E+03 -0.19126091782E+04  0.21768715822E+04  0.93100625563E+03 0.  0.
        -24    2    4    4    0    0  0.61348124733E+03 -0.30920004063E+03 -0.17031690577E+04  0.18382738883E+04  0.80635869782E+02 0.  0.
         24    2    4    4    0    0 -0.16597165272E+03  0.19233032082E+03 -0.20944012053E+03  0.33859769385E+03  0.79029693023E+02 0.  0.
         13    1    3    3    0    0 -0.30928088591E+03  0.39057982334E+02 -0.54075001655E+02  0.31639263294E+03  0.00000000000E+00 0. -1.
        -13    1    3    3    0    0 -0.13822870870E+03  0.77811737471E+02 -0.51375064716E+02  0.16673703749E+03  0.00000000000E+00 0.  1.
          2    1    6    6  502    0 -0.90625681836E+02  0.12636746916E+03 -0.79800645918E+02  0.17478528130E+03  0.00000000000E+00 0. -1.
          1    1    5    5  503    0  0.60415860312E+03 -0.28987595038E+03 -0.16567445453E+04  0.17871312691E+04  0.00000000000E+00 0. -1.
         -2    1    5    5    0  503  0.93226442085E+01 -0.19324090251E+02 -0.46424512349E+02  0.51142619271E+02  0.00000000000E+00 0.  1.
         -1    1    6    6    0  502 -0.75345970884E+02  0.65962851659E+02 -0.12963947461E+03  0.16381241255E+03  0.00000000000E+00 0.  1.
<mgrwt>
<rscale>  0 0.17329292E+04</rscale>
<asrwt>0</asrwt>
<pdfrwt beam="1">  1        3 0.49380152E-01 0.17329292E+04</pdfrwt>
<pdfrwt beam="2">  1       -3 0.35985082E+00 0.17329292E+04</pdfrwt>
<totfact> 0.17924532E-01</totfact>
</mgrwt>
</event>
<event>
12    1  0.1562393E-007  0.1609959E+04  0.7818608E-02  0.8814453E-01
          2   -1    0    0  501    0  0.00000000000E+00  0.00000000000E+00  0.25036718254E+04  0.25036718254E+04  0.00000000000E+00 0. -1.
         -2   -1    0    0    0  501 -0.00000000000E+00 -0.00000000000E+00 -0.25881669851E+03  0.25881669851E+03  0.00000000000E+00 0.  1.
         23    2    1    2    0    0  0.50908508642E+03  0.40847044186E+02  0.43259296744E+03  0.67511459992E+03  0.88356897402E+02 0.  0.
        254    2    1    2    0    0 -0.50908508642E+03 -0.40847044186E+02  0.18122621595E+04  0.20873739240E+04  0.90111023617E+03 0.  0.
        -24    2    4    4    0    0 -0.19706868033E+02  0.36646368426E+03  0.48563987358E+03  0.61393850891E+03  0.79940061200E+02 0.  0.
         24    2    4    4    0    0 -0.48937821838E+03 -0.40731072845E+03  0.13266222859E+04  0.14734354151E+04  0.75446423885E+02 0.  0.
         11    1    3    3    0    0  0.41177571838E+03 -0.21706042397E+01  0.34987680056E+03  0.54034963620E+03  0.00000000000E+00 0. -1.
        -11    1    3    3    0    0  0.97309368031E+02  0.43017648426E+02  0.82716166872E+02  0.13476496371E+03  0.00000000000E+00 0.  1.
          2    1    6    6  502    0 -0.39066465889E+03 -0.31566488287E+03  0.97206519617E+03  0.10941544405E+04  0.00000000000E+00 0. -1.
          1    1    5    5  503    0  0.21662657785E+01  0.33912703178E+03  0.42283317843E+03  0.54203296318E+03  0.00000000000E+00 0. -1.
         -2    1    5    5    0  503 -0.21873133811E+02  0.27336652481E+02  0.62806695144E+02  0.71905545728E+02  0.00000000000E+00 0.  1.
         -1    1    6    6    0  502 -0.98713559495E+02 -0.91645845578E+02  0.35455708975E+03  0.37928097465E+03  0.00000000000E+00 0.  1.
<mgrwt>
<rscale>  0 0.16099591E+04</rscale>
<asrwt>0</asrwt>
<pdfrwt beam="1">  1        2 0.38518026E+00 0.16099591E+04</pdfrwt>
<pdfrwt beam="2">  1       -2 0.39817955E-01 0.16099591E+04</pdfrwt>
<totfact> 0.19849458E+01</totfact>
</mgrwt>
</event>
<event>
12    1  0.1562393E-007  0.1308749E+04  0.7818608E-02  0.9022655E-01
         -1   -1    0    0    0  501 -0.00000000000E+00  0.00000000000E+00  0.48512687985E+03  0.48512687985E+03  0.00000000000E+00 0.  1.
          1   -1    0    0  501    0  0.00000000000E+00 -0.00000000000E+00 -0.88266853081E+03  0.88266853081E+03  0.00000000000E+00 0. -1.
         23    2    1    2    0    0  0.21363430569E+03 -0.17702183267E+03 -0.30378775966E+03  0.42152876516E+03  0.91777726771E+02 0.  0.
        254    2    1    2    0    0 -0.21363430569E+03  0.17702183267E+03 -0.93753891293E+02  0.94626664550E+03  0.89980799421E+03 0.  0.
        -24    2    4    4    0    0 -0.38100263844E+03  0.37626771217E+03  0.17041304888E+03  0.56729582231E+03  0.77740215167E+02 0.  0.
         24    2    4    4    0    0  0.16736833276E+03 -0.19924587950E+03 -0.26416694018E+03  0.37897082319E+03  0.78253646844E+02 0.  0.
         11    1    3    3    0    0  0.20982669331E+03 -0.13826529100E+03 -0.27843197713E+03  0.37505852584E+03  0.00000000000E+00 0. -1.
        -11    1    3    3    0    0  0.38076123765E+01 -0.38756541675E+02 -0.25355782533E+02  0.46470239321E+02  0.00000000000E+00 0.  1.
          2    1    6    6  502    0  0.15381648239E+03 -0.20299565721E+03 -0.26075954663E+03  0.36450279596E+03  0.00000000000E+00 0. -1.
          1    1    5    5  503    0 -0.36410606911E+03  0.33081946507E+03  0.14694299135E+03  0.51342671409E+03  0.00000000000E+00 0. -1.
         -2    1    5    5    0  503 -0.16896569332E+02  0.45448247099E+02  0.23470057530E+02  0.53869108217E+02  0.00000000000E+00 0.  1.
         -1    1    6    6    0  502  0.13551850372E+02  0.37497777147E+01 -0.34073935451E+01  0.14468027239E+02  0.00000000000E+00 0.  1.
<mgrwt>
<rscale>  0 0.13087494E+04</rscale>
<asrwt>0</asrwt>
<pdfrwt beam="1">  1        1 0.13579516E+00 0.13087494E+04</pdfrwt>
<pdfrwt beam="2">  1       -1 0.74634904E-01 0.13087494E+04</pdfrwt>
<totfact> 0.33363001E+01</totfact>
</mgrwt>
</event>
<event>
12    1  0.1562393E-007  0.1842343E+04  0.7818608E-02  0.8684101E-01
          2   -1    0    0  501    0  0.00000000000E+00  0.00000000000E+00  0.11677191749E+04  0.11677191749E+04  0.00000000000E+00 0. -1.
         -2   -1    0    0    0  501 -0.00000000000E+00 -0.00000000000E+00 -0.72667890547E+03  0.72667890547E+03  0.00000000000E+00 0.  1.
         23    2    1    2    0    0 -0.66336946504E+03  0.56489616349E+02  0.32474874340E+03  0.74648367281E+03  0.92336360854E+02 0.  0.
        254    2    1    2    0    0  0.66336946504E+03 -0.56489616349E+02  0.11629152605E+03  0.11479144076E+04  0.92786510021E+03 0.  0.
        -24    2    4    4    0    0  0.27249790253E+02 -0.38086138603E+02  0.42557973985E+03  0.43591404358E+03  0.81913572721E+02 0.  0.
         24    2    4    4    0    0  0.63611967478E+03 -0.18403477746E+02 -0.30928821381E+03  0.71200036399E+03  0.79362399703E+02 0.  0.
         11    1    3    3    0    0 -0.38292193651E+03 -0.78500395488E+01  0.16144440109E+03  0.41563821675E+03  0.00000000000E+00 0.  1.
        -11    1    3    3    0    0 -0.28044752853E+03  0.64339655898E+02  0.16330434231E+03  0.33084545606E+03  0.00000000000E+00 0. -1.
          2    1    6    6  502    0  0.90328654577E+01  0.70221639300E+01 -0.14894943716E+02  0.18781980538E+02  0.00000000000E+00 0. -1.
          3    1    5    5  503    0 -0.99461766654E+01  0.21703236206E+02  0.10079448552E+03  0.10358322838E+03  0.00000000000E+00 0. -1.
         -4    1    5    5    0  503  0.37195966918E+02 -0.59789374809E+02  0.32478525434E+03  0.33233081520E+03  0.00000000000E+00 0.  1.
         -1    1    6    6    0  502  0.62708680933E+03 -0.25425641676E+02 -0.29439327009E+03  0.69321838345E+03  0.00000000000E+00 0.  1.
<mgrwt>
<rscale>  0 0.18423430E+04</rscale>
<asrwt>0</asrwt>
<pdfrwt beam="1">  1        2 0.17964910E+00 0.18423430E+04</pdfrwt>
<pdfrwt beam="2">  1       -2 0.11179675E+00 0.18423430E+04</pdfrwt>
<totfact> 0.11773783E+01</totfact>
</mgrwt>
</event>
<event>
12    1  0.1562393E-007  0.1234473E+04  0.7818608E-02  0.9083206E-01
         -3   -1    0    0    0  501 -0.00000000000E+00  0.00000000000E+00  0.25488451469E+03  0.25488451469E+03  0.00000000000E+00 0.  1.
          3   -1    0    0  501    0  0.00000000000E+00 -0.00000000000E+00 -0.14947208239E+04  0.14947208239E+04  0.00000000000E+00 0. -1.
         23    2    1    2    0    0  0.21637370255E+03 -0.15909816927E+03 -0.16455833652E+03  0.32720482646E+03  0.88621361527E+02 0.  0.
        254    2    1    2    0    0 -0.21637370255E+03  0.15909816927E+03 -0.10752779727E+04  0.14224005121E+04  0.89155520959E+03 0.  0.
        -24    2    4    4    0    0 -0.18516792829E+03  0.48171521377E+03 -0.91042032589E+03  0.10496503762E+04  0.81018724165E+02 0.  0.
         24    2    4    4    0    0 -0.31205774264E+02 -0.32261704450E+03 -0.16485764680E+03  0.37275013591E+03  0.81908866232E+02 0.  0.
         13    1    3    3    0    0  0.11762807780E+03 -0.86450101756E+02 -0.37650823983E+02  0.15075665600E+03  0.00000000000E+00 0.  1.
        -13    1    3    3    0    0  0.98745624749E+02 -0.72648067511E+02 -0.12690751254E+03  0.17644817046E+03  0.00000000000E+00 0. -1.
          2    1    6    6  502    0 -0.39621601879E+02 -0.13853292175E+03 -0.10744298931E+03  0.17973657863E+03  0.00000000000E+00 0. -1.
          1    1    5    5  503    0 -0.19072126743E+03  0.47082092182E+03 -0.87026629670E+03  0.10076757263E+04  0.00000000000E+00 0. -1.
         -2    1    5    5    0  503  0.55533391461E+01  0.10894291944E+02 -0.40154029187E+02  0.41974649880E+02  0.00000000000E+00 0.  1.
         -1    1    6    6    0  502  0.84158276156E+01 -0.18408412275E+03 -0.57414657487E+02  0.19301355729E+03  0.00000000000E+00 0.  1.
<mgrwt>
<rscale>  0 0.12344735E+04</rscale>
<asrwt>0</asrwt>
<pdfrwt beam="1">  1        3 0.22995704E+00 0.12344735E+04</pdfrwt>
<pdfrwt beam="2">  1       -3 0.39213004E-01 0.12344735E+04</pdfrwt>
<totfact> 0.16183264E+00</totfact>
</mgrwt>
</event>
<event>
12    1  0.1562393E-007  0.1770544E+04  0.7818608E-02  0.8722123E-01
         -2   -1    0    0    0  501 -0.00000000000E+00  0.00000000000E+00  0.27023246143E+03  0.27023246143E+03  0.00000000000E+00 0.  1.
          2   -1    0    0  501    0  0.00000000000E+00 -0.00000000000E+00 -0.29001199389E+04  0.29001199389E+04  0.00000000000E+00 0. -1.
         23    2    1    2    0    0 -0.17318955774E+02 -0.40531754273E+03 -0.62561866828E+02  0.42164402159E+03  0.96371349952E+02 0.  0.
        254    2    1    2    0    0  0.17318955774E+02  0.40531754273E+03 -0.25673256106E+04  0.27487083787E+04  0.89423414363E+03 0.  0.
        -24    2    4    4    0    0 -0.12908705646E+03  0.17608813848E+03 -0.80682609122E+02  0.24589048295E+03  0.79258725282E+02 0.  0.
         24    2    4    4    0    0  0.14640601223E+03  0.22922940425E+03 -0.24866430015E+04  0.25028178958E+04  0.81994891712E+02 0.  0.
         13    1    3    3    0    0  0.15888270657E+02 -0.36222735988E+03 -0.54317773062E+02  0.36662176403E+03  0.00000000000E+00 0.  1.
        -13    1    3    3    0    0 -0.33207226431E+02 -0.43090182841E+02 -0.82440937661E+01  0.55022257556E+02  0.00000000000E+00 0. -1.
          4    1    6    6  502    0  0.10392811938E+03  0.10610930433E+03 -0.10813965320E+04  0.10915487611E+04  0.00000000000E+00 0. -1.
          1    1    5    5  503    0 -0.21726891600E+01  0.20644866931E+02 -0.34035566916E+02  0.39866664321E+02  0.00000000000E+00 0. -1.
         -2    1    5    5    0  503 -0.12691436730E+03  0.15544327155E+03 -0.46647042206E+02  0.20602381863E+03  0.00000000000E+00 0.  1.
         -1    1    6    6    0  502  0.42477892857E+02  0.12312009991E+03 -0.14052464695E+04  0.14112691347E+04  0.00000000000E+00 0.  1.
<mgrwt>
<rscale>  0 0.17705440E+04</rscale>
<asrwt>0</asrwt>
<pdfrwt beam="1">  1        2 0.44617232E+00 0.17705440E+04</pdfrwt>
<pdfrwt beam="2">  1       -2 0.41574223E-01 0.17705440E+04</pdfrwt>
<totfact> 0.10455742E+01</totfact>
</mgrwt>
</event>
<event>
12    1  0.1562393E-007  0.1526814E+04  0.7818608E-02  0.8866815E-01
         -2   -1    0    0    0  501 -0.00000000000E+00  0.00000000000E+00  0.12983583372E+04  0.12983583372E+04  0.00000000000E+00 0.  1.
          2   -1    0    0  501    0  0.00000000000E+00 -0.00000000000E+00 -0.44886694656E+03  0.44886694656E+03  0.00000000000E+00 0. -1.
         23    2    1    2    0    0  0.18330493654E+03  0.32547795018E+03 -0.90009689610E+02  0.39513623218E+03  0.92164537363E+02 0.  0.
        254    2    1    2    0    0 -0.18330493654E+03 -0.32547795018E+03  0.93950108021E+03  0.13520890515E+04  0.89774491241E+03 0.  0.
        -24    2    4    4    0    0  0.15386512569E+01  0.14346907806E+03 -0.10073538568E+03  0.19342642387E+03  0.81733834583E+02 0.  0.
         24    2    4    4    0    0 -0.18484358780E+03 -0.46894702824E+03  0.10402364659E+04  0.11586626277E+04  0.79553205790E+02 0.  0.
         13    1    3    3    0    0  0.18471231873E+03  0.30862158735E+03 -0.10263164265E+03  0.37403098661E+03  0.00000000000E+00 0. -1.
        -13    1    3    3    0    0 -0.14073821903E+01  0.16856362828E+02  0.12621953035E+02  0.21105245576E+02  0.00000000000E+00 0.  1.
          4    1    6    6  502    0 -0.10824483138E+03 -0.36508964657E+03  0.79772018324E+03  0.88394846247E+03  0.00000000000E+00 0. -1.
          1    1    5    5  503    0 -0.23920950621E+02  0.69476629449E+02 -0.10889019900E+02  0.74281792336E+02  0.00000000000E+00 0. -1.
         -2    1    5    5    0  503  0.25459601878E+02  0.73992448609E+02 -0.89846365781E+02  0.11914463153E+03  0.00000000000E+00 0.  1.
         -3    1    6    6    0  502 -0.76598756426E+02 -0.10385738167E+03  0.24251628265E+03  0.27471416520E+03  0.00000000000E+00 0.  1.
<mgrwt>
<rscale>  0 0.15268139E+04</rscale>
<asrwt>0</asrwt>
<pdfrwt beam="1">  1        2 0.69056454E-01 0.15268139E+04</pdfrwt>
<pdfrwt beam="2">  1       -2 0.19974744E+00 0.15268139E+04</pdfrwt>
<totfact> 0.89701677E+00</totfact>
</mgrwt>
</event>
<event>
12    1  0.1562393E-007  0.1851804E+04  0.7818608E-02  0.8679226E-01
         -2   -1    0    0    0  501 -0.00000000000E+00  0.00000000000E+00  0.54288774556E+03  0.54288774556E+03  0.00000000000E+00 0.  1.
          2   -1    0    0  501    0  0.00000000000E+00 -0.00000000000E+00 -0.15791375373E+04  0.15791375373E+04  0.00000000000E+00 0. -1.
         23    2    1    2    0    0  0.49010667947E+03 -0.39974082432E+03 -0.73236090612E+03  0.97190188039E+03  0.90793636366E+02 0.  0.
        254    2    1    2    0    0 -0.49010667947E+03  0.39974082432E+03 -0.30388888558E+03  0.11501234024E+04  0.91128376598E+03 0.  0.
        -24    2    4    4    0    0 -0.71893085955E+03  0.15745192667E+03 -0.31904838497E+03  0.80626274662E+03  0.81332985970E+02 0.  0.
         24    2    4    4    0    0  0.22882418008E+03  0.24228889765E+03  0.15159499390E+02  0.34386065581E+03  0.83342215451E+02 0.  0.
         13    1    3    3    0    0  0.19052728234E+03 -0.10254049695E+03 -0.26802076194E+03  0.34445656862E+03  0.00000000000E+00 0.  1.
        -13    1    3    3    0    0  0.29957939714E+03 -0.29720032737E+03 -0.46434014417E+03  0.62744531177E+03  0.00000000000E+00 0. -1.
          2    1    6    6  502    0  0.20313058053E+03  0.22222974581E+03 -0.12168761656E+02  0.30132403062E+03  0.00000000000E+00 0. -1.
          3    1    5    5  503    0 -0.54120552317E+03  0.13630050379E+03 -0.27381496925E+03  0.62165575927E+03  0.00000000000E+00 0. -1.
         -4    1    5    5    0  503 -0.17772533638E+03  0.21151422879E+02 -0.45233415715E+02  0.18460698735E+03  0.00000000000E+00 0.  1.
         -1    1    6    6    0  502  0.25693599548E+02  0.20059151840E+02  0.27328261047E+02  0.42536625185E+02  0.00000000000E+00 0.  1.
<mgrwt>
<rscale>  0 0.18518039E+04</rscale>
<asrwt>0</asrwt>
<pdfrwt beam="1">  1        2 0.24294423E+00 0.18518039E+04</pdfrwt>
<pdfrwt beam="2">  1       -2 0.83521194E-01 0.18518039E+04</pdfrwt>
<totfact> 0.13506280E+01</totfact>
</mgrwt>
</event>
<event>
12    1  0.1562393E-007  0.1333790E+04  0.7818608E-02  0.9003190E-01
          1   -1    0    0  501    0  0.00000000000E+00  0.00000000000E+00  0.13675881599E+04  0.13675881599E+04  0.00000000000E+00 0. -1.
         -1   -1    0    0    0  501 -0.00000000000E+00 -0.00000000000E+00 -0.32520671634E+03  0.32520671634E+03  0.00000000000E+00 0.  1.
         23    2    1    2    0    0  0.23714205773E+03  0.29970556542E+02  0.62015303531E+03  0.67080004397E+03  0.90820272958E+02 0.  0.
        254    2    1    2    0    0 -0.23714205773E+03 -0.29970556542E+02  0.42222840828E+03  0.10219948323E+04  0.89947874833E+03 0.  0.
        -24    2    4    4    0    0 -0.19368479892E+03 -0.33252284836E+03  0.55485154905E+03  0.67998770854E+03  0.80235878931E+02 0.  0.
         24    2    4    4    0    0 -0.43457258816E+02  0.30255229182E+03 -0.13262314076E+03  0.34200712378E+03  0.77159267882E+02 0.  0.
         11    1    3    3    0    0  0.17416131446E+03  0.42519502063E+02  0.53437775037E+03  0.56364851779E+03  0.00000000000E+00 0. -1.
        -11    1    3    3    0    0  0.62980743277E+02 -0.12548945521E+02  0.85775284936E+02  0.10715152618E+03  0.00000000000E+00 0.  1.
          2    1    6    6  502    0 -0.16698039186E+02  0.98112513191E+02 -0.52687046269E+01  0.99662676091E+02  0.00000000000E+00 0. -1.
          3    1    5    5  503    0 -0.38939528434E+02 -0.10662159322E+03  0.11297766289E+03  0.16015118897E+03  0.00000000000E+00 0. -1.
         -4    1    5    5    0  503 -0.15474527048E+03 -0.22590125514E+03  0.44187388615E+03  0.51983651957E+03  0.00000000000E+00 0.  1.
         -1    1    6    6    0  502 -0.26759219630E+02  0.20443977863E+03 -0.12735443614E+03  0.24234444768E+03  0.00000000000E+00 0.  1.
<mgrwt>
<rscale>  0 0.13337899E+04</rscale>
<asrwt>0</asrwt>
<pdfrwt beam="1">  1        1 0.21039818E+00 0.13337899E+04</pdfrwt>
<pdfrwt beam="2">  1       -1 0.50031803E-01 0.13337899E+04</pdfrwt>
<totfact> 0.31811156E+01</totfact>
</mgrwt>
</event>
<event>
12    1  0.1562393E-007  0.1615800E+04  0.7818608E-02  0.8810900E-01
          1   -1    0    0  501    0  0.00000000000E+00  0.00000000000E+00  0.71733131819E+03  0.71733131819E+03  0.00000000000E+00 0. -1.
         -1   -1    0    0    0  501 -0.00000000000E+00 -0.00000000000E+00 -0.90990377727E+03  0.90990377727E+03  0.00000000000E+00 0.  1.
         23    2    1    2    0    0 -0.26865622576E+02 -0.34404952998E+03 -0.49443271377E+03  0.60972876730E+03  0.90629026628E+02 0.  0.
        254    2    1    2    0    0  0.26865622576E+02  0.34404952998E+03  0.30186025469E+03  0.10175063282E+04  0.90835437673E+03 0.  0.
        -24    2    4    4    0    0 -0.38496425278E+03 -0.28340457845E+01  0.25924395034E+03  0.47146921234E+03  0.82887180356E+02 0.  0.
         24    2    4    4    0    0  0.41182987535E+03  0.34688357576E+03  0.42616304352E+02  0.54603711582E+03  0.80051989905E+02 0.  0.
         13    1    3    3    0    0 -0.56100630740E+01 -0.32031764353E+03 -0.47317937538E+03  0.57143117420E+03  0.00000000000E+00 0.  1.
        -13    1    3    3    0    0 -0.21255559502E+02 -0.23731886449E+02 -0.21253338391E+02  0.38297593096E+02  0.00000000000E+00 0. -1.
          2    1    6    6  502    0  0.35076642028E+03  0.25416508594E+03  0.39582429961E+02  0.43497556399E+03  0.00000000000E+00 0. -1.
          1    1    5    5  503    0 -0.21470611342E+03  0.12691589598E+02  0.97609116345E+02  0.23619341900E+03  0.00000000000E+00 0. -1.
         -2    1    5    5    0  503 -0.17025813936E+03 -0.15525635383E+02  0.16163483400E+03  0.23527579335E+03  0.00000000000E+00 0.  1.
         -1    1    6    6    0  502  0.61063455068E+02  0.92718489823E+02  0.30338743911E+01  0.11106155182E+03  0.00000000000E+00 0.  1.
<mgrwt>
<rscale>  0 0.16158001E+04</rscale>
<asrwt>0</asrwt>
<pdfrwt beam="1">  1        1 0.11035866E+00 0.16158001E+04</pdfrwt>
<pdfrwt beam="2">  1       -1 0.13998520E+00 0.16158001E+04</pdfrwt>
<totfact> 0.10545796E+01</totfact>
</mgrwt>
</event>
<event>
12    1  0.1562393E-007  0.3547399E+04  0.7818608E-02  0.8102648E-01
          2   -1    0    0  501    0  0.00000000000E+00  0.00000000000E+00  0.35527726982E+04  0.35527726982E+04  0.00000000000E+00 0.  1.
         -2   -1    0    0    0  501 -0.00000000000E+00 -0.00000000000E+00 -0.88550822949E+03  0.88550822949E+03  0.00000000000E+00 0. -1.
         23    2    1    2    0    0 -0.16326746758E+04 -0.27944711708E+03  0.13400004492E+04  0.21325139545E+04  0.91089373779E+02 0.  0.
        254    2    1    2    0    0  0.16326746758E+04  0.27944711708E+03  0.13272640195E+04  0.23057669732E+04  0.90067434113E+03 0.  0.
        -24    2    4    4    0    0  0.30520898952E+02  0.27736477229E+02  0.45539980506E+03  0.46255183592E+03  0.69745114655E+02 0.  0.
         24    2    4    4    0    0  0.16021537769E+04  0.25171063985E+03  0.87186421445E+03  0.18432151373E+04  0.83903890299E+02 0.  0.
         11    1    3    3    0    0 -0.40153545476E+03 -0.64496561289E+02  0.38014345896E+03  0.55668624668E+03  0.00000000000E+00 0.  1.
        -11    1    3    3    0    0 -0.12311392211E+04 -0.21495055579E+03  0.95985699026E+03  0.15758277079E+04  0.00000000000E+00 0. -1.
          2    1    6    6  502    0  0.76022112874E+03  0.15592305202E+03  0.44106798323E+03  0.89263045464E+03  0.00000000000E+00 0. -1.
          3    1    5    5  503    0  0.73934493378E+01  0.36735835947E+01  0.27919603589E+01  0.87151220407E+01  0.00000000000E+00 0. -1.
         -4    1    5    5    0  503  0.23127449614E+02  0.24062893635E+02  0.45260784470E+03  0.45383671388E+03  0.00000000000E+00 0.  1.
         -1    1    6    6    0  502  0.84193264815E+03  0.95787587825E+02  0.43079623123E+03  0.95058468262E+03  0.00000000000E+00 0.  1.
<mgrwt>
<rscale>  0 0.35473987E+04</rscale>
<asrwt>0</asrwt>
<pdfrwt beam="1">  1        2 0.54658041E+00 0.35473987E+04</pdfrwt>
<pdfrwt beam="2">  1       -2 0.13623204E+00 0.35473987E+04</pdfrwt>
<totfact> 0.23501237E-01</totfact>
</mgrwt>
</event>
<event>
12    1  0.1562393E-007  0.2187964E+04  0.7818608E-02  0.8523455E-01
         -1   -1    0    0    0  501 -0.00000000000E+00  0.00000000000E+00  0.84888527814E+03  0.84888527814E+03  0.00000000000E+00 0.  1.
          1   -1    0    0  501    0  0.00000000000E+00 -0.00000000000E+00 -0.14098448264E+04  0.14098448264E+04  0.00000000000E+00 0. -1.
         23    2    1    2    0    0  0.24207433835E+03  0.29276398793E+03 -0.10876382633E+04  0.11557529146E+04  0.92179552726E+02 0.  0.
        254    2    1    2    0    0 -0.24207433835E+03 -0.29276398793E+03  0.52667871503E+03  0.11029771899E+04  0.89154779723E+03 0.  0.
        -24    2    4    4    0    0  0.32629878655E+03 -0.17948225620E+03  0.17040340600E+03  0.41769666981E+03  0.82148699337E+02 0.  0.
         24    2    4    4    0    0 -0.56837312490E+03 -0.11328173173E+03  0.35627530903E+03  0.68528052012E+03  0.82441103696E+02 0.  0.
         13    1    3    3    0    0  0.57404805505E+02  0.46167980844E+02 -0.12582391906E+03  0.14580278721E+03  0.00000000000E+00 0.  1.
        -13    1    3    3    0    0  0.18466953285E+03  0.24659600708E+03 -0.96181434421E+03  0.10099501274E+04  0.00000000000E+00 0. -1.
          4    1    6    6  502    0 -0.28596192537E+02  0.12402704859E+02  0.19075724880E+02  0.36543844832E+02  0.00000000000E+00 0. -1.
          1    1    5    5  503    0  0.13771120687E+03 -0.81641088972E+02  0.11797429336E+03  0.19886572807E+03  0.00000000000E+00 0. -1.
         -2    1    5    5    0  503  0.18858757968E+03 -0.97841167229E+02  0.52429112643E+02  0.21883094175E+03  0.00000000000E+00 0.  1.
         -3    1    6    6    0  502 -0.53977693237E+03 -0.12568443658E+03  0.33719958415E+03  0.64873667529E+03  0.00000000000E+00 0.  1.
<mgrwt>
<rscale>  0 0.21879639E+04</rscale>
<asrwt>0</asrwt>
<pdfrwt beam="1">  1        1 0.21689920E+00 0.21879639E+04</pdfrwt>
<pdfrwt beam="2">  1       -1 0.13059774E+00 0.21879639E+04</pdfrwt>
<totfact> 0.34596081E+00</totfact>
</mgrwt>
</event>
<event>
12    1  0.1562393E-007  0.1670656E+04  0.7818608E-02  0.8778280E-01
          1   -1    0    0  501    0  0.00000000000E+00  0.00000000000E+00  0.19518739360E+04  0.19518739360E+04  0.00000000000E+00 0. -1.
         -1   -1    0    0    0  501 -0.00000000000E+00 -0.00000000000E+00 -0.35748851490E+03  0.35748851490E+03  0.00000000000E+00 0.  1.
         23    2    1    2    0    0  0.29169895593E+03 -0.96490579556E+02  0.12862840151E+04  0.13257740797E+04  0.93550147705E+02 0.  0.
        254    2    1    2    0    0 -0.29169895593E+03  0.96490579556E+02  0.30810140600E+03  0.98358837118E+03  0.88211161125E+03 0.  0.
        -24    2    4    4    0    0 -0.48114805483E+03 -0.15548208191E+03  0.39505938714E+03  0.64658152290E+03  0.79483444396E+02 0.  0.
         24    2    4    4    0    0  0.18944909889E+03  0.25197266146E+03 -0.86957981140E+02  0.33700684827E+03  0.81429368801E+02 0.  0.
         13    1    3    3    0    0  0.27427097294E+03 -0.11096902403E+03  0.12303621894E+04  0.12654366077E+04  0.00000000000E+00 0. -1.
        -13    1    3    3    0    0  0.17427982992E+02  0.14478444477E+02  0.55921825622E+02  0.60337471993E+02  0.00000000000E+00 0.  1.
          4    1    6    6  502    0  0.13740382285E+02  0.34964250972E+02 -0.38163177080E+02  0.53551144116E+02  0.00000000000E+00 0. -1.
          1    1    5    5  503    0 -0.14700591469E+03 -0.65026492317E+02  0.16842823745E+03  0.23282451509E+03  0.00000000000E+00 0. -1.
         -2    1    5    5    0  503 -0.33414214013E+03 -0.90455589589E+02  0.22663114969E+03  0.41375700781E+03  0.00000000000E+00 0.  1.
         -3    1    6    6    0  502  0.17570871661E+03  0.21700841049E+03 -0.48794804060E+02  0.28345570416E+03  0.00000000000E+00 0.  1.
<mgrwt>
<rscale>  0 0.16706556E+04</rscale>
<asrwt>0</asrwt>
<pdfrwt beam="1">  1        1 0.30028829E+00 0.16706556E+04</pdfrwt>
<pdfrwt beam="2">  1       -1 0.54998234E-01 0.16706556E+04</pdfrwt>
<totfact> 0.10242914E+01</totfact>
</mgrwt>
</event>
<event>
12    1  0.1562393E-007  0.2596796E+04  0.7818608E-02  0.8369290E-01
         -1   -1    0    0    0  501 -0.00000000000E+00  0.00000000000E+00  0.67066411258E+03  0.67066411258E+03  0.00000000000E+00 0.  1.
          1   -1    0    0  501    0  0.00000000000E+00 -0.00000000000E+00 -0.25136841810E+04  0.25136841810E+04  0.00000000000E+00 0. -1.
         23    2    1    2    0    0 -0.47377726785E+03  0.34087108108E+03 -0.20207354915E+04  0.21065403658E+04  0.11611370659E+03 0.  0.
        254    2    1    2    0    0  0.47377726785E+03 -0.34087108108E+03  0.17771542312E+03  0.10778079277E+04  0.88849826334E+03 0.  0.
        -24    2    4    4    0    0  0.38441792064E+03 -0.53570176335E+03 -0.14793467976E+03  0.67998127765E+03  0.75738705520E+02 0.  0.
         24    2    4    4    0    0  0.89359347216E+02  0.19483068227E+03  0.32565010288E+03  0.39782665006E+03  0.79208372686E+02 0.  0.
         11    1    3    3    0    0 -0.57428472545E+02  0.90314899700E+02 -0.30051409794E+03  0.31900397118E+03  0.00000000000E+00 0.  1.
        -11    1    3    3    0    0 -0.41634879531E+03  0.25055618138E+03 -0.17202213936E+04  0.17875363947E+04  0.00000000000E+00 0. -1.
          4    1    6    6  502    0  0.18800717274E+02 -0.24264259566E+01  0.29593824730E+02  0.35144686299E+02  0.00000000000E+00 0. -1.
          1    1    5    5  503    0  0.24557236107E+00 -0.19157933693E+02 -0.10053656078E+02  0.21637068418E+02  0.00000000000E+00 0. -1.
         -2    1    5    5    0  503  0.38417234827E+03 -0.51654382966E+03 -0.13788102369E+03  0.65834420923E+03  0.00000000000E+00 0.  1.
         -3    1    6    6    0  502  0.70558629941E+02  0.19725710822E+03  0.29605627815E+03  0.36268196376E+03  0.00000000000E+00 0.  1.
<mgrwt>
<rscale>  0 0.25967963E+04</rscale>
<asrwt>0</asrwt>
<pdfrwt beam="1">  1        1 0.38672065E+00 0.25967963E+04</pdfrwt>
<pdfrwt beam="2">  1       -1 0.10317909E+00 0.25967963E+04</pdfrwt>
<totfact> 0.10349881E+00</totfact>
</mgrwt>
</event>
<event>
12    1  0.1562393E-007  0.1322609E+04  0.7818608E-02  0.9011826E-01
          2   -1    0    0  501    0  0.00000000000E+00  0.00000000000E+00  0.13238657944E+04  0.13238657944E+04  0.00000000000E+00 0. -1.
         -2   -1    0    0    0  501 -0.00000000000E+00 -0.00000000000E+00 -0.33033816684E+03  0.33033816684E+03  0.00000000000E+00 0.  1.
         23    2    1    2    0    0  0.14608743898E+03  0.31808038679E+03  0.28194579195E+03  0.45903451208E+03  0.93287627226E+02 0.  0.
        254    2    1    2    0    0 -0.14608743898E+03 -0.31808038679E+03  0.71158183566E+03  0.11951694492E+04  0.89418377931E+03 0.  0.
        -24    2    4    4    0    0 -0.27506180421E+02 -0.29178951369E+03 -0.13787343286E+03  0.33328598038E+03  0.78566856701E+02 0.  0.
         24    2    4    4    0    0 -0.11858125856E+03 -0.26290873100E+02  0.84945526852E+03  0.86188346882E+03  0.80722584978E+02 0.  0.
         13    1    3    3    0    0  0.98085397256E+02  0.15751981921E+03  0.96742144266E+02  0.20926605333E+03  0.00000000000E+00 0.  1.
        -13    1    3    3    0    0  0.48002041727E+02  0.16056056758E+03  0.18520364768E+03  0.24976845875E+03  0.00000000000E+00 0. -1.
          2    1    6    6  502    0 -0.86990093685E+02  0.18489950152E+02  0.45180871654E+03  0.46047830676E+03  0.00000000000E+00 0. -1.
          3    1    5    5  503    0  0.78677062654E+01 -0.22848111213E+03 -0.12167004048E+03  0.25897706106E+03  0.00000000000E+00 0. -1.
         -4    1    5    5    0  503 -0.35373886686E+02 -0.63308401556E+02 -0.16203392377E+02  0.74308919326E+02  0.00000000000E+00 0.  1.
         -1    1    6    6    0  502 -0.31591164877E+02 -0.44780823252E+02  0.39764655198E+03  0.40140516207E+03  0.00000000000E+00 0.  1.
<mgrwt>
<rscale>  0 0.13226086E+04</rscale>
<asrwt>0</asrwt>
<pdfrwt beam="1">  1        2 0.20367166E+00 0.13226086E+04</pdfrwt>
<pdfrwt beam="2">  1       -2 0.50821257E-01 0.13226086E+04</pdfrwt>
<totfact> 0.57336306E+01</totfact>
</mgrwt>
</event>
<event>
12    1  0.1562393E-007  0.1996068E+04  0.7818608E-02  0.8608461E-01
          2   -1    0    0  501    0  0.00000000000E+00  0.00000000000E+00  0.12120591800E+04  0.12120591800E+04  0.00000000000E+00 0. -1.
         -2   -1    0    0    0  501 -0.00000000000E+00 -0.00000000000E+00 -0.82180155013E+03  0.82180155013E+03  0.00000000000E+00 0.  1.
         23    2    1    2    0    0 -0.21166834043E+03 -0.16644306780E+02 -0.62294167214E+03  0.66439313033E+03  0.91002117875E+02 0.  0.
        254    2    1    2    0    0  0.21166834043E+03  0.16644306780E+02  0.10131993020E+04  0.13694675998E+04  0.89654233698E+03 0.  0.
        -24    2    4    4    0    0 -0.31852488791E+03 -0.11496612172E+03  0.53839123399E+03  0.64124549077E+03  0.81580299306E+02 0.  0.
         24    2    4    4    0    0  0.53019322834E+03  0.13161042850E+03  0.47480806803E+03  0.72822210903E+03  0.80240727447E+02 0.  0.
         11    1    3    3    0    0 -0.16391741373E+03 -0.45471040989E+02 -0.52263213997E+03  0.54961885686E+03  0.00000000000E+00 0.  1.
        -11    1    3    3    0    0 -0.47750926705E+02  0.28826734210E+02 -0.10030953217E+03  0.11477427347E+03  0.00000000000E+00 0. -1.
          2    1    6    6  502    0  0.19337041334E+03  0.72284245438E+02  0.22029168160E+03  0.30190321939E+03  0.00000000000E+00 0. -1.
          1    1    5    5  503    0 -0.17590735173E+02 -0.24787276654E+01  0.76987748627E+02  0.79010704929E+02  0.00000000000E+00 0. -1.
         -2    1    5    5    0  503 -0.30093415274E+03 -0.11248739405E+03  0.46140348536E+03  0.56223478584E+03  0.00000000000E+00 0.  1.
         -1    1    6    6    0  502  0.33682281501E+03  0.59326183060E+02  0.25451638642E+03  0.42631888964E+03  0.00000000000E+00 0.  1.
<mgrwt>
<rscale>  0 0.19960682E+04</rscale>
<asrwt>0</asrwt>
<pdfrwt beam="1">  1        2 0.18647064E+00 0.19960682E+04</pdfrwt>
<pdfrwt beam="2">  1       -2 0.12643101E+00 0.19960682E+04</pdfrwt>
<totfact> 0.80682203E+00</totfact>
</mgrwt>
</event>
<event>
12    1  0.1562393E-007  0.1906369E+04  0.7818608E-02  0.8651693E-01
         -2   -1    0    0    0  501 -0.00000000000E+00  0.00000000000E+00  0.82962292214E+03  0.82962292214E+03  0.00000000000E+00 0.  1.
          2   -1    0    0  501    0  0.00000000000E+00 -0.00000000000E+00 -0.10951484657E+04  0.10951484657E+04  0.00000000000E+00 0. -1.
         23    2    1    2    0    0  0.23656392643E+03  0.40517844783E+00 -0.80846862546E+03  0.84746336754E+03  0.92790007587E+02 0.  0.
        254    2    1    2    0    0 -0.23656392643E+03 -0.40517844783E+00  0.54294308190E+03  0.10773080203E+04  0.89991262074E+03 0.  0.
        -24    2    4    4    0    0 -0.44655988732E+03 -0.52613843083E+02 -0.32098948247E+02  0.45769306511E+03  0.79174806088E+02 0.  0.
         24    2    4    4    0    0  0.20999596090E+03  0.52208664635E+02  0.57504203015E+03  0.61961495520E+03  0.80158019011E+02 0.  0.
         13    1    3    3    0    0  0.16655505131E+03 -0.26229148671E+02 -0.65964862380E+03  0.68085597613E+03  0.00000000000E+00 0. -1.
        -13    1    3    3    0    0  0.70008875111E+02  0.26634327119E+02 -0.14882000166E+03  0.16660739140E+03  0.00000000000E+00 0.  1.
          4    1    6    6  502    0  0.20002012236E+03  0.25151883595E+02  0.49156280052E+03  0.53129526014E+03  0.00000000000E+00 0. -1.
          1    1    5    5  503    0 -0.25572513605E+03  0.76246268775E+01 -0.62595592843E+01  0.25591534191E+03  0.00000000000E+00 0. -1.
         -2    1    5    5    0  503 -0.19083475128E+03 -0.60238469960E+02 -0.25839388963E+02  0.20177772320E+03  0.00000000000E+00 0.  1.
         -3    1    6    6    0  502  0.99758385334E+01  0.27056781040E+02  0.83479229631E+02  0.88319695054E+02  0.00000000000E+00 0.  1.
<mgrwt>
<rscale>  0 0.19063686E+04</rscale>
<asrwt>0</asrwt>
<pdfrwt beam="1">  1        2 0.16848438E+00 0.19063686E+04</pdfrwt>
<pdfrwt beam="2">  1       -2 0.12763430E+00 0.19063686E+04</pdfrwt>
<totfact> 0.93433251E+00</totfact>
</mgrwt>
</event>
<event>
12    1  0.1562393E-007  0.1547952E+04  0.7818608E-02  0.8853177E-01
          2   -1    0    0  501    0  0.00000000000E+00  0.00000000000E+00  0.30825092934E+04  0.30825092934E+04  0.00000000000E+00 0. -1.
         -2   -1    0    0    0  501 -0.00000000000E+00 -0.00000000000E+00 -0.19433479173E+03  0.19433479173E+03  0.00000000000E+00 0.  1.
         23    2    1    2    0    0 -0.17227694757E+02  0.50093408772E+03  0.12337274737E+04  0.13348318461E+04  0.91982739802E+02 0.  0.
        254    2    1    2    0    0  0.17227694757E+02 -0.50093408772E+03  0.16544470280E+04  0.19420122390E+04  0.88486429144E+03 0.  0.
        -24    2    4    4    0    0  0.26802346278E+03 -0.24372093769E+02  0.12014229509E+04  0.12340198156E+04  0.83409967146E+02 0.  0.
         24    2    4    4    0    0 -0.25079576802E+03 -0.47656199395E+03  0.45302407702E+03  0.70799242339E+03  0.77540994870E+02 0.  0.
         13    1    3    3    0    0  0.12270206385E+02  0.65284260133E+02  0.24761848151E+03  0.25637376030E+03  0.00000000000E+00 0.  1.
        -13    1    3    3    0    0 -0.29497901143E+02  0.43564982759E+03  0.98610899215E+03  0.10784580858E+04  0.00000000000E+00 0. -1.
          4    1    6    6  502    0 -0.99734133680E+02 -0.12334232302E+03  0.15503492684E+03  0.22180183635E+03  0.00000000000E+00 0. -1.
          3    1    5    5  503    0  0.46431745530E+02  0.15675145018E+02  0.12432502646E+03  0.13363506040E+03  0.00000000000E+00 0. -1.
         -4    1    5    5    0  503  0.22159171725E+03 -0.40047238787E+02  0.10770979245E+04  0.11003847552E+04  0.00000000000E+00 0.  1.
         -3    1    6    6    0  502 -0.15106163435E+03 -0.35321967093E+03  0.29798915018E+03  0.48619058704E+03  0.00000000000E+00 0.  1.
<mgrwt>
<rscale>  0 0.15479519E+04</rscale>
<asrwt>0</asrwt>
<pdfrwt beam="1">  1        2 0.47423216E+00 0.15479519E+04</pdfrwt>
<pdfrwt beam="2">  1       -2 0.29897663E-01 0.15479519E+04</pdfrwt>
<totfact> 0.15456721E+01</totfact>
</mgrwt>
</event>
<event>
12    1  0.1562393E-007  0.3862433E+04  0.7818608E-02  0.8032888E-01
         -1   -1    0    0    0  501 -0.00000000000E+00  0.00000000000E+00  0.13185956787E+04  0.13185956787E+04  0.00000000000E+00 0.  1.
          1   -1    0    0  501    0  0.00000000000E+00 -0.00000000000E+00 -0.28284616055E+04  0.28284616055E+04  0.00000000000E+00 0. -1.
         23    2    1    2    0    0 -0.16701893602E+04 -0.38677785356E+03 -0.41775640056E+02  0.17173961292E+04  0.92599424628E+02 0.  0.
        254    2    1    2    0    0  0.16701893602E+04  0.38677785356E+03 -0.14680902867E+04  0.24296611550E+04  0.89935233992E+03 0.  0.
        -24    2    4    4    0    0  0.49912205106E+03 -0.16628387860E+03 -0.96147792719E+02  0.54133050697E+03  0.83792419687E+02 0.  0.
         24    2    4    4    0    0  0.11710673092E+04  0.55306173216E+03 -0.13719424940E+04  0.18883306481E+04  0.79312719017E+02 0.  0.
         11    1    3    3    0    0 -0.24898850966E+03 -0.64313815402E+02 -0.38782343386E+02  0.26006848128E+03  0.00000000000E+00 0. -1.
        -11    1    3    3    0    0 -0.14212008506E+04 -0.32246403816E+03 -0.29932966696E+01  0.14573276479E+04  0.00000000000E+00 0.  1.
          4    1    6    6  502    0  0.31826997388E+03  0.14885095027E+03 -0.42468719138E+03  0.55119106686E+03  0.00000000000E+00 0. -1.
          3    1    5    5  503    0  0.41364373345E+03 -0.16938757708E+03 -0.75144327739E+02  0.45325485048E+03  0.00000000000E+00 0. -1.
         -4    1    5    5    0  503  0.85478317615E+02  0.31036984760E+01 -0.21003464979E+02  0.88075656499E+02  0.00000000000E+00 0.  1.
         -3    1    6    6    0  502  0.85279733529E+03  0.40421078189E+03 -0.94725530262E+03  0.13371395812E+04  0.00000000000E+00 0.  1.
<mgrwt>
<rscale>  0 0.38624330E+04</rscale>
<asrwt>0</asrwt>
<pdfrwt beam="1">  1        1 0.43514794E+00 0.38624330E+04</pdfrwt>
<pdfrwt beam="2">  1       -1 0.20286088E+00 0.38624330E+04</pdfrwt>
<totfact> 0.90507268E-02</totfact>
</mgrwt>
</event>
<event>
12    1  0.1562393E-007  0.1333269E+04  0.7818608E-02  0.9003591E-01
          1   -1    0    0  501    0  0.00000000000E+00  0.00000000000E+00  0.13445391220E+04  0.13445391220E+04  0.00000000000E+00 0. -1.
         -1   -1    0    0    0  501 -0.00000000000E+00 -0.00000000000E+00 -0.33052313947E+03  0.33052313947E+03  0.00000000000E+00 0.  1.
         23    2    1    2    0    0  0.87700798035E+02  0.20744412373E+01  0.76190226496E+03  0.77218496009E+03  0.89882244948E+02 0.  0.
        254    2    1    2    0    0 -0.87700798035E+02 -0.20744412373E+01  0.25211371758E+03  0.90287730138E+03  0.86251397756E+03 0.  0.
        -24    2    4    4    0    0  0.14588555720E+03 -0.27027903943E+03  0.39870643342E+03  0.51000987415E+03  0.82522098421E+02 0.  0.
         24    2    4    4    0    0 -0.23358635524E+03  0.26820459820E+03 -0.14659271584E+03  0.39286742723E+03  0.79743960247E+02 0.  0.
         13    1    3    3    0    0  0.39497569142E+02 -0.18567847881E+02  0.60859417506E+03  0.61015710507E+03  0.00000000000E+00 0. -1.
        -13    1    3    3    0    0  0.48203228894E+02  0.20642289118E+02  0.15330808990E+03  0.16202785503E+03  0.00000000000E+00 0.  1.
          2    1    6    6  502    0 -0.21847370639E+03  0.26631409606E+03 -0.12499411763E+03  0.36643892750E+03  0.00000000000E+00 0. -1.
          1    1    5    5  503    0  0.29784015024E+02 -0.79876565492E+02  0.59113154379E+02  0.10373870197E+03  0.00000000000E+00 0. -1.
         -2    1    5    5    0  503  0.11610154218E+03 -0.19040247394E+03  0.33959327904E+03  0.40627117218E+03  0.00000000000E+00 0.  1.
         -1    1    6    6    0  502 -0.15112648853E+02  0.18905021353E+01 -0.21598598210E+02  0.26428499736E+02  0.00000000000E+00 0.  1.
<mgrwt>
<rscale>  0 0.13332686E+04</rscale>
<asrwt>0</asrwt>
<pdfrwt beam="1">  1        1 0.20685217E+00 0.13332686E+04</pdfrwt>
<pdfrwt beam="2">  1       -1 0.50849715E-01 0.13332686E+04</pdfrwt>
<totfact> 0.32023631E+01</totfact>
</mgrwt>
</event>
<event>
12    1  0.1562393E-007  0.1368747E+04  0.7818608E-02  0.8976757E-01
          2   -1    0    0  501    0  0.00000000000E+00  0.00000000000E+00  0.22647297016E+04  0.22647297016E+04  0.00000000000E+00 0. -1.
         -2   -1    0    0    0  501 -0.00000000000E+00 -0.00000000000E+00 -0.20680937146E+03  0.20680937146E+03  0.00000000000E+00 0.  1.
         23    2    1    2    0    0  0.18540982423E+02  0.10973757030E+03 -0.75335814102E+02  0.16102773683E+03  0.88703690891E+02 0.  0.
        254    2    1    2    0    0 -0.18540982423E+02 -0.10973757030E+03  0.21332561442E+04  0.23105113362E+04  0.88050823702E+03 0.  0.
        -24    2    4    4    0    0 -0.77619764114E+02 -0.27426608276E+03  0.17724350458E+03  0.34478604392E+03  0.78838088724E+02 0.  0.
         24    2    4    4    0    0  0.59078781691E+02  0.16452851246E+03  0.19560126396E+04  0.19657252923E+04  0.86778709340E+02 0.  0.
         13    1    3    3    0    0  0.25418327747E+02  0.72284477624E+02 -0.93968755674E-02  0.76623346176E+02  0.00000000000E+00 0. -1.
        -13    1    3    3    0    0 -0.68773453235E+01  0.37453092678E+02 -0.75326417227E+02  0.84404390656E+02  0.00000000000E+00 0.  1.
          4    1    6    6  502    0  0.11240944354E+02  0.11113661026E+03  0.14955314439E+04  0.14996973043E+04  0.00000000000E+00 0. -1.
          1    1    5    5  503    0 -0.77814736747E+02 -0.17911023178E+03  0.87514482325E+02  0.21399624530E+03  0.00000000000E+00 0. -1.
         -2    1    5    5    0  503  0.19497263314E+00 -0.95155850979E+02  0.89729022257E+02  0.13078979863E+03  0.00000000000E+00 0.  1.
         -3    1    6    6    0  502  0.47837837336E+02  0.53391902196E+02  0.46048119573E+03  0.46602798791E+03  0.00000000000E+00 0.  1.
<mgrwt>
<rscale>  0 0.13687473E+04</rscale>
<asrwt>0</asrwt>
<pdfrwt beam="1">  1        2 0.34841994E+00 0.13687473E+04</pdfrwt>
<pdfrwt beam="2">  1       -2 0.31816828E-01 0.13687473E+04</pdfrwt>
<totfact> 0.42614825E+01</totfact>
</mgrwt>
</event>
<event>
12    1  0.1562393E-007  0.2091636E+04  0.7818608E-02  0.8564937E-01
         -2   -1    0    0    0  501 -0.00000000000E+00  0.00000000000E+00  0.11880327733E+04  0.11880327733E+04  0.00000000000E+00 0.  1.
          2   -1    0    0  501    0  0.00000000000E+00 -0.00000000000E+00 -0.92062688536E+03  0.92062688536E+03  0.00000000000E+00 0. -1.
         23    2    1    2    0    0 -0.31678863201E+03 -0.24923082727E+03 -0.64979696716E+03  0.77005496073E+03  0.90980774843E+02 0.  0.
        254    2    1    2    0    0  0.31678863201E+03  0.24923082727E+03  0.91720285505E+03  0.13386046979E+04  0.88776709630E+03 0.  0.
        -24    2    4    4    0    0 -0.15285903794E+03  0.25302447268E+03  0.11691920464E+01  0.30615524446E+03  0.79639170325E+02 0.  0.
         24    2    4    4    0    0  0.46964766995E+03 -0.37936454122E+01  0.91603366300E+03  0.10324494534E+04  0.79062484683E+02 0.  0.
         13    1    3    3    0    0 -0.31680655616E+03 -0.25545364165E+03 -0.63890787764E+03  0.75751319010E+03  0.00000000000E+00 0. -1.
        -13    1    3    3    0    0  0.17924152040E-01  0.62228143856E+01 -0.10889089516E+02  0.12541770634E+02  0.00000000000E+00 0.  1.
          2    1    6    6  502    0  0.40682541165E+03 -0.21022298725E+02  0.73949740714E+03  0.84427795647E+03  0.00000000000E+00 0. -1.
          3    1    5    5  503    0 -0.88132287534E+02  0.20054447383E+03  0.22303091909E+02  0.22018813320E+03  0.00000000000E+00 0. -1.
         -2    1    5    5    0  503 -0.64726750405E+02  0.52479998843E+02 -0.21133899863E+02  0.85967111270E+02  0.00000000000E+00 0.  1.
         -1    1    6    6    0  502  0.62822258300E+02  0.17228653313E+02  0.17653625586E+03  0.18817149696E+03  0.00000000000E+00 0.  1.
<mgrwt>
<rscale>  0 0.20916356E+04</rscale>
<asrwt>0</asrwt>
<pdfrwt beam="1">  1        2 0.14163491E+00 0.20916356E+04</pdfrwt>
<pdfrwt beam="2">  1       -2 0.18277427E+00 0.20916356E+04</pdfrwt>
<totfact> 0.45427933E+00</totfact>
</mgrwt>
</event>
<event>
12    1  0.1562393E-007  0.1679437E+04  0.7818608E-02  0.8773180E-01
         -1   -1    0    0    0  501 -0.00000000000E+00  0.00000000000E+00  0.29395188785E+03  0.29395188785E+03  0.00000000000E+00 0.  1.
          1   -1    0    0  501    0  0.00000000000E+00 -0.00000000000E+00 -0.23987845636E+04  0.23987845636E+04  0.00000000000E+00 0. -1.
         23    2    1    2    0    0 -0.71376973966E+02 -0.53954088600E+03 -0.35880785574E+03  0.65818600962E+03  0.90921426740E+02 0.  0.
        254    2    1    2    0    0  0.71376973966E+02  0.53954088600E+03 -0.17460248200E+04  0.20345504418E+04  0.89139990365E+03 0.  0.
        -24    2    4    4    0    0  0.45155584418E+03  0.40171651507E+03 -0.12371768278E+04  0.13793244303E+04  0.81550853887E+02 0.  0.
         24    2    4    4    0    0 -0.38017887022E+03  0.13782437093E+03 -0.50884799218E+03  0.65522601155E+03  0.82845135588E+02 0.  0.
         11    1    3    3    0    0 -0.33431157820E+02 -0.46176851389E+03 -0.27948467189E+03  0.54079523348E+03  0.00000000000E+00 0.  1.
        -11    1    3    3    0    0 -0.37945816146E+02 -0.77772372107E+02 -0.79323183847E+02  0.11739077614E+03  0.00000000000E+00 0. -1.
          2    1    6    6  502    0 -0.37886968357E+03  0.12891823650E+03 -0.50719788545E+03  0.64607417827E+03  0.00000000000E+00 0. -1.
          3    1    5    5  503    0  0.41647188944E+03  0.36363307884E+03 -0.10713152413E+04  0.12055679977E+04  0.00000000000E+00 0. -1.
         -4    1    5    5    0  503  0.35083954738E+02  0.38083436226E+02 -0.16586158652E+03  0.17375643262E+03  0.00000000000E+00 0.  1.
         -1    1    6    6    0  502 -0.13091866492E+01  0.89061344273E+01 -0.16501067276E+01  0.91518332771E+01  0.00000000000E+00 0.  1.
<mgrwt>
<rscale>  0 0.16794371E+04</rscale>
<asrwt>0</asrwt>
<pdfrwt beam="1">  1        1 0.36904379E+00 0.16794371E+04</pdfrwt>
<pdfrwt beam="2">  1       -1 0.45223366E-01 0.16794371E+04</pdfrwt>
<totfact> 0.73719266E+00</totfact>
</mgrwt>
</event>
<event>
12    1  0.1562393E-007  0.2505594E+04  0.7818608E-02  0.8400995E-01
         -2   -1    0    0    0  501 -0.00000000000E+00  0.00000000000E+00  0.99516252112E+03  0.99516252112E+03  0.00000000000E+00 0.  1.
          2   -1    0    0  501    0  0.00000000000E+00 -0.00000000000E+00 -0.15771294003E+04  0.15771294003E+04  0.00000000000E+00 0. -1.
         23    2    1    2    0    0  0.19803187528E+03  0.20570873265E+03 -0.13373568416E+04  0.13702502966E+04  0.86774691738E+02 0.  0.
        254    2    1    2    0    0 -0.19803187528E+03 -0.20570873265E+03  0.75538996243E+03  0.12020416249E+04  0.89036923028E+03 0.  0.
        -24    2    4    4    0    0 -0.19187787946E+03 -0.49093027119E+02 -0.16213621576E+03  0.26792565112E+03  0.79175476826E+02 0.  0.
         24    2    4    4    0    0 -0.61539958276E+01 -0.15661570553E+03  0.91752617819E+03  0.93411597374E+03  0.78434774502E+02 0.  0.
         11    1    3    3    0    0  0.17684481273E+03  0.18389727316E+03 -0.12815279071E+04  0.13066774934E+04  0.00000000000E+00 0. -1.
        -11    1    3    3    0    0  0.21187062555E+02  0.21811459486E+02 -0.55828934515E+02  0.63572803255E+02  0.00000000000E+00 0.  1.
          2    1    6    6  502    0  0.20264133584E+02 -0.73165789001E+02  0.59862638983E+03  0.60342143017E+03  0.00000000000E+00 0. -1.
          1    1    5    5  503    0 -0.52990435152E+02 -0.35963310420E+02 -0.16248416853E+02  0.66070848066E+02  0.00000000000E+00 0. -1.
         -2    1    5    5    0  503 -0.13888744430E+03 -0.13129716699E+02 -0.14588779890E+03  0.20185480305E+03  0.00000000000E+00 0.  1.
         -1    1    6    6    0  502 -0.26418129412E+02 -0.83449916531E+02  0.31889978836E+03  0.33069454357E+03  0.00000000000E+00 0.  1.
<mgrwt>
<rscale>  0 0.25055938E+04</rscale>
<asrwt>0</asrwt>
<pdfrwt beam="1">  1        2 0.24263529E+00 0.25055938E+04</pdfrwt>
<pdfrwt beam="2">  1       -2 0.15310193E+00 0.25055938E+04</pdfrwt>
<totfact> 0.29056887E+00</totfact>
</mgrwt>
</event>
<event>
12    1  0.1562393E-007  0.1875623E+04  0.7818608E-02  0.8667087E-01
         -1   -1    0    0    0  501 -0.00000000000E+00  0.00000000000E+00  0.76520110381E+03  0.76520110381E+03  0.00000000000E+00 0.  1.
          1   -1    0    0  501    0  0.00000000000E+00 -0.00000000000E+00 -0.11493581247E+04  0.11493581247E+04  0.00000000000E+00 0. -1.
         23    2    1    2    0    0  0.31772233313E+03 -0.50641344420E+03  0.25948224416E+03  0.65761583205E+03  0.87894767118E+02 0.  0.
        254    2    1    2    0    0 -0.31772233313E+03  0.50641344420E+03 -0.64363926507E+03  0.12569433965E+04  0.89901787577E+03 0.  0.
        -24    2    4    4    0    0 -0.54076791631E+03  0.60812173426E+03 -0.44013213439E+03  0.92840147231E+03  0.77272343520E+02 0.  0.
         24    2    4    4    0    0  0.22304558317E+03 -0.10170829006E+03 -0.20350713068E+03  0.32854192416E+03  0.80191865253E+02 0.  0.
         11    1    3    3    0    0  0.15277011702E+03 -0.26669164785E+03  0.87328894492E+02  0.31951444334E+03  0.00000000000E+00 0. -1.
        -11    1    3    3    0    0  0.16495221611E+03 -0.23972179635E+03  0.17215334967E+03  0.33810138871E+03  0.00000000000E+00 0.  1.
          2    1    6    6  502    0  0.13645077630E+03 -0.47865159301E+02 -0.16536787369E+03  0.21967344281E+03  0.00000000000E+00 0. -1.
          3    1    5    5  503    0 -0.51304763683E+03  0.57231699211E+03 -0.39382047878E+03  0.86363139511E+03  0.00000000000E+00 0. -1.
         -4    1    5    5    0  503 -0.27720279484E+02  0.35804742154E+02 -0.46311655615E+02  0.64770077205E+02  0.00000000000E+00 0.  1.
         -1    1    6    6    0  502  0.86594806876E+02 -0.53843130762E+02 -0.38139256993E+02  0.10886848135E+03  0.00000000000E+00 0.  1.
<mgrwt>
<rscale>  0 0.18756227E+04</rscale>
<asrwt>0</asrwt>
<pdfrwt beam="1">  1        1 0.17682433E+00 0.18756227E+04</pdfrwt>
<pdfrwt beam="2">  1       -1 0.11772325E+00 0.18756227E+04</pdfrwt>
<totfact> 0.70835439E+00</totfact>
</mgrwt>
</event>
<event>
12    1  0.1562393E-007  0.1278653E+04  0.7818608E-02  0.9046667E-01
          1   -1    0    0  501    0  0.00000000000E+00  0.00000000000E+00  0.20631787509E+04  0.20631787509E+04  0.00000000000E+00 0. -1.
         -1   -1    0    0    0  501 -0.00000000000E+00 -0.00000000000E+00 -0.19811086411E+03  0.19811086411E+03  0.00000000000E+00 0.  1.
         23    2    1    2    0    0 -0.15033837858E+03 -0.22594108228E+03  0.56185619791E+03  0.63065182099E+03  0.91587834609E+02 0.  0.
        254    2    1    2    0    0  0.15033837858E+03  0.22594108228E+03  0.13032116889E+04  0.16306377940E+04  0.94178973690E+03 0.  0.
        -24    2    4    4    0    0 -0.14505046508E+02  0.50370783641E+03  0.11653092105E+04  0.12721239003E+04  0.80135390315E+02 0.  0.
         24    2    4    4    0    0  0.16484342509E+03 -0.27776675414E+03  0.13790247840E+03  0.35851389375E+03  0.72023565308E+02 0.  0.
         11    1    3    3    0    0 -0.11587327163E+03 -0.21216900750E+03  0.42597330075E+03  0.48979133901E+03  0.00000000000E+00 0.  1.
        -11    1    3    3    0    0 -0.34465106955E+02 -0.13772074779E+02  0.13588289717E+03  0.14086048198E+03  0.00000000000E+00 0. -1.
          4    1    6    6  502    0  0.12771615406E+03 -0.23868500860E+03  0.86921424091E+02  0.28431898161E+03  0.00000000000E+00 0. -1.
          1    1    5    5  503    0 -0.26961034462E+02  0.44800457959E+03  0.97302839376E+03  0.10715499315E+04  0.00000000000E+00 0. -1.
         -2    1    5    5    0  503  0.12455987954E+02  0.55703256824E+02  0.19228081672E+03  0.20057396874E+03  0.00000000000E+00 0.  1.
         -3    1    6    6    0  502  0.37127271034E+02 -0.39081745543E+02  0.50981054306E+02  0.74194912139E+02  0.00000000000E+00 0.  1.
<mgrwt>
<rscale>  0 0.12786526E+04</rscale>
<asrwt>0</asrwt>
<pdfrwt beam="1">  1        1 0.31741210E+00 0.12786526E+04</pdfrwt>
<pdfrwt beam="2">  1       -1 0.30478596E-01 0.12786526E+04</pdfrwt>
<totfact> 0.26409211E+01</totfact>
</mgrwt>
</event>
<event>
12    1  0.1562393E-007  0.1731770E+04  0.7818608E-02  0.8743449E-01
         -2   -1    0    0    0  501 -0.00000000000E+00  0.00000000000E+00  0.22621232275E+03  0.22621232275E+03  0.00000000000E+00 0.  1.
          2   -1    0    0  501    0  0.00000000000E+00 -0.00000000000E+00 -0.33143935480E+04  0.33143935480E+04  0.00000000000E+00 0. -1.
         23    2    1    2    0    0  0.38569946945E+03 -0.99048248520E+01 -0.21218409810E+04  0.21585912475E+04  0.91895806177E+02 0.  0.
        254    2    1    2    0    0 -0.38569946945E+03  0.99048248520E+01 -0.96634024432E+03  0.13820146232E+04  0.90955415713E+03 0.  0.
        -24    2    4    4    0    0 -0.47253808384E+03  0.36229056924E+03 -0.71990201591E+03  0.93737416651E+03  0.76581448742E+02 0.  0.
         24    2    4    4    0    0  0.86838614387E+02 -0.35238574438E+03 -0.24643822841E+03  0.44464045672E+03  0.72502948485E+02 0.  0.
         13    1    3    3    0    0  0.44872893267E+02 -0.26162168417E+02 -0.39126194960E+03  0.39469475397E+03  0.00000000000E+00 0.  1.
        -13    1    3    3    0    0  0.34082657618E+03  0.16257343565E+02 -0.17305790314E+04  0.17638964936E+04  0.00000000000E+00 0. -1.
          2    1    6    6  502    0  0.90962921360E+01 -0.63849770924E+02 -0.79415236249E+02  0.10230501222E+03  0.00000000000E+00 0. -1.
          1    1    5    5  503    0 -0.28786464751E+01  0.14534192712E+02 -0.99932173087E+01  0.17871590738E+02  0.00000000000E+00 0. -1.
         -2    1    5    5    0  503 -0.46965943736E+03  0.34775637652E+03 -0.70990879860E+03  0.91950257577E+03  0.00000000000E+00 0.  1.
         -1    1    6    6    0  502  0.77742322251E+02 -0.28853597346E+03 -0.16702299216E+03  0.34233544450E+03  0.00000000000E+00 0.  1.
<mgrwt>
<rscale>  0 0.17317698E+04</rscale>
<asrwt>0</asrwt>
<pdfrwt beam="1">  1        2 0.50990665E+00 0.17317698E+04</pdfrwt>
<pdfrwt beam="2">  1       -2 0.34801899E-01 0.17317698E+04</pdfrwt>
<totfact> 0.80675101E+00</totfact>
</mgrwt>
</event>
<event>
12    1  0.1562393E-007  0.2378486E+04  0.7818608E-02  0.8447602E-01
          2   -1    0    0  501    0  0.00000000000E+00  0.00000000000E+00  0.13557424239E+04  0.13557424239E+04  0.00000000000E+00 0. -1.
         -2   -1    0    0    0  501 -0.00000000000E+00 -0.00000000000E+00 -0.10431916175E+04  0.10431916175E+04  0.00000000000E+00 0.  1.
         23    2    1    2    0    0 -0.62321707673E+03  0.48094589765E+03 -0.51977230219E+03  0.94773291263E+03  0.91246623838E+02 0.  0.
        254    2    1    2    0    0  0.62321707673E+03 -0.48094589765E+03  0.83232310865E+03  0.14512011288E+04  0.89079429595E+03 0.  0.
        -24    2    4    4    0    0  0.16166944490E+02  0.15762014837E+03  0.45743863658E+03  0.49039384020E+03  0.78297707537E+02 0.  0.
         24    2    4    4    0    0  0.60705013224E+03 -0.63856604602E+03  0.37488447207E+03  0.96080728855E+03  0.79597865182E+02 0.  0.
         13    1    3    3    0    0 -0.53947684287E+03  0.44752623996E+03 -0.44198959719E+03  0.82865541902E+03  0.00000000000E+00 0.  1.
        -13    1    3    3    0    0 -0.83740233865E+02  0.33419657690E+02 -0.77782705004E+02  0.11907749361E+03  0.00000000000E+00 0. -1.
          2    1    6    6  502    0  0.35044155472E+03 -0.31249024581E+03  0.20880908145E+03  0.51386833868E+03  0.00000000000E+00 0. -1.
          3    1    5    5  503    0  0.16508794593E+02  0.16260993542E+03  0.39126736706E+03  0.42403382403E+03  0.00000000000E+00 0. -1.
         -4    1    5    5    0  503 -0.34185010344E+00 -0.49897870513E+01  0.66171269519E+02  0.66360016170E+02  0.00000000000E+00 0.  1.
         -1    1    6    6    0  502  0.25660857753E+03 -0.32607580021E+03  0.16607539063E+03  0.44693894987E+03  0.00000000000E+00 0.  1.
<mgrwt>
<rscale>  0 0.23784862E+04</rscale>
<asrwt>0</asrwt>
<pdfrwt beam="1">  1        2 0.20857576E+00 0.23784862E+04</pdfrwt>
<pdfrwt beam="2">  1       -2 0.16049102E+00 0.23784862E+04</pdfrwt>
<totfact> 0.34532053E+00</totfact>
</mgrwt>
</event>
<event>
12    1  0.1562393E-007  0.1365084E+04  0.7818608E-02  0.8979487E-01
         -3   -1    0    0    0  501 -0.00000000000E+00  0.00000000000E+00  0.32508999681E+04  0.32508999681E+04  0.00000000000E+00 0.  1.
          3   -1    0    0  501    0  0.00000000000E+00 -0.00000000000E+00 -0.14330300900E+03  0.14330300900E+03  0.00000000000E+00 0. -1.
         23    2    1    2    0    0 -0.26234802676E+03  0.13634366035E+03  0.14477905721E+04  0.14805727110E+04  0.92638713529E+02 0.  0.
        254    2    1    2    0    0  0.26234802676E+03 -0.13634366035E+03  0.16598063870E+04  0.19136302661E+04  0.90532175050E+03 0.  0.
        -24    2    4    4    0    0  0.53699762656E+03 -0.26145665721E+03  0.13251895972E+04  0.14557480898E+04  0.79680599073E+02 0.  0.
         24    2    4    4    0    0 -0.27464959980E+03  0.12511299687E+03  0.33461678980E+03  0.45788217625E+03  0.81252856273E+02 0.  0.
         13    1    3    3    0    0 -0.32301014435E+02  0.47625797276E+02  0.17817972102E+03  0.18724204945E+03  0.00000000000E+00 0. -1.
        -13    1    3    3    0    0 -0.23004701233E+03  0.88717863071E+02  0.12696108510E+04  0.12933306616E+04  0.00000000000E+00 0.  1.
          2    1    6    6  502    0 -0.12450340640E+02  0.30972528909E-01  0.48738158759E+02  0.50303280813E+02  0.00000000000E+00 0. -1.
          3    1    5    5  503    0  0.54514508293E+02 -0.23477988728E+01  0.13463951679E+03  0.14527609320E+03  0.00000000000E+00 0. -1.
         -4    1    5    5    0  503  0.48248311827E+03 -0.25910885834E+03  0.11905500804E+04  0.13104719966E+04  0.00000000000E+00 0.  1.
         -1    1    6    6    0  502 -0.26219925916E+03  0.12508202434E+03  0.28587863104E+03  0.40757889544E+03  0.00000000000E+00 0.  1.
<mgrwt>
<rscale>  0 0.13650842E+04</rscale>
<asrwt>0</asrwt>
<pdfrwt beam="1">  1        3 0.22046619E-01 0.13650842E+04</pdfrwt>
<pdfrwt beam="2">  1       -3 0.50013840E+00 0.13650842E+04</pdfrwt>
<totfact> 0.15215882E-01</totfact>
</mgrwt>
</event>
<event>
12    1  0.1562393E-007  0.1256987E+04  0.7818608E-02  0.9064388E-01
         -1   -1    0    0    0  501 -0.00000000000E+00  0.00000000000E+00  0.65150439039E+03  0.65150439039E+03  0.00000000000E+00 0.  1.
          1   -1    0    0  501    0  0.00000000000E+00 -0.00000000000E+00 -0.60629525647E+03  0.60629525647E+03  0.00000000000E+00 0. -1.
         23    2    1    2    0    0 -0.19183277051E+03  0.48777391452E+02  0.24051345594E+03  0.32467076701E+03  0.91571495052E+02 0.  0.
        254    2    1    2    0    0  0.19183277051E+03 -0.48777391452E+02 -0.19530432202E+03  0.93312887984E+03  0.89073378876E+03 0.  0.
        -24    2    4    4    0    0 -0.16996458843E+03  0.31920229482E+03  0.14918598692E+02  0.37025616754E+03  0.78032036242E+02 0.  0.
         24    2    4    4    0    0  0.36179735893E+03 -0.36797968627E+03 -0.21022292071E+03  0.56287271230E+03  0.79533863379E+02 0.  0.
         13    1    3    3    0    0 -0.12541650762E+01  0.84838425767E+01  0.55032987325E+02  0.55697201086E+02  0.00000000000E+00 0. -1.
        -13    1    3    3    0    0 -0.19057860543E+03  0.40293548875E+02  0.18548046862E+03  0.26897356593E+03  0.00000000000E+00 0.  1.
          4    1    6    6  502    0  0.16148127122E+03 -0.18116787795E+03 -0.13972880770E+03  0.28003953410E+03  0.00000000000E+00 0. -1.
          3    1    5    5  503    0 -0.13325026400E+03  0.25684219307E+03  0.43206910030E+02  0.29255833960E+03  0.00000000000E+00 0. -1.
         -2    1    5    5    0  503 -0.36714324429E+02  0.62360101749E+02 -0.28288311338E+02  0.77697827941E+02  0.00000000000E+00 0.  1.
         -3    1    6    6    0  502  0.20031608771E+03 -0.18681180832E+03 -0.70494113010E+02  0.28283317821E+03  0.00000000000E+00 0.  1.
<mgrwt>
<rscale>  0 0.12569869E+04</rscale>
<asrwt>0</asrwt>
<pdfrwt beam="1">  1        1 0.93276193E-01 0.12569869E+04</pdfrwt>
<pdfrwt beam="2">  1       -1 0.10023145E+00 0.12569869E+04</pdfrwt>
<totfact> 0.31540383E+01</totfact>
</mgrwt>
</event>
<event>
12    1  0.1562393E-007  0.1313466E+04  0.7818608E-02  0.9018954E-01
          2   -1    0    0  501    0  0.00000000000E+00  0.00000000000E+00  0.20507428761E+04  0.20507428761E+04  0.00000000000E+00 0.  1.
         -2   -1    0    0    0  501 -0.00000000000E+00 -0.00000000000E+00 -0.21031327754E+03  0.21031327754E+03  0.00000000000E+00 0. -1.
         23    2    1    2    0    0  0.22116568475E+03  0.13159757295E+03  0.91877828640E+03  0.95842707895E+03  0.90535875696E+02 0.  0.
        254    2    1    2    0    0 -0.22116568475E+03 -0.13159757295E+03  0.92165131219E+03  0.13026290747E+04  0.88383775873E+03 0.  0.
        -24    2    4    4    0    0 -0.55159678253E+03 -0.67173871508E+02  0.67855605629E+03  0.87980379254E+03  0.69606410076E+02 0.  0.
         24    2    4    4    0    0  0.33043109779E+03 -0.64423701438E+02  0.24309525590E+03  0.42282528219E+03  0.79691857355E+02 0.  0.
         11    1    3    3    0    0  0.25985428598E+02 -0.11866052202E+02  0.13842074196E+03  0.14133770728E+03  0.00000000000E+00 0. -1.
        -11    1    3    3    0    0  0.19518025615E+03  0.14346362515E+03  0.78035754445E+03  0.81708937168E+03  0.00000000000E+00 0.  1.
          2    1    6    6  502    0  0.40662859235E+02 -0.36808598124E+02  0.36625397026E+02  0.65952715823E+02  0.00000000000E+00 0. -1.
          3    1    5    5  503    0 -0.32353561495E+03 -0.43842438887E+02  0.45113999362E+03  0.55688845152E+03  0.00000000000E+00 0. -1.
         -4    1    5    5    0  503 -0.22806116758E+03 -0.23331432621E+02  0.22741606267E+03  0.32291534102E+03  0.00000000000E+00 0.  1.
         -1    1    6    6    0  502  0.28976823855E+03 -0.27615103314E+02  0.20646985887E+03  0.35687256637E+03  0.00000000000E+00 0.  1.
<mgrwt>
<rscale>  0 0.13134663E+04</rscale>
<asrwt>0</asrwt>
<pdfrwt beam="1">  1        2 0.31549889E+00 0.13134663E+04</pdfrwt>
<pdfrwt beam="2">  1       -2 0.32355890E-01 0.13134663E+04</pdfrwt>
<totfact> 0.54596992E+01</totfact>
</mgrwt>
</event>
<event>
12    1  0.1562393E-007  0.1554342E+04  0.7818608E-02  0.8849099E-01
          2   -1    0    0  501    0  0.00000000000E+00  0.00000000000E+00  0.93463082035E+03  0.93463082035E+03  0.00000000000E+00 0. -1.
         -2   -1    0    0    0  501 -0.00000000000E+00 -0.00000000000E+00 -0.64623904308E+03  0.64623904308E+03  0.00000000000E+00 0.  1.
         23    2    1    2    0    0  0.45677424108E+03  0.61992149934E+02  0.27129374549E+03  0.54283606055E+03  0.92655050163E+02 0.  0.
        254    2    1    2    0    0 -0.45677424108E+03 -0.61992149934E+02  0.17098031779E+02  0.10380338029E+04  0.92991187715E+03 0.  0.
        -24    2    4    4    0    0 -0.10834804740E+03  0.11001522623E+03 -0.41563135479E+03  0.45102280793E+03  0.82640793878E+02 0.  0.
         24    2    4    4    0    0 -0.34842619369E+03 -0.17200737617E+03  0.43272938657E+03  0.58701099495E+03  0.79623088910E+02 0.  0.
         11    1    3    3    0    0  0.34715988105E+03  0.99939384948E+01  0.18128221780E+03  0.39176919775E+03  0.00000000000E+00 0. -1.
        -11    1    3    3    0    0  0.10961436003E+03  0.51998211439E+02  0.90011527686E+02  0.15106686279E+03  0.00000000000E+00 0.  1.
          4    1    6    6  502    0 -0.29874270491E+03 -0.11394356774E+03  0.33739413965E+03  0.46482808202E+03  0.00000000000E+00 0. -1.
          3    1    5    5  503    0  0.29939088540E+01  0.33961011321E+02 -0.14116827481E+03  0.14522670413E+03  0.00000000000E+00 0. -1.
         -4    1    5    5    0  503 -0.11134195625E+03  0.76054214914E+02 -0.27446307998E+03  0.30579610380E+03  0.00000000000E+00 0.  1.
         -3    1    6    6    0  502 -0.49683488774E+02 -0.58063808426E+02  0.95335246920E+02  0.12218291293E+03  0.00000000000E+00 0.  1.
<mgrwt>
<rscale>  0 0.15543422E+04</rscale>
<asrwt>0</asrwt>
<pdfrwt beam="1">  1        2 0.14378936E+00 0.15543422E+04</pdfrwt>
<pdfrwt beam="2">  1       -2 0.99421392E-01 0.15543422E+04</pdfrwt>
<totfact> 0.22401628E+01</totfact>
</mgrwt>
</event>
<event>
12    1  0.1562393E-007  0.1179153E+04  0.7818608E-02  0.9131302E-01
          1   -1    0    0  501    0  0.00000000000E+00  0.00000000000E+00  0.14297599878E+04  0.14297599878E+04  0.00000000000E+00 0. -1.
         -1   -1    0    0    0  501 -0.00000000000E+00 -0.00000000000E+00 -0.24311797333E+03  0.24311797333E+03  0.00000000000E+00 0.  1.
         23    2    1    2    0    0 -0.16615882305E+03  0.13285113378E+03  0.33402943912E+03  0.40655193815E+03  0.91927329955E+02 0.  0.
        254    2    1    2    0    0  0.16615882305E+03 -0.13285113378E+03  0.85261257534E+03  0.12663260230E+04  0.91179779260E+03 0.  0.
        -24    2    4    4    0    0 -0.14357444929E+03 -0.15781448309E+03  0.91185052973E+03  0.93995291085E+03  0.80753033852E+02 0.  0.
         24    2    4    4    0    0  0.30973327233E+03  0.24963349302E+02 -0.59237954391E+02  0.32637311212E+03  0.80326859001E+02 0.  0.
         11    1    3    3    0    0 -0.12039312368E+03  0.97864593128E+02  0.30465769610E+03  0.34188930169E+03  0.00000000000E+00 0. -1.
        -11    1    3    3    0    0 -0.45765699371E+02  0.34986540656E+02  0.29371743013E+02  0.64662636458E+02  0.00000000000E+00 0.  1.
          4    1    6    6  502    0  0.16100735013E+03 -0.21079512742E+02 -0.52041612815E+02  0.17051698484E+03  0.00000000000E+00 0. -1.
          3    1    5    5  503    0 -0.12076897214E+03 -0.10176767221E+03  0.76487048653E+03  0.78100490710E+03  0.00000000000E+00 0. -1.
         -4    1    5    5    0  503 -0.22805477143E+02 -0.56046810878E+02  0.14698004320E+03  0.15894800375E+03  0.00000000000E+00 0.  1.
         -3    1    6    6    0  502  0.14872592220E+03  0.46042862043E+02 -0.71963415765E+01  0.15585612728E+03  0.00000000000E+00 0.  1.
<mgrwt>
<rscale>  0 0.11791528E+04</rscale>
<asrwt>0</asrwt>
<pdfrwt beam="1">  1        1 0.21996307E+00 0.11791528E+04</pdfrwt>
<pdfrwt beam="2">  1       -1 0.37402766E-01 0.11791528E+04</pdfrwt>
<totfact> 0.49941674E+01</totfact>
</mgrwt>
</event>
<event>
12    1  0.1562393E-007  0.1529088E+04  0.7818608E-02  0.8865337E-01
         -2   -1    0    0    0  501 -0.00000000000E+00  0.00000000000E+00  0.80292152873E+03  0.80292152873E+03  0.00000000000E+00 0.  1.
          2   -1    0    0  501    0  0.00000000000E+00 -0.00000000000E+00 -0.72800115196E+03  0.72800115196E+03  0.00000000000E+00 0. -1.
         23    2    1    2    0    0 -0.41012322924E+03  0.25465034272E+03 -0.80808077194E+02  0.49844813685E+03  0.94195220583E+02 0.  0.
        254    2    1    2    0    0  0.41012322924E+03 -0.25465034272E+03  0.15572845397E+03  0.10324745438E+04  0.89927997425E+03 0.  0.
        -24    2    4    4    0    0 -0.11199919892E+03 -0.32627631797E+03  0.31661493308E+03  0.47540850955E+03  0.82268942343E+02 0.  0.
         24    2    4    4    0    0  0.52212242817E+03  0.71625975242E+02 -0.16088647912E+03  0.55706603429E+03  0.81829072312E+02 0.  0.
         11    1    3    3    0    0 -0.27149914221E+03  0.13295973724E+03 -0.84694698645E+02  0.31394787454E+03  0.00000000000E+00 0. -1.
        -11    1    3    3    0    0 -0.13862408703E+03  0.12169060549E+03  0.38866214517E+01  0.18450026232E+03  0.00000000000E+00 0.  1.
          4    1    6    6  502    0  0.36492157422E+03  0.42288948620E+02 -0.72842034253E+02  0.37451578400E+03  0.00000000000E+00 0. -1.
          1    1    5    5  503    0 -0.62895512477E+02 -0.16547605562E+03  0.10759093690E+03  0.20715689749E+03  0.00000000000E+00 0. -1.
         -2    1    5    5    0  503 -0.49103686447E+02 -0.16080026235E+03  0.20902399618E+03  0.26825161206E+03  0.00000000000E+00 0.  1.
         -3    1    6    6    0  502  0.15720085395E+03  0.29337026622E+02 -0.88044444862E+02  0.18255025030E+03  0.00000000000E+00 0.  1.
<mgrwt>
<rscale>  0 0.15290884E+04</rscale>
<asrwt>0</asrwt>
<pdfrwt beam="1">  1        2 0.11200018E+00 0.15290884E+04</pdfrwt>
<pdfrwt beam="2">  1       -2 0.12352639E+00 0.15290884E+04</pdfrwt>
<totfact> 0.18555891E+01</totfact>
</mgrwt>
</event>
<event>
12    1  0.1562393E-007  0.3577875E+04  0.7818608E-02  0.8095579E-01
          2   -1    0    0  501    0  0.00000000000E+00  0.00000000000E+00  0.33088834421E+04  0.33088834421E+04  0.00000000000E+00 0. -1.
         -2   -1    0    0    0  501 -0.00000000000E+00 -0.00000000000E+00 -0.96718348181E+03  0.96718348181E+03  0.00000000000E+00 0.  1.
         23    2    1    2    0    0 -0.12406206047E+04 -0.16028272633E+03  0.24287613130E+04  0.27335504420E+04  0.92663186513E+02 0.  0.
        254    2    1    2    0    0  0.12406206047E+04  0.16028272633E+03 -0.87061352784E+02  0.15425164819E+04  0.89830249942E+03 0.  0.
        -24    2    4    4    0    0  0.23581723333E+03  0.57393792508E+02 -0.40609093375E+03  0.48015367298E+03  0.82060272051E+02 0.  0.
         24    2    4    4    0    0  0.10048033714E+04  0.10288893382E+03  0.31902958097E+03  0.10623628089E+04  0.81356722610E+02 0.  0.
         11    1    3    3    0    0 -0.24537026831E+03 -0.52916344833E+02  0.55625575655E+03  0.61026811715E+03  0.00000000000E+00 0.  1.
        -11    1    3    3    0    0 -0.99525033640E+03 -0.10736638150E+03  0.18725055565E+04  0.21232823249E+04  0.00000000000E+00 0. -1.
          4    1    6    6  502    0  0.28329400928E+03 -0.70275097825E+01  0.96384860939E+02  0.29932411029E+03  0.00000000000E+00 0. -1.
          3    1    5    5  503    0  0.40060900246E+02  0.11859837637E+02 -0.23374048567E+02  0.47873558712E+02  0.00000000000E+00 0. -1.
         -4    1    5    5    0  503  0.19575633309E+03  0.45533954872E+02 -0.38271688518E+03  0.43228011427E+03  0.00000000000E+00 0.  1.
         -3    1    6    6    0  502  0.72150936210E+03  0.10991644360E+03  0.22264472003E+03  0.76303869858E+03  0.00000000000E+00 0.  1.
<mgrwt>
<rscale>  0 0.35778750E+04</rscale>
<asrwt>0</asrwt>
<pdfrwt beam="1">  1        2 0.50905899E+00 0.35778750E+04</pdfrwt>
<pdfrwt beam="2">  1       -2 0.14879746E+00 0.35778750E+04</pdfrwt>
<totfact> 0.27424334E-01</totfact>
</mgrwt>
</event>
<event>
12    1  0.1562393E-007  0.1429663E+04  0.7818608E-02  0.8932622E-01
         -2   -1    0    0    0  501 -0.00000000000E+00  0.00000000000E+00  0.35379890073E+03  0.35379890073E+03  0.00000000000E+00 0.  1.
          2   -1    0    0  501    0  0.00000000000E+00 -0.00000000000E+00 -0.14442786677E+04  0.14442786677E+04  0.00000000000E+00 0. -1.
         23    2    1    2    0    0 -0.65464192266E+02 -0.40436900324E+03 -0.21605371522E+03  0.47185285153E+03  0.90366223696E+02 0.  0.
        254    2    1    2    0    0  0.65464192266E+02  0.40436900324E+03 -0.87442605175E+03  0.13262247169E+04  0.90909363020E+03 0.  0.
        -24    2    4    4    0    0  0.37666576232E+03  0.41227687511E+03 -0.82786964708E+03  0.10018125827E+04  0.80068596413E+02 0.  0.
         24    2    4    4    0    0 -0.31120157005E+03 -0.79078718615E+01 -0.46556404668E+02  0.32441213415E+03  0.78528863039E+02 0.  0.
         11    1    3    3    0    0 -0.48155299990E+02 -0.39758707392E+03 -0.21054384354E+03  0.45246339556E+03  0.00000000000E+00 0.  1.
        -11    1    3    3    0    0 -0.17308892275E+02 -0.67819293261E+01 -0.55098716789E+01  0.19389455977E+02  0.00000000000E+00 0. -1.
          4    1    6    6  502    0 -0.36857072639E+02 -0.18965776921E+02 -0.26318615650E+02  0.49100041013E+02  0.00000000000E+00 0. -1.
          3    1    5    5  503    0  0.64828539096E+02  0.78668754649E+02 -0.10173011864E+03  0.14401572649E+03  0.00000000000E+00 0. -1.
         -4    1    5    5    0  503  0.31183722322E+03  0.33360812046E+03 -0.72613952844E+03  0.85779685625E+03  0.00000000000E+00 0.  1.
         -3    1    6    6    0  502 -0.27434449741E+03  0.11057905060E+02 -0.20237789018E+02  0.27531209314E+03  0.00000000000E+00 0.  1.
<mgrwt>
<rscale>  0 0.14296632E+04</rscale>
<asrwt>0</asrwt>
<pdfrwt beam="1">  1        2 0.22219672E+00 0.14296632E+04</pdfrwt>
<pdfrwt beam="2">  1       -2 0.54430600E-01 0.14296632E+04</pdfrwt>
<totfact> 0.42116822E+01</totfact>
</mgrwt>
</event>
<event>
12    1  0.1562393E-007  0.2436315E+04  0.7818608E-02  0.8426032E-01
          1   -1    0    0  501    0  0.00000000000E+00  0.00000000000E+00  0.19459656739E+04  0.19459656739E+04  0.00000000000E+00 0. -1.
         -1   -1    0    0    0  501 -0.00000000000E+00 -0.00000000000E+00 -0.76255576045E+03  0.76255576045E+03  0.00000000000E+00 0.  1.
         23    2    1    2    0    0 -0.33332962113E+03  0.85951987748E+03 -0.24561221267E+02  0.92669935156E+03  0.91024054391E+02 0.  0.
        254    2    1    2    0    0  0.33332962113E+03 -0.85951987748E+03  0.12079711348E+04  0.17818220828E+04  0.93049052458E+03 0.  0.
        -24    2    4    4    0    0  0.41342912326E+03  0.14608024939E+02  0.30651084671E+03  0.52090919854E+03  0.79123066307E+02 0.  0.
         24    2    4    4    0    0 -0.80099502130E+02 -0.87412790242E+03  0.90146028804E+03  0.12609128843E+04  0.82189602781E+02 0.  0.
         11    1    3    3    0    0 -0.57922555332E+02  0.81687675434E+02 -0.16634511031E+02  0.10151160373E+03  0.00000000000E+00 0. -1.
        -11    1    3    3    0    0 -0.27540706580E+03  0.77783220205E+03 -0.79267102359E+01  0.82518774783E+03  0.00000000000E+00 0.  1.
          4    1    6    6  502    0  0.54429186670E+01 -0.47576523459E+02  0.74613811537E+02  0.88658737980E+02  0.00000000000E+00 0. -1.
          1    1    5    5  503    0  0.40654781121E+02 -0.14669130692E+02  0.56374775153E+02  0.71035976075E+02  0.00000000000E+00 0. -1.
         -2    1    5    5    0  503  0.37277434214E+03  0.29277155632E+02  0.25013607156E+03  0.44987322247E+03  0.00000000000E+00 0.  1.
         -3    1    6    6    0  502 -0.85542420797E+02 -0.82655137896E+03  0.82684647650E+03  0.11722541463E+04  0.00000000000E+00 0.  1.
<mgrwt>
<rscale>  0 0.24363147E+04</rscale>
<asrwt>0</asrwt>
<pdfrwt beam="1">  1        1 0.29937933E+00 0.24363147E+04</pdfrwt>
<pdfrwt beam="2">  1       -1 0.11731627E+00 0.24363147E+04</pdfrwt>
<totfact> 0.18946375E+00</totfact>
</mgrwt>
</event>
<event>
12    1  0.1562393E-007  0.1627694E+04  0.7818608E-02  0.8803713E-01
         -1   -1    0    0    0  501 -0.00000000000E+00  0.00000000000E+00  0.14308523178E+04  0.14308523178E+04  0.00000000000E+00 0.  1.
          1   -1    0    0  501    0  0.00000000000E+00 -0.00000000000E+00 -0.46290380175E+03  0.46290380175E+03  0.00000000000E+00 0. -1.
         23    2    1    2    0    0 -0.10800731196E+03  0.31412594391E+03 -0.17425497062E+03  0.38631353802E+03  0.92372435302E+02 0.  0.
        254    2    1    2    0    0  0.10800731196E+03 -0.31412594391E+03  0.11422034866E+04  0.15074425815E+04  0.92596632960E+03 0.  0.
        -24    2    4    4    0    0  0.41907453750E+03  0.11325733371E+03  0.42406768693E+03  0.61216138901E+03  0.80358393971E+02 0.  0.
         24    2    4    4    0    0 -0.31106722554E+03 -0.42738327762E+03  0.71813579971E+03  0.89528119249E+03  0.79938113627E+02 0.  0.
         13    1    3    3    0    0  0.10771686321E+02  0.26744033590E+01 -0.88704359282E+01  0.14207965832E+02  0.00000000000E+00 0.  1.
        -13    1    3    3    0    0 -0.11877899828E+03  0.31145154055E+03 -0.16538453469E+03  0.37210557219E+03  0.00000000000E+00 0. -1.
          4    1    6    6  502    0 -0.12370294823E+03 -0.11397219893E+03  0.19852027753E+03  0.26019681420E+03  0.00000000000E+00 0. -1.
          1    1    5    5  503    0  0.23403166461E+03  0.21744948771E+02  0.22776580687E+03  0.32729333268E+03  0.00000000000E+00 0. -1.
         -2    1    5    5    0  503  0.18504287288E+03  0.91512384940E+02  0.19630188006E+03  0.28486805633E+03  0.00000000000E+00 0.  1.
         -3    1    6    6    0  502 -0.18736427730E+03 -0.31341107870E+03  0.51961552218E+03  0.63508437829E+03  0.00000000000E+00 0.  1.
<mgrwt>
<rscale>  0 0.16276940E+04</rscale>
<asrwt>0</asrwt>
<pdfrwt beam="1">  1        1 0.71215970E-01 0.16276940E+04</pdfrwt>
<pdfrwt beam="2">  1       -1 0.22013112E+00 0.16276940E+04</pdfrwt>
<totfact> 0.51801536E+00</totfact>
</mgrwt>
</event>
<event>
12    1  0.1562393E-007  0.1544536E+04  0.7818608E-02  0.8855366E-01
          1   -1    0    0  501    0  0.00000000000E+00  0.00000000000E+00  0.78992755834E+03  0.78992755834E+03  0.00000000000E+00 0.  1.
         -1   -1    0    0    0  501 -0.00000000000E+00 -0.00000000000E+00 -0.75500302643E+03  0.75500302643E+03  0.00000000000E+00 0. -1.
         23    2    1    2    0    0  0.23844083062E+03  0.11950614223E+03 -0.42061447534E+03  0.50562028165E+03  0.87175596437E+02 0.  0.
        254    2    1    2    0    0 -0.23844083062E+03 -0.11950614223E+03  0.45553900725E+03  0.10393103031E+04  0.89527335004E+03 0.  0.
        -24    2    4    4    0    0 -0.35256398736E+02  0.36295176895E+03  0.61916941424E+02  0.37840436744E+03  0.79869627682E+02 0.  0.
         24    2    4    4    0    0 -0.20318443189E+03 -0.48245791118E+03  0.39362206583E+03  0.66090593568E+03  0.88367277218E+02 0.  0.
         13    1    3    3    0    0  0.14513443466E+03  0.54512603128E+02 -0.31187863927E+03  0.34828711383E+03  0.00000000000E+00 0. -1.
        -13    1    3    3    0    0  0.93306395961E+02  0.64993539102E+02 -0.10873583607E+03  0.15733316782E+03  0.00000000000E+00 0.  1.
          4    1    6    6  502    0 -0.14452936342E+03 -0.41991310367E+03  0.31392676046E+03  0.54384350916E+03  0.00000000000E+00 0. -1.
          1    1    5    5  503    0 -0.38494785822E+02  0.35060159988E+03  0.42631612224E+02  0.35527564613E+03  0.00000000000E+00 0. -1.
         -2    1    5    5    0  503  0.32383870861E+01  0.12350169071E+02  0.19285329200E+02  0.23128721308E+02  0.00000000000E+00 0.  1.
         -3    1    6    6    0  502 -0.58655068468E+02 -0.62544807508E+02  0.79695305373E+02  0.11706242652E+03  0.00000000000E+00 0.  1.
<mgrwt>
<rscale>  0 0.15445358E+04</rscale>
<asrwt>0</asrwt>
<pdfrwt beam="1">  1        1 0.12152732E+00 0.15445358E+04</pdfrwt>
<pdfrwt beam="2">  1       -1 0.11615431E+00 0.15445358E+04</pdfrwt>
<totfact> 0.14578024E+01</totfact>
</mgrwt>
</event>
<event>
12    1  0.1562393E-007  0.2338561E+04  0.7818608E-02  0.8462870E-01
         -2   -1    0    0    0  501 -0.00000000000E+00  0.00000000000E+00  0.45676397402E+03  0.45676397402E+03  0.00000000000E+00 0. -1.
          2   -1    0    0  501    0  0.00000000000E+00 -0.00000000000E+00 -0.29932685434E+04  0.29932685434E+04  0.00000000000E+00 0.  1.
         23    2    1    2    0    0 -0.47426745986E+02  0.96255925862E+03 -0.71221970662E+03  0.12017035408E+04  0.89804603987E+02 0.  0.
        254    2    1    2    0    0  0.47426745986E+02 -0.96255925862E+03 -0.18242848628E+04  0.22483289767E+04  0.89341944464E+03 0.  0.
        -24    2    4    4    0    0  0.15925891963E+03 -0.44633498458E+03 -0.15967569491E+04  0.16675975110E+04  0.81672408075E+02 0.  0.
         24    2    4    4    0    0 -0.11183217364E+03 -0.51622427403E+03 -0.22752791368E+03  0.58073146565E+03  0.80536622259E+02 0.  0.
         13    1    3    3    0    0 -0.28681896845E+02  0.10458701117E+03 -0.61123309379E+02  0.12448756188E+03  0.00000000000E+00 0. -1.
        -13    1    3    3    0    0 -0.18744849141E+02  0.85797224745E+03 -0.65109639724E+03  0.10772159789E+04  0.00000000000E+00 0.  1.
          4    1    6    6  502    0 -0.10124077879E+03 -0.49411112398E+03 -0.19677765547E+03  0.54140275565E+03  0.00000000000E+00 0. -1.
          1    1    5    5  503    0  0.11951867213E+03 -0.35440876478E+03 -0.11325768739E+04  0.11927366268E+04  0.00000000000E+00 0. -1.
         -2    1    5    5    0  503  0.39740247496E+02 -0.91926219806E+02 -0.46418007520E+03  0.47486088423E+03  0.00000000000E+00 0.  1.
         -3    1    6    6    0  502 -0.10591394847E+02 -0.22113150051E+02 -0.30750258207E+02  0.39328709994E+02  0.00000000000E+00 0.  1.
<mgrwt>
<rscale>  0 0.23385613E+04</rscale>
<asrwt>0</asrwt>
<pdfrwt beam="1">  1        2 0.46050284E+00 0.23385613E+04</pdfrwt>
<pdfrwt beam="2">  1       -2 0.70271383E-01 0.23385613E+04</pdfrwt>
<totfact> 0.29307633E+00</totfact>
</mgrwt>
</event>
<event>
12    1  0.1562393E-007  0.1704999E+04  0.7818608E-02  0.8758518E-01
         -1   -1    0    0    0  501 -0.00000000000E+00  0.00000000000E+00  0.22478938368E+03  0.22478938368E+03  0.00000000000E+00 0.  1.
          1   -1    0    0  501    0  0.00000000000E+00 -0.00000000000E+00 -0.32330501454E+04  0.32330501454E+04  0.00000000000E+00 0. -1.
         23    2    1    2    0    0 -0.47192813171E+03  0.27494395437E+02 -0.30571758214E+03  0.56961466903E+03  0.86749800357E+02 0.  0.
        254    2    1    2    0    0  0.47192813171E+03 -0.27494395437E+02 -0.27025431796E+04  0.28882248601E+04  0.90256916711E+03 0.  0.
        -24    2    4    4    0    0  0.31358263200E+03 -0.34481155314E+03 -0.65158532834E+03  0.80529553281E+03  0.81904705568E+02 0.  0.
         24    2    4    4    0    0  0.15834549971E+03  0.31731715770E+03 -0.20509578513E+04  0.20829293273E+04  0.80018740457E+02 0.  0.
         13    1    3    3    0    0 -0.10510841403E+02  0.12897636581E+01 -0.29168572101E+02  0.31031385333E+02  0.00000000000E+00 0. -1.
        -13    1    3    3    0    0 -0.46141729031E+03  0.26204631779E+02 -0.27654901004E+03  0.53858328369E+03  0.00000000000E+00 0.  1.
          2    1    6    6  502    0  0.83201872486E+01  0.80732221902E+02 -0.56436279754E+03  0.57016864559E+03  0.00000000000E+00 0. -1.
          3    1    5    5  503    0  0.35307610437E+02 -0.85139601572E+02 -0.14110319513E+03  0.16853928559E+03  0.00000000000E+00 0. -1.
         -4    1    5    5    0  503  0.27827502156E+03 -0.25967195156E+03 -0.51048213321E+03  0.63675624723E+03  0.00000000000E+00 0.  1.
         -1    1    6    6    0  502  0.15002531246E+03  0.23658493580E+03 -0.14865950537E+04  0.15127606817E+04  0.00000000000E+00 0.  1.
<mgrwt>
<rscale>  0 0.17049989E+04</rscale>
<asrwt>0</asrwt>
<pdfrwt beam="1">  1        1 0.49739233E+00 0.17049989E+04</pdfrwt>
<pdfrwt beam="2">  1       -1 0.34582982E-01 0.17049989E+04</pdfrwt>
<totfact> 0.30443568E+00</totfact>
</mgrwt>
</event>
<event>
12    1  0.1562393E-007  0.1445047E+04  0.7818608E-02  0.8921841E-01
         -2   -1    0    0    0  501 -0.00000000000E+00  0.00000000000E+00  0.19646527039E+03  0.19646527039E+03  0.00000000000E+00 0. -1.
          2   -1    0    0  501    0  0.00000000000E+00 -0.00000000000E+00 -0.26571638384E+04  0.26571638384E+04  0.00000000000E+00 0.  1.
         23    2    1    2    0    0  0.19224113899E+03 -0.11587717837E+03 -0.23118533432E+02  0.24176869330E+03  0.86795498083E+02 0.  0.
        254    2    1    2    0    0 -0.19224113899E+03  0.11587717837E+03 -0.24375800346E+04  0.26118604155E+04  0.91084259291E+03 0.  0.
        -24    2    4    4    0    0 -0.18533912718E+03  0.39779963182E+03 -0.58142349424E+03  0.73268764104E+03  0.78630531827E+02 0.  0.
         24    2    4    4    0    0 -0.69020118109E+01 -0.28192245346E+03 -0.18561565404E+04  0.18791727745E+04  0.80282666043E+02 0.  0.
         13    1    3    3    0    0 -0.74986351011E+01 -0.70609988914E+01 -0.93238579915E+01  0.13893219986E+02  0.00000000000E+00 0.  1.
        -13    1    3    3    0    0  0.19973977409E+03 -0.10881617948E+03 -0.13794675440E+02  0.22787547332E+03  0.00000000000E+00 0. -1.
          4    1    6    6  502    0  0.52110858530E+00 -0.20935938331E+02 -0.34435601970E+03  0.34499225118E+03  0.00000000000E+00 0. -1.
          1    1    5    5  503    0 -0.22836669480E+02  0.84247026511E+02 -0.16506923187E+03  0.18672687610E+03  0.00000000000E+00 0. -1.
         -2    1    5    5    0  503 -0.16250245770E+03  0.31355260531E+03 -0.41635426237E+03  0.54596076494E+03  0.00000000000E+00 0.  1.
         -3    1    6    6    0  502 -0.74231203962E+01 -0.26098651512E+03 -0.15118005207E+04  0.15341805233E+04  0.00000000000E+00 0.  1.
<mgrwt>
<rscale>  0 0.14450473E+04</rscale>
<asrwt>0</asrwt>
<pdfrwt beam="1">  1        2 0.40879443E+00 0.14450473E+04</pdfrwt>
<pdfrwt beam="2">  1       -2 0.30225426E-01 0.14450473E+04</pdfrwt>
<totfact> 0.27750162E+01</totfact>
</mgrwt>
</event>
<event>
12    1  0.1562393E-007  0.2250774E+04  0.7818608E-02  0.8497587E-01
          2   -1    0    0  501    0  0.00000000000E+00  0.00000000000E+00  0.64205049180E+03  0.64205049180E+03  0.00000000000E+00 0. -1.
         -2   -1    0    0    0  501 -0.00000000000E+00 -0.00000000000E+00 -0.19725796351E+04  0.19725796351E+04  0.00000000000E+00 0.  1.
         23    2    1    2    0    0 -0.83362296339E+03 -0.11973150627E+03 -0.52969085618E+02  0.84886048221E+03  0.92171120944E+02 0.  0.
        254    2    1    2    0    0  0.83362296339E+03  0.11973150627E+03 -0.12775600577E+04  0.17657696447E+04  0.88120364186E+03 0.  0.
        -24    2    4    4    0    0 -0.10755064149E+03  0.53087388995E+01 -0.55632041176E+03  0.57173197952E+03  0.76090292845E+02 0.  0.
         24    2    4    4    0    0  0.94117360488E+03  0.11442276737E+03 -0.72123964594E+03  0.11940376652E+04  0.81480026903E+02 0.  0.
         11    1    3    3    0    0 -0.74280152878E+03 -0.83760496602E+02 -0.27995198944E+02  0.74803319653E+03  0.00000000000E+00 0. -1.
        -11    1    3    3    0    0 -0.90821434614E+02 -0.35971009667E+02 -0.24973886674E+02  0.10082728568E+03  0.00000000000E+00 0.  1.
          2    1    6    6  502    0  0.16287064803E+03  0.19546992840E+02 -0.87739003646E+02  0.18602974408E+03  0.00000000000E+00 0. -1.
          3    1    5    5  503    0  0.19097973980E+01  0.21105064331E+02 -0.96332922188E+02  0.98636215275E+02  0.00000000000E+00 0. -1.
         -4    1    5    5    0  503 -0.10946043889E+03 -0.15796325431E+02 -0.45998748958E+03  0.47309576424E+03  0.00000000000E+00 0.  1.
         -1    1    6    6    0  502  0.77830295685E+03  0.94875774530E+02 -0.63350064229E+03  0.10080079211E+04  0.00000000000E+00 0.  1.
<mgrwt>
<rscale>  0 0.22507738E+04</rscale>
<asrwt>0</asrwt>
<pdfrwt beam="1">  1        2 0.98777001E-01 0.22507738E+04</pdfrwt>
<pdfrwt beam="2">  1       -2 0.30347378E+00 0.22507738E+04</pdfrwt>
<totfact> 0.12582612E+00</totfact>
</mgrwt>
</event>
<event>
12    1  0.1562393E-007  0.3048931E+04  0.7818608E-02  0.8229895E-01
          2   -1    0    0  501    0  0.00000000000E+00  0.00000000000E+00  0.27266583613E+04  0.27266583613E+04  0.00000000000E+00 0. -1.
         -2   -1    0    0    0  501 -0.00000000000E+00 -0.00000000000E+00 -0.85232374747E+03  0.85232374747E+03  0.00000000000E+00 0.  1.
         23    2    1    2    0    0  0.29327389676E+03  0.80520936459E+02  0.24499648928E+04  0.24704578886E+04  0.91329097979E+02 0.  0.
        254    2    1    2    0    0 -0.29327389676E+03 -0.80520936459E+02 -0.57563027895E+03  0.11085242201E+04  0.89720818584E+03 0.  0.
        -24    2    4    4    0    0 -0.41958978351E+03 -0.29278821159E+03 -0.48100837301E+02  0.52006031883E+03  0.79803016260E+02 0.  0.
         24    2    4    4    0    0  0.12631588675E+03  0.21226727513E+03 -0.52752944165E+03  0.58846390126E+03  0.83602344065E+02 0.  0.
         13    1    3    3    0    0  0.20114922856E+03  0.97741081827E+01  0.15581016254E+04  0.15710624495E+04  0.00000000000E+00 0. -1.
        -13    1    3    3    0    0  0.92124668199E+02  0.70746828277E+02  0.89186326739E+03  0.89939543912E+03  0.00000000000E+00 0.  1.
          4    1    6    6  502    0  0.45417116587E+02  0.11261908291E+03 -0.34154069989E+03  0.36248561626E+03  0.00000000000E+00 0. -1.
          3    1    5    5  503    0 -0.54549577682E+02 -0.13723682306E+02 -0.20044847800E+02  0.59714251269E+02  0.00000000000E+00 0. -1.
         -2    1    5    5    0  503 -0.36504020583E+03 -0.27906452928E+03 -0.28055989501E+02  0.46034606756E+03  0.00000000000E+00 0.  1.
         -3    1    6    6    0  502  0.80898770166E+02  0.99648192215E+02 -0.18598874176E+03  0.22597828499E+03  0.00000000000E+00 0.  1.
<mgrwt>
<rscale>  0 0.30489314E+04</rscale>
<asrwt>0</asrwt>
<pdfrwt beam="1">  1        2 0.41948590E+00 0.30489314E+04</pdfrwt>
<pdfrwt beam="2">  1       -2 0.13112673E+00 0.30489314E+04</pdfrwt>
<totfact> 0.92698003E-01</totfact>
</mgrwt>
</event>
<event>
12    1  0.1562393E-007  0.3322669E+04  0.7818608E-02  0.8157151E-01
         -1   -1    0    0    0  501 -0.00000000000E+00  0.00000000000E+00  0.18531273099E+04  0.18531273099E+04  0.00000000000E+00 0.  1.
          1   -1    0    0  501    0  0.00000000000E+00 -0.00000000000E+00 -0.14893912101E+04  0.14893912101E+04  0.00000000000E+00 0. -1.
         23    2    1    2    0    0 -0.97371091458E+03  0.11892837802E+04  0.26944617040E+03  0.15632561825E+04  0.93058037216E+02 0.  0.
        254    2    1    2    0    0  0.97371091458E+03 -0.11892837802E+04  0.94289929450E+02  0.17792623376E+04  0.89127718479E+03 0.  0.
        -24    2    4    4    0    0  0.29899592820E+03  0.91755873223E+02  0.61904449057E+02  0.32884757583E+03  0.80565885840E+02 0.  0.
         24    2    4    4    0    0  0.67471498638E+03 -0.12810396534E+04  0.32385480393E+02  0.14504147617E+04  0.79694763491E+02 0.  0.
         11    1    3    3    0    0 -0.86028377249E+03  0.10038056603E+04  0.21836585648E+03  0.13399244830E+04  0.00000000000E+00 0.  1.
        -11    1    3    3    0    0 -0.11342714209E+03  0.18547811985E+03  0.51080313913E+02  0.22333169944E+03  0.00000000000E+00 0. -1.
          2    1    6    6  502    0  0.13301720072E+03 -0.23876817752E+03  0.36695331051E+02  0.27577230754E+03  0.00000000000E+00 0. -1.
          1    1    5    5  503    0  0.34689677069E+02 -0.48410333117E+01  0.29099959434E+02  0.45536984285E+02  0.00000000000E+00 0. -1.
         -2    1    5    5    0  503  0.26430625113E+03  0.96596906535E+02  0.32804489623E+02  0.28331059154E+03  0.00000000000E+00 0.  1.
         -1    1    6    6    0  502  0.54169778566E+03 -0.10422714759E+04 -0.43098506576E+01  0.11746424542E+04  0.00000000000E+00 0.  1.
<mgrwt>
<rscale>  0 0.33226685E+04</rscale>
<asrwt>0</asrwt>
<pdfrwt beam="1">  1        1 0.22913711E+00 0.33226685E+04</pdfrwt>
<pdfrwt beam="2">  1       -1 0.28509651E+00 0.33226685E+04</pdfrwt>
<totfact> 0.22724756E-01</totfact>
</mgrwt>
</event>
<event>
12    1  0.1562393E-007  0.1771633E+04  0.7818608E-02  0.8721532E-01
          1   -1    0    0  501    0  0.00000000000E+00  0.00000000000E+00  0.11444151959E+04  0.11444151959E+04  0.00000000000E+00 0. -1.
         -1   -1    0    0    0  501 -0.00000000000E+00 -0.00000000000E+00 -0.68565189462E+03  0.68565189462E+03  0.00000000000E+00 0.  1.
         23    2    1    2    0    0 -0.38696026766E+03  0.42693485919E+03 -0.16025484439E+03  0.60499936573E+03  0.91274282436E+02 0.  0.
        254    2    1    2    0    0  0.38696026766E+03 -0.42693485919E+03  0.61901814568E+03  0.12250677248E+04  0.88633844717E+03 0.  0.
        -24    2    4    4    0    0  0.12478762609E+03  0.26784916086E+03  0.13056550448E+03  0.33270229194E+03  0.79550861137E+02 0.  0.
         24    2    4    4    0    0  0.26217264158E+03 -0.69478402005E+03  0.48845264120E+03  0.89236543287E+03  0.79188096133E+02 0.  0.
         11    1    3    3    0    0 -0.27713225147E+03  0.36151566707E+03 -0.12233269193E+03  0.47165787374E+03  0.00000000000E+00 0.  1.
        -11    1    3    3    0    0 -0.10982801619E+03  0.65419192122E+02 -0.37922152457E+02  0.13334149199E+03  0.00000000000E+00 0. -1.
          2    1    6    6  502    0  0.21450607740E+03 -0.58870060846E+03  0.37674922505E+03  0.73110959658E+03  0.00000000000E+00 0. -1.
          3    1    5    5  503    0  0.96346987594E+02  0.19787695042E+03  0.57183922937E+02  0.22739399853E+03  0.00000000000E+00 0. -1.
         -4    1    5    5    0  503  0.28440638493E+02  0.69972210437E+02  0.73381581543E+02  0.10530829341E+03  0.00000000000E+00 0.  1.
         -1    1    6    6    0  502  0.47666564181E+02 -0.10608341159E+03  0.11170341615E+03  0.16125583628E+03  0.00000000000E+00 0.  1.
<mgrwt>
<rscale>  0 0.17716325E+04</rscale>
<asrwt>0</asrwt>
<pdfrwt beam="1">  1        1 0.17606388E+00 0.17716325E+04</pdfrwt>
<pdfrwt beam="2">  1       -1 0.10548491E+00 0.17716325E+04</pdfrwt>
<totfact> 0.93574354E+00</totfact>
</mgrwt>
</event>
<event>
12    1  0.1562393E-007  0.1167649E+04  0.7818608E-02  0.9141654E-01
         -2   -1    0    0    0  501 -0.00000000000E+00  0.00000000000E+00  0.34287141082E+03  0.34287141082E+03  0.00000000000E+00 0.  1.
          2   -1    0    0  501    0  0.00000000000E+00 -0.00000000000E+00 -0.99410740870E+03  0.99410740870E+03  0.00000000000E+00 0. -1.
         23    2    1    2    0    0 -0.82136864907E+02  0.15566864693E+03  0.23508607996E+02  0.19953047241E+03  0.90997596424E+02 0.  0.
        254    2    1    2    0    0  0.82136864907E+02 -0.15566864693E+03 -0.67474460587E+03  0.11374483471E+04  0.89862632222E+03 0.  0.
        -24    2    4    4    0    0  0.18220303138E+03  0.21199135815E+03  0.68163253029E+02  0.29865047975E+03  0.80047482271E+02 0.  0.
         24    2    4    4    0    0 -0.10006616648E+03 -0.36766000509E+03 -0.74290785890E+03  0.83879786736E+03  0.80514957966E+02 0.  0.
         13    1    3    3    0    0 -0.26587515362E+02  0.22662835416E+02 -0.29729530403E+02  0.45873140945E+02  0.00000000000E+00 0. -1.
        -13    1    3    3    0    0 -0.55549349545E+02  0.13300581152E+03  0.53238138399E+02  0.15365733146E+03  0.00000000000E+00 0.  1.
          2    1    6    6  502    0 -0.51141424194E+02 -0.30334731232E+03 -0.61180689266E+03  0.68479391869E+03  0.00000000000E+00 0. -1.
          1    1    5    5  503    0  0.10161689780E+03  0.15300624495E+03  0.75337912236E+02  0.19852633561E+03  0.00000000000E+00 0. -1.
         -2    1    5    5    0  503  0.80586133582E+02  0.58985113204E+02 -0.71746592072E+01  0.10012414414E+03  0.00000000000E+00 0.  1.
         -1    1    6    6    0  502 -0.48924742281E+02 -0.64312692764E+02 -0.13110096624E+03  0.15400394867E+03  0.00000000000E+00 0.  1.
<mgrwt>
<rscale>  0 0.11676489E+04</rscale>
<asrwt>0</asrwt>
<pdfrwt beam="1">  1        2 0.15293960E+00 0.11676489E+04</pdfrwt>
<pdfrwt beam="2">  1       -2 0.52749449E-01 0.11676489E+04</pdfrwt>
<totfact> 0.85172371E+01</totfact>
</mgrwt>
</event>
<event>
12    1  0.1562393E-007  0.1048250E+04  0.7818608E-02  0.9257153E-01
          2   -1    0    0  501    0  0.00000000000E+00  0.00000000000E+00  0.12708763030E+04  0.12708763030E+04  0.00000000000E+00 0.  1.
         -2   -1    0    0    0  501 -0.00000000000E+00 -0.00000000000E+00 -0.21615558031E+03  0.21615558031E+03  0.00000000000E+00 0. -1.
         23    2    1    2    0    0 -0.14228221298E+03  0.10923149765E+03  0.10299147642E+03  0.22690486076E+03  0.93288924368E+02 0.  0.
        254    2    1    2    0    0  0.14228221298E+03 -0.10923149765E+03  0.95172924628E+03  0.12601270226E+04  0.80619836675E+03 0.  0.
        -24    2    4    4    0    0  0.23664356112E+03  0.23012761957E+03  0.12883902134E+03  0.36145943345E+03  0.71375992468E+02 0.  0.
         24    2    4    4    0    0 -0.94361348139E+02 -0.33935911722E+03  0.82289022495E+03  0.89866758911E+03  0.79915198455E+02 0.  0.
         13    1    3    3    0    0  0.22904266742E+01 -0.31218715500E+01 -0.10701750791E+02  0.11380668097E+02  0.00000000000E+00 0.  1.
        -13    1    3    3    0    0 -0.14457263966E+03  0.11235336920E+03  0.11369322721E+03  0.21552419266E+03  0.00000000000E+00 0. -1.
          2    1    6    6  502    0 -0.98840929293E+02 -0.30926604679E+03  0.69337037324E+03  0.76562229036E+03  0.00000000000E+00 0. -1.
          3    1    5    5  503    0  0.22085050327E+03  0.17964262905E+03  0.10491522596E+03  0.30340340078E+03  0.00000000000E+00 0. -1.
         -4    1    5    5    0  503  0.15793057854E+02  0.50484990520E+02  0.23923795380E+02  0.58056032671E+02  0.00000000000E+00 0.  1.
         -1    1    6    6    0  502  0.44795811532E+01 -0.30093070427E+02  0.12951985170E+03  0.13304529875E+03  0.00000000000E+00 0.  1.
<mgrwt>
<rscale>  0 0.10482500E+04</rscale>
<asrwt>0</asrwt>
<pdfrwt beam="1">  1        2 0.19551943E+00 0.10482500E+04</pdfrwt>
<pdfrwt beam="2">  1       -2 0.33254705E-01 0.10482500E+04</pdfrwt>
<totfact> 0.14443840E+02</totfact>
</mgrwt>
</event>
<event>
12    1  0.1562393E-007  0.9631876E+03  0.7818608E-02  0.9349868E-01
         -2   -1    0    0    0  501 -0.00000000000E+00  0.00000000000E+00  0.45403707693E+03  0.45403707693E+03  0.00000000000E+00 0.  1.
          2   -1    0    0  501    0  0.00000000000E+00 -0.00000000000E+00 -0.51082298245E+03  0.51082298245E+03  0.00000000000E+00 0. -1.
         23    2    1    2    0    0  0.50183418891E+02  0.30545143714E+01 -0.36464898896E+02  0.11201733991E+03  0.93222797635E+02 0.  0.
        254    2    1    2    0    0 -0.50183418891E+02 -0.30545143714E+01 -0.20321006618E+02  0.85284271948E+03  0.85111694570E+03 0.  0.
        -24    2    4    4    0    0 -0.29936599238E+03  0.80525437556E+02  0.29456096956E+03  0.43510526024E+03  0.80287478551E+02 0.  0.
         24    2    4    4    0    0  0.24918257349E+03 -0.83579951928E+02 -0.31488197617E+03  0.41773745924E+03  0.79223497978E+02 0.  0.
         11    1    3    3    0    0  0.69869321844E+02  0.11193173430E+02 -0.11433037318E+01  0.70769459584E+02  0.00000000000E+00 0. -1.
        -11    1    3    3    0    0 -0.19685902953E+02 -0.81386590581E+01 -0.35321595164E+02  0.41247880324E+02  0.00000000000E+00 0.  1.
          4    1    6    6  502    0  0.18574517331E+03 -0.24922113493E+02 -0.20140030155E+03  0.27510809260E+03  0.00000000000E+00 0. -1.
          1    1    5    5  503    0 -0.30004393877E+03  0.82458507693E+02  0.27450303977E+03  0.41494299552E+03  0.00000000000E+00 0. -1.
         -2    1    5    5    0  503  0.67794638980E+00 -0.19330701367E+01  0.20057929782E+02  0.20162264719E+02  0.00000000000E+00 0.  1.
         -3    1    6    6    0  502  0.63437400186E+02 -0.58657838434E+02 -0.11348167462E+03  0.14262936664E+03  0.00000000000E+00 0.  1.
<mgrwt>
<rscale>  0 0.96318757E+03</rscale>
<asrwt>0</asrwt>
<pdfrwt beam="1">  1        2 0.78588151E-01 0.96318757E+03</pdfrwt>
<pdfrwt beam="2">  1       -2 0.69851858E-01 0.96318757E+03</pdfrwt>
<totfact> 0.11228415E+02</totfact>
</mgrwt>
</event>
<event>
12    1  0.1562393E-007  0.2787048E+04  0.7818608E-02  0.8307301E-01
          2   -1    0    0  501    0  0.00000000000E+00  0.00000000000E+00  0.21923913266E+04  0.21923913266E+04  0.00000000000E+00 0.  1.
         -2   -1    0    0    0  501 -0.00000000000E+00 -0.00000000000E+00 -0.88574956345E+03  0.88574956345E+03  0.00000000000E+00 0. -1.
         23    2    1    2    0    0 -0.89016952716E+03 -0.63905374905E+03  0.12374486682E+04  0.16553931401E+04  0.90861215982E+02 0.  0.
        254    2    1    2    0    0  0.89016952716E+03  0.63905374905E+03  0.69193095007E+02  0.14227477500E+04  0.90478284383E+03 0.  0.
        -24    2    4    4    0    0  0.41365876109E+03  0.73301753496E+03 -0.19068462300E+03  0.86660716243E+03  0.78861088790E+02 0.  0.
         24    2    4    4    0    0  0.47651076607E+03 -0.93963785917E+02  0.25987771801E+03  0.55614058758E+03  0.76578205728E+02 0.  0.
         11    1    3    3    0    0 -0.43745382947E+02 -0.13544914108E+02  0.69134990184E+02  0.82926293148E+02  0.00000000000E+00 0. -1.
        -11    1    3    3    0    0 -0.84642414422E+03 -0.62550883494E+03  0.11683136780E+04  0.15724668469E+04  0.00000000000E+00 0.  1.
          4    1    6    6  502    0  0.39343058735E+03 -0.47255604261E+02  0.20462324926E+03  0.44597241320E+03  0.00000000000E+00 0. -1.
          3    1    5    5  503    0  0.38871395407E+03  0.64642562238E+03 -0.18291987506E+03  0.77615997323E+03  0.00000000000E+00 0. -1.
         -4    1    5    5    0  503  0.24944807023E+02  0.86591912584E+02 -0.77647479483E+01  0.90447189194E+02  0.00000000000E+00 0.  1.
         -3    1    6    6    0  502  0.83080178716E+02 -0.46708181656E+02  0.55254468751E+02  0.11016817438E+03  0.00000000000E+00 0.  1.
<mgrwt>
<rscale>  0 0.27870484E+04</rscale>
<asrwt>0</asrwt>
<pdfrwt beam="1">  1        2 0.33729097E+00 0.27870484E+04</pdfrwt>
<pdfrwt beam="2">  1       -2 0.13626916E+00 0.27870484E+04</pdfrwt>
<totfact> 0.17496309E+00</totfact>
</mgrwt>
</event>
<event>
12    1  0.1562393E-007  0.2556238E+04  0.7818608E-02  0.8383220E-01
         -1   -1    0    0    0  501 -0.00000000000E+00  0.00000000000E+00  0.11111048862E+04  0.11111048862E+04  0.00000000000E+00 0.  1.
          1   -1    0    0  501    0  0.00000000000E+00 -0.00000000000E+00 -0.14702373756E+04  0.14702373756E+04  0.00000000000E+00 0. -1.
         23    2    1    2    0    0  0.11619990097E+01 -0.39354959186E+03 -0.12146046505E+04  0.12799762068E+04  0.90509675767E+02 0.  0.
        254    2    1    2    0    0 -0.11619990097E+01  0.39354959186E+03  0.85547216113E+03  0.13013660549E+04  0.89824181538E+03 0.  0.
        -24    2    4    4    0    0 -0.31513987202E+03 -0.41748985971E+02  0.51525754850E+02  0.33160739847E+03  0.79072413282E+02 0.  0.
         24    2    4    4    0    0  0.31397787301E+03  0.43529857783E+03  0.80394640628E+03  0.96975865643E+03  0.77685719095E+02 0.  0.
         13    1    3    3    0    0 -0.14601231145E+02 -0.28855199195E+03 -0.99421285524E+03  0.10353427691E+04  0.00000000000E+00 0. -1.
        -13    1    3    3    0    0  0.15763230154E+02 -0.10499759991E+03 -0.22039179530E+03  0.24463343771E+03  0.00000000000E+00 0.  1.
          4    1    6    6  502    0  0.23397658610E+03  0.32234564916E+03  0.65355507105E+03  0.76536657313E+03  0.00000000000E+00 0. -1.
          1    1    5    5  503    0 -0.24929246555E+03 -0.13049597931E+02  0.66268923032E+02  0.25828007191E+03  0.00000000000E+00 0. -1.
         -2    1    5    5    0  503 -0.65847406474E+02 -0.28699388040E+02 -0.14743168182E+02  0.73327326566E+02  0.00000000000E+00 0.  1.
         -3    1    6    6    0  502  0.80001286906E+02  0.11295292867E+03  0.15039133523E+03  0.20439208329E+03  0.00000000000E+00 0.  1.
<mgrwt>
<rscale>  0 0.25562378E+04</rscale>
<asrwt>0</asrwt>
<pdfrwt beam="1">  1        1 0.22619037E+00 0.25562378E+04</pdfrwt>
<pdfrwt beam="2">  1       -1 0.17093921E+00 0.25562378E+04</pdfrwt>
<totfact> 0.14690696E+00</totfact>
</mgrwt>
</event>
<event>
12    1  0.1562393E-007  0.1779404E+04  0.7818608E-02  0.8717329E-01
         -2   -1    0    0    0  501 -0.00000000000E+00  0.00000000000E+00  0.61609446772E+03  0.61609446772E+03  0.00000000000E+00 0. -1.
          2   -1    0    0  501    0  0.00000000000E+00 -0.00000000000E+00 -0.12848189456E+04  0.12848189456E+04  0.00000000000E+00 0.  1.
         23    2    1    2    0    0 -0.53183206301E+03  0.29969424475E+03 -0.49993988622E+03  0.79466985432E+03  0.94330821880E+02 0.  0.
        254    2    1    2    0    0  0.53183206301E+03 -0.29969424475E+03 -0.16878459164E+03  0.11062435590E+04  0.90698654334E+03 0.  0.
        -24    2    4    4    0    0 -0.45551742823E+02 -0.16425520311E+03  0.29409418188E+03  0.34939487011E+03  0.80812464503E+02 0.  0.
         24    2    4    4    0    0  0.57738380584E+03 -0.13543904163E+03 -0.46287877352E+03  0.75684868886E+03  0.82748931210E+02 0.  0.
         13    1    3    3    0    0 -0.30821380264E+03  0.12797369437E+03 -0.23874640631E+03  0.41033262253E+03  0.00000000000E+00 0.  1.
        -13    1    3    3    0    0 -0.22361826037E+03  0.17172055038E+03 -0.26119347990E+03  0.38433723179E+03  0.00000000000E+00 0. -1.
          2    1    6    6  502    0  0.15531963016E+03 -0.45845891923E+02 -0.17343615845E+03  0.23728913666E+03  0.00000000000E+00 0. -1.
          1    1    5    5  503    0  0.56409251415E+00 -0.11065783744E+03  0.22394915656E+03  0.24979731766E+03  0.00000000000E+00 0. -1.
         -2    1    5    5    0  503 -0.46115835337E+02 -0.53597365679E+02  0.70145025311E+02  0.99597552442E+02  0.00000000000E+00 0.  1.
         -1    1    6    6    0  502  0.42206417568E+03 -0.89593149712E+02 -0.28944261507E+03  0.51955955220E+03  0.00000000000E+00 0.  1.
<mgrwt>
<rscale>  0 0.17794042E+04</rscale>
<asrwt>0</asrwt>
<pdfrwt beam="1">  1        2 0.19766445E+00 0.17794042E+04</pdfrwt>
<pdfrwt beam="2">  1       -2 0.94783764E-01 0.17794042E+04</pdfrwt>
<totfact> 0.14952072E+01</totfact>
</mgrwt>
</event>
<event>
12    1  0.1562393E-007  0.1862848E+04  0.7818608E-02  0.8673574E-01
         -2   -1    0    0    0  501 -0.00000000000E+00  0.00000000000E+00  0.71319184699E+03  0.71319184699E+03  0.00000000000E+00 0. -1.
          2   -1    0    0  501    0  0.00000000000E+00 -0.00000000000E+00 -0.12164335165E+04  0.12164335165E+04  0.00000000000E+00 0.  1.
         23    2    1    2    0    0  0.28901810054E+03  0.35180847795E+03  0.37021193747E+03  0.59395019730E+03  0.91756692564E+02 0.  0.
        254    2    1    2    0    0 -0.28901810054E+03 -0.35180847795E+03 -0.87345360696E+03  0.13356751662E+04  0.90211212075E+03 0.  0.
        -24    2    4    4    0    0 -0.50379348702E+03 -0.51560942417E+03 -0.57682742458E+03  0.92653966775E+03  0.78005911970E+02 0.  0.
         24    2    4    4    0    0  0.21477538648E+03  0.16380094622E+03 -0.29662618238E+03  0.40913549842E+03  0.80284166395E+02 0.  0.
         13    1    3    3    0    0  0.62240351037E+02  0.13517356623E+03  0.93841789291E+02  0.17593190649E+03  0.00000000000E+00 0.  1.
        -13    1    3    3    0    0  0.22677774950E+03  0.21663491172E+03  0.27637014818E+03  0.41801829081E+03  0.00000000000E+00 0. -1.
          2    1    6    6  502    0  0.21530711289E+03  0.17076443535E+03 -0.28925914701E+03  0.39898433474E+03  0.00000000000E+00 0. -1.
          1    1    5    5  503    0 -0.38419816647E+03 -0.43721591486E+03 -0.45876115288E+03  0.74109903705E+03  0.00000000000E+00 0. -1.
         -2    1    5    5    0  503 -0.11959532055E+03 -0.78393509308E+02 -0.11806627170E+03  0.18544063069E+03  0.00000000000E+00 0.  1.
         -1    1    6    6    0  502 -0.53172640849E+00 -0.69634891313E+01 -0.73670353750E+01  0.10151163681E+02  0.00000000000E+00 0.  1.
<mgrwt>
<rscale>  0 0.18628478E+04</rscale>
<asrwt>0</asrwt>
<pdfrwt beam="1">  1        2 0.18714361E+00 0.18628478E+04</pdfrwt>
<pdfrwt beam="2">  1       -2 0.10972182E+00 0.18628478E+04</pdfrwt>
<totfact> 0.11500850E+01</totfact>
</mgrwt>
</event>
<event>
12    1  0.1562393E-007  0.1333275E+04  0.7818608E-02  0.9003586E-01
         -1   -1    0    0    0  501 -0.00000000000E+00  0.00000000000E+00  0.92475858098E+03  0.92475858098E+03  0.00000000000E+00 0.  1.
          1   -1    0    0  501    0  0.00000000000E+00 -0.00000000000E+00 -0.48056368608E+03  0.48056368608E+03  0.00000000000E+00 0. -1.
         23    2    1    2    0    0  0.17128156392E+02 -0.33714690442E+03  0.23118104362E+03  0.41927535148E+03  0.91573667184E+02 0.  0.
        254    2    1    2    0    0 -0.17128156392E+02  0.33714690442E+03  0.21301385128E+03  0.98604691558E+03  0.90163862495E+03 0.  0.
        -24    2    4    4    0    0 -0.35766602084E+03  0.79650907851E+02  0.36748272711E+03  0.52497003670E+03  0.79251089110E+02 0.  0.
         24    2    4    4    0    0  0.34053786445E+03  0.25749599657E+03 -0.15446887582E+03  0.46107687889E+03  0.80380527941E+02 0.  0.
         11    1    3    3    0    0  0.48394260740E+01 -0.13832367181E+03  0.15018384319E+03  0.20423526870E+03  0.00000000000E+00 0.  1.
        -11    1    3    3    0    0  0.12288730318E+02 -0.19882323262E+03  0.80997200430E+02  0.21504008277E+03  0.00000000000E+00 0. -1.
          2    1    6    6  502    0  0.29300973736E+03  0.24497696321E+03 -0.15432359985E+03  0.41192741128E+03  0.00000000000E+00 0. -1.
          1    1    5    5  503    0 -0.23701461564E+03  0.17849930149E+02  0.20986458453E+03  0.31707679176E+03  0.00000000000E+00 0. -1.
         -2    1    5    5    0  503 -0.12065140520E+03  0.61800977703E+02  0.15761814258E+03  0.20789324494E+03  0.00000000000E+00 0.  1.
         -1    1    6    6    0  502  0.47528127091E+02  0.12519033358E+02 -0.14527597151E+00  0.49149467608E+02  0.00000000000E+00 0.  1.
<mgrwt>
<rscale>  0 0.13332748E+04</rscale>
<asrwt>0</asrwt>
<pdfrwt beam="1">  1        1 0.73932875E-01 0.13332748E+04</pdfrwt>
<pdfrwt beam="2">  1       -1 0.14227055E+00 0.13332748E+04</pdfrwt>
<totfact> 0.18437085E+01</totfact>
</mgrwt>
</event>
<event>
12    1  0.1562393E-007  0.2091557E+04  0.7818608E-02  0.8564972E-01
          2   -1    0    0  501    0  0.00000000000E+00  0.00000000000E+00  0.24185244951E+04  0.24185244951E+04  0.00000000000E+00 0.  1.
         -2   -1    0    0    0  501 -0.00000000000E+00 -0.00000000000E+00 -0.45219824683E+03  0.45219824683E+03  0.00000000000E+00 0. -1.
         23    2    1    2    0    0  0.28918972266E+03  0.55036982086E+03  0.13250054841E+02  0.62858070627E+03  0.91654268501E+02 0.  0.
        254    2    1    2    0    0 -0.28918972266E+03 -0.55036982086E+03  0.19530761934E+04  0.22421420356E+04  0.90893160102E+03 0.  0.
        -24    2    4    4    0    0 -0.44153633387E+03 -0.22779537432E+03  0.38934549647E+03  0.63632901617E+03  0.80496176970E+02 0.  0.
         24    2    4    4    0    0  0.15234661121E+03 -0.32257444654E+03  0.15637306969E+04  0.16058130195E+04  0.78217628891E+02 0.  0.
         11    1    3    3    0    0  0.21819622123E+03  0.41849922767E+03 -0.29340069245E+02  0.47287634132E+03  0.00000000000E+00 0. -1.
        -11    1    3    3    0    0  0.70993501427E+02  0.13187059319E+03  0.42590124086E+02  0.15570436494E+03  0.00000000000E+00 0.  1.
          2    1    6    6  502    0  0.11421973770E+03 -0.23061065871E+03  0.12656061583E+04  0.12915054674E+04  0.00000000000E+00 0. -1.
          3    1    5    5  503    0 -0.32504957795E+03 -0.20235665217E+03  0.31504115816E+03  0.49583906073E+03  0.00000000000E+00 0. -1.
         -4    1    5    5    0  503 -0.11648675592E+03 -0.25438722146E+02  0.74304338309E+02  0.14048995544E+03  0.00000000000E+00 0.  1.
         -1    1    6    6    0  502  0.38126873510E+02 -0.91963787826E+02  0.29812453859E+03  0.31430755203E+03  0.00000000000E+00 0.  1.
<mgrwt>
<rscale>  0 0.20915569E+04</rscale>
<asrwt>0</asrwt>
<pdfrwt beam="1">  1        2 0.37208068E+00 0.20915569E+04</pdfrwt>
<pdfrwt beam="2">  1       -2 0.69568962E-01 0.20915569E+04</pdfrwt>
<totfact> 0.67418140E+00</totfact>
</mgrwt>
</event>
<event>
12    1  0.1562393E-007  0.1237058E+04  0.7818608E-02  0.9081024E-01
         -2   -1    0    0    0  501 -0.00000000000E+00  0.00000000000E+00  0.16670924367E+03  0.16670924367E+03  0.00000000000E+00 0.  1.
          2   -1    0    0  501    0  0.00000000000E+00 -0.00000000000E+00 -0.22948821145E+04  0.22948821145E+04  0.00000000000E+00 0. -1.
         23    2    1    2    0    0  0.12031377100E+03  0.24739475001E+03 -0.36684514306E+03  0.46746298540E+03  0.90921493098E+02 0.  0.
        254    2    1    2    0    0 -0.12031377100E+03 -0.24739475001E+03 -0.17613277277E+04  0.19941283727E+04  0.89364032845E+03 0.  0.
        -24    2    4    4    0    0 -0.48002521616E+03 -0.28601809592E+03 -0.10961923103E+04  0.12329443923E+04  0.79270007546E+02 0.  0.
         24    2    4    4    0    0  0.35971144516E+03  0.38623345911E+02 -0.66513541744E+03  0.76118398040E+03  0.78178269749E+02 0.  0.
         13    1    3    3    0    0  0.73734544812E+02  0.55555070643E+02 -0.11727828193E+03  0.14925596935E+03  0.00000000000E+00 0. -1.
        -13    1    3    3    0    0  0.46579226189E+02  0.19183967936E+03 -0.24956686113E+03  0.31820701605E+03  0.00000000000E+00 0.  1.
          4    1    6    6  502    0  0.22584948211E+03 -0.12660667309E+00 -0.34909774761E+03  0.41578509111E+03  0.00000000000E+00 0. -1.
          3    1    5    5  503    0 -0.39988426248E+03 -0.21372878624E+03 -0.93223424579E+03  0.10366523556E+04  0.00000000000E+00 0. -1.
         -4    1    5    5    0  503 -0.80140953676E+02 -0.72289309678E+02 -0.16395806452E+03  0.19629203670E+03  0.00000000000E+00 0.  1.
         -3    1    6    6    0  502  0.13386196305E+03  0.38749952585E+02 -0.31603766983E+03  0.34539888930E+03  0.00000000000E+00 0.  1.
<mgrwt>
<rscale>  0 0.12370579E+04</rscale>
<asrwt>0</asrwt>
<pdfrwt beam="1">  1        2 0.35305877E+00 0.12370579E+04</pdfrwt>
<pdfrwt beam="2">  1       -2 0.25647577E-01 0.12370579E+04</pdfrwt>
<totfact> 0.61735681E+01</totfact>
</mgrwt>
</event>
<event>
12    1  0.1562393E-007  0.3146754E+04  0.7818608E-02  0.8203023E-01
          1   -1    0    0  501    0  0.00000000000E+00  0.00000000000E+00  0.12905048377E+04  0.12905048377E+04  0.00000000000E+00 0. -1.
         -1   -1    0    0    0  501 -0.00000000000E+00 -0.00000000000E+00 -0.19182531866E+04  0.19182531866E+04  0.00000000000E+00 0.  1.
         23    2    1    2    0    0 -0.28721852441E+03 -0.61821012048E+03 -0.15893101778E+04  0.17317672522E+04  0.91829955848E+02 0.  0.
        254    2    1    2    0    0  0.28721852441E+03  0.61821012048E+03  0.96156182893E+03  0.14769907721E+04  0.89006873672E+03 0.  0.
        -24    2    4    4    0    0 -0.12039089083E+03  0.58433908395E+03  0.85788732217E+03  0.10479271963E+04  0.78959607266E+02 0.  0.
         24    2    4    4    0    0  0.40760941525E+03  0.33871036532E+02  0.10367450676E+03  0.42906357577E+03  0.77810450355E+02 0.  0.
         13    1    3    3    0    0 -0.38567363791E+02 -0.76030564647E+02 -0.28624722922E+03  0.29867300605E+03  0.00000000000E+00 0. -1.
        -13    1    3    3    0    0 -0.24865116062E+03 -0.54217955583E+03 -0.13030629486E+04  0.14330942462E+04  0.00000000000E+00 0.  1.
          2    1    6    6  502    0  0.36495435564E+03  0.87260897405E+01  0.78041696990E+02  0.37330729006E+03  0.00000000000E+00 0. -1.
          3    1    5    5  503    0 -0.10456760332E+03  0.56950730005E+03  0.83740480551E+03  0.10180961432E+04  0.00000000000E+00 0. -1.
         -4    1    5    5    0  503 -0.15823287515E+02  0.14831783904E+02  0.20482516668E+02  0.29831053125E+02  0.00000000000E+00 0.  1.
         -1    1    6    6    0  502  0.42655059607E+02  0.25144946791E+02  0.25632809768E+02  0.55756285707E+02  0.00000000000E+00 0.  1.
<mgrwt>
<rscale>  0 0.31467539E+04</rscale>
<asrwt>0</asrwt>
<pdfrwt beam="1">  1        1 0.19853921E+00 0.31467539E+04</pdfrwt>
<pdfrwt beam="2">  1       -1 0.29511587E+00 0.31467539E+04</pdfrwt>
<totfact> 0.27428991E-01</totfact>
</mgrwt>
</event>
<event>
12    1  0.1562393E-007  0.2826257E+04  0.7818608E-02  0.8295163E-01
         -1   -1    0    0    0  501 -0.00000000000E+00  0.00000000000E+00  0.10878727966E+04  0.10878727966E+04  0.00000000000E+00 0.  1.
          1   -1    0    0  501    0  0.00000000000E+00 -0.00000000000E+00 -0.18356301077E+04  0.18356301077E+04  0.00000000000E+00 0. -1.
         23    2    1    2    0    0 -0.71938357409E+02 -0.10561627299E+04  0.39191985702E+03  0.11325018809E+04  0.91129010160E+02 0.  0.
        254    2    1    2    0    0  0.71938357409E+02  0.10561627299E+04 -0.11396771681E+04  0.17910010234E+04  0.88778701213E+03 0.  0.
        -24    2    4    4    0    0  0.42073549052E+03  0.26059863158E+03 -0.32331819854E+03  0.59630283436E+03  0.78181922484E+02 0.  0.
         24    2    4    4    0    0 -0.34879713311E+03  0.79556409837E+03 -0.81635896960E+03  0.11946981891E+04  0.79247214462E+02 0.  0.
         13    1    3    3    0    0  0.31672801290E+01 -0.72428824965E+02  0.47423381708E+01  0.72652984250E+02  0.00000000000E+00 0. -1.
        -13    1    3    3    0    0 -0.75105637538E+02 -0.98373390498E+03  0.38717751885E+03  0.10598488966E+04  0.00000000000E+00 0.  1.
          2    1    6    6  502    0 -0.11329790289E+03  0.33312996640E+03 -0.29623799926E+03  0.45996623954E+03  0.00000000000E+00 0. -1.
          1    1    5    5  503    0  0.13538221391E+03  0.52413153090E+02 -0.67065740600E+02  0.15991652830E+03  0.00000000000E+00 0. -1.
         -2    1    5    5    0  503  0.28535327661E+03  0.20818547849E+03 -0.25625245794E+03  0.43638630606E+03  0.00000000000E+00 0.  1.
         -1    1    6    6    0  502 -0.23549923022E+03  0.46243413197E+03 -0.52012097035E+03  0.73473194952E+03  0.00000000000E+00 0.  1.
<mgrwt>
<rscale>  0 0.28262569E+04</rscale>
<asrwt>0</asrwt>
<pdfrwt beam="1">  1        1 0.28240463E+00 0.28262569E+04</pdfrwt>
<pdfrwt beam="2">  1       -1 0.16736505E+00 0.28262569E+04</pdfrwt>
<totfact> 0.85648871E-01</totfact>
</mgrwt>
</event>
<event>
12    1  0.1562393E-007  0.2609916E+04  0.7818608E-02  0.8364841E-01
          2   -1    0    0  501    0  0.00000000000E+00  0.00000000000E+00  0.14064309903E+04  0.14064309903E+04  0.00000000000E+00 0. -1.
         -2   -1    0    0    0  501 -0.00000000000E+00 -0.00000000000E+00 -0.12108061276E+04  0.12108061276E+04  0.00000000000E+00 0.  1.
         23    2    1    2    0    0 -0.34746296615E+03 -0.93621150518E+03 -0.47078676057E+03  0.11077555514E+04  0.90882849773E+02 0.  0.
        254    2    1    2    0    0  0.34746296615E+03  0.93621150518E+03  0.66641162329E+03  0.15094815665E+04  0.91499052051E+03 0.  0.
        -24    2    4    4    0    0 -0.18446877057E+03  0.23086155997E+03  0.53114959785E+03  0.61210517168E+03  0.72298400493E+02 0.  0.
         24    2    4    4    0    0  0.53193173672E+03  0.70534994521E+03  0.13526202544E+03  0.89737639480E+03  0.80738223235E+02 0.  0.
         11    1    3    3    0    0 -0.30058341267E+03 -0.76976014664E+03 -0.35347076333E+03  0.89878954814E+03  0.00000000000E+00 0. -1.
        -11    1    3    3    0    0 -0.46879553482E+02 -0.16645135854E+03 -0.11731599724E+03  0.20896600322E+03  0.00000000000E+00 0.  1.
          4    1    6    6  502    0  0.47237546110E+03  0.58283396164E+03  0.12705054889E+03  0.76090462284E+03  0.00000000000E+00 0. -1.
          1    1    5    5  503    0 -0.14965864510E+03  0.13252127573E+03  0.35091327716E+03  0.40385607171E+03  0.00000000000E+00 0. -1.
         -2    1    5    5    0  503 -0.34810125467E+02  0.98340284244E+02  0.18023632069E+03  0.20824909997E+03  0.00000000000E+00 0.  1.
         -3    1    6    6    0  502  0.59556275622E+02  0.12251598357E+03  0.82114765536E+01  0.13647177196E+03  0.00000000000E+00 0.  1.
<mgrwt>
<rscale>  0 0.26099159E+04</rscale>
<asrwt>0</asrwt>
<pdfrwt beam="1">  1        2 0.21637400E+00 0.26099159E+04</pdfrwt>
<pdfrwt beam="2">  1       -2 0.18627787E+00 0.26099159E+04</pdfrwt>
<totfact> 0.20829744E+00</totfact>
</mgrwt>
</event>
<event>
12    1  0.1562393E-007  0.1699184E+04  0.7818608E-02  0.8761830E-01
         -2   -1    0    0    0  501 -0.00000000000E+00  0.00000000000E+00  0.88054644535E+03  0.88054644535E+03  0.00000000000E+00 0.  1.
          2   -1    0    0  501    0  0.00000000000E+00 -0.00000000000E+00 -0.81972585090E+03  0.81972585090E+03  0.00000000000E+00 0. -1.
         23    2    1    2    0    0 -0.20556963513E+02  0.54503050806E+03  0.28029192110E+03  0.61975884244E+03  0.89758666945E+02 0.  0.
        254    2    1    2    0    0  0.20556963513E+02 -0.54503050806E+03 -0.21947132666E+03  0.10805134538E+04  0.90656539597E+03 0.  0.
        -24    2    4    4    0    0 -0.13265426767E+03  0.18200128748E+03  0.11079172568E+03  0.26359661231E+03  0.80540326327E+02 0.  0.
         24    2    4    4    0    0  0.15321123118E+03 -0.72703179554E+03 -0.33026305234E+03  0.81691684150E+03  0.78933700685E+02 0.  0.
         13    1    3    3    0    0  0.67785385013E+01  0.46616537433E+00  0.73486229580E+01  0.10008404156E+02  0.00000000000E+00 0. -1.
        -13    1    3    3    0    0 -0.27335502015E+02  0.54456434268E+03  0.27294329814E+03  0.60975043829E+03  0.00000000000E+00 0.  1.
          4    1    6    6  502    0  0.27667405271E+02 -0.41869178178E+02 -0.29281473649E+02  0.58102651358E+02  0.00000000000E+00 0. -1.
          3    1    5    5  503    0 -0.93216633420E+02  0.89351516763E+02  0.25463332483E+02  0.13161084908E+03  0.00000000000E+00 0. -1.
         -4    1    5    5    0  503 -0.39437634250E+02  0.92649770717E+02  0.85328393198E+02  0.13198576323E+03  0.00000000000E+00 0.  1.
         -3    1    6    6    0  502  0.12554382591E+03 -0.68516261736E+03 -0.30098157869E+03  0.75881419014E+03  0.00000000000E+00 0.  1.
<mgrwt>
<rscale>  0 0.16991841E+04</rscale>
<asrwt>0</asrwt>
<pdfrwt beam="1">  1        2 0.12611167E+00 0.16991841E+04</pdfrwt>
<pdfrwt beam="2">  1       -2 0.13546868E+00 0.16991841E+04</pdfrwt>
<totfact> 0.12403273E+01</totfact>
</mgrwt>
</event>
<event>
12    1  0.1562393E-007  0.1716323E+04  0.7818608E-02  0.8752109E-01
          1   -1    0    0  501    0  0.00000000000E+00  0.00000000000E+00  0.67306019526E+03  0.67306019526E+03  0.00000000000E+00 0. -1.
         -1   -1    0    0    0  501 -0.00000000000E+00 -0.00000000000E+00 -0.10941678538E+04  0.10941678538E+04  0.00000000000E+00 0.  1.
         23    2    1    2    0    0  0.34811568906E+03  0.38086434197E+03 -0.51204411641E+03  0.73232292355E+03  0.88687695068E+02 0.  0.
        254    2    1    2    0    0 -0.34811568906E+03 -0.38086434197E+03  0.90936457859E+02  0.10349051255E+04  0.89247801064E+03 0.  0.
        -24    2    4    4    0    0 -0.59716801912E+02 -0.31132494109E+03 -0.36245845561E+03  0.48725983892E+03  0.74543297524E+02 0.  0.
         24    2    4    4    0    0 -0.28839888715E+03 -0.69539400883E+02  0.45339491347E+03  0.54764528658E+03  0.79616367467E+02 0.  0.
         11    1    3    3    0    0  0.34714446459E+03  0.38426234551E+03 -0.51271321977E+03  0.72872606321E+03  0.00000000000E+00 0.  1.
        -11    1    3    3    0    0  0.97122447257E+00 -0.33980035403E+01  0.66910336005E+00  0.35968603452E+01  0.00000000000E+00 0. -1.
          4    1    6    6  502    0 -0.11238517916E+03 -0.57752213920E+02  0.14473061703E+03  0.19212677641E+03  0.00000000000E+00 0. -1.
          3    1    5    5  503    0 -0.41651391070E+02 -0.59701536052E+02 -0.69387305811E+02  0.10056694284E+03  0.00000000000E+00 0. -1.
         -4    1    5    5    0  503 -0.18065410842E+02 -0.25162340504E+03 -0.29307114980E+03  0.38669289608E+03  0.00000000000E+00 0.  1.
         -3    1    6    6    0  502 -0.17601370799E+03 -0.11787186963E+02  0.30866429645E+03  0.35551851017E+03  0.00000000000E+00 0.  1.
<mgrwt>
<rscale>  0 0.17163226E+04</rscale>
<asrwt>0</asrwt>
<pdfrwt beam="1">  1        1 0.10354772E+00 0.17163226E+04</pdfrwt>
<pdfrwt beam="2">  1       -1 0.16833351E+00 0.17163226E+04</pdfrwt>
<totfact> 0.69541852E+00</totfact>
</mgrwt>
</event>
<event>
12    1  0.1562393E-007  0.2210858E+04  0.7818608E-02  0.8513922E-01
         -2   -1    0    0    0  501 -0.00000000000E+00  0.00000000000E+00  0.29672816021E+03  0.29672816021E+03  0.00000000000E+00 0.  1.
          2   -1    0    0  501    0  0.00000000000E+00 -0.00000000000E+00 -0.41181584483E+04  0.41181584483E+04  0.00000000000E+00 0. -1.
         23    2    1    2    0    0 -0.38567520912E+03  0.55172933860E+02  0.64083493925E+02  0.40840554859E+03  0.10439817224E+03 0.  0.
        254    2    1    2    0    0  0.38567520912E+03 -0.55172933860E+02 -0.38855137820E+04  0.40064810599E+04  0.89603778588E+03 0.  0.
        -24    2    4    4    0    0  0.34354288082E+03  0.25460741302E+03 -0.85985986765E+03  0.96374494070E+03  0.81232216578E+02 0.  0.
         24    2    4    4    0    0  0.42132328298E+02 -0.30978034688E+03 -0.30256539144E+04  0.30427361192E+04  0.76957685080E+02 0.  0.
         13    1    3    3    0    0 -0.36465815702E+02 -0.87964515775E+01 -0.21471384361E+02  0.43222142723E+02  0.00000000000E+00 0. -1.
        -13    1    3    3    0    0 -0.34920939342E+03  0.63969385437E+02  0.85554878287E+02  0.36518340587E+03  0.00000000000E+00 0.  1.
          2    1    6    6  502    0  0.24338509286E+02 -0.24138742569E+03 -0.25956650410E+04  0.26069785686E+04  0.00000000000E+00 0. -1.
          1    1    5    5  503    0  0.19427986672E+03  0.11545292156E+03 -0.52543255792E+03  0.57197326566E+03  0.00000000000E+00 0. -1.
         -2    1    5    5    0  503  0.14926301410E+03  0.13915449146E+03 -0.33442730973E+03  0.39177167504E+03  0.00000000000E+00 0.  1.
         -1    1    6    6    0  502  0.17793819012E+02 -0.68392921188E+02 -0.42998887339E+03  0.43575755060E+03  0.00000000000E+00 0.  1.
<mgrwt>
<rscale>  0 0.22108583E+04</rscale>
<asrwt>0</asrwt>
<pdfrwt beam="1">  1        2 0.63356284E+00 0.22108583E+04</pdfrwt>
<pdfrwt beam="2">  1       -2 0.45650486E-01 0.22108583E+04</pdfrwt>
<totfact> 0.11444603E+00</totfact>
</mgrwt>
</event>
<event>
12    1  0.1562393E-007  0.2056711E+04  0.7818608E-02  0.8580556E-01
         -2   -1    0    0    0  501 -0.00000000000E+00  0.00000000000E+00  0.26881069106E+04  0.26881069106E+04  0.00000000000E+00 0.  1.
          2   -1    0    0  501    0  0.00000000000E+00 -0.00000000000E+00 -0.39340503112E+03  0.39340503112E+03  0.00000000000E+00 0. -1.
         23    2    1    2    0    0 -0.79369647961E+03  0.16995154469E+03  0.78657902437E+03  0.11340737737E+04  0.92623611328E+02 0.  0.
        254    2    1    2    0    0  0.79369647961E+03 -0.16995154469E+03  0.15081228551E+04  0.19474381679E+04  0.92695374357E+03 0.  0.
        -24    2    4    4    0    0  0.33805664944E+03 -0.53494647446E+03  0.87272570424E+03  0.10808773801E+04  0.78712941283E+02 0.  0.
         24    2    4    4    0    0  0.45563983017E+03  0.36499492977E+03  0.63539715083E+03  0.86656078789E+03  0.79806680335E+02 0.  0.
         13    1    3    3    0    0 -0.22163122160E+03  0.11702637618E+02  0.24495303769E+03  0.33054400734E+03  0.00000000000E+00 0.  1.
        -13    1    3    3    0    0 -0.57206525802E+03  0.15824890708E+03  0.54162598668E+03  0.80352976638E+03  0.00000000000E+00 0. -1.
          4    1    6    6  502    0  0.16306760935E+03  0.12328566148E+03  0.16875771293E+03  0.26508407199E+03  0.00000000000E+00 0. -1.
          3    1    5    5  503    0  0.33201997479E+02 -0.35762981833E+02  0.10443164599E+03  0.11527069095E+03  0.00000000000E+00 0. -1.
         -4    1    5    5    0  503  0.30485465196E+03 -0.49918349263E+03  0.76829405824E+03  0.96560668912E+03  0.00000000000E+00 0.  1.
         -3    1    6    6    0  502  0.29257222082E+03  0.24170926828E+03  0.46663943790E+03  0.60147671590E+03  0.00000000000E+00 0.  1.
<mgrwt>
<rscale>  0 0.20567108E+04</rscale>
<asrwt>0</asrwt>
<pdfrwt beam="1">  1        2 0.60523853E-01 0.20567108E+04</pdfrwt>
<pdfrwt beam="2">  1       -2 0.41355490E+00 0.20567108E+04</pdfrwt>
<totfact> 0.45420647E-01</totfact>
</mgrwt>
</event>
<event>
12    1  0.1562393E-007  0.1355598E+04  0.7818608E-02  0.8986601E-01
         -1   -1    0    0    0  501 -0.00000000000E+00  0.00000000000E+00  0.64296090410E+03  0.64296090410E+03  0.00000000000E+00 0.  1.
          1   -1    0    0  501    0  0.00000000000E+00 -0.00000000000E+00 -0.71452515703E+03  0.71452515703E+03  0.00000000000E+00 0. -1.
         23    2    1    2    0    0  0.28796610397E+03  0.16132483228E+03  0.14437546727E+03  0.37108772767E+03  0.88947442541E+02 0.  0.
        254    2    1    2    0    0 -0.28796610397E+03 -0.16132483228E+03 -0.21593972020E+03  0.98639833346E+03  0.90410261085E+03 0.  0.
        -24    2    4    4    0    0 -0.43940363101E+02  0.78926178534E+02 -0.51250138257E+03  0.52657925444E+03  0.80423546957E+02 0.  0.
         24    2    4    4    0    0 -0.24402574087E+03 -0.24025101081E+03  0.29656166237E+03  0.45981907902E+03  0.78839428188E+02 0.  0.
         11    1    3    3    0    0  0.28779914149E+03  0.15748123404E+03  0.15273954272E+03  0.36188126896E+03  0.00000000000E+00 0.  1.
        -11    1    3    3    0    0  0.16696248694E+00  0.38435982358E+01 -0.83640754508E+01  0.92064587121E+01  0.00000000000E+00 0. -1.
          2    1    6    6  502    0 -0.20529797661E+03 -0.20546591746E+03  0.20856950800E+03  0.35758179778E+03  0.00000000000E+00 0. -1.
          3    1    5    5  503    0 -0.31296181143E+02  0.84063769491E+02 -0.50028293473E+03  0.50826093995E+03  0.00000000000E+00 0. -1.
         -4    1    5    5    0  503 -0.12644181958E+02 -0.51375909567E+01 -0.12218447836E+02  0.18318314490E+02  0.00000000000E+00 0.  1.
         -1    1    6    6    0  502 -0.38727764264E+02 -0.34785093353E+02  0.87992154364E+02  0.10223728123E+03  0.00000000000E+00 0.  1.
<mgrwt>
<rscale>  0 0.13555984E+04</rscale>
<asrwt>0</asrwt>
<pdfrwt beam="1">  1        1 0.10992695E+00 0.13555984E+04</pdfrwt>
<pdfrwt beam="2">  1       -1 0.98917062E-01 0.13555984E+04</pdfrwt>
<totfact> 0.25252877E+01</totfact>
</mgrwt>
</event>
<event>
12    1  0.1562393E-007  0.1649825E+04  0.7818608E-02  0.8790510E-01
         -1   -1    0    0    0  501 -0.00000000000E+00  0.00000000000E+00  0.53291238635E+03  0.53291238635E+03  0.00000000000E+00 0.  1.
          1   -1    0    0  501    0  0.00000000000E+00 -0.00000000000E+00 -0.12769089267E+04  0.12769089267E+04  0.00000000000E+00 0. -1.
         23    2    1    2    0    0  0.97173705625E+02  0.53407185168E+03 -0.45408620368E+03  0.71903394116E+03  0.12704352145E+03 0.  0.
        254    2    1    2    0    0 -0.97173705625E+02 -0.53407185168E+03 -0.28991033666E+03  0.10907873719E+04  0.90060735924E+03 0.  0.
        -24    2    4    4    0    0  0.47516898169E+02  0.23504860487E+03 -0.13994137432E+03  0.28988692382E+03  0.83337495115E+02 0.  0.
         24    2    4    4    0    0 -0.14469060379E+03 -0.76912045655E+03 -0.14996896234E+03  0.80090044806E+03  0.80431278316E+02 0.  0.
         13    1    3    3    0    0  0.48390278915E+02  0.17938524687E+03 -0.23392157281E+03  0.29873062802E+03  0.00000000000E+00 0. -1.
        -13    1    3    3    0    0  0.48783426711E+02  0.35468660481E+03 -0.22016463087E+03  0.42030331314E+03  0.00000000000E+00 0.  1.
          2    1    6    6  502    0 -0.87940002819E+02 -0.60192135222E+03 -0.93061611620E+02  0.61538867548E+03  0.00000000000E+00 0. -1.
          3    1    5    5  503    0  0.35802745661E+01  0.97023103357E+02 -0.10055673166E+03  0.13977824306E+03  0.00000000000E+00 0. -1.
         -4    1    5    5    0  503  0.43936623603E+02  0.13802550151E+03 -0.39384642657E+02  0.15010868076E+03  0.00000000000E+00 0.  1.
         -1    1    6    6    0  502 -0.56750600975E+02 -0.16719910433E+03 -0.56907350724E+02  0.18551177258E+03  0.00000000000E+00 0.  1.
<mgrwt>
<rscale>  0 0.16498249E+04</rscale>
<asrwt>0</asrwt>
<pdfrwt beam="1">  1        1 0.19644752E+00 0.16498249E+04</pdfrwt>
<pdfrwt beam="2">  1       -1 0.81986523E-01 0.16498249E+04</pdfrwt>
<totfact> 0.13292198E+01</totfact>
</mgrwt>
</event>
<event>
12    1  0.1562393E-007  0.1090967E+04  0.7818608E-02  0.9214041E-01
         -1   -1    0    0    0  501 -0.00000000000E+00  0.00000000000E+00  0.21619313727E+03  0.21619313727E+03  0.00000000000E+00 0.  1.
          1   -1    0    0  501    0  0.00000000000E+00 -0.00000000000E+00 -0.13763249679E+04  0.13763249679E+04  0.00000000000E+00 0. -1.
         23    2    1    2    0    0 -0.39472658254E+02 -0.16937533971E+03 -0.20773899493E+03  0.28670904568E+03  0.93810929061E+02 0.  0.
        254    2    1    2    0    0  0.39472658254E+02  0.16937533971E+03 -0.95239283572E+03  0.13058090595E+04  0.87626428086E+03 0.  0.
        -24    2    4    4    0    0  0.29373661851E+02 -0.34991639958E+03 -0.30136167412E+03  0.46914884435E+03  0.77314169599E+02 0.  0.
         24    2    4    4    0    0  0.10098996403E+02  0.51929173928E+03 -0.65103116160E+03  0.83666021516E+03  0.79955250254E+02 0.  0.
         11    1    3    3    0    0 -0.12315755110E+02 -0.14776074943E+03 -0.11486193830E+03  0.18755847559E+03  0.00000000000E+00 0.  1.
        -11    1    3    3    0    0 -0.27156903144E+02 -0.21614590275E+02 -0.92877056629E+02  0.99150570090E+02  0.00000000000E+00 0. -1.
          2    1    6    6  502    0 -0.11176017887E+01  0.28651443208E+03 -0.42067730985E+03  0.50898051814E+03  0.00000000000E+00 0. -1.
          1    1    5    5  503    0  0.65886713393E+01 -0.28475444264E+03 -0.20641793013E+03  0.35176251232E+03  0.00000000000E+00 0. -1.
         -2    1    5    5    0  503  0.22784990511E+02 -0.65161956936E+02 -0.94943743988E+02  0.11738633203E+03  0.00000000000E+00 0.  1.
         -1    1    6    6    0  502  0.11216598192E+02  0.23277730720E+03 -0.23035385175E+03  0.32767969702E+03  0.00000000000E+00 0.  1.
<mgrwt>
<rscale>  0 0.10909666E+04</rscale>
<asrwt>0</asrwt>
<pdfrwt beam="1">  1        1 0.21174231E+00 0.10909666E+04</pdfrwt>
<pdfrwt beam="2">  1       -1 0.33260482E-01 0.10909666E+04</pdfrwt>
<totfact> 0.67627781E+01</totfact>
</mgrwt>
</event>
<event>
12    1  0.1562393E-007  0.1867162E+04  0.7818608E-02  0.8671377E-01
         -1   -1    0    0    0  501 -0.00000000000E+00  0.00000000000E+00  0.90226030652E+03  0.90226030652E+03  0.00000000000E+00 0.  1.
          1   -1    0    0  501    0  0.00000000000E+00 -0.00000000000E+00 -0.96598935200E+03  0.96598935200E+03  0.00000000000E+00 0. -1.
         23    2    1    2    0    0  0.35006942523E+03 -0.30581281168E+03 -0.56166339687E+03  0.73491730253E+03  0.92561287306E+02 0.  0.
        254    2    1    2    0    0 -0.35006942523E+03  0.30581281168E+03  0.49793435139E+03  0.11333323560E+04  0.90577786051E+03 0.  0.
        -24    2    4    4    0    0 -0.45542571768E+03  0.70121095231E+02 -0.99840229251E+02  0.47827976156E+03  0.80336209883E+02 0.  0.
         24    2    4    4    0    0  0.10535629245E+03  0.23569171645E+03  0.59777458064E+03  0.65505259444E+03  0.71476700093E+02 0.  0.
         13    1    3    3    0    0  0.26135496866E+03 -0.17446734924E+03 -0.34795538998E+03  0.46884776742E+03  0.00000000000E+00 0. -1.
        -13    1    3    3    0    0  0.88714456569E+02 -0.13134546244E+03 -0.21370800689E+03  0.26606953511E+03  0.00000000000E+00 0.  1.
          4    1    6    6  502    0  0.56998718590E+02  0.19673355205E+03  0.43415633772E+03  0.48004652900E+03  0.00000000000E+00 0. -1.
          3    1    5    5  503    0 -0.43384224403E+03  0.83326062582E+02 -0.88485922139E+02  0.45054642805E+03  0.00000000000E+00 0. -1.
         -4    1    5    5    0  503 -0.21583473649E+02 -0.13204967351E+02 -0.11354307113E+02  0.27733333509E+02  0.00000000000E+00 0.  1.
         -3    1    6    6    0  502  0.48357573863E+02  0.38958164405E+02  0.16361824292E+03  0.17500606544E+03  0.00000000000E+00 0.  1.
<mgrwt>
<rscale>  0 0.18671624E+04</rscale>
<asrwt>0</asrwt>
<pdfrwt beam="1">  1        1 0.14861375E+00 0.18671624E+04</pdfrwt>
<pdfrwt beam="2">  1       -1 0.13880928E+00 0.18671624E+04</pdfrwt>
<totfact> 0.64734087E+00</totfact>
</mgrwt>
</event>
<event>
12    1  0.1562393E-007  0.1481608E+04  0.7818608E-02  0.8896776E-01
          2   -1    0    0  501    0  0.00000000000E+00  0.00000000000E+00  0.10139686483E+04  0.10139686483E+04  0.00000000000E+00 0.  1.
         -2   -1    0    0    0  501 -0.00000000000E+00 -0.00000000000E+00 -0.54123054397E+03  0.54123054397E+03  0.00000000000E+00 0. -1.
         23    2    1    2    0    0  0.14657807199E+03 -0.30302748473E+02 -0.31001778351E+03  0.35672906395E+03  0.93494444880E+02 0.  0.
        254    2    1    2    0    0 -0.14657807199E+03  0.30302748473E+02  0.78275588784E+03  0.11984701283E+04  0.89510920047E+03 0.  0.
        -24    2    4    4    0    0  0.32231844952E+03 -0.17545061238E+03  0.22826348230E+03  0.43943972821E+03  0.79567311707E+02 0.  0.
         24    2    4    4    0    0 -0.46889652150E+03  0.20575336085E+03  0.55449240554E+03  0.75903040011E+03  0.80417206564E+02 0.  0.
         13    1    3    3    0    0  0.10539599045E+03 -0.63593667034E+02 -0.22785621794E+03  0.25898055012E+03  0.00000000000E+00 0. -1.
        -13    1    3    3    0    0  0.41182081540E+02  0.33290918561E+02 -0.82161565572E+02  0.97748513829E+02  0.00000000000E+00 0.  1.
          4    1    6    6  502    0 -0.12352102233E+02 -0.65859507092E+01  0.22858195776E+02  0.26803848426E+02  0.00000000000E+00 0. -1.
          3    1    5    5  503    0  0.30316159917E+02 -0.88297196205E+01 -0.24861415988E+01  0.31673559964E+02  0.00000000000E+00 0. -1.
         -4    1    5    5    0  503  0.29200228960E+03 -0.16662089276E+03  0.23074962390E+03  0.40776616824E+03  0.00000000000E+00 0.  1.
         -3    1    6    6    0  502 -0.45654441927E+03  0.21233931156E+03  0.53163420977E+03  0.73222655169E+03  0.00000000000E+00 0.  1.
<mgrwt>
<rscale>  0 0.14816083E+04</rscale>
<asrwt>0</asrwt>
<pdfrwt beam="1">  1        2 0.15599518E+00 0.14816083E+04</pdfrwt>
<pdfrwt beam="2">  1       -2 0.83266237E-01 0.14816083E+04</pdfrwt>
<totfact> 0.30151734E+01</totfact>
</mgrwt>
</event>
<event>
12    1  0.1562393E-007  0.1379976E+04  0.7818608E-02  0.8968442E-01
         -2   -1    0    0    0  501 -0.00000000000E+00  0.00000000000E+00  0.21250581227E+03  0.21250581227E+03  0.00000000000E+00 0.  1.
          2   -1    0    0  501    0  0.00000000000E+00 -0.00000000000E+00 -0.22403308833E+04  0.22403308833E+04  0.00000000000E+00 0. -1.
         23    2    1    2    0    0 -0.58663786915E+02  0.18347328647E+03 -0.11642910408E+04  0.11835476624E+04  0.90041960778E+02 0.  0.
        254    2    1    2    0    0  0.58663786915E+02 -0.18347328647E+03 -0.86353403023E+03  0.12692890332E+04  0.91010974154E+03 0.  0.
        -24    2    4    4    0    0  0.11411489609E+03  0.12856702612E+03  0.12582403211E+03  0.22735363531E+03  0.79412207610E+02 0.  0.
         24    2    4    4    0    0 -0.55451109175E+02 -0.31204031259E+03 -0.98935806234E+03  0.10419353979E+04  0.79724623832E+02 0.  0.
         13    1    3    3    0    0  0.18247953174E+02  0.75488208471E+02 -0.34798064300E+03  0.35654170207E+03  0.00000000000E+00 0.  1.
        -13    1    3    3    0    0 -0.76911740089E+02  0.10798507800E+03 -0.81631039777E+03  0.82700596029E+03  0.00000000000E+00 0. -1.
          4    1    6    6  502    0 -0.33287655488E+02 -0.27500421649E+03 -0.76854385595E+03  0.81694249835E+03  0.00000000000E+00 0. -1.
          1    1    5    5  503    0  0.10638158075E+03  0.67543925919E+02  0.98989033035E+02  0.16024372472E+03  0.00000000000E+00 0. -1.
         -2    1    5    5    0  503  0.77333153436E+01  0.61023100197E+02  0.26834999072E+02  0.67109910587E+02  0.00000000000E+00 0.  1.
         -3    1    6    6    0  502 -0.22163453686E+02 -0.37036096098E+02 -0.22081420639E+03  0.22499289952E+03  0.00000000000E+00 0.  1.
<mgrwt>
<rscale>  0 0.13799758E+04</rscale>
<asrwt>0</asrwt>
<pdfrwt beam="1">  1        2 0.34466628E+00 0.13799758E+04</pdfrwt>
<pdfrwt beam="2">  1       -2 0.32693202E-01 0.13799758E+04</pdfrwt>
<totfact> 0.41745055E+01</totfact>
</mgrwt>
</event>
<event>
12    1  0.1562393E-007  0.1519206E+04  0.7818608E-02  0.8871781E-01
          1   -1    0    0  501    0  0.00000000000E+00  0.00000000000E+00  0.16976657090E+04  0.16976657090E+04  0.00000000000E+00 0. -1.
         -1   -1    0    0    0  501 -0.00000000000E+00 -0.00000000000E+00 -0.33987642198E+03  0.33987642198E+03  0.00000000000E+00 0.  1.
         23    2    1    2    0    0 -0.23998090562E+03 -0.36884900472E+03  0.15874261429E+03  0.47672976054E+03  0.91823873022E+02 0.  0.
        254    2    1    2    0    0  0.23998090562E+03  0.36884900472E+03  0.11990466728E+04  0.15608123705E+04  0.89709637665E+03 0.  0.
        -24    2    4    4    0    0  0.40970083099E+03  0.29131476666E+03  0.12503419729E+04  0.13499101050E+04  0.78633188170E+02 0.  0.
         24    2    4    4    0    0 -0.16971992537E+03  0.77534238052E+02 -0.51295300146E+02  0.21090226543E+03  0.83857895307E+02 0.  0.
         13    1    3    3    0    0 -0.15950188208E+03 -0.23917045913E+03  0.14900146473E+03  0.32379746046E+03  0.00000000000E+00 0. -1.
        -13    1    3    3    0    0 -0.80479023534E+02 -0.12967854558E+03  0.97411495575E+01  0.15293230008E+03  0.00000000000E+00 0.  1.
          2    1    6    6  502    0 -0.48880597641E+02  0.22707234899E+02 -0.56526349638E+02  0.78103518141E+02  0.00000000000E+00 0. -1.
          1    1    5    5  503    0  0.10830735122E+03  0.76387095419E+02  0.24447371367E+03  0.27808787703E+03  0.00000000000E+00 0. -1.
         -2    1    5    5    0  503  0.30139347977E+03  0.21492767125E+03  0.10058682592E+04  0.10718222280E+04  0.00000000000E+00 0.  1.
         -1    1    6    6    0  502 -0.12083932773E+03  0.54827003153E+02  0.52310494920E+01  0.13279874729E+03  0.00000000000E+00 0.  1.
<mgrwt>
<rscale>  0 0.15192058E+04</rscale>
<asrwt>0</asrwt>
<pdfrwt beam="1">  1        1 0.26117933E+00 0.15192058E+04</pdfrwt>
<pdfrwt beam="2">  1       -1 0.52288681E-01 0.15192058E+04</pdfrwt>
<totfact> 0.17022158E+01</totfact>
</mgrwt>
</event>
<event>
12    1  0.1562393E-007  0.1421123E+04  0.7818608E-02  0.8938669E-01
          2   -1    0    0  501    0  0.00000000000E+00  0.00000000000E+00  0.54344688032E+03  0.54344688032E+03  0.00000000000E+00 0. -1.
         -2   -1    0    0    0  501 -0.00000000000E+00 -0.00000000000E+00 -0.92906498216E+03  0.92906498216E+03  0.00000000000E+00 0.  1.
         23    2    1    2    0    0  0.12437363053E+03 -0.91763276448E+02 -0.52381293461E+03  0.55365076225E+03  0.90883866592E+02 0.  0.
        254    2    1    2    0    0 -0.12437363053E+03  0.91763276448E+02  0.13819483277E+03  0.91886110022E+03  0.89516401336E+03 0.  0.
        -24    2    4    4    0    0 -0.38413713155E+03  0.23817874736E+03 -0.16391548629E+03  0.48714403550E+03  0.78425589882E+02 0.  0.
         24    2    4    4    0    0  0.25976350102E+03 -0.14641547091E+03  0.30211031906E+03  0.43171706472E+03  0.78704590114E+02 0.  0.
         13    1    3    3    0    0  0.53427042745E+02 -0.18040171592E+02 -0.32704843520E+03  0.33187433714E+03  0.00000000000E+00 0.  1.
        -13    1    3    3    0    0  0.70946587780E+02 -0.73723104856E+02 -0.19676449941E+03  0.22177642511E+03  0.00000000000E+00 0. -1.
          2    1    6    6  502    0  0.21942162659E+03 -0.15100796190E+03  0.27527560406E+03  0.38304818621E+03  0.00000000000E+00 0. -1.
          1    1    5    5  503    0 -0.22478103589E+03  0.18067806767E+03 -0.11815704938E+03  0.31166033843E+03  0.00000000000E+00 0. -1.
         -2    1    5    5    0  503 -0.15935609566E+03  0.57500679693E+02 -0.45758436908E+02  0.17548369707E+03  0.00000000000E+00 0.  1.
         -3    1    6    6    0  502  0.40341874432E+02  0.45924909864E+01  0.26834715003E+02  0.48668878510E+02  0.00000000000E+00 0.  1.
<mgrwt>
<rscale>  0 0.14211227E+04</rscale>
<asrwt>0</asrwt>
<pdfrwt beam="1">  1        2 0.83607212E-01 0.14211227E+04</pdfrwt>
<pdfrwt beam="2">  1       -2 0.14293307E+00 0.14211227E+04</pdfrwt>
<totfact> 0.18450722E+01</totfact>
</mgrwt>
</event>
<event>
12    1  0.1562393E-007  0.1848702E+04  0.7818608E-02  0.8680821E-01
         -2   -1    0    0    0  501 -0.00000000000E+00  0.00000000000E+00  0.17986062497E+04  0.17986062497E+04  0.00000000000E+00 0.  1.
          2   -1    0    0  501    0  0.00000000000E+00 -0.00000000000E+00 -0.47504805996E+03  0.47504805996E+03  0.00000000000E+00 0. -1.
         23    2    1    2    0    0 -0.39182188751E+03 -0.13102357363E+03 -0.19142610147E+03  0.46456096939E+03  0.92094373204E+02 0.  0.
        254    2    1    2    0    0  0.39182188751E+03  0.13102357363E+03  0.15149842912E+04  0.18090933403E+04  0.89830381433E+03 0.  0.
        -24    2    4    4    0    0  0.73120416034E+02  0.47155033181E+03  0.53860934558E+03  0.72409805988E+03  0.80694872840E+02 0.  0.
         24    2    4    4    0    0  0.31870147148E+03 -0.34052675818E+03  0.97637494563E+03  0.10849952804E+04  0.79860021742E+02 0.  0.
         13    1    3    3    0    0 -0.35373403955E+03 -0.93749648794E+02 -0.18734174713E+03  0.41111275534E+03  0.00000000000E+00 0. -1.
        -13    1    3    3    0    0 -0.38087847965E+02 -0.37273924832E+02 -0.40843543426E+01  0.53448214052E+02  0.00000000000E+00 0.  1.
          4    1    6    6  502    0  0.57797863751E+02 -0.26007206077E+02  0.10688609290E+03  0.12426425342E+03  0.00000000000E+00 0. -1.
          1    1    5    5  503    0 -0.74691995354E+01  0.25900691593E+01  0.62488993996E+01  0.10077010651E+02  0.00000000000E+00 0. -1.
         -2    1    5    5    0  503  0.80589615569E+02  0.46896026265E+03  0.53236044618E+03  0.71402104923E+03  0.00000000000E+00 0.  1.
         -3    1    6    6    0  502  0.26090360773E+03 -0.31451955211E+03  0.86948885272E+03  0.96073102698E+03  0.00000000000E+00 0.  1.
<mgrwt>
<rscale>  0 0.18487016E+04</rscale>
<asrwt>0</asrwt>
<pdfrwt beam="1">  1        2 0.73084318E-01 0.18487016E+04</pdfrwt>
<pdfrwt beam="2">  1       -2 0.27670865E+00 0.18487016E+04</pdfrwt>
<totfact> 0.27121903E+00</totfact>
</mgrwt>
</event>
<event>
12    1  0.1562393E-007  0.2856851E+04  0.7818608E-02  0.8285832E-01
          1   -1    0    0  501    0  0.00000000000E+00  0.00000000000E+00  0.19337647357E+04  0.19337647357E+04  0.00000000000E+00 0. -1.
         -1   -1    0    0    0  501 -0.00000000000E+00 -0.00000000000E+00 -0.10551437238E+04  0.10551437238E+04  0.00000000000E+00 0.  1.
         23    2    1    2    0    0  0.87702076594E+03  0.79531292137E+03 -0.12629162937E+03  0.11942591518E+04  0.92829301585E+02 0.  0.
        254    2    1    2    0    0 -0.87702076594E+03 -0.79531292137E+03  0.10049126413E+04  0.17946493077E+04  0.89957137251E+03 0.  0.
        -24    2    4    4    0    0 -0.44675891919E+03 -0.43548493435E+03 -0.13613370453E+02  0.62914981277E+03  0.80021891612E+02 0.  0.
         24    2    4    4    0    0 -0.43026184675E+03 -0.35982798703E+03  0.10185260117E+04  0.11654994949E+04  0.79952480156E+02 0.  0.
         13    1    3    3    0    0  0.23023490405E+03  0.15618727383E+03 -0.34534647288E+02  0.28034838578E+03  0.00000000000E+00 0. -1.
        -13    1    3    3    0    0  0.64678586189E+03  0.63912564755E+03 -0.91756982084E+02  0.91391076602E+03  0.00000000000E+00 0.  1.
          4    1    6    6  502    0 -0.48787291188E+02 -0.78214485625E+02  0.17800956862E+03  0.20046224598E+03  0.00000000000E+00 0. -1.
          1    1    5    5  503    0 -0.25832275463E+03 -0.22053933978E+03  0.25604877771E+02  0.34062274692E+03  0.00000000000E+00 0. -1.
         -4    1    5    5    0  503 -0.18843616455E+03 -0.21494559457E+03 -0.39218248224E+02  0.28852706585E+03  0.00000000000E+00 0.  1.
         -3    1    6    6    0  502 -0.38147455556E+03 -0.28161350140E+03  0.84051644312E+03  0.96503724895E+03  0.00000000000E+00 0.  1.
<mgrwt>
<rscale>  0 0.28568512E+04</rscale>
<asrwt>0</asrwt>
<pdfrwt beam="1">  1        1 0.29750227E+00 0.28568512E+04</pdfrwt>
<pdfrwt beam="2">  1       -1 0.16232980E+00 0.28568512E+04</pdfrwt>
<totfact> 0.79902747E-01</totfact>
</mgrwt>
</event>
<event>
12    1  0.1562393E-007  0.1516554E+04  0.7818608E-02  0.8873519E-01
         -2   -1    0    0    0  501 -0.00000000000E+00  0.00000000000E+00  0.87596008367E+03  0.87596008367E+03  0.00000000000E+00 0.  1.
          2   -1    0    0  501    0  0.00000000000E+00 -0.00000000000E+00 -0.65640442908E+03  0.65640442908E+03  0.00000000000E+00 0. -1.
         23    2    1    2    0    0 -0.47010855870E+03 -0.11495982446E+03  0.13084117150E+03  0.50931347932E+03  0.89794152672E+02 0.  0.
        254    2    1    2    0    0  0.47010855870E+03  0.11495982446E+03  0.88714483098E+02  0.10230510334E+04  0.89696451395E+03 0.  0.
        -24    2    4    4    0    0  0.10434914248E+03 -0.10518936904E+03 -0.36075086065E+03  0.39806569245E+03  0.79759420478E+02 0.  0.
         24    2    4    4    0    0  0.36575941623E+03  0.22014919350E+03  0.44946534374E+03  0.62498534098E+03  0.79636444240E+02 0.  0.
         11    1    3    3    0    0 -0.46787713663E+03 -0.12043684132E+03  0.13551528686E+03  0.50177528905E+03  0.00000000000E+00 0.  1.
        -11    1    3    3    0    0 -0.22314220725E+01  0.54770168609E+01 -0.46741153610E+01  0.75381902714E+01  0.00000000000E+00 0. -1.
          2    1    6    6  502    0  0.34855454043E+03  0.18446937536E+03  0.40153387409E+03  0.56280429115E+03  0.00000000000E+00 0. -1.
          3    1    5    5  503    0  0.68272337113E+02 -0.98841616565E+02 -0.32657185990E+03  0.34796545354E+03  0.00000000000E+00 0. -1.
         -2    1    5    5    0  503  0.36076805365E+02 -0.63477524774E+01 -0.34179000745E+02  0.50100238909E+02  0.00000000000E+00 0.  1.
         -1    1    6    6    0  502  0.17204875800E+02  0.35679818146E+02  0.47931469657E+02  0.62181049828E+02  0.00000000000E+00 0.  1.
<mgrwt>
<rscale>  0 0.15165541E+04</rscale>
<asrwt>0</asrwt>
<pdfrwt beam="1">  1        2 0.10098530E+00 0.15165541E+04</pdfrwt>
<pdfrwt beam="2">  1       -2 0.13476309E+00 0.15165541E+04</pdfrwt>
<totfact> 0.16979248E+01</totfact>
</mgrwt>
</event>
<event>
12    1  0.1562393E-007  0.3275642E+04  0.7818608E-02  0.8169121E-01
          2   -1    0    0  501    0  0.00000000000E+00  0.00000000000E+00  0.34384675276E+04  0.34384675276E+04  0.00000000000E+00 0. -1.
         -2   -1    0    0    0  501 -0.00000000000E+00 -0.00000000000E+00 -0.78013169335E+03  0.78013169335E+03  0.00000000000E+00 0.  1.
         23    2    1    2    0    0 -0.14845799073E+04  0.28120192307E+03  0.10780915159E+04  0.18584125645E+04  0.91454472816E+02 0.  0.
        254    2    1    2    0    0  0.14845799073E+04 -0.28120192307E+03  0.15802443184E+04  0.23601866564E+04  0.88896396138E+03 0.  0.
        -24    2    4    4    0    0  0.43191369058E+03 -0.46228200360E+03  0.85512917135E+03  0.10667091078E+04  0.79801842695E+02 0.  0.
         24    2    4    4    0    0  0.10526662168E+04  0.18108008053E+03  0.72511514706E+03  0.12934775486E+04  0.79975201201E+02 0.  0.
         11    1    3    3    0    0 -0.19811851352E+02 -0.24685680521E+01  0.49342593840E+01  0.20565753035E+02  0.00000000000E+00 0. -1.
        -11    1    3    3    0    0 -0.14647680560E+04  0.28367049113E+03  0.10731572565E+04  0.18378468115E+04  0.00000000000E+00 0.  1.
          2    1    6    6  502    0  0.69610512987E+03  0.11515525128E+03  0.52374486013E+03  0.87871028345E+03  0.00000000000E+00 0. -1.
          3    1    5    5  503    0  0.65492827415E+02 -0.10253408121E+03  0.12861868495E+03  0.17704607979E+03  0.00000000000E+00 0. -1.
         -4    1    5    5    0  503  0.36642086316E+03 -0.35974792239E+03  0.72651048640E+03  0.88966302804E+03  0.00000000000E+00 0.  1.
         -1    1    6    6    0  502  0.35656108689E+03  0.65924829249E+02  0.20137028693E+03  0.41476726516E+03  0.00000000000E+00 0.  1.
<mgrwt>
<rscale>  0 0.32756419E+04</rscale>
<asrwt>0</asrwt>
<pdfrwt beam="1">  1        2 0.52899499E+00 0.32756419E+04</pdfrwt>
<pdfrwt beam="2">  1       -2 0.12002026E+00 0.32756419E+04</pdfrwt>
<totfact> 0.39797952E-01</totfact>
</mgrwt>
</event>
<event>
12    1  0.1562393E-007  0.1993589E+04  0.7818608E-02  0.8609624E-01
          1   -1    0    0  501    0  0.00000000000E+00  0.00000000000E+00  0.10286311172E+04  0.10286311172E+04  0.00000000000E+00 0. -1.
         -1   -1    0    0    0  501 -0.00000000000E+00 -0.00000000000E+00 -0.96594305350E+03  0.96594305350E+03  0.00000000000E+00 0.  1.
         23    2    1    2    0    0  0.16968983024E+02  0.48904685487E+03 -0.61540782384E+03  0.79142398489E+03  0.90390052458E+02 0.  0.
        254    2    1    2    0    0 -0.16968983024E+02 -0.48904685487E+03  0.67809588755E+03  0.12031501858E+04  0.86504425568E+03 0.  0.
        -24    2    4    4    0    0  0.17743224242E+02  0.23693571688E+02  0.67792972851E+03  0.68320946751E+03  0.79437096867E+02 0.  0.
         24    2    4    4    0    0 -0.34712207266E+02 -0.51274042656E+03  0.16615904434E+00  0.51994071831E+03  0.78934406858E+02 0.  0.
         11    1    3    3    0    0  0.28073919396E+02  0.10060877988E+03 -0.89688608051E+02  0.13767468159E+03  0.00000000000E+00 0. -1.
        -11    1    3    3    0    0 -0.11104936371E+02  0.38843807499E+03 -0.52571921579E+03  0.65374930330E+03  0.00000000000E+00 0.  1.
          4    1    6    6  502    0 -0.94730361634E+01 -0.38162203014E+03 -0.30443751466E+02  0.38295160831E+03  0.00000000000E+00 0. -1.
          3    1    5    5  503    0 -0.69739034354E+01  0.21673704843E+02  0.61708448245E+03  0.61750436702E+03  0.00000000000E+00 0. -1.
         -4    1    5    5    0  503  0.24717127678E+02  0.20198668450E+01  0.60845246061E+02  0.65705100494E+02  0.00000000000E+00 0.  1.
         -3    1    6    6    0  502 -0.25239171103E+02 -0.13111839641E+03  0.30609910511E+02  0.13698911000E+03  0.00000000000E+00 0.  1.
<mgrwt>
<rscale>  0 0.19935888E+04</rscale>
<asrwt>0</asrwt>
<pdfrwt beam="1">  1        1 0.15825094E+00 0.19935888E+04</pdfrwt>
<pdfrwt beam="2">  1       -1 0.14860662E+00 0.19935888E+04</pdfrwt>
<totfact> 0.47737958E+00</totfact>
</mgrwt>
</event>
<event>
12    1  0.1562393E-007  0.1786346E+04  0.7818608E-02  0.8713595E-01
         -2   -1    0    0    0  501 -0.00000000000E+00  0.00000000000E+00  0.46993252947E+03  0.46993252947E+03  0.00000000000E+00 0. -1.
          2   -1    0    0  501    0  0.00000000000E+00 -0.00000000000E+00 -0.16976003430E+04  0.16976003430E+04  0.00000000000E+00 0.  1.
         23    2    1    2    0    0 -0.51888179914E+03 -0.37969900980E+03 -0.67576691839E+03  0.93689116783E+03  0.87718144381E+02 0.  0.
        254    2    1    2    0    0  0.51888179914E+03  0.37969900980E+03 -0.55190089510E+03  0.12306417046E+04  0.89245433922E+03 0.  0.
        -24    2    4    4    0    0  0.37794007404E+03  0.50220959797E+03 -0.72557454992E+03  0.96324424447E+03  0.79547892192E+02 0.  0.
         24    2    4    4    0    0  0.14094172510E+03 -0.12251058817E+03  0.17367365482E+03  0.26739746014E+03  0.80408017156E+02 0.  0.
         13    1    3    3    0    0 -0.17178554415E+03 -0.16729169617E+03 -0.21382789428E+03  0.32127737729E+03  0.00000000000E+00 0. -1.
        -13    1    3    3    0    0 -0.34709625499E+03 -0.21240731363E+03 -0.46193902411E+03  0.61561379054E+03  0.00000000000E+00 0.  1.
          4    1    6    6  502    0  0.12288401742E+03 -0.12617215455E+03  0.12676689097E+03  0.21700170268E+03  0.00000000000E+00 0. -1.
          3    1    5    5  503    0  0.37333278052E+03  0.46872700959E+03 -0.67756586241E+03  0.90453185264E+03  0.00000000000E+00 0. -1.
         -4    1    5    5    0  503  0.46072935180E+01  0.33482588377E+02 -0.48008687512E+02  0.58712391832E+02  0.00000000000E+00 0.  1.
         -3    1    6    6    0  502  0.18057707680E+02  0.36615663761E+01  0.46906763851E+02  0.50395757459E+02  0.00000000000E+00 0.  1.
<mgrwt>
<rscale>  0 0.17863456E+04</rscale>
<asrwt>0</asrwt>
<pdfrwt beam="1">  1        2 0.26116928E+00 0.17863456E+04</pdfrwt>
<pdfrwt beam="2">  1       -2 0.72297313E-01 0.17863456E+04</pdfrwt>
<totfact> 0.16098650E+01</totfact>
</mgrwt>
</event>
<event>
12    1  0.1562393E-007  0.1241053E+04  0.7818608E-02  0.9077663E-01
          2   -1    0    0  501    0  0.00000000000E+00  0.00000000000E+00  0.21429747706E+04  0.21429747706E+04  0.00000000000E+00 0. -1.
         -2   -1    0    0    0  501 -0.00000000000E+00 -0.00000000000E+00 -0.17968159789E+03  0.17968159789E+03  0.00000000000E+00 0.  1.
         23    2    1    2    0    0 -0.18001732267E+03 -0.17786800839E+03  0.36451210599E+03  0.45331156783E+03  0.92623092416E+02 0.  0.
        254    2    1    2    0    0  0.18001732267E+03  0.17786800839E+03  0.15987810667E+04  0.18693448006E+04  0.93504321801E+03 0.  0.
        -24    2    4    4    0    0 -0.37284257677E+03 -0.30297347544E+01  0.63097499125E+03  0.73721742836E+03  0.79619914230E+02 0.  0.
         24    2    4    4    0    0  0.55285989944E+03  0.18089774315E+03  0.96780607543E+03  0.11321273723E+04  0.81766285848E+02 0.  0.
         13    1    3    3    0    0 -0.81719728023E+02 -0.95671090182E+02  0.25660541509E+03  0.28579260050E+03  0.00000000000E+00 0. -1.
        -13    1    3    3    0    0 -0.98297594648E+02 -0.82196918213E+02  0.10790669089E+03  0.16751896734E+03  0.00000000000E+00 0.  1.
          2    1    6    6  502    0  0.48884242601E+02 -0.66513698337E+01  0.92578315416E+02  0.10490307136E+03  0.00000000000E+00 0. -1.
          3    1    5    5  503    0 -0.14640096733E+03 -0.25600573648E+02  0.30967839147E+03  0.34349576235E+03  0.00000000000E+00 0. -1.
         -4    1    5    5    0  503 -0.22644160944E+03  0.22570838894E+02  0.32129659978E+03  0.39372166601E+03  0.00000000000E+00 0.  1.
         -1    1    6    6    0  502  0.50397565684E+03  0.18754911298E+03  0.87522776002E+03  0.10272243009E+04  0.00000000000E+00 0.  1.
<mgrwt>
<rscale>  0 0.12410530E+04</rscale>
<asrwt>0</asrwt>
<pdfrwt beam="1">  1        2 0.32968841E+00 0.12410530E+04</pdfrwt>
<pdfrwt beam="2">  1       -2 0.27643324E-01 0.12410530E+04</pdfrwt>
<totfact> 0.65437696E+01</totfact>
</mgrwt>
</event>
<event>
12    1  0.1562393E-007  0.1144540E+04  0.7818608E-02  0.9162835E-01
          2   -1    0    0  501    0  0.00000000000E+00  0.00000000000E+00  0.51634360819E+03  0.51634360819E+03  0.00000000000E+00 0. -1.
         -2   -1    0    0    0  501 -0.00000000000E+00 -0.00000000000E+00 -0.63425441807E+03  0.63425441807E+03  0.00000000000E+00 0.  1.
         23    2    1    2    0    0  0.22349776955E+02  0.19150014077E+03  0.36707582722E+02  0.21638951067E+03  0.91132635494E+02 0.  0.
        254    2    1    2    0    0 -0.22349776955E+02 -0.19150014077E+03 -0.15461839260E+03  0.93420851559E+03  0.90092557230E+03 0.  0.
        -24    2    4    4    0    0 -0.75263260830E+02  0.19993714503E+03 -0.40138112178E+03  0.46176990602E+03  0.80530868579E+02 0.  0.
         24    2    4    4    0    0  0.52913483875E+02 -0.39143728580E+03  0.24676272918E+03  0.47243860957E+03  0.79267962101E+02 0.  0.
         11    1    3    3    0    0 -0.11077035765E+02  0.24506566587E+02  0.37420056038E+02  0.46081809005E+02  0.00000000000E+00 0. -1.
        -11    1    3    3    0    0  0.33426812720E+02  0.16699357418E+03 -0.71247331638E+00  0.17030770166E+03  0.00000000000E+00 0.  1.
          4    1    6    6  502    0  0.21260059541E+02 -0.35039225695E+03  0.21437372339E+03  0.41131838901E+03  0.00000000000E+00 0. -1.
          1    1    5    5  503    0 -0.75458623285E+02  0.99554774126E+02 -0.25909736432E+03  0.28763970706E+03  0.00000000000E+00 0. -1.
         -2    1    5    5    0  503  0.19536245461E+00  0.10038237090E+03 -0.14228375746E+03  0.17413019896E+03  0.00000000000E+00 0.  1.
         -3    1    6    6    0  502  0.31653424333E+02 -0.41045028850E+02  0.32389005787E+02  0.61120220559E+02  0.00000000000E+00 0.  1.
<mgrwt>
<rscale>  0 0.11445405E+04</rscale>
<asrwt>0</asrwt>
<pdfrwt beam="1">  1        2 0.79437478E-01 0.11445405E+04</pdfrwt>
<pdfrwt beam="2">  1       -2 0.97577602E-01 0.11445405E+04</pdfrwt>
<totfact> 0.51416982E+01</totfact>
</mgrwt>
</event>
<event>
12    1  0.1562393E-007  0.1645316E+04  0.7818608E-02  0.8793183E-01
         -1   -1    0    0    0  501 -0.00000000000E+00  0.00000000000E+00  0.15794559096E+04  0.15794559096E+04  0.00000000000E+00 0.  1.
          1   -1    0    0  501    0  0.00000000000E+00 -0.00000000000E+00 -0.42848038919E+03  0.42848038919E+03  0.00000000000E+00 0. -1.
         23    2    1    2    0    0  0.33185389513E+03  0.39715073351E+03  0.71542926294E+03  0.88760170355E+03  0.90233259013E+02 0.  0.
        254    2    1    2    0    0 -0.33185389513E+03 -0.39715073351E+03  0.43554625749E+03  0.11203345953E+04  0.89308081947E+03 0.  0.
        -24    2    4    4    0    0 -0.56713108861E+03 -0.11200849035E+03  0.58683061852E+02  0.58653190186E+03  0.79952464492E+02 0.  0.
         24    2    4    4    0    0  0.23527719348E+03 -0.28514224316E+03  0.37686319564E+03  0.53380269341E+03  0.79107462721E+02 0.  0.
         13    1    3    3    0    0  0.31102980709E+03  0.38300981368E+03  0.70466285426E+03  0.86022427102E+03  0.00000000000E+00 0.  1.
        -13    1    3    3    0    0  0.20824088035E+02  0.14140919826E+02  0.10766408682E+02  0.27377432529E+02  0.00000000000E+00 0. -1.
          4    1    6    6  502    0  0.44530802202E+02 -0.17349118655E+02  0.33169010141E+02  0.58173597934E+02  0.00000000000E+00 0. -1.
          1    1    5    5  503    0 -0.84436245903E+02 -0.27795276850E+02  0.36346651517E+02  0.96037160068E+02  0.00000000000E+00 0. -1.
         -2    1    5    5    0  503 -0.48269484270E+03 -0.84213213495E+02  0.22336410335E+02  0.49049474179E+03  0.00000000000E+00 0.  1.
         -3    1    6    6    0  502  0.19074639128E+03 -0.26779312451E+03  0.34369418549E+03  0.47562909547E+03  0.00000000000E+00 0.  1.
<mgrwt>
<rscale>  0 0.16453156E+04</rscale>
<asrwt>0</asrwt>
<pdfrwt beam="1">  1        1 0.65920061E-01 0.16453156E+04</pdfrwt>
<pdfrwt beam="2">  1       -1 0.24299321E+00 0.16453156E+04</pdfrwt>
<totfact> 0.40533821E+00</totfact>
</mgrwt>
</event>
<event>
12    1  0.1562393E-007  0.1763928E+04  0.7818608E-02  0.8725721E-01
          2   -1    0    0  501    0  0.00000000000E+00  0.00000000000E+00  0.26131106345E+04  0.26131106345E+04  0.00000000000E+00 0.  1.
         -2   -1    0    0    0  501 -0.00000000000E+00 -0.00000000000E+00 -0.29767615775E+03  0.29767615775E+03  0.00000000000E+00 0. -1.
         23    2    1    2    0    0  0.31246710669E+03  0.55532457715E+03  0.66531389254E+03  0.92587123919E+03  0.92595341157E+02 0.  0.
        254    2    1    2    0    0 -0.31246710669E+03 -0.55532457715E+03  0.16501205842E+04  0.19849155530E+04  0.90053913383E+03 0.  0.
        -24    2    4    4    0    0 -0.43805204723E+03 -0.47709928193E+03  0.16919692948E+04  0.18133618877E+04  0.77510774448E+02 0.  0.
         24    2    4    4    0    0  0.12558494054E+03 -0.78225295223E+02 -0.41848710685E+02  0.17155366531E+03  0.76082661583E+02 0.  0.
         11    1    3    3    0    0  0.19066811795E+03  0.40419221845E+03  0.50290900431E+03  0.67278759447E+03  0.00000000000E+00 0. -1.
        -11    1    3    3    0    0  0.12179898873E+03  0.15113235870E+03  0.16240488823E+03  0.25308364472E+03  0.00000000000E+00 0.  1.
          2    1    6    6  502    0  0.10436655904E+03 -0.24563431822E+02 -0.37879420512E+02  0.11371275798E+03  0.00000000000E+00 0. -1.
          1    1    5    5  503    0 -0.30682662697E+03 -0.33255908647E+03  0.10783002815E+04  0.11693885677E+04  0.00000000000E+00 0. -1.
         -2    1    5    5    0  503 -0.13122542026E+03 -0.14454019546E+03  0.61366901330E+03  0.64397332003E+03  0.00000000000E+00 0.  1.
         -1    1    6    6    0  502  0.21218381503E+02 -0.53661863401E+02 -0.39692901724E+01  0.57840907338E+02  0.00000000000E+00 0.  1.
<mgrwt>
<rscale>  0 0.17639283E+04</rscale>
<asrwt>0</asrwt>
<pdfrwt beam="1">  1        2 0.40201700E+00 0.17639283E+04</pdfrwt>
<pdfrwt beam="2">  1       -2 0.45796334E-01 0.17639283E+04</pdfrwt>
<totfact> 0.12821230E+01</totfact>
</mgrwt>
</event>
<event>
12    1  0.1562393E-007  0.1625374E+04  0.7818608E-02  0.8805110E-01
          2   -1    0    0  501    0  0.00000000000E+00  0.00000000000E+00  0.20987294224E+04  0.20987294224E+04  0.00000000000E+00 0. -1.
         -2   -1    0    0    0  501 -0.00000000000E+00 -0.00000000000E+00 -0.31469534119E+03  0.31469534119E+03  0.00000000000E+00 0.  1.
         23    2    1    2    0    0  0.38434182918E+03  0.18968267957E+03  0.11528531842E+04  0.12332496334E+04  0.90199963017E+02 0.  0.
        254    2    1    2    0    0 -0.38434182918E+03 -0.18968267957E+03  0.63118089701E+03  0.11801751302E+04  0.90040316117E+03 0.  0.
        -24    2    4    4    0    0  0.16975179365E+03 -0.31351716450E+02  0.56319856490E+03  0.59455865116E+03  0.80676914871E+02 0.  0.
         24    2    4    4    0    0 -0.55409362282E+03 -0.15833096312E+03  0.67982332107E+02  0.58561647905E+03  0.78972313666E+02 0.  0.
         11    1    3    3    0    0  0.30949033084E+03  0.14850267673E+03  0.10106539325E+04  0.10673606144E+04  0.00000000000E+00 0. -1.
        -11    1    3    3    0    0  0.74851498332E+02  0.41180002832E+02  0.14219925171E+03  0.16588901899E+03  0.00000000000E+00 0.  1.
          2    1    6    6  502    0 -0.25578397944E+03 -0.11324871032E+03  0.24535709598E+02  0.28080725698E+03  0.00000000000E+00 0. -1.
          3    1    5    5  503    0  0.50741039610E+02  0.12969252350E+02  0.27008982093E+03  0.27512063895E+03  0.00000000000E+00 0. -1.
         -4    1    5    5    0  503  0.11901075404E+03 -0.44320968800E+02  0.29310874397E+03  0.31943801221E+03  0.00000000000E+00 0.  1.
         -1    1    6    6    0  502 -0.29830964339E+03 -0.45082252791E+02  0.43446622509E+02  0.30480922207E+03  0.00000000000E+00 0.  1.
<mgrwt>
<rscale>  0 0.16253743E+04</rscale>
<asrwt>0</asrwt>
<pdfrwt beam="1">  1        2 0.32288144E+00 0.16253743E+04</pdfrwt>
<pdfrwt beam="2">  1       -2 0.48414669E-01 0.16253743E+04</pdfrwt>
<totfact> 0.22771260E+01</totfact>
</mgrwt>
</event>
<event>
12    1  0.1562393E-007  0.1536938E+04  0.7818608E-02  0.8860255E-01
          2   -1    0    0  501    0  0.00000000000E+00  0.00000000000E+00  0.21799028545E+04  0.21799028545E+04  0.00000000000E+00 0.  1.
         -2   -1    0    0    0  501 -0.00000000000E+00 -0.00000000000E+00 -0.27090402337E+03  0.27090402337E+03  0.00000000000E+00 0. -1.
         23    2    1    2    0    0 -0.91481462708E+02 -0.89138425445E+02  0.11877935601E+04  0.11981661364E+04  0.91836986033E+02 0.  0.
        254    2    1    2    0    0  0.91481462708E+02  0.89138425445E+02  0.72120527100E+03  0.12526407415E+04  0.10161974549E+04 0.  0.
        -24    2    4    4    0    0  0.18311396971E+03  0.41030622116E+03  0.28785210587E+01  0.45645409097E+03  0.80374935477E+02 0.  0.
         24    2    4    4    0    0 -0.91632506998E+02 -0.32116779572E+03  0.71832674994E+03  0.79618665051E+03  0.79841050960E+02 0.  0.
         11    1    3    3    0    0 -0.26092364505E+02 -0.52915409802E+02  0.22952656707E+03  0.23698796820E+03  0.00000000000E+00 0. -1.
        -11    1    3    3    0    0 -0.65389098203E+02 -0.36223015643E+02  0.95826699305E+03  0.96117816818E+03  0.00000000000E+00 0.  1.
          2    1    6    6  502    0 -0.47356341293E+01 -0.14472202255E+03  0.26372811049E+03  0.30086443177E+03  0.00000000000E+00 0. -1.
          1    1    5    5  503    0  0.13608340571E+03  0.34535520918E+03  0.28442674117E+02  0.37228738835E+03  0.00000000000E+00 0. -1.
         -4    1    5    5    0  503  0.47030563998E+02  0.64951011984E+02 -0.25564153058E+02  0.84166702616E+02  0.00000000000E+00 0.  1.
         -1    1    6    6    0  502 -0.86896872868E+02 -0.17644577317E+03  0.45459863946E+03  0.49532221874E+03  0.00000000000E+00 0.  1.
<mgrwt>
<rscale>  0 0.15369378E+04</rscale>
<asrwt>0</asrwt>
<pdfrwt beam="1">  1        2 0.33536966E+00 0.15369378E+04</pdfrwt>
<pdfrwt beam="2">  1       -2 0.41677543E-01 0.15369378E+04</pdfrwt>
<totfact> 0.27880884E+01</totfact>
</mgrwt>
</event>
<event>
12    1  0.1562393E-007  0.3070212E+04  0.7818608E-02  0.8223961E-01
          2   -1    0    0  501    0  0.00000000000E+00  0.00000000000E+00  0.14603215047E+04  0.14603215047E+04  0.00000000000E+00 0.  1.
         -2   -1    0    0    0  501 -0.00000000000E+00 -0.00000000000E+00 -0.16137199796E+04  0.16137199796E+04  0.00000000000E+00 0. -1.
         23    2    1    2    0    0 -0.78161985510E+02 -0.81323111087E+03  0.10736154723E+04  0.13523071498E+04  0.92899458060E+02 0.  0.
        254    2    1    2    0    0  0.78161985510E+02  0.81323111087E+03 -0.12270139472E+04  0.17217343346E+04  0.88957953914E+03 0.  0.
        -24    2    4    4    0    0  0.22207686910E+03  0.87018692905E+03 -0.12540926584E+04  0.15445607197E+04  0.79849819923E+02 0.  0.
         24    2    4    4    0    0 -0.14391488359E+03 -0.56955818178E+02  0.27078711181E+02  0.17717361485E+03  0.81864364998E+02 0.  0.
         11    1    3    3    0    0  0.11445447076E+01 -0.70945935336E+02  0.13982600236E+03  0.15679906460E+03  0.00000000000E+00 0. -1.
        -11    1    3    3    0    0 -0.79306530217E+02 -0.74228517554E+03  0.93378946996E+03  0.11955080852E+04  0.00000000000E+00 0.  1.
          4    1    6    6  502    0  0.85569573719E+00  0.11745403070E+02 -0.64959945475E+01  0.13449336550E+02  0.00000000000E+00 0. -1.
          1    1    5    5  503    0  0.63422754459E+02  0.34775786887E+03 -0.44156158319E+03  0.56562762741E+03  0.00000000000E+00 0. -1.
         -2    1    5    5    0  503  0.15865411464E+03  0.52242906018E+03 -0.81253107522E+03  0.97893309231E+03  0.00000000000E+00 0.  1.
         -3    1    6    6    0  502 -0.14477057933E+03 -0.68701221248E+02  0.33574705728E+02  0.16372427830E+03  0.00000000000E+00 0.  1.
<mgrwt>
<rscale>  0 0.30702117E+04</rscale>
<asrwt>0</asrwt>
<pdfrwt beam="1">  1        2 0.22466485E+00 0.30702117E+04</pdfrwt>
<pdfrwt beam="2">  1       -2 0.24826461E+00 0.30702117E+04</pdfrwt>
<totfact> 0.74938764E-01</totfact>
</mgrwt>
</event>
<event>
12    1  0.1562393E-007  0.1237868E+04  0.7818608E-02  0.9080341E-01
         -2   -1    0    0    0  501 -0.00000000000E+00  0.00000000000E+00  0.23524972694E+03  0.23524972694E+03  0.00000000000E+00 0.  1.
          2   -1    0    0  501    0  0.00000000000E+00 -0.00000000000E+00 -0.16283944938E+04  0.16283944938E+04  0.00000000000E+00 0. -1.
         23    2    1    2    0    0 -0.22504783450E+03 -0.11367379474E+03 -0.47134366225E+03  0.54184183407E+03  0.88653628099E+02 0.  0.
        254    2    1    2    0    0  0.22504783450E+03  0.11367379474E+03 -0.92180110460E+03  0.13218023867E+04  0.91316811897E+03 0.  0.
        -24    2    4    4    0    0  0.46683971767E+03 -0.41586430088E+02 -0.15628073848E+03  0.50023337051E+03  0.78364549347E+02 0.  0.
         24    2    4    4    0    0 -0.24179188316E+03  0.15526022482E+03 -0.76552036612E+03  0.82156901615E+03  0.79907228496E+02 0.  0.
         13    1    3    3    0    0 -0.10890753403E+02  0.19151108362E+01  0.35694996825E+00  0.11063614802E+02  0.00000000000E+00 0.  1.
        -13    1    3    3    0    0 -0.21415708110E+03 -0.11558890557E+03 -0.47170061222E+03  0.53077821927E+03  0.00000000000E+00 0. -1.
          4    1    6    6  502    0 -0.21153147275E+03  0.15733868455E+03 -0.72110568871E+03  0.76778541267E+03  0.00000000000E+00 0. -1.
          1    1    5    5  503    0  0.22373636501E+03 -0.51270521576E+02 -0.50989136056E+02  0.23513085592E+03  0.00000000000E+00 0. -1.
         -2    1    5    5    0  503  0.24310335266E+03  0.96840914883E+01 -0.10529160242E+03  0.26510251459E+03  0.00000000000E+00 0.  1.
         -3    1    6    6    0  502 -0.30260410413E+02 -0.20784597219E+01 -0.44414677411E+02  0.53783603475E+02  0.00000000000E+00 0.  1.
<mgrwt>
<rscale>  0 0.12378681E+04</rscale>
<asrwt>0</asrwt>
<pdfrwt beam="1">  1        2 0.25052223E+00 0.12378681E+04</pdfrwt>
<pdfrwt beam="2">  1       -2 0.36192265E-01 0.12378681E+04</pdfrwt>
<totfact> 0.75993176E+01</totfact>
</mgrwt>
</event>
<event>
12    1  0.1562393E-007  0.1769657E+04  0.7818608E-02  0.8722604E-01
          1   -1    0    0  501    0  0.00000000000E+00  0.00000000000E+00  0.10360546238E+04  0.10360546238E+04  0.00000000000E+00 0. -1.
         -1   -1    0    0    0  501 -0.00000000000E+00 -0.00000000000E+00 -0.75567628932E+03  0.75567628932E+03  0.00000000000E+00 0.  1.
         23    2    1    2    0    0  0.34162002842E+03 -0.55624896929E+03  0.66172121128E+02  0.66238478225E+03  0.90871835504E+02 0.  0.
        254    2    1    2    0    0 -0.34162002842E+03  0.55624896929E+03  0.21420621339E+03  0.11293461309E+04  0.89633767180E+03 0.  0.
        -24    2    4    4    0    0 -0.35431265577E+03  0.65813813983E+03 -0.12873057490E+03  0.76262773652E+03  0.79663256648E+02 0.  0.
         24    2    4    4    0    0  0.12692627345E+02 -0.10188917054E+03  0.34293678829E+03  0.36671839438E+03  0.79587902058E+02 0.  0.
         11    1    3    3    0    0  0.15487010937E+03 -0.27147815928E+03  0.76171793056E+02  0.32169439504E+03  0.00000000000E+00 0. -1.
        -11    1    3    3    0    0  0.18674991905E+03 -0.28477081001E+03 -0.99996719281E+01  0.34069038721E+03  0.00000000000E+00 0.  1.
          2    1    6    6  502    0 -0.53834470089E+01 -0.10805263618E+03  0.31337562326E+03  0.33152471242E+03  0.00000000000E+00 0. -1.
          3    1    5    5  503    0 -0.69432955358E+02  0.20184869820E+03 -0.46453682610E+02  0.21845314573E+03  0.00000000000E+00 0. -1.
         -4    1    5    5    0  503 -0.28487970041E+03  0.45628944164E+03 -0.82276892292E+02  0.54417459079E+03  0.00000000000E+00 0.  1.
         -1    1    6    6    0  502  0.18076074354E+02  0.61634656369E+01  0.29561165029E+02  0.35193681970E+02  0.00000000000E+00 0.  1.
<mgrwt>
<rscale>  0 0.17696575E+04</rscale>
<asrwt>0</asrwt>
<pdfrwt beam="1">  1        1 0.15939302E+00 0.17696575E+04</pdfrwt>
<pdfrwt beam="2">  1       -1 0.11625789E+00 0.17696575E+04</pdfrwt>
<totfact> 0.89750598E+00</totfact>
</mgrwt>
</event>
<event>
12    1  0.1562393E-007  0.1819724E+04  0.7818608E-02  0.8695880E-01
          2   -1    0    0  501    0  0.00000000000E+00  0.00000000000E+00  0.15413548691E+04  0.15413548691E+04  0.00000000000E+00 0. -1.
         -2   -1    0    0    0  501 -0.00000000000E+00 -0.00000000000E+00 -0.53709195875E+03  0.53709195875E+03  0.00000000000E+00 0.  1.
         23    2    1    2    0    0 -0.32910043257E+02  0.41706182574E+03  0.99429282700E+03  0.10826930134E+04  0.92640693542E+02 0.  0.
        254    2    1    2    0    0  0.32910043257E+02 -0.41706182574E+03  0.99700833995E+01  0.99575381445E+03  0.90355000913E+03 0.  0.
        -24    2    4    4    0    0  0.43792954730E+03 -0.37137913326E+03 -0.12442309488E+02  0.57979667458E+03  0.79401661029E+02 0.  0.
         24    2    4    4    0    0 -0.40501950405E+03 -0.45682692486E+02  0.22412392888E+02  0.41595713987E+03  0.79939475876E+02 0.  0.
         11    1    3    3    0    0 -0.61685459075E+02  0.34688861379E+03  0.80175979538E+03  0.87575999893E+03  0.00000000000E+00 0. -1.
        -11    1    3    3    0    0  0.28775415819E+02  0.70173211950E+02  0.19253303162E+03  0.20693301452E+03  0.00000000000E+00 0.  1.
          4    1    6    6  502    0 -0.39191576973E+03 -0.41315492617E+02  0.37057637217E+02  0.39582598319E+03  0.00000000000E+00 0. -1.
          3    1    5    5  503    0  0.21969821713E+03 -0.22621897888E+03 -0.32021670558E+02  0.31696643419E+03  0.00000000000E+00 0. -1.
         -4    1    5    5    0  503  0.21823133017E+03 -0.14516015437E+03  0.19579361069E+02  0.26283024039E+03  0.00000000000E+00 0.  1.
         -1    1    6    6    0  502 -0.13103734313E+02 -0.43671998686E+01 -0.14645244329E+02  0.20131156676E+02  0.00000000000E+00 0.  1.
<mgrwt>
<rscale>  0 0.18197245E+04</rscale>
<asrwt>0</asrwt>
<pdfrwt beam="1">  1        2 0.23713152E+00 0.18197245E+04</pdfrwt>
<pdfrwt beam="2">  1       -2 0.82629533E-01 0.18197245E+04</pdfrwt>
<totfact> 0.14569831E+01</totfact>
</mgrwt>
</event>
<event>
12    1  0.1562393E-007  0.2387938E+04  0.7818608E-02  0.8444033E-01
         -1   -1    0    0    0  501 -0.00000000000E+00  0.00000000000E+00  0.71484640719E+03  0.71484640719E+03  0.00000000000E+00 0.  1.
          1   -1    0    0  501    0  0.00000000000E+00 -0.00000000000E+00 -0.19942219619E+04  0.19942219619E+04  0.00000000000E+00 0. -1.
         23    2    1    2    0    0 -0.12628518691E+03 -0.69608416589E+03  0.29377606977E+03  0.77146013006E+03  0.91461678606E+02 0.  0.
        254    2    1    2    0    0  0.12628518691E+03  0.69608416589E+03 -0.15731516245E+04  0.19376082390E+04  0.88263159919E+03 0.  0.
        -24    2    4    4    0    0 -0.80499210569E+02  0.53024525468E+03 -0.27050524076E+03  0.60587851638E+03  0.79218295384E+02 0.  0.
         24    2    4    4    0    0  0.20678439748E+03  0.16583891122E+03 -0.13026463837E+04  0.13317297226E+04  0.79712744581E+02 0.  0.
         13    1    3    3    0    0 -0.62999870273E+02 -0.54065568827E+03  0.24329865842E+03  0.59621455375E+03  0.00000000000E+00 0.  1.
        -13    1    3    3    0    0 -0.63285316634E+02 -0.15542847762E+03  0.50477411350E+02  0.17524557631E+03  0.00000000000E+00 0. -1.
          4    1    6    6  502    0  0.18434273060E+03  0.12231719130E+03 -0.93389943639E+03  0.95974574492E+03  0.00000000000E+00 0. -1.
          1    1    5    5  503    0 -0.21360881586E+02  0.34460397554E+03 -0.19787293805E+03  0.39794709050E+03  0.00000000000E+00 0. -1.
         -2    1    5    5    0  503 -0.59138328983E+02  0.18564127914E+03 -0.72632302713E+02  0.20793142589E+03  0.00000000000E+00 0.  1.
         -3    1    6    6    0  502  0.22441666879E+02  0.43521719912E+02 -0.36874694731E+03  0.37198397770E+03  0.00000000000E+00 0.  1.
<mgrwt>
<rscale>  0 0.23879384E+04</rscale>
<asrwt>0</asrwt>
<pdfrwt beam="1">  1        1 0.30680337E+00 0.23879384E+04</pdfrwt>
<pdfrwt beam="2">  1       -1 0.10997637E+00 0.23879384E+04</pdfrwt>
<totfact> 0.20593164E+00</totfact>
</mgrwt>
</event>
<event>
12    1  0.1562393E-007  0.1433513E+04  0.7818608E-02  0.8929911E-01
          3   -1    0    0  501    0  0.00000000000E+00  0.00000000000E+00  0.11338288880E+04  0.11338288880E+04  0.00000000000E+00 0. -1.
         -3   -1    0    0    0  501 -0.00000000000E+00 -0.00000000000E+00 -0.45310165127E+03  0.45310165127E+03  0.00000000000E+00 0.  1.
         23    2    1    2    0    0 -0.30051590599E+03 -0.21343927087E+03  0.36979335043E+03  0.53013724010E+03  0.91827224825E+02 0.  0.
        254    2    1    2    0    0  0.30051590599E+03  0.21343927087E+03  0.31093388632E+03  0.10567932992E+04  0.94035422232E+03 0.  0.
        -24    2    4    4    0    0  0.32250260789E+03  0.92215195016E+02 -0.28157386506E+03  0.44648554950E+03  0.86913348476E+02 0.  0.
         24    2    4    4    0    0 -0.21986701903E+02  0.12122407585E+03  0.59250775138E+03  0.61030774968E+03  0.78939358064E+02 0.  0.
         13    1    3    3    0    0 -0.25040752602E+03 -0.20953305654E+03  0.34144758447E+03  0.47243463443E+03  0.00000000000E+00 0. -1.
        -13    1    3    3    0    0 -0.50108379963E+02 -0.39062143299E+01  0.28345765959E+02  0.57702605666E+02  0.00000000000E+00 0.  1.
          4    1    6    6  502    0 -0.16137789460E+02  0.54693503113E+02  0.11726579147E+03  0.13039583345E+03  0.00000000000E+00 0. -1.
          3    1    5    5  503    0  0.54469509446E+02 -0.12963202927E+02 -0.67463661540E+02  0.87671647172E+02  0.00000000000E+00 0. -1.
         -4    1    5    5    0  503  0.26803309844E+03  0.10517839794E+03 -0.21411020352E+03  0.35881390233E+03  0.00000000000E+00 0.  1.
         -3    1    6    6    0  502 -0.58489124429E+01  0.66530572738E+02  0.47524195991E+03  0.47991191624E+03  0.00000000000E+00 0.  1.
<mgrwt>
<rscale>  0 0.14335128E+04</rscale>
<asrwt>0</asrwt>
<pdfrwt beam="1">  1        3 0.17443521E+00 0.14335128E+04</pdfrwt>
<pdfrwt beam="2">  1       -3 0.69707947E-01 0.14335128E+04</pdfrwt>
<totfact> 0.10848188E+00</totfact>
</mgrwt>
</event>
<event>
12    1  0.1562393E-007  0.1493071E+04  0.7818608E-02  0.8889074E-01
          2   -1    0    0  501    0  0.00000000000E+00  0.00000000000E+00  0.12595233863E+04  0.12595233863E+04  0.00000000000E+00 0. -1.
         -2   -1    0    0    0  501 -0.00000000000E+00 -0.00000000000E+00 -0.44248119486E+03  0.44248119486E+03  0.00000000000E+00 0.  1.
         23    2    1    2    0    0 -0.15488894173E+03 -0.14498647519E+03  0.73866951925E+03  0.77388453847E+03  0.90845792184E+02 0.  0.
        254    2    1    2    0    0  0.15488894173E+03  0.14498647519E+03  0.78372672161E+02  0.92812004266E+03  0.90014047548E+03 0.  0.
        -24    2    4    4    0    0 -0.20838911256E+03  0.41325288179E+02  0.37711120854E+03  0.43996749601E+03  0.78896972455E+02 0.  0.
         24    2    4    4    0    0  0.36327805429E+03  0.10366118701E+03 -0.29873853638E+03  0.48815254665E+03  0.79571409805E+02 0.  0.
         13    1    3    3    0    0 -0.96297930426E+02 -0.47324954718E+02  0.46964364779E+03  0.48174484808E+03  0.00000000000E+00 0.  1.
        -13    1    3    3    0    0 -0.58591011306E+02 -0.97661520468E+02  0.26902587145E+03  0.29213969038E+03  0.00000000000E+00 0. -1.
          2    1    6    6  502    0  0.18903827784E+03  0.94125796161E+02 -0.15260493360E+03  0.26054443335E+03  0.00000000000E+00 0. -1.
          3    1    5    5  503    0 -0.17390526672E+03  0.24897165763E+02  0.35433613537E+03  0.39549590072E+03  0.00000000000E+00 0. -1.
         -4    1    5    5    0  503 -0.34483845838E+02  0.16428122416E+02  0.22775073171E+02  0.44471595292E+02  0.00000000000E+00 0.  1.
         -3    1    6    6    0  502  0.17423977646E+03  0.95353908459E+01 -0.14613360278E+03  0.22760811330E+03  0.00000000000E+00 0.  1.
<mgrwt>
<rscale>  0 0.14930712E+04</rscale>
<asrwt>0</asrwt>
<pdfrwt beam="1">  1        2 0.19377283E+00 0.14930712E+04</pdfrwt>
<pdfrwt beam="2">  1       -2 0.68074030E-01 0.14930712E+04</pdfrwt>
<totfact> 0.33345087E+01</totfact>
</mgrwt>
</event>
<event>
12    1  0.1562393E-007  0.1665131E+04  0.7818608E-02  0.8781505E-01
         -2   -1    0    0    0  501 -0.00000000000E+00  0.00000000000E+00  0.11499098040E+04  0.11499098040E+04  0.00000000000E+00 0. -1.
          2   -1    0    0  501    0  0.00000000000E+00 -0.00000000000E+00 -0.60279952746E+03  0.60279952746E+03  0.00000000000E+00 0.  1.
         23    2    1    2    0    0  0.26749248051E+03  0.39513113055E+03 -0.17158218185E+03  0.51519927796E+03  0.91153789919E+02 0.  0.
        254    2    1    2    0    0 -0.26749248051E+03 -0.39513113055E+03  0.71869245844E+03  0.12375100535E+04  0.88726064115E+03 0.  0.
        -24    2    4    4    0    0 -0.36044254961E+03 -0.14880785188E+03  0.84495234464E+03  0.93424042470E+03  0.82450579642E+02 0.  0.
         24    2    4    4    0    0  0.92950069100E+02 -0.24632327867E+03 -0.12625988620E+03  0.30326962884E+03  0.81951424364E+02 0.  0.
         11    1    3    3    0    0  0.24940507458E+03  0.38382961767E+03 -0.14304481766E+03  0.47957260815E+03  0.00000000000E+00 0. -1.
        -11    1    3    3    0    0  0.18087405936E+02  0.11301512882E+02 -0.28537364188E+02  0.35626669810E+02  0.00000000000E+00 0.  1.
          4    1    6    6  502    0  0.80412496232E+02 -0.22283508156E+03 -0.80271973085E+02  0.25013043155E+03  0.00000000000E+00 0. -1.
          1    1    5    5  503    0 -0.24801177927E+03 -0.12819686645E+03  0.52730706305E+03  0.59665485665E+03  0.00000000000E+00 0. -1.
         -4    1    5    5    0  503 -0.11243077034E+03 -0.20610985436E+02  0.31764528158E+03  0.33758556805E+03  0.00000000000E+00 0.  1.
         -3    1    6    6    0  502  0.12537572867E+02 -0.23488197117E+02 -0.45987913111E+02  0.53139197298E+02  0.00000000000E+00 0.  1.
<mgrwt>
<rscale>  0 0.16651307E+04</rscale>
<asrwt>0</asrwt>
<pdfrwt beam="1">  1        2 0.92738388E-01 0.16651307E+04</pdfrwt>
<pdfrwt beam="2">  1       -2 0.17690920E+00 0.16651307E+04</pdfrwt>
<totfact> 0.89568555E+00</totfact>
</mgrwt>
</event>
<event>
12    1  0.1562393E-007  0.1558816E+04  0.7818608E-02  0.8846256E-01
          2   -1    0    0  501    0  0.00000000000E+00  0.00000000000E+00  0.15715875562E+04  0.15715875562E+04  0.00000000000E+00 0. -1.
         -2   -1    0    0    0  501 -0.00000000000E+00 -0.00000000000E+00 -0.38653691799E+03  0.38653691799E+03  0.00000000000E+00 0.  1.
         23    2    1    2    0    0  0.47815625832E+03 -0.15930103195E+03  0.38843462860E+03  0.64277516489E+03  0.90929784788E+02 0.  0.
        254    2    1    2    0    0 -0.47815625832E+03  0.15930103195E+03  0.79661600956E+03  0.13153493092E+04  0.91735299231E+03 0.  0.
        -24    2    4    4    0    0 -0.47688007316E+02 -0.35176623458E+03  0.37208338312E+03  0.52042412341E+03  0.79884882192E+02 0.  0.
         24    2    4    4    0    0 -0.43046825100E+03  0.51106726653E+03  0.42453262644E+03  0.79492518584E+03  0.72009958489E+02 0.  0.
         11    1    3    3    0    0  0.41286471234E+02 -0.33164673808E+01  0.65714628387E+01  0.41937522420E+02  0.00000000000E+00 0. -1.
        -11    1    3    3    0    0  0.43686978708E+03 -0.15598456457E+03  0.38186316576E+03  0.60083764248E+03  0.00000000000E+00 0.  1.
          4    1    6    6  502    0 -0.56573827971E+02  0.62055069513E+02  0.83296625785E+02  0.11827830541E+03  0.00000000000E+00 0. -1.
          3    1    5    5  503    0 -0.23119552092E+02 -0.13340575202E+03  0.19906295070E+03  0.24074398581E+03  0.00000000000E+00 0. -1.
         -4    1    5    5    0  503 -0.24568455224E+02 -0.21836048256E+03  0.17302043242E+03  0.27968013761E+03  0.00000000000E+00 0.  1.
         -3    1    6    6    0  502 -0.37389442303E+03  0.44901219702E+03  0.34123600065E+03  0.67664688042E+03  0.00000000000E+00 0.  1.
<mgrwt>
<rscale>  0 0.15588157E+04</rscale>
<asrwt>0</asrwt>
<pdfrwt beam="1">  1        2 0.24178270E+00 0.15588157E+04</pdfrwt>
<pdfrwt beam="2">  1       -2 0.59467219E-01 0.15588157E+04</pdfrwt>
<totfact> 0.29366125E+01</totfact>
</mgrwt>
</event>
<event>
12    1  0.1562393E-007  0.2621016E+04  0.7818608E-02  0.8361098E-01
          2   -1    0    0  501    0  0.00000000000E+00  0.00000000000E+00  0.94829368356E+03  0.94829368356E+03  0.00000000000E+00 0. -1.
         -2   -1    0    0    0  501 -0.00000000000E+00 -0.00000000000E+00 -0.18110745691E+04  0.18110745691E+04  0.00000000000E+00 0.  1.
         23    2    1    2    0    0  0.10163973793E+04 -0.26756736940E+03  0.12059136656E+03  0.10618108889E+04  0.90797335968E+02 0.  0.
        254    2    1    2    0    0 -0.10163973793E+04  0.26756736940E+03 -0.98337225208E+03  0.16975573637E+04  0.90001338164E+03 0.  0.
        -24    2    4    4    0    0 -0.54603097378E+03 -0.23550354486E+03 -0.15859099652E+03  0.62015386190E+03  0.76341104751E+02 0.  0.
         24    2    4    4    0    0 -0.47036640555E+03  0.50307091426E+03 -0.82478125555E+03  0.10774035018E+04  0.78799022951E+02 0.  0.
         13    1    3    3    0    0  0.33849523538E+03 -0.12262028842E+03  0.69827375208E+02  0.36672963043E+03  0.00000000000E+00 0.  1.
        -13    1    3    3    0    0  0.67790214395E+03 -0.14494708098E+03  0.50763991351E+02  0.69508125847E+03  0.00000000000E+00 0. -1.
          2    1    6    6  502    0 -0.16744767810E+03  0.12619101518E+03 -0.25145965416E+03  0.32740625358E+03  0.00000000000E+00 0. -1.
          3    1    5    5  503    0 -0.11352313235E+02  0.52290171073E+01  0.73586769361E+00  0.12520348915E+02  0.00000000000E+00 0. -1.
         -4    1    5    5    0  503 -0.53467866055E+03 -0.24073256197E+03 -0.15932686422E+03  0.60763351298E+03  0.00000000000E+00 0.  1.
         -1    1    6    6    0  502 -0.30291872745E+03  0.37687989908E+03 -0.57332160139E+03  0.74999724826E+03  0.00000000000E+00 0.  1.
<mgrwt>
<rscale>  0 0.26210155E+04</rscale>
<asrwt>0</asrwt>
<pdfrwt beam="1">  1        2 0.14589134E+00 0.26210155E+04</pdfrwt>
<pdfrwt beam="2">  1       -2 0.27862685E+00 0.26210155E+04</pdfrwt>
<totfact> 0.10319288E+00</totfact>
</mgrwt>
</event>
<event>
12    1  0.2055888E-007  0.2610706E+04  0.7818608E-02  0.8364574E-01
          1   -1    0    0  501    0  0.00000000000E+00  0.00000000000E+00  0.27765335075E+04  0.27765335075E+04  0.00000000000E+00 0. -1.
         -1   -1    0    0    0  501 -0.00000000000E+00 -0.00000000000E+00 -0.61369538680E+03  0.61369538680E+03  0.00000000000E+00 0.  1.
         23    2    1    2    0    0  0.62337636412E+03 -0.57872610476E+03 -0.46916195626E+02  0.85669184700E+03  0.90541679015E+02 0.  0.
        254    2    1    2    0    0 -0.62337636412E+03  0.57872610476E+03  0.22097543163E+04  0.25335370473E+04  0.90126235681E+03 0.  0.
        -24    2    4    4    0    0 -0.67786243341E+03  0.35542679143E+03  0.82785304987E+03  0.11303536044E+04  0.80826457132E+02 0.  0.
         24    2    4    4    0    0  0.54486069284E+02  0.22329931333E+03  0.13819012664E+04  0.14031834428E+04  0.80258015396E+02 0.  0.
         13    1    3    3    0    0  0.54496742256E+03 -0.54223969235E+03 -0.37330843682E+02  0.76967978244E+03  0.00000000000E+00 0.  1.
        -13    1    3    3    0    0  0.78408941563E+02 -0.36486412404E+02 -0.95853519437E+01  0.87012064560E+02  0.00000000000E+00 0. -1.
          2    1    6    6  502    0  0.14451967315E+02  0.67918687744E+01  0.35877862888E+02  0.39270980204E+02  0.00000000000E+00 0. -1.
          1    1    5    5  503    0 -0.39635098891E+02  0.47770698085E+01  0.60356221385E+02  0.72364597144E+02  0.00000000000E+00 0. -1.
         -2    1    5    5    0  503 -0.63822733451E+03  0.35064972162E+03  0.76749682849E+03  0.10579890073E+04  0.00000000000E+00 0.  1.
         -1    1    6    6    0  502  0.40034101969E+02  0.21650744455E+03  0.13460234035E+04  0.13639124626E+04  0.00000000000E+00 0.  1.
<mgrwt>
<rscale>  0 0.26107055E+04</rscale>
<asrwt>0</asrwt>
<pdfrwt beam="1">  1        1 0.42715899E+00 0.26107055E+04</pdfrwt>
<pdfrwt beam="2">  1       -1 0.94414676E-01 0.26107055E+04</pdfrwt>
<totfact> 0.82712604E-01</totfact>
</mgrwt>
</event>
<event>
12    1  0.1562393E-007  0.1129914E+04  0.7818608E-02  0.9176517E-01
          1   -1    0    0  501    0  0.00000000000E+00  0.00000000000E+00  0.32087667047E+03  0.32087667047E+03  0.00000000000E+00 0. -1.
         -1   -1    0    0    0  501 -0.00000000000E+00 -0.00000000000E+00 -0.99470054853E+03  0.99470054853E+03  0.00000000000E+00 0.  1.
         23    2    1    2    0    0  0.61536713087E+02  0.14230830155E+03 -0.26181759247E+03  0.31861659472E+03  0.94496893910E+02 0.  0.
        254    2    1    2    0    0 -0.61536713087E+02 -0.14230830155E+03 -0.41200628559E+03  0.99696062427E+03  0.89450706383E+03 0.  0.
        -24    2    4    4    0    0 -0.27530760788E+03  0.22967796597E+03 -0.42080872026E+03  0.55884929542E+03  0.81769853437E+02 0.  0.
         24    2    4    4    0    0  0.21377089479E+03 -0.37198626752E+03  0.88024346761E+01  0.43811132885E+03  0.88273863219E+02 0.  0.
         11    1    3    3    0    0  0.51227170684E+02  0.15525201578E+03 -0.24810617165E+03  0.29712637687E+03  0.00000000000E+00 0.  1.
        -11    1    3    3    0    0  0.10309542402E+02 -0.12943714230E+02 -0.13711420826E+02  0.21490217860E+02  0.00000000000E+00 0. -1.
          2    1    6    6  502    0  0.21199796593E+02 -0.70925631263E+02  0.30520539822E+02  0.80071092765E+02  0.00000000000E+00 0. -1.
          1    1    5    5  503    0 -0.11571363525E+03  0.14300120044E+03 -0.24207080503E+03  0.30403497061E+03  0.00000000000E+00 0. -1.
         -2    1    5    5    0  503 -0.15959397263E+03  0.86676765536E+02 -0.17873791524E+03  0.25481432480E+03  0.00000000000E+00 0.  1.
         -1    1    6    6    0  502  0.19257109820E+03 -0.30106063626E+03 -0.21718105146E+02  0.35804023609E+03  0.00000000000E+00 0.  1.
<mgrwt>
<rscale>  0 0.11299136E+04</rscale>
<asrwt>0</asrwt>
<pdfrwt beam="1">  1        1 0.49365642E-01 0.11299136E+04</pdfrwt>
<pdfrwt beam="2">  1       -1 0.15303085E+00 0.11299136E+04</pdfrwt>
<totfact> 0.26388508E+01</totfact>
</mgrwt>
</event>
<event>
12    1  0.1562393E-007  0.1312679E+04  0.7818608E-02  0.9019571E-01
         -2   -1    0    0    0  501 -0.00000000000E+00  0.00000000000E+00  0.20100878001E+03  0.20100878001E+03  0.00000000000E+00 0.  1.
          2   -1    0    0  501    0  0.00000000000E+00 -0.00000000000E+00 -0.21430977690E+04  0.21430977690E+04  0.00000000000E+00 0. -1.
         23    2    1    2    0    0  0.23602824338E+03 -0.26424813767E+03 -0.82943693944E+03  0.90592066052E+03  0.84795027734E+02 0.  0.
        254    2    1    2    0    0 -0.23602824338E+03  0.26424813767E+03 -0.11126520496E+04  0.14381858885E+04  0.83955205707E+03 0.  0.
        -24    2    4    4    0    0 -0.22730519546E+03  0.23336005574E+03 -0.13459965428E+02  0.33571280512E+03  0.79983431726E+02 0.  0.
         24    2    4    4    0    0 -0.87230479140E+01  0.30888081936E+02 -0.10991920841E+04  0.11024730834E+04  0.78698771210E+02 0.  0.
         11    1    3    3    0    0  0.16486911224E+03 -0.21308829280E+03 -0.69546819362E+03  0.74583138378E+03  0.00000000000E+00 0. -1.
        -11    1    3    3    0    0  0.71159131140E+02 -0.51159844878E+02 -0.13396874581E+03  0.16008927674E+03  0.00000000000E+00 0.  1.
          4    1    6    6  502    0 -0.24673724027E+02 -0.10339481191E+02 -0.75232513055E+03  0.75280063734E+03  0.00000000000E+00 0. -1.
          1    1    5    5  503    0 -0.20272524361E+03  0.16352564073E+03  0.42861709252E-01  0.26045760003E+03  0.00000000000E+00 0. -1.
         -2    1    5    5    0  503 -0.24579951851E+02  0.69834415007E+02 -0.13502827138E+02  0.75255205089E+02  0.00000000000E+00 0.  1.
         -3    1    6    6    0  502  0.15950676113E+02  0.41227563127E+02 -0.34686695357E+03  0.34967244603E+03  0.00000000000E+00 0.  1.
<mgrwt>
<rscale>  0 0.13126789E+04</rscale>
<asrwt>0</asrwt>
<pdfrwt beam="1">  1        2 0.32970733E+00 0.13126789E+04</pdfrwt>
<pdfrwt beam="2">  1       -2 0.30924429E-01 0.13126789E+04</pdfrwt>
<totfact> 0.52821642E+01</totfact>
</mgrwt>
</event>
<event>
12    1  0.1562393E-007  0.1301357E+04  0.7818608E-02  0.9028490E-01
          1   -1    0    0  501    0  0.00000000000E+00  0.00000000000E+00  0.11078368010E+04  0.11078368010E+04  0.00000000000E+00 0.  1.
         -1   -1    0    0    0  501 -0.00000000000E+00 -0.00000000000E+00 -0.38217046509E+03  0.38217046509E+03  0.00000000000E+00 0. -1.
         23    2    1    2    0    0  0.21081919222E+03  0.15455327899E+03  0.43962043405E+03  0.51946143425E+03  0.90788808699E+02 0.  0.
        254    2    1    2    0    0 -0.21081919222E+03 -0.15455327899E+03  0.28604590189E+03  0.97054583187E+03  0.88983453851E+03 0.  0.
        -24    2    4    4    0    0 -0.12729924299E+03  0.36341425382E+03  0.15930778299E+03  0.42424556696E+03  0.79563271820E+02 0.  0.
         24    2    4    4    0    0 -0.83519949227E+02 -0.51796753280E+03  0.12673811890E+03  0.54630026491E+03  0.84353314696E+02 0.  0.
         13    1    3    3    0    0  0.10998095686E+03  0.25914010021E+02  0.19117033592E+03  0.22206630569E+03  0.00000000000E+00 0. -1.
        -13    1    3    3    0    0  0.10083823536E+03  0.12863926896E+03  0.24845009813E+03  0.29739512856E+03  0.00000000000E+00 0.  1.
          4    1    6    6  502    0 -0.90140621242E+02 -0.48176602833E+03  0.13541557359E+03  0.50848914956E+03  0.00000000000E+00 0. -1.
          1    1    5    5  503    0 -0.87871627012E+02  0.29973559715E+03  0.97723032421E+02  0.32728067785E+03  0.00000000000E+00 0. -1.
         -2    1    5    5    0  503 -0.39427615979E+02  0.63678656671E+02  0.61584750573E+02  0.96964889111E+02  0.00000000000E+00 0.  1.
         -3    1    6    6    0  502  0.66206720148E+01 -0.36201504471E+02 -0.86774546876E+01  0.37811115346E+02  0.00000000000E+00 0.  1.
<mgrwt>
<rscale>  0 0.13013570E+04</rscale>
<asrwt>0</asrwt>
<pdfrwt beam="1">  1        1 0.17043643E+00 0.13013570E+04</pdfrwt>
<pdfrwt beam="2">  1       -1 0.58795457E-01 0.13013570E+04</pdfrwt>
<totfact> 0.36023745E+01</totfact>
</mgrwt>
</event>
<event>
12    1  0.1562393E-007  0.1176114E+04  0.7818608E-02  0.9134024E-01
          2   -1    0    0  501    0  0.00000000000E+00  0.00000000000E+00  0.85487001438E+03  0.85487001438E+03  0.00000000000E+00 0. -1.
         -2   -1    0    0    0  501 -0.00000000000E+00 -0.00000000000E+00 -0.40451904594E+03  0.40451904594E+03  0.00000000000E+00 0.  1.
         23    2    1    2    0    0 -0.17143807810E+03  0.88508178268E+02 -0.22252486233E+02  0.22670902505E+03  0.11694911992E+03 0.  0.
        254    2    1    2    0    0  0.17143807810E+03 -0.88508178268E+02  0.47260345467E+03  0.10326800353E+04  0.89769110369E+03 0.  0.
        -24    2    4    4    0    0 -0.19433462681E+02 -0.45235315945E+03  0.39698728335E+03  0.60730830891E+03  0.78888773539E+02 0.  0.
         24    2    4    4    0    0  0.19087154078E+03  0.36384498119E+03  0.75616171324E+02  0.42537172637E+03  0.80051138731E+02 0.  0.
         13    1    3    3    0    0 -0.13672182045E+03  0.29720641247E+02  0.27036758820E+02  0.14250318955E+03  0.00000000000E+00 0. -1.
        -13    1    3    3    0    0 -0.34716257653E+02  0.58787537021E+02 -0.49289245053E+02  0.84205835500E+02  0.00000000000E+00 0.  1.
          4    1    6    6  502    0  0.10513499624E+03  0.12766869708E+03  0.10000720983E+02  0.16568849709E+03  0.00000000000E+00 0. -1.
          3    1    5    5  503    0 -0.37565615134E+02 -0.20183097871E+03  0.14368389028E+03  0.25058327904E+03  0.00000000000E+00 0. -1.
         -4    1    5    5    0  503  0.18132152453E+02 -0.25052218074E+03  0.25330339307E+03  0.35672502987E+03  0.00000000000E+00 0.  1.
         -3    1    6    6    0  502  0.85736544548E+02  0.23617628410E+03  0.65615450341E+02  0.25968322927E+03  0.00000000000E+00 0.  1.
<mgrwt>
<rscale>  0 0.11761143E+04</rscale>
<asrwt>0</asrwt>
<pdfrwt beam="1">  1        2 0.13151846E+00 0.11761143E+04</pdfrwt>
<pdfrwt beam="2">  1       -2 0.62233699E-01 0.11761143E+04</pdfrwt>
<totfact> 0.74601517E+01</totfact>
</mgrwt>
</event>
<event>
12    1  0.1562393E-007  0.2179356E+04  0.7818608E-02  0.8527070E-01
         -3   -1    0    0    0  501 -0.00000000000E+00  0.00000000000E+00  0.63779434254E+03  0.63779434254E+03  0.00000000000E+00 0. -1.
          3   -1    0    0  501    0  0.00000000000E+00 -0.00000000000E+00 -0.18617255147E+04  0.18617255147E+04  0.00000000000E+00 0.  1.
         23    2    1    2    0    0  0.49037604131E+03  0.42285483845E+03  0.21266017092E+03  0.68760343977E+03  0.91100306234E+02 0.  0.
        254    2    1    2    0    0 -0.49037604131E+03 -0.42285483845E+03 -0.14365913431E+04  0.18119164175E+04  0.89441128155E+03 0.  0.
        -24    2    4    4    0    0 -0.46582353574E+03 -0.56953016205E+03 -0.14631649742E+04  0.16398241759E+04  0.82555522962E+02 0.  0.
         24    2    4    4    0    0 -0.24552505564E+02  0.14667532360E+03  0.26573631095E+02  0.17209224153E+03  0.82420298727E+02 0.  0.
         13    1    3    3    0    0  0.17533936481E+03  0.10325594101E+03  0.43980405486E+02  0.20818251193E+03  0.00000000000E+00 0.  1.
        -13    1    3    3    0    0  0.31503667650E+03  0.31959889745E+03  0.16867976544E+03  0.47942092785E+03  0.00000000000E+00 0. -1.
          4    1    6    6  502    0 -0.41645336458E+01 -0.99728135616E+01 -0.33479357486E+01  0.11314107327E+02  0.00000000000E+00 0. -1.
          1    1    5    5  503    0 -0.52875820391E+02 -0.92515382704E+02 -0.16430183997E+03  0.19583167016E+03  0.00000000000E+00 0. -1.
         -2    1    5    5    0  503 -0.41294771535E+03 -0.47701477935E+03 -0.12988631342E+04  0.14439925058E+04  0.00000000000E+00 0.  1.
         -3    1    6    6    0  502 -0.20387971919E+02  0.15664813716E+03  0.29921566843E+02  0.16077813420E+03  0.00000000000E+00 0.  1.
<mgrwt>
<rscale>  0 0.21793559E+04</rscale>
<asrwt>0</asrwt>
<pdfrwt beam="1">  1        3 0.28641931E+00 0.21793559E+04</pdfrwt>
<pdfrwt beam="2">  1       -3 0.98122208E-01 0.21793559E+04</pdfrwt>
<totfact> 0.10046981E-01</totfact>
</mgrwt>
</event>
<event>
12    1  0.1562393E-007  0.2693190E+04  0.7818608E-02  0.8337218E-01
          1   -1    0    0  501    0  0.00000000000E+00  0.00000000000E+00  0.13978581269E+04  0.13978581269E+04  0.00000000000E+00 0. -1.
         -1   -1    0    0    0  501 -0.00000000000E+00 -0.00000000000E+00 -0.12972114872E+04  0.12972114872E+04  0.00000000000E+00 0.  1.
         23    2    1    2    0    0 -0.54755569167E+03  0.96816471125E+03 -0.39331128993E+03  0.11832346171E+04  0.90499970776E+02 0.  0.
        254    2    1    2    0    0  0.54755569167E+03 -0.96816471125E+03  0.49395792957E+03  0.15118349970E+04  0.89693393203E+03 0.  0.
        -24    2    4    4    0    0 -0.17885244731E+03 -0.54789439836E+03  0.25781286197E+03  0.63651165218E+03  0.80642060363E+02 0.  0.
         24    2    4    4    0    0  0.72640813898E+03 -0.42027031288E+03  0.23614506760E+03  0.87532334483E+03  0.78297795593E+02 0.  0.
         13    1    3    3    0    0 -0.50677481755E+03  0.91847494031E+03 -0.38899085421E+03  0.11188077656E+04  0.00000000000E+00 0.  1.
        -13    1    3    3    0    0 -0.40780874119E+02  0.49689770941E+02 -0.43204357193E+01  0.64426851505E+02  0.00000000000E+00 0. -1.
          4    1    6    6  502    0  0.22470931843E+03 -0.16511546545E+03  0.99981371422E+02  0.29623245830E+03  0.00000000000E+00 0. -1.
          1    1    5    5  503    0 -0.55659931025E+02 -0.13913376429E+03  0.10536456099E+03  0.18318821742E+03  0.00000000000E+00 0. -1.
         -2    1    5    5    0  503 -0.12319251629E+03 -0.40876063407E+03  0.15244830097E+03  0.45332343476E+03  0.00000000000E+00 0.  1.
         -3    1    6    6    0  502  0.50169882055E+03 -0.25515484743E+03  0.13616369618E+03  0.57909088653E+03  0.00000000000E+00 0.  1.
<mgrwt>
<rscale>  0 0.26931896E+04</rscale>
<asrwt>0</asrwt>
<pdfrwt beam="1">  1        1 0.21505509E+00 0.26931896E+04</pdfrwt>
<pdfrwt beam="2">  1       -1 0.19957100E+00 0.26931896E+04</pdfrwt>
<totfact> 0.10207161E+00</totfact>
</mgrwt>
</event>
<event>
12    1  0.1562393E-007  0.1830736E+04  0.7818608E-02  0.8690123E-01
         -2   -1    0    0    0  501 -0.00000000000E+00  0.00000000000E+00  0.37797454642E+03  0.37797454642E+03  0.00000000000E+00 0.  1.
          2   -1    0    0  501    0  0.00000000000E+00 -0.00000000000E+00 -0.22168131329E+04  0.22168131329E+04  0.00000000000E+00 0. -1.
         23    2    1    2    0    0 -0.44459132842E+03  0.32038052359E+03 -0.12930197836E+04  0.14075895175E+04  0.95409432121E+02 0.  0.
        254    2    1    2    0    0  0.44459132842E+03 -0.32038052359E+03 -0.54581880292E+03  0.11871981619E+04  0.90067540255E+03 0.  0.
        -24    2    4    4    0    0  0.53793430344E+03  0.15046470563E+03 -0.25160707383E+03  0.61784688250E+03  0.80098115795E+02 0.  0.
         24    2    4    4    0    0 -0.93342975024E+02 -0.47084522922E+03 -0.29421172910E+03  0.56935127938E+03  0.84806821241E+02 0.  0.
         13    1    3    3    0    0 -0.31156832335E+03  0.26204441691E+03 -0.87555107363E+03  0.96557329037E+03  0.00000000000E+00 0.  1.
        -13    1    3    3    0    0 -0.13302300507E+03  0.58336106673E+02 -0.41746870998E+03  0.44201622711E+03  0.00000000000E+00 0. -1.
          2    1    6    6  502    0 -0.10777996586E+03 -0.36431552054E+03 -0.22746303708E+03  0.44281119315E+03  0.00000000000E+00 0. -1.
          1    1    5    5  503    0  0.33555809373E+03  0.94585131535E+02 -0.19890678266E+03  0.40138446602E+03  0.00000000000E+00 0. -1.
         -2    1    5    5    0  503  0.20237620971E+03  0.55879574100E+02 -0.52700291170E+02  0.21646241648E+03  0.00000000000E+00 0.  1.
         -1    1    6    6    0  502  0.14436990834E+02 -0.10652970869E+03 -0.66748692014E+02  0.12654008623E+03  0.00000000000E+00 0.  1.
<mgrwt>
<rscale>  0 0.18307364E+04</rscale>
<asrwt>0</asrwt>
<pdfrwt beam="1">  1        2 0.34104817E+00 0.18307364E+04</pdfrwt>
<pdfrwt beam="2">  1       -2 0.58149931E-01 0.18307364E+04</pdfrwt>
<totfact> 0.13168858E+01</totfact>
</mgrwt>
</event>
<event>
12    1  0.1562393E-007  0.1682452E+04  0.7818608E-02  0.8771437E-01
         -1   -1    0    0    0  501 -0.00000000000E+00  0.00000000000E+00  0.46274551282E+03  0.46274551282E+03  0.00000000000E+00 0.  1.
          1   -1    0    0  501    0  0.00000000000E+00 -0.00000000000E+00 -0.15292660097E+04  0.15292660097E+04  0.00000000000E+00 0. -1.
         23    2    1    2    0    0  0.36230852741E+03  0.42702616687E+03 -0.16035401552E+03  0.58975799507E+03  0.92099219522E+02 0.  0.
        254    2    1    2    0    0 -0.36230852741E+03 -0.42702616687E+03 -0.90616648136E+03  0.14022535275E+04  0.91189826576E+03 0.  0.
        -24    2    4    4    0    0  0.27648807652E+03 -0.10930298806E+03 -0.47139847373E+03  0.56288373882E+03  0.78922637667E+02 0.  0.
         24    2    4    4    0    0 -0.63879660393E+03 -0.31772317880E+03 -0.43476800763E+03  0.83936978863E+03  0.80680245810E+02 0.  0.
         11    1    3    3    0    0  0.13565033254E+03  0.16736157013E+03 -0.15835563360E+02  0.21601313141E+03  0.00000000000E+00 0.  1.
        -11    1    3    3    0    0  0.22665819487E+03  0.25966459674E+03 -0.14451845216E+03  0.37374486367E+03  0.00000000000E+00 0. -1.
          2    1    6    6  502    0 -0.99620027649E+01  0.93514753284E+00  0.18090146817E+01  0.10168015250E+02  0.00000000000E+00 0. -1.
          3    1    5    5  503    0  0.12935638691E+03 -0.51360888712E+02 -0.29373660706E+03  0.32504185892E+03  0.00000000000E+00 0. -1.
         -4    1    5    5    0  503  0.14713168962E+03 -0.57942099353E+02 -0.17766186667E+03  0.23784187990E+03  0.00000000000E+00 0.  1.
         -1    1    6    6    0  502 -0.62883460117E+03 -0.31865832633E+03 -0.43657702231E+03  0.82920177338E+03  0.00000000000E+00 0.  1.
<mgrwt>
<rscale>  0 0.16824518E+04</rscale>
<asrwt>0</asrwt>
<pdfrwt beam="1">  1        1 0.23527169E+00 0.16824518E+04</pdfrwt>
<pdfrwt beam="2">  1       -1 0.71191618E-01 0.16824518E+04</pdfrwt>
<totfact> 0.11855548E+01</totfact>
</mgrwt>
</event>
<event>
12    1  0.1562393E-007  0.1717534E+04  0.7818608E-02  0.8751427E-01
         -2   -1    0    0    0  501 -0.00000000000E+00  0.00000000000E+00  0.36773721418E+03  0.36773721418E+03  0.00000000000E+00 0.  1.
          2   -1    0    0  501    0  0.00000000000E+00 -0.00000000000E+00 -0.20054562268E+04  0.20054562268E+04  0.00000000000E+00 0. -1.
         23    2    1    2    0    0 -0.53953546886E+03  0.11832720817E+03 -0.18566098399E+03  0.59030340935E+03  0.94277588847E+02 0.  0.
        254    2    1    2    0    0  0.53953546886E+03 -0.11832720817E+03 -0.14520580286E+04  0.17828900316E+04  0.87471395095E+03 0.  0.
        -24    2    4    4    0    0  0.66095723176E+03 -0.27995512534E+02 -0.54752418460E+03  0.86238722147E+03  0.79251347496E+02 0.  0.
         24    2    4    4    0    0 -0.12142176290E+03 -0.90331695641E+02 -0.90453384399E+03  0.92050281013E+03  0.78999296080E+02 0.  0.
         13    1    3    3    0    0 -0.25738568329E+03  0.82117968814E+02 -0.13251802987E+03  0.30091822644E+03  0.00000000000E+00 0. -1.
        -13    1    3    3    0    0 -0.28214978557E+03  0.36209239361E+02 -0.53142954124E+02  0.28938518291E+03  0.00000000000E+00 0.  1.
          4    1    6    6  502    0 -0.60365493147E+02 -0.72855714710E+02 -0.35800898456E+03  0.37030039286E+03  0.00000000000E+00 0. -1.
          3    1    5    5  503    0  0.14565639362E+03  0.26691903016E+02 -0.12284594813E+03  0.19240418307E+03  0.00000000000E+00 0. -1.
         -4    1    5    5    0  503  0.51530083814E+03 -0.54687415550E+02 -0.42467823648E+03  0.66998303840E+03  0.00000000000E+00 0.  1.
         -3    1    6    6    0  502 -0.61056269757E+02 -0.17475980931E+02 -0.54652485944E+03  0.55020241727E+03  0.00000000000E+00 0.  1.
<mgrwt>
<rscale>  0 0.17175341E+04</rscale>
<asrwt>0</asrwt>
<pdfrwt beam="1">  1        2 0.30853173E+00 0.17175341E+04</pdfrwt>
<pdfrwt beam="2">  1       -2 0.56574955E-01 0.17175341E+04</pdfrwt>
<totfact> 0.18480540E+01</totfact>
</mgrwt>
</event>
<event>
12    1  0.1562393E-007  0.1093923E+04  0.7818608E-02  0.9211135E-01
          1   -1    0    0  501    0  0.00000000000E+00  0.00000000000E+00  0.24845798277E+03  0.24845798277E+03  0.00000000000E+00 0. -1.
         -1   -1    0    0    0  501 -0.00000000000E+00 -0.00000000000E+00 -0.12040948399E+04  0.12040948399E+04  0.00000000000E+00 0.  1.
         23    2    1    2    0    0 -0.14362683210E+03 -0.75586782296E+01 -0.18701223571E+03  0.25311095354E+03  0.91683029973E+02 0.  0.
        254    2    1    2    0    0  0.14362683210E+03  0.75586782296E+01 -0.76862462142E+03  0.11994418691E+04  0.90950051581E+03 0.  0.
        -24    2    4    4    0    0 -0.26557093356E+03  0.29773879240E+03 -0.40871127634E+03  0.57659495549E+03  0.78997000179E+02 0.  0.
         24    2    4    4    0    0  0.40919776565E+03 -0.29018011417E+03 -0.35991334507E+03  0.62284691363E+03  0.82178779413E+02 0.  0.
         11    1    3    3    0    0 -0.12896820634E+03  0.25100488277E+02 -0.12412149065E+03  0.18074561461E+03  0.00000000000E+00 0. -1.
        -11    1    3    3    0    0 -0.14658625759E+02 -0.32659166507E+02 -0.62890745052E+02  0.72365338936E+02  0.00000000000E+00 0.  1.
          2    1    6    6  502    0  0.64725092564E+02 -0.84286484393E+02 -0.61932526138E+02  0.12300075956E+03  0.00000000000E+00 0. -1.
          3    1    5    5  503    0 -0.59663817432E+02  0.48153789421E+02 -0.41537636161E+02  0.87200537635E+02  0.00000000000E+00 0. -1.
         -4    1    5    5    0  503 -0.20590711613E+03  0.24958500298E+03 -0.36717364018E+03  0.48939441786E+03  0.00000000000E+00 0.  1.
         -1    1    6    6    0  502  0.34447267309E+03 -0.20589362978E+03 -0.29798081894E+03  0.49984615407E+03  0.00000000000E+00 0.  1.
<mgrwt>
<rscale>  0 0.10939232E+04</rscale>
<asrwt>0</asrwt>
<pdfrwt beam="1">  1        1 0.38224306E-01 0.10939232E+04</pdfrwt>
<pdfrwt beam="2">  1       -1 0.18524536E+00 0.10939232E+04</pdfrwt>
<totfact> 0.21345004E+01</totfact>
</mgrwt>
</event>
<event>
12    1  0.1562393E-007  0.2016686E+04  0.7818608E-02  0.8598859E-01
         -2   -1    0    0    0  501 -0.00000000000E+00  0.00000000000E+00  0.40357550322E+03  0.40357550322E+03  0.00000000000E+00 0.  1.
          2   -1    0    0  501    0  0.00000000000E+00 -0.00000000000E+00 -0.25193697891E+04  0.25193697891E+04  0.00000000000E+00 0. -1.
         23    2    1    2    0    0 -0.65644003930E+03  0.21915283713E+02 -0.15464102230E+04  0.16825795640E+04  0.91080220427E+02 0.  0.
        254    2    1    2    0    0  0.65644003930E+03 -0.21915283713E+02 -0.56938406284E+03  0.12403657283E+04  0.88482491150E+03 0.  0.
        -24    2    4    4    0    0 -0.10131998492E+03  0.13256207570E+03  0.10498668124E+03  0.21116633726E+03  0.75700564718E+02 0.  0.
         24    2    4    4    0    0  0.75776002422E+03 -0.15447735941E+03 -0.67437074408E+03  0.10291993910E+04  0.80074821956E+02 0.  0.
         11    1    3    3    0    0 -0.12129872396E+03 -0.28337116548E+02 -0.32913347961E+03  0.35191649579E+03  0.00000000000E+00 0.  1.
        -11    1    3    3    0    0 -0.53514131534E+03  0.50252400261E+02 -0.12172767434E+04  0.13306630683E+04  0.00000000000E+00 0. -1.
          2    1    6    6  502    0  0.69894990488E+03 -0.13986524876E+03 -0.58991630980E+03  0.92525375434E+03  0.00000000000E+00 0. -1.
          1    1    5    5  503    0 -0.98696323539E+02  0.12663800818E+03  0.69260755048E+02  0.17485766093E+03  0.00000000000E+00 0. -1.
         -2    1    5    5    0  503 -0.26236613814E+01  0.59240675179E+01  0.35725926192E+02  0.36308676336E+02  0.00000000000E+00 0.  1.
         -1    1    6    6    0  502  0.58810119336E+02 -0.14612110653E+02 -0.84454434279E+02  0.10394563667E+03  0.00000000000E+00 0.  1.
<mgrwt>
<rscale>  0 0.20166863E+04</rscale>
<asrwt>0</asrwt>
<pdfrwt beam="1">  1        2 0.38759535E+00 0.20166863E+04</pdfrwt>
<pdfrwt beam="2">  1       -2 0.62088540E-01 0.20166863E+04</pdfrwt>
<totfact> 0.75837720E+00</totfact>
</mgrwt>
</event>
<event>
12    1  0.1562393E-007  0.1539500E+04  0.7818608E-02  0.8858602E-01
         -1   -1    0    0    0  501 -0.00000000000E+00  0.00000000000E+00  0.12000471836E+04  0.12000471836E+04  0.00000000000E+00 0. -1.
          1   -1    0    0  501    0  0.00000000000E+00 -0.00000000000E+00 -0.49374332285E+03  0.49374332285E+03  0.00000000000E+00 0.  1.
         23    2    1    2    0    0 -0.37105367076E+03 -0.27339654250E+03  0.22232706402E+02  0.47040539725E+03  0.91435488130E+02 0.  0.
        254    2    1    2    0    0  0.37105367076E+03  0.27339654250E+03  0.68407115435E+03  0.12233851092E+04  0.90348839790E+03 0.  0.
        -24    2    4    4    0    0 -0.27855417197E+03  0.16645566929E+03  0.33621400639E+03  0.47405813167E+03  0.79945841356E+02 0.  0.
         24    2    4    4    0    0  0.64960784273E+03  0.10694087321E+03  0.34785714796E+03  0.74932697753E+03  0.84021569615E+02 0.  0.
         11    1    3    3    0    0 -0.80922635546E+02 -0.53534081384E+02 -0.32416065479E+02  0.10229942382E+03  0.00000000000E+00 0.  1.
        -11    1    3    3    0    0 -0.29013103522E+03 -0.21986246112E+03  0.54648771881E+02  0.36810597343E+03  0.00000000000E+00 0. -1.
          2    1    6    6  502    0  0.97390738436E+02  0.98636661537E+01  0.20297710689E+02  0.99971220371E+02  0.00000000000E+00 0. -1.
          3    1    5    5  503    0 -0.56367256320E+02  0.65625869297E+01  0.86979712780E+02  0.10385473300E+03  0.00000000000E+00 0. -1.
         -4    1    5    5    0  503 -0.22218691565E+03  0.15989308236E+03  0.24923429361E+03  0.37020339866E+03  0.00000000000E+00 0.  1.
         -3    1    6    6    0  502  0.55221710429E+03  0.97077207061E+02  0.32755943727E+03  0.64935575716E+03  0.00000000000E+00 0.  1.
<mgrwt>
<rscale>  0 0.15395003E+04</rscale>
<asrwt>0</asrwt>
<pdfrwt beam="1">  1        1 0.75960512E-01 0.15395003E+04</pdfrwt>
<pdfrwt beam="2">  1       -1 0.18462264E+00 0.15395003E+04</pdfrwt>
<totfact> 0.83858268E+00</totfact>
</mgrwt>
</event>
<event>
12    1  0.1749929E-007  0.2386350E+04  0.7818608E-02  0.8444632E-01
         -2   -1    0    0    0  501 -0.00000000000E+00  0.00000000000E+00  0.73360535208E+03  0.73360535208E+03  0.00000000000E+00 0.  1.
          2   -1    0    0  501    0  0.00000000000E+00 -0.00000000000E+00 -0.19406434668E+04  0.19406434668E+04  0.00000000000E+00 0. -1.
         23    2    1    2    0    0  0.73054027854E+03 -0.10170084000E+03  0.27190383607E+03  0.79036072693E+03  0.81891532987E+02 0.  0.
        254    2    1    2    0    0 -0.73054027854E+03  0.10170084000E+03 -0.14789419508E+04  0.18838880920E+04  0.90428584518E+03 0.  0.
        -24    2    4    4    0    0 -0.19300920869E+03 -0.17811781077E+03  0.95191300715E+01  0.27478671012E+03  0.80240968778E+02 0.  0.
         24    2    4    4    0    0 -0.53753106985E+03  0.27981865076E+03 -0.14884610809E+04  0.16091013819E+04  0.80328944960E+02 0.  0.
         13    1    3    3    0    0 -0.15161722271E+01  0.16976547534E+01 -0.70075060976E+00  0.23815669844E+01  0.00000000000E+00 0. -1.
        -13    1    3    3    0    0  0.73205645077E+03 -0.10339849475E+03  0.27260458668E+03  0.78797915994E+03  0.00000000000E+00 0.  1.
          2    1    6    6  502    0 -0.68291468383E+02  0.22794217664E+02 -0.24657096782E+03  0.25686678101E+03  0.00000000000E+00 0. -1.
          1    1    5    5  503    0 -0.20029315376E+01 -0.16436968853E+02  0.17918255784E+02  0.24397736988E+02  0.00000000000E+00 0. -1.
         -2    1    5    5    0  503 -0.19100627715E+03 -0.16168084192E+03 -0.83991257128E+01  0.25038897314E+03  0.00000000000E+00 0.  1.
         -1    1    6    6    0  502 -0.46923960147E+03  0.25702443310E+03 -0.12418901131E+04  0.13522346008E+04  0.00000000000E+00 0.  1.
<mgrwt>
<rscale>  0 0.23863499E+04</rscale>
<asrwt>0</asrwt>
<pdfrwt beam="1">  1        2 0.29856054E+00 0.23863499E+04</pdfrwt>
<pdfrwt beam="2">  1       -2 0.11286236E+00 0.23863499E+04</pdfrwt>
<totfact> 0.40058376E+00</totfact>
</mgrwt>
</event>
<event>
12    1  0.1562393E-007  0.3638445E+04  0.7818608E-02  0.8081742E-01
         -4   -1    0    0    0  501 -0.00000000000E+00  0.00000000000E+00  0.16900059592E+04  0.16900059592E+04  0.00000000000E+00 0.  1.
          4   -1    0    0  501    0  0.00000000000E+00 -0.00000000000E+00 -0.19583185367E+04  0.19583185367E+04  0.00000000000E+00 0. -1.
         23    2    1    2    0    0  0.10498609047E+04 -0.11644407613E+04 -0.79614626786E+03  0.17609394806E+04  0.94492161965E+02 0.  0.
        254    2    1    2    0    0 -0.10498609047E+04  0.11644407613E+04  0.52783369043E+03  0.18873850153E+04  0.90856127222E+03 0.  0.
        -24    2    4    4    0    0 -0.11773007715E+03  0.78609929703E+03  0.17029307229E+03  0.81673879736E+03  0.79057300709E+02 0.  0.
         24    2    4    4    0    0 -0.93213082755E+03  0.37834146428E+03  0.35754061814E+03  0.10706462179E+04  0.80236444806E+02 0.  0.
         13    1    3    3    0    0  0.23125088635E+03 -0.30141765967E+03 -0.16270484234E+03  0.41328252288E+03  0.00000000000E+00 0.  1.
        -13    1    3    3    0    0  0.81861001834E+03 -0.86302310164E+03 -0.63344142552E+03  0.13476569577E+04  0.00000000000E+00 0. -1.
          2    1    6    6  502    0 -0.38195045737E+03  0.16247533794E+03  0.18896454845E+03  0.45606138611E+03  0.00000000000E+00 0. -1.
          1    1    5    5  503    0 -0.23440628764E+00  0.28534878147E+02 -0.80425072735E+01  0.29647531776E+02  0.00000000000E+00 0. -1.
         -2    1    5    5    0  503 -0.11749567086E+03  0.75756441888E+03  0.17833557956E+03  0.78709126559E+03  0.00000000000E+00 0.  1.
         -1    1    6    6    0  502 -0.55018037018E+03  0.21586612634E+03  0.16857606969E+03  0.61458483182E+03  0.00000000000E+00 0.  1.
<mgrwt>
<rscale>  0 0.36384447E+04</rscale>
<asrwt>0</asrwt>
<pdfrwt beam="1">  1        4 0.30127977E+00 0.36384447E+04</pdfrwt>
<pdfrwt beam="2">  1       -4 0.26000092E+00 0.36384447E+04</pdfrwt>
<totfact> 0.26533446E-03</totfact>
</mgrwt>
</event>
<event>
12    1  0.1562393E-007  0.2917665E+04  0.7818608E-02  0.8267641E-01
          1   -1    0    0  501    0  0.00000000000E+00  0.00000000000E+00  0.51935801941E+04  0.51935801941E+04  0.00000000000E+00 0. -1.
         -1   -1    0    0    0  501 -0.00000000000E+00 -0.00000000000E+00 -0.40977354126E+03  0.40977354126E+03  0.00000000000E+00 0.  1.
         23    2    1    2    0    0 -0.67952278181E+02  0.12098435456E+04  0.31363140968E+04  0.33634929187E+04  0.90992215960E+02 0.  0.
        254    2    1    2    0    0  0.67952278181E+02 -0.12098435456E+04  0.16474925560E+04  0.22398608166E+04  0.91345817568E+03 0.  0.
        -24    2    4    4    0    0  0.21708811776E+03 -0.41512373707E+03  0.90498111841E+02  0.48359327838E+03  0.78851649922E+02 0.  0.
         24    2    4    4    0    0 -0.14913583958E+03 -0.79471980855E+03  0.15569944441E+04  0.17562675382E+04  0.80142959508E+02 0.  0.
         13    1    3    3    0    0 -0.43630781601E+02  0.11335957975E+04  0.29563259851E+04  0.31665132887E+04  0.00000000000E+00 0. -1.
        -13    1    3    3    0    0 -0.24321496580E+02  0.76247748120E+02  0.17998811174E+03  0.19697963005E+03  0.00000000000E+00 0.  1.
          4    1    6    6  502    0 -0.69872809994E+02 -0.40934061582E+03  0.71398500051E+03  0.82596400060E+03  0.00000000000E+00 0. -1.
          3    1    5    5  503    0  0.10769349024E+03 -0.18552346051E+03  0.26893430919E+01  0.21453222323E+03  0.00000000000E+00 0. -1.
         -4    1    5    5    0  503  0.10939462753E+03 -0.22960027656E+03  0.87808768749E+02  0.26906105515E+03  0.00000000000E+00 0.  1.
         -3    1    6    6    0  502 -0.79263029587E+02 -0.38537919273E+03  0.84300944363E+03  0.93030353761E+03  0.00000000000E+00 0.  1.
<mgrwt>
<rscale>  0 0.29176646E+04</rscale>
<asrwt>0</asrwt>
<pdfrwt beam="1">  1        1 0.79901229E+00 0.29176646E+04</pdfrwt>
<pdfrwt beam="2">  1       -1 0.63042087E-01 0.29176646E+04</pdfrwt>
<totfact> 0.10352596E-02</totfact>
</mgrwt>
</event>
<event>
12    1  0.1562393E-007  0.1803569E+04  0.7818608E-02  0.8704404E-01
         -1   -1    0    0    0  501 -0.00000000000E+00  0.00000000000E+00  0.10901598497E+04  0.10901598497E+04  0.00000000000E+00 0.  1.
          1   -1    0    0  501    0  0.00000000000E+00 -0.00000000000E+00 -0.74595995805E+03  0.74595995805E+03  0.00000000000E+00 0. -1.
         23    2    1    2    0    0  0.27810223914E+03 -0.16995440054E+03 -0.47348116589E+03  0.58268253109E+03  0.95441940026E+02 0.  0.
        254    2    1    2    0    0 -0.27810223914E+03  0.16995440054E+03  0.81768105754E+03  0.12534372767E+04  0.89234373477E+03 0.  0.
        -24    2    4    4    0    0 -0.10809324881E+03 -0.29567539844E+03  0.38823727506E+02  0.32690447549E+03  0.79064294090E+02 0.  0.
         24    2    4    4    0    0 -0.17000899033E+03  0.46562979898E+03  0.77885733004E+03  0.92653280117E+03  0.78295112210E+02 0.  0.
         11    1    3    3    0    0  0.22979820377E+03 -0.91226210850E+02 -0.34486386709E+03  0.42433538955E+03  0.00000000000E+00 0. -1.
        -11    1    3    3    0    0  0.48304035369E+02 -0.78728189691E+02 -0.12861729880E+03  0.15834714154E+03  0.00000000000E+00 0.  1.
          4    1    6    6  502    0 -0.13389153639E+03  0.26195321170E+03  0.48282515501E+03  0.56539062510E+03  0.00000000000E+00 0. -1.
          3    1    5    5  503    0 -0.73251380359E+02 -0.14572025744E+03  0.54970923704E+02  0.17211031522E+03  0.00000000000E+00 0. -1.
         -4    1    5    5    0  503 -0.34841868455E+02 -0.14995514100E+03 -0.16147196198E+02  0.15479416027E+03  0.00000000000E+00 0.  1.
         -3    1    6    6    0  502 -0.36117453931E+02  0.20367658728E+03  0.29603217502E+03  0.36114217607E+03  0.00000000000E+00 0.  1.
<mgrwt>
<rscale>  0 0.18035693E+04</rscale>
<asrwt>0</asrwt>
<pdfrwt beam="1">  1        1 0.11476307E+00 0.18035693E+04</pdfrwt>
<pdfrwt beam="2">  1       -1 0.16771690E+00 0.18035693E+04</pdfrwt>
<totfact> 0.59600872E+00</totfact>
</mgrwt>
</event>
<event>
12    1  0.1562393E-007  0.1629130E+04  0.7818608E-02  0.8802850E-01
          2   -1    0    0  501    0  0.00000000000E+00  0.00000000000E+00  0.12419939676E+04  0.12419939676E+04  0.00000000000E+00 0. -1.
         -2   -1    0    0    0  501 -0.00000000000E+00 -0.00000000000E+00 -0.53423427669E+03  0.53423427669E+03  0.00000000000E+00 0.  1.
         23    2    1    2    0    0  0.34196138350E+03  0.42795878363E+03  0.18278264056E+03  0.58469707495E+03  0.91514302048E+02 0.  0.
        254    2    1    2    0    0 -0.34196138350E+03 -0.42795878363E+03  0.52497705037E+03  0.11915311693E+04  0.91872700833E+03 0.  0.
        -24    2    4    4    0    0 -0.34143697942E+03 -0.58470720346E+03  0.47219768965E+02  0.68339242368E+03  0.79585007806E+02 0.  0.
         24    2    4    4    0    0 -0.52440408239E+00  0.15674841983E+03  0.47775728140E+03  0.50813874567E+03  0.73366360151E+02 0.  0.
         13    1    3    3    0    0  0.42433504051E+02  0.10713036840E+03  0.54164527777E+02  0.12732365911E+03  0.00000000000E+00 0. -1.
        -13    1    3    3    0    0  0.29952787945E+03  0.32082841523E+03  0.12861811278E+03  0.45737341585E+03  0.00000000000E+00 0.  1.
          4    1    6    6  502    0  0.23681929911E+02  0.10412316436E+03  0.22821181003E+03  0.25195852317E+03  0.00000000000E+00 0. -1.
          3    1    5    5  503    0 -0.27799810767E+03 -0.48900109126E+03  0.68369118616E+02  0.56663864279E+03  0.00000000000E+00 0. -1.
         -4    1    5    5    0  503 -0.63438871749E+02 -0.95706112193E+02 -0.21149349652E+02  0.11675378088E+03  0.00000000000E+00 0.  1.
         -3    1    6    6    0  502 -0.24206333993E+02  0.52625255467E+02  0.24954547138E+03  0.25618022250E+03  0.00000000000E+00 0.  1.
<mgrwt>
<rscale>  0 0.16291295E+04</rscale>
<asrwt>0</asrwt>
<pdfrwt beam="1">  1        2 0.19107600E+00 0.16291295E+04</pdfrwt>
<pdfrwt beam="2">  1       -2 0.82189889E-01 0.16291295E+04</pdfrwt>
<totfact> 0.22253339E+01</totfact>
</mgrwt>
</event>
<event>
12    1  0.1562393E-007  0.1648518E+04  0.7818608E-02  0.8791284E-01
         -1   -1    0    0    0  501 -0.00000000000E+00  0.00000000000E+00  0.77098052522E+03  0.77098052522E+03  0.00000000000E+00 0. -1.
          1   -1    0    0  501    0  0.00000000000E+00 -0.00000000000E+00 -0.88121899066E+03  0.88121899066E+03  0.00000000000E+00 0.  1.
         23    2    1    2    0    0  0.10856894020E+03 -0.28583916094E+02 -0.60630151828E+03  0.62349596276E+03  0.92419854325E+02 0.  0.
        254    2    1    2    0    0 -0.10856894020E+03  0.28583916094E+02  0.49606305284E+03  0.10287035531E+04  0.89417458740E+03 0.  0.
        -24    2    4    4    0    0 -0.35398340663E+03 -0.24557151397E+03  0.44417513965E+02  0.44061667502E+03  0.80997025335E+02 0.  0.
         24    2    4    4    0    0  0.24541446643E+03  0.27415543006E+03  0.45164553888E+03  0.58808687809E+03  0.80455100718E+02 0.  0.
         11    1    3    3    0    0  0.42959844269E+02  0.32176505819E+02 -0.17605898395E+03  0.18405879924E+03  0.00000000000E+00 0. -1.
        -11    1    3    3    0    0  0.65609095934E+02 -0.60760421913E+02 -0.43024253433E+03  0.43943716352E+03  0.00000000000E+00 0.  1.
          2    1    6    6  502    0  0.22818270865E+03  0.27044562400E+03  0.40275253407E+03  0.53611359595E+03  0.00000000000E+00 0. -1.
          3    1    5    5  503    0 -0.73504678839E+02 -0.92338381996E+02  0.63178475045E+00  0.11802420833E+03  0.00000000000E+00 0. -1.
         -4    1    5    5    0  503 -0.28047872779E+03 -0.15323313197E+03  0.43785729214E+02  0.32259246669E+03  0.00000000000E+00 0.  1.
         -1    1    6    6    0  502  0.17231757783E+02  0.37098060646E+01  0.48893004810E+02  0.51973282143E+02  0.00000000000E+00 0.  1.
<mgrwt>
<rscale>  0 0.16485177E+04</rscale>
<asrwt>0</asrwt>
<pdfrwt beam="1">  1        1 0.13557215E+00 0.16485177E+04</pdfrwt>
<pdfrwt beam="2">  1       -1 0.11861239E+00 0.16485177E+04</pdfrwt>
<totfact> 0.11482553E+01</totfact>
</mgrwt>
</event>
<event>
12    1  0.1562393E-007  0.1729865E+04  0.7818608E-02  0.8744512E-01
          1   -1    0    0  501    0  0.00000000000E+00  0.00000000000E+00  0.75702469356E+03  0.75702469356E+03  0.00000000000E+00 0. -1.
         -1   -1    0    0    0  501 -0.00000000000E+00 -0.00000000000E+00 -0.98822114055E+03  0.98822114055E+03  0.00000000000E+00 0.  1.
         23    2    1    2    0    0  0.52498869324E+03 -0.27322370491E+03  0.11808001498E+03  0.61040186948E+03  0.91559987851E+02 0.  0.
        254    2    1    2    0    0 -0.52498869324E+03  0.27322370491E+03 -0.34927646196E+03  0.11348439646E+04  0.90311264869E+03 0.  0.
        -24    2    4    4    0    0  0.13031442619E+03 -0.34596434604E+02 -0.37470295165E+03  0.40596599547E+03  0.78913399023E+02 0.  0.
         24    2    4    4    0    0 -0.65530311942E+03  0.30782013952E+03  0.25426489691E+02  0.72887796916E+03  0.80256905759E+02 0.  0.
         11    1    3    3    0    0  0.37440906428E+02 -0.16875167218E+02  0.33737001154E+02  0.53148640525E+02  0.00000000000E+00 0.  1.
        -11    1    3    3    0    0  0.48754778681E+03 -0.25634853770E+03  0.84343013822E+02  0.55725322896E+03  0.00000000000E+00 0. -1.
          4    1    6    6  502    0 -0.61384635073E+03  0.30482545158E+03  0.34876934373E+02  0.68625235795E+03  0.00000000000E+00 0. -1.
          1    1    5    5  503    0  0.98873695505E+02 -0.40159220244E+02 -0.18482503754E+03  0.21342226954E+03  0.00000000000E+00 0. -1.
         -2    1    5    5    0  503  0.31440730682E+02  0.55627856401E+01 -0.18987791411E+03  0.19254372593E+03  0.00000000000E+00 0.  1.
         -3    1    6    6    0  502 -0.41456768692E+02  0.29946879421E+01 -0.94504446818E+01  0.42625611209E+02  0.00000000000E+00 0.  1.
<mgrwt>
<rscale>  0 0.17298645E+04</rscale>
<asrwt>0</asrwt>
<pdfrwt beam="1">  1        1 0.11646534E+00 0.17298645E+04</pdfrwt>
<pdfrwt beam="2">  1       -1 0.15203402E+00 0.17298645E+04</pdfrwt>
<totfact> 0.77081570E+00</totfact>
</mgrwt>
</event>
<event>
12    1  0.1562393E-007  0.1550134E+04  0.7818608E-02  0.8851782E-01
          2   -1    0    0  501    0  0.00000000000E+00  0.00000000000E+00  0.18535205783E+04  0.18535205783E+04  0.00000000000E+00 0.  1.
         -2   -1    0    0    0  501 -0.00000000000E+00 -0.00000000000E+00 -0.32410139069E+03  0.32410139069E+03  0.00000000000E+00 0. -1.
         23    2    1    2    0    0 -0.33411610542E+03 -0.19445113251E+03  0.65364787564E+02  0.40428758391E+03  0.98646237728E+02 0.  0.
        254    2    1    2    0    0  0.33411610542E+03  0.19445113251E+03  0.14640544001E+04  0.17733343851E+04  0.92293810204E+03 0.  0.
        -24    2    4    4    0    0 -0.17287448961E+03  0.34373828175E+03  0.30279407371E+03  0.49492749405E+03  0.72300607153E+02 0.  0.
         24    2    4    4    0    0  0.50699059503E+03 -0.14928714924E+03  0.11612603264E+04  0.12784068911E+04  0.80451955579E+02 0.  0.
         11    1    3    3    0    0 -0.29007134104E+03 -0.16712633399E+03  0.90346262907E+02  0.34674924892E+03  0.00000000000E+00 0. -1.
        -11    1    3    3    0    0 -0.44044764383E+02 -0.27324798519E+02 -0.24981475344E+02  0.57538334995E+02  0.00000000000E+00 0.  1.
          4    1    6    6  502    0  0.44391037638E+03 -0.13547801214E+03  0.94684806922E+03  0.10544818539E+04  0.00000000000E+00 0. -1.
          3    1    5    5  503    0 -0.10255016405E+03  0.13020877896E+03  0.14555693181E+03  0.22058486499E+03  0.00000000000E+00 0. -1.
         -4    1    5    5    0  503 -0.70324325560E+02  0.21352950279E+03  0.15723714190E+03  0.27434262906E+03  0.00000000000E+00 0.  1.
         -3    1    6    6    0  502  0.63080218645E+02 -0.13809137094E+02  0.21441225715E+03  0.22392503716E+03  0.00000000000E+00 0.  1.
<mgrwt>
<rscale>  0 0.15501337E+04</rscale>
<asrwt>0</asrwt>
<pdfrwt beam="1">  1        2 0.28515701E+00 0.15501337E+04</pdfrwt>
<pdfrwt beam="2">  1       -2 0.49861753E-01 0.15501337E+04</pdfrwt>
<totfact> 0.29519846E+01</totfact>
</mgrwt>
</event>
<event>
12    1  0.1562393E-007  0.2282486E+04  0.7818608E-02  0.8484859E-01
         -1   -1    0    0    0  501 -0.00000000000E+00  0.00000000000E+00  0.73149476844E+03  0.73149476844E+03  0.00000000000E+00 0.  1.
          1   -1    0    0  501    0  0.00000000000E+00 -0.00000000000E+00 -0.17805117561E+04  0.17805117561E+04  0.00000000000E+00 0. -1.
         23    2    1    2    0    0 -0.71449997775E+03 -0.17057973849E+03 -0.11196556599E+04  0.13422314506E+04  0.91371794170E+02 0.  0.
        254    2    1    2    0    0  0.71449997775E+03  0.17057973849E+03  0.70638672235E+02  0.11697750740E+04  0.90762119647E+03 0.  0.
        -24    2    4    4    0    0  0.25967157217E+03  0.52050479639E+03  0.12539464236E+02  0.58716378675E+03  0.79053816125E+02 0.  0.
         24    2    4    4    0    0  0.45482840558E+03 -0.34992505790E+03  0.58099208000E+02  0.58261128723E+03  0.82121674173E+02 0.  0.
         13    1    3    3    0    0 -0.44663696990E+02 -0.11773097811E+02 -0.36692761750E+02  0.58989918001E+02  0.00000000000E+00 0.  1.
        -13    1    3    3    0    0 -0.66983628076E+03 -0.15880664068E+03 -0.10829628982E+04  0.12832415326E+04  0.00000000000E+00 0. -1.
          2    1    6    6  502    0  0.31828287942E+03 -0.28835890693E+03  0.53013151688E+02  0.43274154503E+03  0.00000000000E+00 0. -1.
          1    1    5    5  503    0  0.25937595332E+03  0.51179703213E+03  0.23734540276E+01  0.57377497379E+03  0.00000000000E+00 0. -1.
         -2    1    5    5    0  503  0.29561884823E+00  0.87077642567E+01  0.10166010208E+02  0.13388812957E+02  0.00000000000E+00 0.  1.
         -1    1    6    6    0  502  0.13654552616E+03 -0.61566150963E+02  0.50860563123E+01  0.14986974220E+03  0.00000000000E+00 0.  1.
<mgrwt>
<rscale>  0 0.22824855E+04</rscale>
<asrwt>0</asrwt>
<pdfrwt beam="1">  1        1 0.27392489E+00 0.22824855E+04</pdfrwt>
<pdfrwt beam="2">  1       -1 0.11253766E+00 0.22824855E+04</pdfrwt>
<totfact> 0.27484281E+00</totfact>
</mgrwt>
</event>
<event>
12    1  0.1562393E-007  0.1602965E+04  0.7818608E-02  0.8818728E-01
         -1   -1    0    0    0  501 -0.00000000000E+00  0.00000000000E+00  0.61347523422E+03  0.61347523422E+03  0.00000000000E+00 0.  1.
          1   -1    0    0  501    0  0.00000000000E+00 -0.00000000000E+00 -0.10471071961E+04  0.10471071961E+04  0.00000000000E+00 0. -1.
         23    2    1    2    0    0  0.17905975406E+03 -0.34653231137E+03 -0.55700929817E+03  0.68645184490E+03  0.93860208640E+02 0.  0.
        254    2    1    2    0    0 -0.17905975406E+03  0.34653231137E+03  0.12337733633E+03  0.97413058538E+03  0.88405960879E+03 0.  0.
        -24    2    4    4    0    0 -0.46125524517E+03  0.45539837353E+03  0.76382410677E+02  0.65760958708E+03  0.80448844296E+02 0.  0.
         24    2    4    4    0    0  0.28219549111E+03 -0.10886606216E+03  0.46994925655E+02  0.31652099830E+03  0.80566150674E+02 0.  0.
         11    1    3    3    0    0  0.12668927643E+03 -0.31625170727E+03 -0.47079960918E+03  0.58113474093E+03  0.00000000000E+00 0. -1.
        -11    1    3    3    0    0  0.52370477631E+02 -0.30280604105E+02 -0.86209688993E+02  0.10531710397E+03  0.00000000000E+00 0.  1.
          4    1    6    6  502    0  0.26474937520E+03 -0.79202749103E+02  0.53564534862E+02  0.28148617466E+03  0.00000000000E+00 0. -1.
          3    1    5    5  503    0 -0.43788339364E+03  0.44143086547E+03  0.88068530200E+02  0.62798020783E+03  0.00000000000E+00 0. -1.
         -4    1    5    5    0  503 -0.23371851526E+02  0.13967508068E+02 -0.11686119523E+02  0.29629379253E+02  0.00000000000E+00 0.  1.
         -3    1    6    6    0  502  0.17446115912E+02 -0.29663313057E+02 -0.65696092069E+01  0.35034823634E+02  0.00000000000E+00 0.  1.
<mgrwt>
<rscale>  0 0.16029652E+04</rscale>
<asrwt>0</asrwt>
<pdfrwt beam="1">  1        1 0.16109341E+00 0.16029652E+04</pdfrwt>
<pdfrwt beam="2">  1       -1 0.94380806E-01 0.16029652E+04</pdfrwt>
<totfact> 0.14502732E+01</totfact>
</mgrwt>
</event>
<event>
12    1  0.1562393E-007  0.1182584E+04  0.7818608E-02  0.9128239E-01
          2   -1    0    0  501    0  0.00000000000E+00  0.00000000000E+00  0.15511546887E+04  0.15511546887E+04  0.00000000000E+00 0. -1.
         -2   -1    0    0    0  501 -0.00000000000E+00 -0.00000000000E+00 -0.22539751096E+03  0.22539751096E+03  0.00000000000E+00 0.  1.
         23    2    1    2    0    0  0.15604862160E+03 -0.16306931797E+03  0.31251189015E+03  0.39619182591E+03  0.91441274412E+02 0.  0.
        254    2    1    2    0    0 -0.15604862160E+03  0.16306931797E+03  0.10132452875E+04  0.13803603737E+04  0.90982744178E+03 0.  0.
        -24    2    4    4    0    0 -0.74271010596E+02 -0.35598187312E+03  0.60506410985E+03  0.71042366831E+03  0.79749197205E+02 0.  0.
         24    2    4    4    0    0 -0.81777611007E+02  0.51905119109E+03  0.40818117769E+03  0.66993670540E+03  0.78112731293E+02 0.  0.
         11    1    3    3    0    0  0.15772303722E+03 -0.16078171163E+03  0.31819540203E+03  0.38984051757E+03  0.00000000000E+00 0. -1.
        -11    1    3    3    0    0 -0.16744156150E+01 -0.22876063426E+01 -0.56835118786E+01  0.63513083460E+01  0.00000000000E+00 0.  1.
          2    1    6    6  502    0 -0.78161087144E+02  0.46532600659E+03  0.33323790020E+03  0.57765469451E+03  0.00000000000E+00 0. -1.
          3    1    5    5  503    0  0.12230171781E+02 -0.11000579344E+03  0.20299464748E+03  0.23120916634E+03  0.00000000000E+00 0. -1.
         -4    1    5    5    0  503 -0.86501182377E+02 -0.24597607968E+03  0.40206946237E+03  0.47921450197E+03  0.00000000000E+00 0.  1.
         -1    1    6    6    0  502 -0.36165238627E+01  0.53725184495E+02  0.74943277485E+02  0.92282010891E+02  0.00000000000E+00 0.  1.
<mgrwt>
<rscale>  0 0.11825843E+04</rscale>
<asrwt>0</asrwt>
<pdfrwt beam="1">  1        2 0.23863918E+00 0.11825843E+04</pdfrwt>
<pdfrwt beam="2">  1       -2 0.34676541E-01 0.11825843E+04</pdfrwt>
<totfact> 0.91455164E+01</totfact>
</mgrwt>
</event>
<event>
12    1  0.1562393E-007  0.9985784E+03  0.7818608E-02  0.9310105E-01
          2   -1    0    0  501    0  0.00000000000E+00  0.00000000000E+00  0.15799367967E+04  0.15799367967E+04  0.00000000000E+00 0. -1.
         -2   -1    0    0    0  501 -0.00000000000E+00 -0.00000000000E+00 -0.15778461305E+03  0.15778461305E+03  0.00000000000E+00 0.  1.
         23    2    1    2    0    0 -0.10229379010E+03  0.43854705029E+02  0.35711281940E+03  0.38483340658E+03  0.90442967667E+02 0.  0.
        254    2    1    2    0    0  0.10229379010E+03 -0.43854705029E+02  0.10650393642E+04  0.13528880032E+04  0.82680701924E+03 0.  0.
        -24    2    4    4    0    0 -0.17061576959E+03  0.29175029008E+03  0.25543645738E+03  0.43150262194E+03  0.81968020521E+02 0.  0.
         24    2    4    4    0    0  0.27290955970E+03 -0.33560499511E+03  0.80960290687E+03  0.92138538122E+03  0.79898769743E+02 0.  0.
         11    1    3    3    0    0 -0.14219315786E+02  0.21012753388E+01 -0.29131909502E+00  0.14376688293E+02  0.00000000000E+00 0.  1.
        -11    1    3    3    0    0 -0.88074474316E+02  0.41753429691E+02  0.35740413849E+03  0.37045671829E+03  0.00000000000E+00 0. -1.
          2    1    6    6  502    0  0.13903327809E+03 -0.10951952448E+03  0.31443396333E+03  0.36082335838E+03  0.00000000000E+00 0. -1.
          3    1    5    5  503    0 -0.81643287070E+02  0.68642960644E+02  0.64367788983E+02  0.12458207988E+03  0.00000000000E+00 0. -1.
         -4    1    5    5    0  503 -0.88972482524E+02  0.22310732943E+03  0.19106866840E+03  0.30692054206E+03  0.00000000000E+00 0.  1.
         -1    1    6    6    0  502  0.13387628161E+03 -0.22608547063E+03  0.49516894354E+03  0.56056202284E+03  0.00000000000E+00 0.  1.
<mgrwt>
<rscale>  0 0.99857842E+03</rscale>
<asrwt>0</asrwt>
<pdfrwt beam="1">  1        2 0.24306719E+00 0.99857842E+03</pdfrwt>
<pdfrwt beam="2">  1       -2 0.24274557E-01 0.99857842E+03</pdfrwt>
<totfact> 0.17284245E+02</totfact>
</mgrwt>
</event>
<event>
12    1  0.1562393E-007  0.1789631E+04  0.7818608E-02  0.8711833E-01
          2   -1    0    0  501    0  0.00000000000E+00  0.00000000000E+00  0.16612916855E+04  0.16612916855E+04  0.00000000000E+00 0. -1.
         -2   -1    0    0    0  501 -0.00000000000E+00 -0.00000000000E+00 -0.48197135865E+03  0.48197135865E+03  0.00000000000E+00 0.  1.
         23    2    1    2    0    0  0.47335929727E+03 -0.10063178602E+03 -0.95141510987E+02  0.50168960716E+03  0.91895452277E+02 0.  0.
        254    2    1    2    0    0 -0.47335929727E+03  0.10063178602E+03  0.12744618378E+04  0.16415734369E+04  0.91450237409E+03 0.  0.
        -24    2    4    4    0    0 -0.68296922137E+02  0.50514939393E+02  0.12161422103E+04  0.12216493524E+04  0.78797435745E+02 0.  0.
         24    2    4    4    0    0 -0.40506237513E+03  0.50116846627E+02  0.58319627524E+02  0.41992408457E+03  0.79673281487E+02 0.  0.
         13    1    3    3    0    0  0.16004516324E+03 -0.43329200828E+00 -0.29663548219E+01  0.16007323724E+03  0.00000000000E+00 0. -1.
        -13    1    3    3    0    0  0.31331413403E+03 -0.10019849401E+03 -0.92175156165E+02  0.34161636992E+03  0.00000000000E+00 0.  1.
          4    1    6    6  502    0 -0.36525174870E+03  0.47973062510E+02  0.27279932543E+02  0.36939741388E+03  0.00000000000E+00 0. -1.
          3    1    5    5  503    0 -0.74086004135E+02  0.66058335493E+02  0.10501070325E+04  0.10547877603E+04  0.00000000000E+00 0. -1.
         -4    1    5    5    0  503  0.57890819986E+01 -0.15543396100E+02  0.16603517781E+03  0.16686159205E+03  0.00000000000E+00 0.  1.
         -3    1    6    6    0  502 -0.39810626429E+02  0.21437841167E+01  0.31039694981E+02  0.50526670695E+02  0.00000000000E+00 0.  1.
<mgrwt>
<rscale>  0 0.17896313E+04</rscale>
<asrwt>0</asrwt>
<pdfrwt beam="1">  1        2 0.25558333E+00 0.17896313E+04</pdfrwt>
<pdfrwt beam="2">  1       -2 0.74149441E-01 0.17896313E+04</pdfrwt>
<totfact> 0.15946232E+01</totfact>
</mgrwt>
</event>
<event>
12    1  0.1562393E-007  0.1824123E+04  0.7818608E-02  0.8693575E-01
          1   -1    0    0  501    0  0.00000000000E+00  0.00000000000E+00  0.18643088884E+04  0.18643088884E+04  0.00000000000E+00 0. -1.
         -1   -1    0    0    0  501 -0.00000000000E+00 -0.00000000000E+00 -0.44620078715E+03  0.44620078715E+03  0.00000000000E+00 0.  1.
         23    2    1    2    0    0 -0.62494674692E+03 -0.18581399243E+03  0.29017608107E+03  0.71943532185E+03  0.91102952948E+02 0.  0.
        254    2    1    2    0    0  0.62494674692E+03  0.18581399243E+03  0.11279320202E+04  0.15910743537E+04  0.91334641874E+03 0.  0.
        -24    2    4    4    0    0  0.60789642299E+03 -0.11876306150E+03  0.11122493381E+04  0.12752607252E+04  0.74488932835E+02 0.  0.
         24    2    4    4    0    0  0.17050323926E+02  0.30457705393E+03  0.15682682074E+02  0.31581362856E+03  0.80214750165E+02 0.  0.
         13    1    3    3    0    0 -0.46763230373E+03 -0.17939764676E+03  0.21893024861E+03  0.54662047246E+03  0.00000000000E+00 0.  1.
        -13    1    3    3    0    0 -0.15731444319E+03 -0.64163456669E+01  0.71245832462E+02  0.17281484939E+03  0.00000000000E+00 0. -1.
          4    1    6    6  502    0  0.25478010047E+01  0.11754736233E+02 -0.16991077839E+02  0.20817344692E+02  0.00000000000E+00 0. -1.
          3    1    5    5  503    0  0.15178592401E+03  0.23995504244E+01  0.28144847486E+03  0.31977799888E+03  0.00000000000E+00 0. -1.
         -4    1    5    5    0  503  0.45611049898E+03 -0.12116261192E+03  0.83080086328E+03  0.95548272628E+03  0.00000000000E+00 0.  1.
         -3    1    6    6    0  502  0.14502522921E+02  0.29282231770E+03  0.32673759914E+02  0.29499628387E+03  0.00000000000E+00 0.  1.
<mgrwt>
<rscale>  0 0.18241229E+04</rscale>
<asrwt>0</asrwt>
<pdfrwt beam="1">  1        1 0.28681675E+00 0.18241229E+04</pdfrwt>
<pdfrwt beam="2">  1       -1 0.68646276E-01 0.18241229E+04</pdfrwt>
<totfact> 0.74501426E+00</totfact>
</mgrwt>
</event>
<event>
12    1  0.1562393E-007  0.1787400E+04  0.7818608E-02  0.8713029E-01
         -1   -1    0    0    0  501 -0.00000000000E+00  0.00000000000E+00  0.24046952375E+03  0.24046952375E+03  0.00000000000E+00 0.  1.
          1   -1    0    0  501    0  0.00000000000E+00 -0.00000000000E+00 -0.33214161412E+04  0.33214161412E+04  0.00000000000E+00 0. -1.
         23    2    1    2    0    0  0.47848944743E+03 -0.10220934749E+03 -0.20440936413E+04  0.21037191919E+04  0.88975962809E+02 0.  0.
        254    2    1    2    0    0 -0.47848944743E+03  0.10220934749E+03 -0.10368529761E+04  0.14581664730E+04  0.90099193500E+03 0.  0.
        -24    2    4    4    0    0 -0.16940662533E+03 -0.21444651602E+03  0.43188238665E+02  0.28809046946E+03  0.80280643326E+02 0.  0.
         24    2    4    4    0    0 -0.30908282210E+03  0.31665586351E+03 -0.10800412148E+04  0.11700760036E+04  0.82375370435E+02 0.  0.
         11    1    3    3    0    0  0.20773959110E+02 -0.26018333129E+02 -0.13606440383E+03  0.14007866727E+03  0.00000000000E+00 0.  1.
        -11    1    3    3    0    0  0.45771548832E+03 -0.76191014360E+02 -0.19080292375E+04  0.19636405246E+04  0.00000000000E+00 0. -1.
          4    1    6    6  502    0 -0.28412002992E+03  0.25242488797E+03 -0.94234462857E+03  0.10160983783E+04  0.00000000000E+00 0. -1.
          3    1    5    5  503    0 -0.16757569067E+03 -0.17115809026E+03  0.24095868892E+02  0.24074325507E+03  0.00000000000E+00 0. -1.
         -4    1    5    5    0  503 -0.18309346649E+01 -0.43288425762E+02  0.19092369773E+02  0.47347214388E+02  0.00000000000E+00 0.  1.
         -3    1    6    6    0  502 -0.24962792174E+02  0.64230975546E+02 -0.13769658623E+03  0.15397762523E+03  0.00000000000E+00 0.  1.
<mgrwt>
<rscale>  0 0.17873996E+04</rscale>
<asrwt>0</asrwt>
<pdfrwt beam="1">  1        1 0.51098708E+00 0.17873996E+04</pdfrwt>
<pdfrwt beam="2">  1       -1 0.36995313E-01 0.17873996E+04</pdfrwt>
<totfact> 0.22933978E+00</totfact>
</mgrwt>
</event>
<event>
12    1  0.1638170E-007  0.2196561E+04  0.7818608E-02  0.8519861E-01
         -2   -1    0    0    0  501 -0.00000000000E+00  0.00000000000E+00  0.41129414903E+03  0.41129414903E+03  0.00000000000E+00 0.  1.
          2   -1    0    0  501    0  0.00000000000E+00 -0.00000000000E+00 -0.29327443119E+04  0.29327443119E+04  0.00000000000E+00 0. -1.
         23    2    1    2    0    0  0.49576848680E+03 -0.19052513768E+03  0.71874637950E+02  0.54386435846E+03  0.92391862341E+02 0.  0.
        254    2    1    2    0    0 -0.49576848680E+03  0.19052513768E+03 -0.25933248008E+04  0.28001741024E+04  0.91299247589E+03 0.  0.
        -24    2    4    4    0    0 -0.12211457916E+03  0.70668402048E+02  0.13438585142E+02  0.16287937053E+03  0.80268924769E+02 0.  0.
         24    2    4    4    0    0 -0.37365390764E+03  0.11985673564E+03 -0.26067633859E+04  0.26372947319E+04  0.78264123135E+02 0.  0.
         11    1    3    3    0    0  0.17607353897E+03 -0.53077492061E+02  0.67352248991E+02  0.19584544093E+03  0.00000000000E+00 0. -1.
        -11    1    3    3    0    0  0.31969494783E+03 -0.13744764562E+03  0.45223889589E+01  0.34801891752E+03  0.00000000000E+00 0.  1.
          2    1    6    6  502    0 -0.11212808519E+02  0.12950246811E+02 -0.52322591157E+02  0.55055331375E+02  0.00000000000E+00 0. -1.
          3    1    5    5  503    0 -0.24335331763E+02  0.46016202159E+02 -0.21272149542E+02  0.56233473833E+02  0.00000000000E+00 0. -1.
         -4    1    5    5    0  503 -0.97779247398E+02  0.24652199889E+02  0.34710734684E+02  0.10664589670E+03  0.00000000000E+00 0.  1.
         -1    1    6    6    0  502 -0.36244109912E+03  0.10690648883E+03 -0.25544407948E+04  0.25822394005E+04  0.00000000000E+00 0.  1.
<mgrwt>
<rscale>  0 0.21965615E+04</rscale>
<asrwt>0</asrwt>
<pdfrwt beam="1">  1        2 0.45119143E+00 0.21965615E+04</pdfrwt>
<pdfrwt beam="2">  1       -2 0.63276024E-01 0.21965615E+04</pdfrwt>
<totfact> 0.40592379E+00</totfact>
</mgrwt>
</event>
<event>
12    1  0.1562393E-007  0.1435234E+04  0.7818608E-02  0.8928702E-01
          2   -1    0    0  501    0  0.00000000000E+00  0.00000000000E+00  0.19710695987E+04  0.19710695987E+04  0.00000000000E+00 0. -1.
         -2   -1    0    0    0  501 -0.00000000000E+00 -0.00000000000E+00 -0.26126618405E+03  0.26126618405E+03  0.00000000000E+00 0.  1.
         23    2    1    2    0    0  0.41729799462E+03  0.19435949524E+02  0.39206319948E+03  0.58022116590E+03  0.91802377557E+02 0.  0.
        254    2    1    2    0    0 -0.41729799462E+03 -0.19435949524E+02  0.13177402152E+04  0.16521146169E+04  0.90472540591E+03 0.  0.
        -24    2    4    4    0    0 -0.51696790516E+03 -0.29170715612E+03  0.49950735033E+03  0.78036192470E+03  0.84310501048E+02 0.  0.
         24    2    4    4    0    0  0.99669910542E+02  0.27227120660E+03  0.81823286488E+03  0.87175269218E+03  0.79887634547E+02 0.  0.
         13    1    3    3    0    0  0.47370949802E+02  0.19768871921E+02  0.85734389851E+02  0.99925976529E+02  0.00000000000E+00 0. -1.
        -13    1    3    3    0    0  0.36992704482E+03 -0.33292239677E+00  0.30632880963E+03  0.48029518937E+03  0.00000000000E+00 0.  1.
          4    1    6    6  502    0 -0.11245017157E+02  0.35399447694E+02  0.72105120770E+02  0.81109307414E+02  0.00000000000E+00 0. -1.
          3    1    5    5  503    0 -0.53108622660E+02 -0.55500348912E+02  0.43164512759E+02  0.88113504595E+02  0.00000000000E+00 0. -1.
         -4    1    5    5    0  503 -0.46385928250E+03 -0.23620680721E+03  0.45634283757E+03  0.69224842011E+03  0.00000000000E+00 0.  1.
         -3    1    6    6    0  502  0.11091492770E+03  0.23687175890E+03  0.74612774411E+03  0.79064338477E+03  0.00000000000E+00 0.  1.
<mgrwt>
<rscale>  0 0.14352335E+04</rscale>
<asrwt>0</asrwt>
<pdfrwt beam="1">  1        2 0.30324147E+00 0.14352335E+04</pdfrwt>
<pdfrwt beam="2">  1       -2 0.40194799E-01 0.14352335E+04</pdfrwt>
<totfact> 0.39449498E+01</totfact>
</mgrwt>
</event>
<event>
12    1  0.1562393E-007  0.1337038E+04  0.7818608E-02  0.9000698E-01
          1   -1    0    0  501    0  0.00000000000E+00  0.00000000000E+00  0.14130132771E+04  0.14130132771E+04  0.00000000000E+00 0. -1.
         -1   -1    0    0    0  501 -0.00000000000E+00 -0.00000000000E+00 -0.31628701554E+03  0.31628701554E+03  0.00000000000E+00 0.  1.
         23    2    1    2    0    0 -0.15918245969E+03 -0.14622862697E+03  0.66091133513E+03  0.70152941312E+03  0.92832417532E+02 0.  0.
        254    2    1    2    0    0  0.15918245969E+03  0.14622862697E+03  0.43581492640E+03  0.10277708795E+04  0.90534880783E+03 0.  0.
        -24    2    4    4    0    0  0.14290920131E+03  0.35168600358E+02  0.70573808428E+03  0.72526842961E+03  0.79298052416E+02 0.  0.
         24    2    4    4    0    0  0.16273258376E+02  0.11106002661E+03 -0.26992315788E+03  0.30250244987E+03  0.77782212434E+02 0.  0.
         11    1    3    3    0    0 -0.90906173108E+02 -0.95651123723E+02  0.25836234797E+03  0.29011062136E+03  0.00000000000E+00 0. -1.
        -11    1    3    3    0    0 -0.68276286582E+02 -0.50577503245E+02  0.40254898717E+03  0.41141879176E+03  0.00000000000E+00 0.  1.
          2    1    6    6  502    0  0.47315364275E+02  0.74463159821E+02 -0.18495011375E+03  0.20491473945E+03  0.00000000000E+00 0. -1.
          3    1    5    5  503    0  0.11846940390E+03  0.58300632055E+02  0.51966203233E+03  0.53617403071E+03  0.00000000000E+00 0. -1.
         -4    1    5    5    0  503  0.24439797412E+02 -0.23132031697E+02  0.18607605195E+03  0.18909439890E+03  0.00000000000E+00 0.  1.
         -1    1    6    6    0  502 -0.31042105899E+02  0.36596866789E+02 -0.84973044129E+02  0.97587710425E+02  0.00000000000E+00 0.  1.
<mgrwt>
<rscale>  0 0.13370381E+04</rscale>
<asrwt>0</asrwt>
<pdfrwt beam="1">  1        1 0.21738665E+00 0.13370381E+04</pdfrwt>
<pdfrwt beam="2">  1       -1 0.48659542E-01 0.13370381E+04</pdfrwt>
<totfact> 0.31149947E+01</totfact>
</mgrwt>
</event>
<event>
12    1  0.1562393E-007  0.2113606E+04  0.7818608E-02  0.8555273E-01
          1   -1    0    0  501    0  0.00000000000E+00  0.00000000000E+00  0.76647327526E+03  0.76647327526E+03  0.00000000000E+00 0. -1.
         -1   -1    0    0    0  501 -0.00000000000E+00 -0.00000000000E+00 -0.14571055907E+04  0.14571055907E+04  0.00000000000E+00 0.  1.
         23    2    1    2    0    0 -0.69386599528E+03  0.11266550693E+03 -0.80167261513E+03  0.10700554826E+04  0.90532966798E+02 0.  0.
        254    2    1    2    0    0  0.69386599528E+03 -0.11266550693E+03  0.11104029968E+03  0.11535233834E+04  0.90782306208E+03 0.  0.
        -24    2    4    4    0    0  0.16257086858E+03  0.17463298237E+03  0.40538605885E+03  0.47719634552E+03  0.80327639225E+02 0.  0.
         24    2    4    4    0    0  0.53129512669E+03 -0.28729848930E+03 -0.29434575917E+03  0.67632703788E+03  0.77226307811E+02 0.  0.
         11    1    3    3    0    0 -0.30665239915E+03  0.94078245075E+02 -0.37953328343E+03  0.49692245203E+03  0.00000000000E+00 0.  1.
        -11    1    3    3    0    0 -0.38721359612E+03  0.18587261858E+02 -0.42213933170E+03  0.57313303054E+03  0.00000000000E+00 0. -1.
          4    1    6    6  502    0  0.26473702605E+03 -0.99998400977E+02 -0.14405479609E+03  0.31754866940E+03  0.00000000000E+00 0. -1.
          1    1    5    5  503    0  0.66080378255E+02  0.91444236489E+02  0.26275186169E+03  0.28594965571E+03  0.00000000000E+00 0. -1.
         -2    1    5    5    0  503  0.96490490326E+02  0.83188745876E+02  0.14263419716E+03  0.19124668981E+03  0.00000000000E+00 0.  1.
         -3    1    6    6    0  502  0.26655810065E+03 -0.18730008832E+03 -0.15029096308E+03  0.35877836848E+03  0.00000000000E+00 0.  1.
<mgrwt>
<rscale>  0 0.21136059E+04</rscale>
<asrwt>0</asrwt>
<pdfrwt beam="1">  1        1 0.11791897E+00 0.21136059E+04</pdfrwt>
<pdfrwt beam="2">  1       -1 0.22417009E+00 0.21136059E+04</pdfrwt>
<totfact> 0.22438591E+00</totfact>
</mgrwt>
</event>
<event>
12    1  0.1562393E-007  0.1910873E+04  0.7818608E-02  0.8649463E-01
          2   -1    0    0  501    0  0.00000000000E+00  0.00000000000E+00  0.15014135626E+04  0.15014135626E+04  0.00000000000E+00 0. -1.
         -2   -1    0    0    0  501 -0.00000000000E+00 -0.00000000000E+00 -0.60799972509E+03  0.60799972509E+03  0.00000000000E+00 0.  1.
         23    2    1    2    0    0 -0.19044277741E+03 -0.84586441713E+02  0.11348374149E+04  0.11565677053E+04  0.79809654769E+02 0.  0.
        254    2    1    2    0    0  0.19044277741E+03  0.84586441713E+02 -0.24142357743E+03  0.95284558239E+03  0.89788977193E+03 0.  0.
        -24    2    4    4    0    0  0.10595662775E+03  0.34212978865E+03  0.20972677049E+03  0.42109683396E+03  0.71116988596E+02 0.  0.
         24    2    4    4    0    0  0.84486149652E+02 -0.25754334694E+03 -0.45115034792E+03  0.53174874842E+03  0.75852554246E+02 0.  0.
         13    1    3    3    0    0 -0.35152600749E+02 -0.15708521775E+02  0.42262675054E+03  0.42437699427E+03  0.00000000000E+00 0.  1.
        -13    1    3    3    0    0 -0.15529017666E+03 -0.68877919938E+02  0.71221066436E+03  0.73219071098E+03  0.00000000000E+00 0. -1.
          4    1    6    6  502    0  0.82581770017E+02 -0.24640730126E+03 -0.38411391106E+03  0.46376697115E+03  0.00000000000E+00 0. -1.
          3    1    5    5  503    0  0.24418622108E+02  0.19747653266E+03  0.10889795844E+03  0.22683036704E+03  0.00000000000E+00 0. -1.
         -4    1    5    5    0  503  0.81538005646E+02  0.14465325599E+03  0.10082881205E+03  0.19426646693E+03  0.00000000000E+00 0.  1.
         -3    1    6    6    0  502  0.19043796354E+01 -0.11136045676E+02 -0.67036436859E+02  0.67981777277E+02  0.00000000000E+00 0.  1.
<mgrwt>
<rscale>  0 0.19108731E+04</rscale>
<asrwt>0</asrwt>
<pdfrwt beam="1">  1        2 0.23098670E+00 0.19108731E+04</pdfrwt>
<pdfrwt beam="2">  1       -2 0.93538419E-01 0.19108731E+04</pdfrwt>
<totfact> 0.11458449E+01</totfact>
</mgrwt>
</event>
<event>
12    1  0.1562393E-007  0.1397681E+04  0.7818608E-02  0.8955499E-01
         -1   -1    0    0    0  501 -0.00000000000E+00  0.00000000000E+00  0.41746219261E+03  0.41746219261E+03  0.00000000000E+00 0.  1.
          1   -1    0    0  501    0  0.00000000000E+00 -0.00000000000E+00 -0.11698734052E+04  0.11698734052E+04  0.00000000000E+00 0. -1.
         23    2    1    2    0    0  0.11911583888E+03 -0.28081294712E+03  0.55977581402E+02  0.32188245956E+03  0.86199384034E+02 0.  0.
        254    2    1    2    0    0 -0.11911583888E+03  0.28081294712E+03 -0.80838879395E+03  0.12654531382E+04  0.92457271669E+03 0.  0.
        -24    2    4    4    0    0 -0.13827842575E+03  0.44444496886E+03 -0.38289337228E+02  0.47361306904E+03  0.78682987042E+02 0.  0.
         24    2    4    4    0    0  0.19162586861E+02 -0.16363202174E+03 -0.77009945672E+03  0.79184006915E+03  0.82552278006E+02 0.  0.
         11    1    3    3    0    0 -0.21102183737E+01 -0.62414836928E+02  0.34062835872E+02  0.71136078595E+02  0.00000000000E+00 0.  1.
        -11    1    3    3    0    0  0.12122605726E+03 -0.21839811019E+03  0.21914745530E+02  0.25074638096E+03  0.00000000000E+00 0. -1.
          4    1    6    6  502    0  0.15851921373E+02 -0.98035496170E+02 -0.62134096859E+03  0.62922717771E+03  0.00000000000E+00 0. -1.
          1    1    5    5  503    0 -0.13518973984E+03  0.43316636716E+03 -0.50658368937E+02  0.45659132465E+03  0.00000000000E+00 0. -1.
         -2    1    5    5    0  503 -0.30886859014E+01  0.11278601701E+02  0.12369031708E+02  0.17021744397E+02  0.00000000000E+00 0.  1.
         -3    1    6    6    0  502  0.33106654886E+01 -0.65596525573E+02 -0.14875848812E+03  0.16261289144E+03  0.00000000000E+00 0.  1.
<mgrwt>
<rscale>  0 0.13976808E+04</rscale>
<asrwt>0</asrwt>
<pdfrwt beam="1">  1        1 0.17998052E+00 0.13976808E+04</pdfrwt>
<pdfrwt beam="2">  1       -1 0.64224953E-01 0.13976808E+04</pdfrwt>
<totfact> 0.26960782E+01</totfact>
</mgrwt>
</event>
<event>
12    1  0.1562393E-007  0.1866507E+04  0.7818608E-02  0.8671710E-01
         -2   -1    0    0    0  501 -0.00000000000E+00  0.00000000000E+00  0.31996540024E+03  0.31996540024E+03  0.00000000000E+00 0.  1.
          2   -1    0    0  501    0  0.00000000000E+00 -0.00000000000E+00 -0.27220516992E+04  0.27220516992E+04  0.00000000000E+00 0. -1.
         23    2    1    2    0    0 -0.45646091998E+03 -0.46116026294E+03 -0.12270338060E+04  0.13909163055E+04  0.89503342700E+02 0.  0.
        254    2    1    2    0    0  0.45646091998E+03  0.46116026294E+03 -0.11750524930E+04  0.16511007940E+04  0.96143648300E+03 0.  0.
        -24    2    4    4    0    0  0.27287021430E+03 -0.85354141335E+02  0.43986220013E+02  0.30026349694E+03  0.80497805875E+02 0.  0.
         24    2    4    4    0    0  0.18359070568E+03  0.54651440428E+03 -0.12190387130E+04  0.13508372970E+04  0.79514010264E+02 0.  0.
         11    1    3    3    0    0 -0.30792984621E+03 -0.34271695767E+03 -0.93790435509E+03  0.10449594646E+04  0.00000000000E+00 0.  1.
        -11    1    3    3    0    0 -0.14853107377E+03 -0.11844330527E+03 -0.28912945089E+03  0.34595684096E+03  0.00000000000E+00 0. -1.
          4    1    6    6  502    0  0.12955953995E+03  0.45489823920E+03 -0.10416035746E+04  0.11439650733E+04  0.00000000000E+00 0. -1.
          3    1    5    5  503    0  0.26795061925E+03 -0.64544991339E+02  0.39779027034E+02  0.27847075476E+03  0.00000000000E+00 0. -1.
         -4    1    5    5    0  503  0.49195950432E+01 -0.20809149996E+02  0.42071929783E+01  0.21792742180E+02  0.00000000000E+00 0.  1.
         -3    1    6    6    0  502  0.54031165734E+02  0.91616165076E+02 -0.17743513848E+03  0.20687222370E+03  0.00000000000E+00 0.  1.
<mgrwt>
<rscale>  0 0.18665073E+04</rscale>
<asrwt>0</asrwt>
<pdfrwt beam="1">  1        2 0.41877718E+00 0.18665073E+04</pdfrwt>
<pdfrwt beam="2">  1       -2 0.49225447E-01 0.18665073E+04</pdfrwt>
<totfact> 0.94683538E+00</totfact>
</mgrwt>
</event>
<event>
12    1  0.1562393E-007  0.1638164E+04  0.7818608E-02  0.8797439E-01
         -2   -1    0    0    0  501 -0.00000000000E+00  0.00000000000E+00  0.37586476752E+03  0.37586476752E+03  0.00000000000E+00 0.  1.
          2   -1    0    0  501    0  0.00000000000E+00 -0.00000000000E+00 -0.17849382855E+04  0.17849382855E+04  0.00000000000E+00 0. -1.
         23    2    1    2    0    0 -0.30273368813E+03  0.10195132004E+03 -0.11193477422E+04  0.11675739475E+04  0.90817384281E+02 0.  0.
        254    2    1    2    0    0  0.30273368813E+03 -0.10195132004E+03 -0.28972577577E+03  0.99322910553E+03  0.89471854420E+03 0.  0.
        -24    2    4    4    0    0  0.47156044245E+03 -0.33867736742E+02  0.15680879070E+03  0.50434540102E+03  0.79113919260E+02 0.  0.
         24    2    4    4    0    0 -0.16882675431E+03 -0.68083583295E+02 -0.44653456648E+03  0.48888370450E+03  0.80475525352E+02 0.  0.
         13    1    3    3    0    0 -0.23665482001E+03  0.11308006951E+03 -0.94723366702E+03  0.98287548850E+03  0.00000000000E+00 0. -1.
        -13    1    3    3    0    0 -0.66078868126E+02 -0.11128749469E+02 -0.17211407522E+03  0.18469845902E+03  0.00000000000E+00 0.  1.
          2    1    6    6  502    0  0.23978770175E+01  0.35865552794E+01  0.95944540611E+00  0.44196977782E+01  0.00000000000E+00 0. -1.
          3    1    5    5  503    0  0.29591912110E+03 -0.59286635939E+02  0.10313162525E+03  0.31893441890E+03  0.00000000000E+00 0. -1.
         -4    1    5    5    0  503  0.17564132134E+03  0.25418899197E+02  0.53677165458E+02  0.18541098212E+03  0.00000000000E+00 0.  1.
         -1    1    6    6    0  502 -0.17122463133E+03 -0.71670138574E+02 -0.44749401188E+03  0.48446400672E+03  0.00000000000E+00 0.  1.
<mgrwt>
<rscale>  0 0.16381641E+04</rscale>
<asrwt>0</asrwt>
<pdfrwt beam="1">  1        2 0.27460588E+00 0.16381641E+04</pdfrwt>
<pdfrwt beam="2">  1       -2 0.57825350E-01 0.16381641E+04</pdfrwt>
<totfact> 0.23545251E+01</totfact>
</mgrwt>
</event>
<event>
12    1  0.1562393E-007  0.1736265E+04  0.7818608E-02  0.8740947E-01
          1   -1    0    0  501    0  0.00000000000E+00  0.00000000000E+00  0.77490780571E+03  0.77490780571E+03  0.00000000000E+00 0. -1.
         -1   -1    0    0    0  501 -0.00000000000E+00 -0.00000000000E+00 -0.97257222328E+03  0.97257222328E+03  0.00000000000E+00 0.  1.
         23    2    1    2    0    0  0.36313012393E+03  0.17090861213E+03  0.41547767829E+03  0.58498645611E+03  0.92272488203E+02 0.  0.
        254    2    1    2    0    0 -0.36313012393E+03 -0.17090861213E+03 -0.61314209586E+03  0.11624935729E+04  0.90242719190E+03 0.  0.
        -24    2    4    4    0    0  0.23590379115E+01  0.26266386642E+03 -0.51129991416E+03  0.58092308598E+03  0.83941395171E+02 0.  0.
         24    2    4    4    0    0 -0.36548916184E+03 -0.43357247854E+03 -0.10184218170E+03  0.58157048691E+03  0.79277863866E+02 0.  0.
         11    1    3    3    0    0  0.32772361087E+03  0.17818340193E+03  0.35760287779E+03  0.51675130194E+03  0.00000000000E+00 0. -1.
        -11    1    3    3    0    0  0.35406513058E+02 -0.72747898063E+01  0.57874800491E+02  0.68235154176E+02  0.00000000000E+00 0.  1.
          4    1    6    6  502    0 -0.15367967663E+02 -0.54075768655E+02 -0.11808264701E+02  0.57443870874E+02  0.00000000000E+00 0. -1.
          3    1    5    5  503    0 -0.34166543844E+02  0.19507520706E+03 -0.34672793927E+03  0.39930183196E+03  0.00000000000E+00 0. -1.
         -2    1    5    5    0  503  0.36525581756E+02  0.67588659352E+02 -0.16457197488E+03  0.18162125402E+03  0.00000000000E+00 0.  1.
         -3    1    6    6    0  502 -0.35012119417E+03 -0.37949670989E+03 -0.90033916999E+02  0.52412661603E+03  0.00000000000E+00 0.  1.
<mgrwt>
<rscale>  0 0.17362647E+04</rscale>
<asrwt>0</asrwt>
<pdfrwt beam="1">  1        1 0.11921659E+00 0.17362647E+04</pdfrwt>
<pdfrwt beam="2">  1       -1 0.14962650E+00 0.17362647E+04</pdfrwt>
<totfact> 0.77533238E+00</totfact>
</mgrwt>
</event>
<event>
12    1  0.1562393E-007  0.1548896E+04  0.7818608E-02  0.8852574E-01
          2   -1    0    0  501    0  0.00000000000E+00  0.00000000000E+00  0.50518825929E+03  0.50518825929E+03  0.00000000000E+00 0. -1.
         -2   -1    0    0    0  501 -0.00000000000E+00 -0.00000000000E+00 -0.11872195057E+04  0.11872195057E+04  0.00000000000E+00 0.  1.
         23    2    1    2    0    0  0.38637657219E+03  0.33279662185E+03 -0.26986503201E+03  0.58414503462E+03  0.91421216955E+02 0.  0.
        254    2    1    2    0    0 -0.38637657219E+03 -0.33279662185E+03 -0.41216621438E+03  0.11082627304E+04  0.89349025969E+03 0.  0.
        -24    2    4    4    0    0 -0.30132433005E+03 -0.25485297848E+03 -0.68898941718E+03  0.79803750541E+03  0.80069036066E+02 0.  0.
         24    2    4    4    0    0 -0.85052242144E+02 -0.77943643375E+02  0.27682320281E+03  0.31022522494E+03  0.79369447156E+02 0.  0.
         13    1    3    3    0    0  0.78160296544E+02  0.95087896152E+02 -0.29153669869E+02  0.12649378015E+03  0.00000000000E+00 0.  1.
        -13    1    3    3    0    0  0.30821627565E+03  0.23770872570E+03 -0.24071136214E+03  0.45765125446E+03  0.00000000000E+00 0. -1.
          2    1    6    6  502    0  0.10923427640E+02 -0.10932430433E+02  0.77892969704E+02  0.79411296652E+02  0.00000000000E+00 0. -1.
          3    1    5    5  503    0 -0.39866349810E+02 -0.14083229593E+02 -0.11923061536E+03  0.12650534709E+03  0.00000000000E+00 0. -1.
         -4    1    5    5    0  503 -0.26145798024E+03 -0.24076974889E+03 -0.56975880183E+03  0.67153215833E+03  0.00000000000E+00 0.  1.
         -1    1    6    6    0  502 -0.95975669784E+02 -0.67011212942E+02  0.19893023310E+03  0.23081392829E+03  0.00000000000E+00 0.  1.
<mgrwt>
<rscale>  0 0.15488955E+04</rscale>
<asrwt>0</asrwt>
<pdfrwt beam="1">  1        2 0.77721272E-01 0.15488955E+04</pdfrwt>
<pdfrwt beam="2">  1       -2 0.18264915E+00 0.15488955E+04</pdfrwt>
<totfact> 0.10172623E+01</totfact>
</mgrwt>
</event>
<event>
12    1  0.1562393E-007  0.2404125E+04  0.7818608E-02  0.8437961E-01
          2   -1    0    0  501    0  0.00000000000E+00  0.00000000000E+00  0.97376854478E+03  0.97376854478E+03  0.00000000000E+00 0. -1.
         -2   -1    0    0    0  501 -0.00000000000E+00 -0.00000000000E+00 -0.14838790546E+04  0.14838790546E+04  0.00000000000E+00 0.  1.
         23    2    1    2    0    0 -0.30384232732E+03 -0.82945089219E+03  0.32855355445E+03  0.94732834642E+03  0.95784212524E+02 0.  0.
        254    2    1    2    0    0  0.30384232732E+03  0.82945089219E+03 -0.83866406429E+03  0.15103192530E+04  0.89297138295E+03 0.  0.
        -24    2    4    4    0    0 -0.16943358416E+03  0.99834995198E+02  0.94586485197E+02  0.23221625419E+03  0.79391560135E+02 0.  0.
         24    2    4    4    0    0  0.47327591148E+03  0.72961589699E+03 -0.93325054949E+03  0.12781029988E+04  0.79128009381E+02 0.  0.
         11    1    3    3    0    0 -0.57063321739E+02 -0.14322264037E+03  0.19914695285E+02  0.15545270178E+03  0.00000000000E+00 0.  1.
        -11    1    3    3    0    0 -0.24677900558E+03 -0.68622825182E+03  0.30863885917E+03  0.79187564464E+03  0.00000000000E+00 0. -1.
          2    1    6    6  502    0  0.37800946058E+03  0.51934851060E+03 -0.67926201549E+03  0.93488550819E+03  0.00000000000E+00 0. -1.
          1    1    5    5  503    0 -0.15970654152E+03  0.91667075993E+02  0.10821440770E+03  0.21358696182E+03  0.00000000000E+00 0. -1.
         -2    1    5    5    0  503 -0.97270426367E+01  0.81679192043E+01 -0.13627922499E+02  0.18629292370E+02  0.00000000000E+00 0.  1.
         -1    1    6    6    0  502  0.95266450905E+02  0.21026738639E+03 -0.25398853400E+03  0.34321749060E+03  0.00000000000E+00 0.  1.
<mgrwt>
<rscale>  0 0.24041254E+04</rscale>
<asrwt>0</asrwt>
<pdfrwt beam="1">  1        2 0.14981055E+00 0.24041254E+04</pdfrwt>
<pdfrwt beam="2">  1       -2 0.22828908E+00 0.24041254E+04</pdfrwt>
<totfact> 0.20630507E+00</totfact>
</mgrwt>
</event>
<event>
12    1  0.1562393E-007  0.2211331E+04  0.7818608E-02  0.8513727E-01
         -2   -1    0    0    0  501 -0.00000000000E+00  0.00000000000E+00  0.34225628779E+03  0.34225628779E+03  0.00000000000E+00 0.  1.
          2   -1    0    0  501    0  0.00000000000E+00 -0.00000000000E+00 -0.35718731795E+04  0.35718731795E+04  0.00000000000E+00 0. -1.
         23    2    1    2    0    0  0.59777170694E+02 -0.24204919918E+03 -0.29319623540E+04  0.29439657876E+04  0.91488731330E+02 0.  0.
        254    2    1    2    0    0 -0.59777170694E+02  0.24204919918E+03 -0.29765453770E+03  0.97016367975E+03  0.88907717142E+03 0.  0.
        -24    2    4    4    0    0 -0.15804766847E+03  0.19263428816E+03 -0.59120522853E+03  0.64666964326E+03  0.81061524729E+02 0.  0.
         24    2    4    4    0    0  0.98270497778E+02  0.49414911018E+02  0.29355069083E+03  0.32349403649E+03  0.79858996939E+02 0.  0.
         13    1    3    3    0    0  0.75216436032E+02 -0.11423905962E+03 -0.14789193595E+04  0.14852308059E+04  0.00000000000E+00 0.  1.
        -13    1    3    3    0    0 -0.15439265338E+02 -0.12781013956E+03 -0.14530429945E+04  0.14587349816E+04  0.00000000000E+00 0. -1.
          2    1    6    6  502    0  0.69647695442E+01  0.32908386533E+02  0.33872438542E+02  0.47736904086E+02  0.00000000000E+00 0. -1.
          1    1    5    5  503    0 -0.77370821894E+02  0.34943048310E+02 -0.19098725924E+03  0.20900572695E+03  0.00000000000E+00 0. -1.
         -2    1    5    5    0  503 -0.80676846578E+02  0.15769123985E+03 -0.40021796929E+03  0.43766391631E+03  0.00000000000E+00 0.  1.
         -1    1    6    6    0  502  0.91305728234E+02  0.16506524485E+02  0.25967825229E+03  0.27575713240E+03  0.00000000000E+00 0.  1.
<mgrwt>
<rscale>  0 0.22113309E+04</rscale>
<asrwt>0</asrwt>
<pdfrwt beam="1">  1        2 0.54951895E+00 0.22113309E+04</pdfrwt>
<pdfrwt beam="2">  1       -2 0.52654813E-01 0.22113309E+04</pdfrwt>
<totfact> 0.22559112E+00</totfact>
</mgrwt>
</event>
<event>
12    1  0.1562393E-007  0.1151806E+04  0.7818608E-02  0.9156119E-01
          1   -1    0    0  501    0  0.00000000000E+00  0.00000000000E+00  0.40341533809E+03  0.40341533809E+03  0.00000000000E+00 0. -1.
         -1   -1    0    0    0  501 -0.00000000000E+00 -0.00000000000E+00 -0.82214089984E+03  0.82214089984E+03  0.00000000000E+00 0.  1.
         23    2    1    2    0    0  0.14367929568E+03 -0.15483852617E+02  0.75956181414E+02  0.18853644799E+03  0.94303557869E+02 0.  0.
        254    2    1    2    0    0 -0.14367929568E+03  0.15483852617E+02 -0.49468174316E+03  0.10370197899E+04  0.89989806534E+03 0.  0.
        -24    2    4    4    0    0 -0.21219384351E+03  0.36669037650E+03 -0.12954584593E+02  0.43164128718E+03  0.81598529975E+02 0.  0.
         24    2    4    4    0    0  0.68514547829E+02 -0.35120652388E+03 -0.48172715857E+03  0.60537850276E+03  0.79886235541E+02 0.  0.
         13    1    3    3    0    0 -0.22597174639E-01 -0.39287136171E+01  0.39683582440E+02  0.39877587898E+02  0.00000000000E+00 0.  1.
        -13    1    3    3    0    0  0.14370189286E+03 -0.11555139000E+02  0.36272598974E+02  0.14865886009E+03  0.00000000000E+00 0. -1.
          4    1    6    6  502    0  0.32399754295E+02 -0.30718257666E+03 -0.42060364273E+03  0.52184126299E+03  0.00000000000E+00 0. -1.
          3    1    5    5  503    0 -0.20046077399E+03  0.36840047302E+03 -0.10539741544E+02  0.41954084018E+03  0.00000000000E+00 0. -1.
         -4    1    5    5    0  503 -0.11733069519E+02 -0.17100965233E+01 -0.24148430498E+01  0.12100446992E+02  0.00000000000E+00 0.  1.
         -3    1    6    6    0  502  0.36114793534E+02 -0.44023947215E+02 -0.61123515839E+02  0.83537239773E+02  0.00000000000E+00 0.  1.
<mgrwt>
<rscale>  0 0.11518060E+04</rscale>
<asrwt>0</asrwt>
<pdfrwt beam="1">  1        1 0.62063899E-01 0.11518060E+04</pdfrwt>
<pdfrwt beam="2">  1       -1 0.12648321E+00 0.11518060E+04</pdfrwt>
<totfact> 0.32018769E+01</totfact>
</mgrwt>
</event>
<event>
12    1  0.1562393E-007  0.1857316E+04  0.7818608E-02  0.8676399E-01
         -1   -1    0    0    0  501 -0.00000000000E+00  0.00000000000E+00  0.72383217279E+03  0.72383217279E+03  0.00000000000E+00 0.  1.
          1   -1    0    0  501    0  0.00000000000E+00 -0.00000000000E+00 -0.11914447402E+04  0.11914447402E+04  0.00000000000E+00 0. -1.
         23    2    1    2    0    0  0.28469207263E+03 -0.19867048635E+03  0.45161439834E+03  0.57685815318E+03  0.91050676747E+02 0.  0.
        254    2    1    2    0    0 -0.28469207263E+03  0.19867048635E+03 -0.91922696570E+03  0.13384187598E+04  0.90877226171E+03 0.  0.
        -24    2    4    4    0    0 -0.58942366707E+03  0.19016033967E+03 -0.43496016003E+03  0.76098829670E+03  0.79571557833E+02 0.  0.
         24    2    4    4    0    0  0.30473159445E+03  0.85101466770E+01 -0.48426680568E+03  0.57743046306E+03  0.77316449351E+02 0.  0.
         13    1    3    3    0    0  0.79098284117E+02 -0.26734935621E+02  0.16206499474E+03  0.18230841410E+03  0.00000000000E+00 0.  1.
        -13    1    3    3    0    0  0.20559378851E+03 -0.17193555073E+03  0.28954940360E+03  0.39454973908E+03  0.00000000000E+00 0. -1.
          2    1    6    6  502    0  0.24521371171E+03  0.31242765229E+01 -0.43750842094E+03  0.50155073912E+03  0.00000000000E+00 0. -1.
          1    1    5    5  503    0 -0.48914514248E+03  0.13154072617E+03 -0.33083147802E+03  0.60499206598E+03  0.00000000000E+00 0. -1.
         -2    1    5    5    0  503 -0.10027852460E+03  0.58619613508E+02 -0.10412868201E+03  0.15599623072E+03  0.00000000000E+00 0.  1.
         -1    1    6    6    0  502  0.59517882734E+02  0.53858701542E+01 -0.46758384732E+02  0.75879723940E+02  0.00000000000E+00 0.  1.
<mgrwt>
<rscale>  0 0.18573164E+04</rscale>
<asrwt>0</asrwt>
<pdfrwt beam="1">  1        1 0.18329919E+00 0.18573164E+04</pdfrwt>
<pdfrwt beam="2">  1       -1 0.11135880E+00 0.18573164E+04</pdfrwt>
<totfact> 0.75468914E+00</totfact>
</mgrwt>
</event>
<event>
12    1  0.1562393E-007  0.2147802E+04  0.7818608E-02  0.8540474E-01
          2   -1    0    0  501    0  0.00000000000E+00  0.00000000000E+00  0.24973872816E+04  0.24973872816E+04  0.00000000000E+00 0. -1.
         -2   -1    0    0    0  501 -0.00000000000E+00 -0.00000000000E+00 -0.46178787100E+03  0.46178787100E+03  0.00000000000E+00 0.  1.
         23    2    1    2    0    0 -0.80659261083E+03  0.14793004922E+03  0.12883474646E+04  0.15300768406E+04  0.93920228226E+02 0.  0.
        254    2    1    2    0    0  0.80659261083E+03 -0.14793004922E+03  0.74725194604E+03  0.14290983120E+04  0.90081162034E+03 0.  0.
        -24    2    4    4    0    0  0.82421495234E+03  0.88080931489E+02  0.24466905796E+03  0.86790233634E+03  0.79391305307E+02 0.  0.
         24    2    4    4    0    0 -0.17622341508E+02 -0.23601098071E+03  0.50258288808E+03  0.56119597571E+03  0.79621817519E+02 0.  0.
         13    1    3    3    0    0 -0.75638920958E+03  0.14860254895E+03  0.11653736024E+04  0.13972483627E+04  0.00000000000E+00 0. -1.
        -13    1    3    3    0    0 -0.50203401250E+02 -0.67249972933E+00  0.12297386218E+03  0.13282847787E+03  0.00000000000E+00 0.  1.
          4    1    6    6  502    0 -0.19233915371E+02 -0.10363698398E+03  0.14030637318E+03  0.17548916292E+03  0.00000000000E+00 0. -1.
          1    1    5    5  503    0  0.11578291131E+02  0.26076705788E+01  0.14985113447E+02  0.19115710721E+02  0.00000000000E+00 0. -1.
         -2    1    5    5    0  503  0.81263666120E+03  0.85473260910E+02  0.22968394451E+03  0.84878662562E+03  0.00000000000E+00 0.  1.
         -3    1    6    6    0  502  0.16115738621E+01 -0.13237399673E+03  0.36227651490E+03  0.38570681279E+03  0.00000000000E+00 0.  1.
<mgrwt>
<rscale>  0 0.21478018E+04</rscale>
<asrwt>0</asrwt>
<pdfrwt beam="1">  1        2 0.38421342E+00 0.21478018E+04</pdfrwt>
<pdfrwt beam="2">  1       -2 0.71044290E-01 0.21478018E+04</pdfrwt>
<totfact> 0.57719140E+00</totfact>
</mgrwt>
</event>
<event>
12    1  0.1562393E-007  0.3816082E+04  0.7818608E-02  0.8042713E-01
          1   -1    0    0  501    0  0.00000000000E+00  0.00000000000E+00  0.23647505309E+04  0.23647505309E+04  0.00000000000E+00 0. -1.
         -1   -1    0    0    0  501 -0.00000000000E+00 -0.00000000000E+00 -0.15395367605E+04  0.15395367605E+04  0.00000000000E+00 0.  1.
         23    2    1    2    0    0 -0.51265481397E+03  0.17240472844E+04  0.48967971385E+03  0.18662640178E+04  0.89449230747E+02 0.  0.
        254    2    1    2    0    0  0.51265481397E+03 -0.17240472844E+04  0.33553405654E+03  0.20380232735E+04  0.89766461622E+03 0.  0.
        -24    2    4    4    0    0  0.48755598193E+03 -0.75003358737E+03 -0.20476743727E+03  0.92119402553E+03  0.80046933668E+02 0.  0.
         24    2    4    4    0    0  0.25098832034E+02 -0.97401369702E+03  0.54030149381E+03  0.11168292480E+04  0.77776806363E+02 0.  0.
         11    1    3    3    0    0 -0.23678974247E+03  0.76969865317E+03  0.26471363171E+03  0.84769021797E+03  0.00000000000E+00 0. -1.
        -11    1    3    3    0    0 -0.27586507150E+03  0.95434863122E+03  0.22496608214E+03  0.10185737998E+04  0.00000000000E+00 0.  1.
          2    1    6    6  502    0  0.11419338059E+02 -0.31551859289E+02  0.29918783553E+02  0.44956142134E+02  0.00000000000E+00 0. -1.
          3    1    5    5  503    0  0.16185815631E+02 -0.62338981105E+02 -0.13772500253E+02  0.65862060066E+02  0.00000000000E+00 0. -1.
         -4    1    5    5    0  503  0.47137016630E+03 -0.68769460627E+03 -0.19099493702E+03  0.85533196546E+03  0.00000000000E+00 0.  1.
         -1    1    6    6    0  502  0.13679493975E+02 -0.94246183773E+03  0.51038271026E+03  0.10718731059E+04  0.00000000000E+00 0.  1.
<mgrwt>
<rscale>  0 0.38160820E+04</rscale>
<asrwt>0</asrwt>
<pdfrwt beam="1">  1        1 0.36380777E+00 0.38160820E+04</pdfrwt>
<pdfrwt beam="2">  1       -1 0.23685181E+00 0.38160820E+04</pdfrwt>
<totfact> 0.11352652E-01</totfact>
</mgrwt>
</event>
<event>
12    1  0.1562393E-007  0.2116884E+04  0.7818608E-02  0.8553842E-01
          2   -1    0    0  501    0  0.00000000000E+00  0.00000000000E+00  0.66103225439E+03  0.66103225439E+03  0.00000000000E+00 0.  1.
         -2   -1    0    0    0  501 -0.00000000000E+00 -0.00000000000E+00 -0.16947720990E+04  0.16947720990E+04  0.00000000000E+00 0. -1.
         23    2    1    2    0    0 -0.63991101579E+03 -0.51952936025E+02 -0.10724967871E+04  0.12532228787E+04  0.90183200371E+02 0.  0.
        254    2    1    2    0    0  0.63991101579E+03  0.51952936025E+02  0.38756942544E+02  0.11025814747E+04  0.89554374095E+03 0.  0.
        -24    2    4    4    0    0 -0.17172871555E+03  0.16717581117E+03  0.10811487946E+03  0.27556395151E+03  0.82511578755E+02 0.  0.
         24    2    4    4    0    0  0.81163973134E+03 -0.11522287515E+03 -0.69357936912E+02  0.82701752314E+03  0.84333242112E+02 0.  0.
         11    1    3    3    0    0 -0.34745744791E+03  0.16885623960E+02 -0.57815382068E+03  0.67473968519E+03  0.00000000000E+00 0. -1.
        -11    1    3    3    0    0 -0.29245356788E+03 -0.68838559984E+02 -0.49434296646E+03  0.57848319353E+03  0.00000000000E+00 0.  1.
          2    1    6    6  502    0  0.54395730049E+03 -0.11471224925E+03 -0.60291532337E+02  0.55918110998E+03  0.00000000000E+00 0. -1.
          3    1    5    5  503    0 -0.13255826187E+03  0.86264979035E+02  0.95596667628E+02  0.18480276583E+03  0.00000000000E+00 0. -1.
         -4    1    5    5    0  503 -0.39170453676E+02  0.80910832137E+02  0.12518211827E+02  0.90761185678E+02  0.00000000000E+00 0.  1.
         -1    1    6    6    0  502  0.26768243084E+03 -0.51062589198E+00 -0.90664045748E+01  0.26783641316E+03  0.00000000000E+00 0.  1.
<mgrwt>
<rscale>  0 0.21168836E+04</rscale>
<asrwt>0</asrwt>
<pdfrwt beam="1">  1        2 0.10169727E+00 0.21168836E+04</pdfrwt>
<pdfrwt beam="2">  1       -2 0.26073417E+00 0.21168836E+04</pdfrwt>
<totfact> 0.22374425E+00</totfact>
</mgrwt>
</event>
<event>
12    1  0.1562393E-007  0.1739828E+04  0.7818608E-02  0.8738970E-01
         -1   -1    0    0    0  501 -0.00000000000E+00  0.00000000000E+00  0.37824221931E+03  0.37824221931E+03  0.00000000000E+00 0.  1.
          1   -1    0    0  501    0  0.00000000000E+00 -0.00000000000E+00 -0.20007021696E+04  0.20007021696E+04  0.00000000000E+00 0. -1.
         23    2    1    2    0    0 -0.18040348880E+02 -0.62454443256E+03 -0.43757457973E+03  0.76948564017E+03  0.10126912245E+03 0.  0.
        254    2    1    2    0    0  0.18040348880E+02  0.62454443256E+03 -0.11848853705E+04  0.16094587487E+04  0.89220116570E+03 0.  0.
        -24    2    4    4    0    0 -0.26167588055E+03  0.48197109456E+03 -0.22617954658E+03  0.59749027757E+03  0.71183158457E+02 0.  0.
         24    2    4    4    0    0  0.27971622943E+03  0.14257333801E+03 -0.95870582393E+03  0.10119684711E+04  0.79968769001E+02 0.  0.
         13    1    3    3    0    0 -0.24854188258E+02 -0.22591696972E+03 -0.10529234128E+03  0.25048489977E+03  0.00000000000E+00 0. -1.
        -13    1    3    3    0    0  0.68138393781E+01 -0.39862746284E+03 -0.33228223845E+03  0.51900074039E+03  0.00000000000E+00 0.  1.
          4    1    6    6  502    0  0.10167403495E+03  0.95092673411E+02 -0.38488902242E+03  0.40929180971E+03  0.00000000000E+00 0. -1.
          1    1    5    5  503    0 -0.15708585756E+03  0.22484426328E+03 -0.13174216464E+03  0.30428096773E+03  0.00000000000E+00 0. -1.
         -2    1    5    5    0  503 -0.10459002299E+03  0.25712683128E+03 -0.94437381940E+02  0.29320930984E+03  0.00000000000E+00 0.  1.
         -1    1    6    6    0  502  0.17804219447E+03  0.47480664595E+02 -0.57381680151E+03  0.60267666142E+03  0.00000000000E+00 0.  1.
<mgrwt>
<rscale>  0 0.17398276E+04</rscale>
<asrwt>0</asrwt>
<pdfrwt beam="1">  1        1 0.30780033E+00 0.17398276E+04</pdfrwt>
<pdfrwt beam="2">  1       -1 0.58191111E-01 0.17398276E+04</pdfrwt>
<totfact> 0.84492161E+00</totfact>
</mgrwt>
</event>
<event>
12    1  0.1562393E-007  0.2613987E+04  0.7818608E-02  0.8363466E-01
          1   -1    0    0  501    0  0.00000000000E+00  0.00000000000E+00  0.93236718334E+03  0.93236718334E+03  0.00000000000E+00 0. -1.
         -1   -1    0    0    0  501 -0.00000000000E+00 -0.00000000000E+00 -0.18321449470E+04  0.18321449470E+04  0.00000000000E+00 0.  1.
         23    2    1    2    0    0 -0.10607330622E+04 -0.40482854680E+03 -0.56873216697E+03  0.12731347804E+04  0.91515626530E+02 0.  0.
        254    2    1    2    0    0  0.10607330622E+04  0.40482854680E+03 -0.33104559670E+03  0.14913773499E+04  0.90861126524E+03 0.  0.
        -24    2    4    4    0    0  0.11608003599E+04  0.48971068595E+03 -0.17913108485E+03  0.12750603379E+04  0.80105481783E+02 0.  0.
         24    2    4    4    0    0 -0.10006729778E+03 -0.84882139148E+02 -0.15191451185E+03  0.21631701201E+03  0.80601421468E+02 0.  0.
         11    1    3    3    0    0 -0.65468276516E+03 -0.27775808931E+03 -0.31551506644E+03  0.77801596149E+03  0.00000000000E+00 0.  1.
        -11    1    3    3    0    0 -0.40605029700E+03 -0.12707045749E+03 -0.25321710053E+03  0.49511881894E+03  0.00000000000E+00 0. -1.
          2    1    6    6  502    0  0.11895690724E+02  0.22155988670E+01 -0.10561702017E+02  0.16061316435E+02  0.00000000000E+00 0. -1.
          1    1    5    5  503    0  0.18150752994E+03  0.45742685770E+02 -0.27079720350E+02  0.18913140401E+03  0.00000000000E+00 0. -1.
         -2    1    5    5    0  503  0.97929283000E+03  0.44396800018E+03 -0.15205136450E+03  0.10859289339E+04  0.00000000000E+00 0.  1.
         -1    1    6    6    0  502 -0.11196298850E+03 -0.87097738015E+02 -0.14135280983E+03  0.20025569557E+03  0.00000000000E+00 0.  1.
<mgrwt>
<rscale>  0 0.26139869E+04</rscale>
<asrwt>0</asrwt>
<pdfrwt beam="1">  1        1 0.14344111E+00 0.26139869E+04</pdfrwt>
<pdfrwt beam="2">  1       -1 0.28186845E+00 0.26139869E+04</pdfrwt>
<totfact> 0.65203437E-01</totfact>
</mgrwt>
</event>
<event>
12    1  0.1562393E-007  0.2324936E+04  0.7818608E-02  0.8468154E-01
         -1   -1    0    0    0  501 -0.00000000000E+00  0.00000000000E+00  0.89297455711E+03  0.89297455711E+03  0.00000000000E+00 0.  1.
          1   -1    0    0  501    0  0.00000000000E+00 -0.00000000000E+00 -0.15132922700E+04  0.15132922700E+04  0.00000000000E+00 0. -1.
         23    2    1    2    0    0 -0.10230979505E+03  0.35236439400E+03  0.68528253860E+03  0.78272566460E+03  0.91757005188E+02 0.  0.
        254    2    1    2    0    0  0.10230979505E+03 -0.35236439400E+03 -0.13056002515E+04  0.16235411625E+04  0.89256144290E+03 0.  0.
        -24    2    4    4    0    0  0.29039944131E+03  0.75560131257E+00 -0.53803497907E+02  0.30710024565E+03  0.84162569176E+02 0.  0.
         24    2    4    4    0    0 -0.18808964626E+03 -0.35311999531E+03 -0.12517967536E+04  0.13164409169E+04  0.77137080254E+02 0.  0.
         11    1    3    3    0    0 -0.21850376078E+01 -0.35489022128E+01  0.11774792770E+00  0.41692878095E+01  0.00000000000E+00 0. -1.
        -11    1    3    3    0    0 -0.10012475744E+03  0.35591329621E+03  0.68516479067E+03  0.77855637679E+03  0.00000000000E+00 0.  1.
          2    1    6    6  502    0 -0.13600804830E+03 -0.29319746415E+03 -0.91476942331E+03  0.97018866207E+03  0.00000000000E+00 0. -1.
          1    1    5    5  503    0  0.29518532397E+03  0.57091897506E+01 -0.54308424738E+02  0.30019389623E+03  0.00000000000E+00 0. -1.
         -2    1    5    5    0  503 -0.47858826650E+01 -0.49535884380E+01  0.50492683119E+00  0.69063494265E+01  0.00000000000E+00 0.  1.
         -1    1    6    6    0  502 -0.52081597953E+02 -0.59922531162E+02 -0.33702733032E+03  0.34625225482E+03  0.00000000000E+00 0.  1.
<mgrwt>
<rscale>  0 0.23249357E+04</rscale>
<asrwt>0</asrwt>
<pdfrwt beam="1">  1        1 0.23281419E+00 0.23249357E+04</pdfrwt>
<pdfrwt beam="2">  1       -1 0.13738070E+00 0.23249357E+04</pdfrwt>
<totfact> 0.25435311E+00</totfact>
</mgrwt>
</event>
<event>
12    1  0.1562393E-007  0.1401436E+04  0.7818608E-02  0.8952780E-01
          2   -1    0    0  501    0  0.00000000000E+00  0.00000000000E+00  0.12532576978E+04  0.12532576978E+04  0.00000000000E+00 0. -1.
         -2   -1    0    0    0  501 -0.00000000000E+00 -0.00000000000E+00 -0.39178336081E+03  0.39178336081E+03  0.00000000000E+00 0.  1.
         23    2    1    2    0    0 -0.13289610767E+03  0.42921253410E+01 -0.19248189128E+03  0.25209339808E+03  0.93925529601E+02 0.  0.
        254    2    1    2    0    0  0.13289610767E+03 -0.42921253410E+01  0.10539562282E+04  0.13929476605E+04  0.90099925419E+03 0.  0.
        -24    2    4    4    0    0  0.29673794533E+03  0.32422727086E+03  0.86223549306E+03  0.97130631450E+03  0.82517753959E+02 0.  0.
         24    2    4    4    0    0 -0.16384183766E+03 -0.32851939620E+03  0.19172073518E+03  0.42164134600E+03  0.79091357995E+02 0.  0.
         11    1    3    3    0    0  0.14487819946E+01 -0.31177553214E+01 -0.70185602536E+02  0.70269752887E+02  0.00000000000E+00 0. -1.
        -11    1    3    3    0    0 -0.13434488967E+03  0.74098806623E+01 -0.12229628875E+03  0.18182364519E+03  0.00000000000E+00 0.  1.
          2    1    6    6  502    0 -0.16623191195E+03 -0.27956859193E+03  0.15441754281E+03  0.36005058488E+03  0.00000000000E+00 0. -1.
          3    1    5    5  503    0  0.23980261986E+03  0.28303647014E+03  0.65864119249E+03  0.75592536692E+03  0.00000000000E+00 0. -1.
         -4    1    5    5    0  503  0.56935325471E+02  0.41190800722E+02  0.20359430058E+03  0.21538094757E+03  0.00000000000E+00 0.  1.
         -1    1    6    6    0  502  0.23900742945E+01 -0.48950804272E+02  0.37303192377E+02  0.61590761122E+02  0.00000000000E+00 0.  1.
<mgrwt>
<rscale>  0 0.14014357E+04</rscale>
<asrwt>0</asrwt>
<pdfrwt beam="1">  1        2 0.19280888E+00 0.14014357E+04</pdfrwt>
<pdfrwt beam="2">  1       -2 0.60274364E-01 0.14014357E+04</pdfrwt>
<totfact> 0.43957139E+01</totfact>
</mgrwt>
</event>
<event>
12    1  0.1562393E-007  0.1612989E+04  0.7818608E-02  0.8812608E-01
          2   -1    0    0  501    0  0.00000000000E+00  0.00000000000E+00  0.55925853233E+03  0.55925853233E+03  0.00000000000E+00 0. -1.
         -2   -1    0    0    0  501 -0.00000000000E+00 -0.00000000000E+00 -0.11630284128E+04  0.11630284128E+04  0.00000000000E+00 0.  1.
         23    2    1    2    0    0  0.35989262894E+03 -0.37586704594E+03 -0.41698124810E+03  0.67344129338E+03  0.94080145432E+02 0.  0.
        254    2    1    2    0    0 -0.35989262894E+03  0.37586704594E+03 -0.18678863242E+03  0.10488456518E+04  0.89128472864E+03 0.  0.
        -24    2    4    4    0    0 -0.54304895000E+03  0.40874773393E+03  0.10640501341E+03  0.69238716016E+03  0.78109414179E+02 0.  0.
         24    2    4    4    0    0  0.18315632106E+03 -0.32880687993E+02 -0.29319364583E+03  0.35645849164E+03  0.80453494174E+02 0.  0.
         11    1    3    3    0    0  0.30104645310E+02 -0.24619019735E+01 -0.30425399704E+02  0.42872550399E+02  0.00000000000E+00 0. -1.
        -11    1    3    3    0    0  0.32978798363E+03 -0.37340514396E+03 -0.38655584840E+03  0.63056874298E+03  0.00000000000E+00 0.  1.
          4    1    6    6  502    0  0.90740706948E+01 -0.10259525121E+02  0.11471453155E+01  0.13744546448E+02  0.00000000000E+00 0. -1.
          3    1    5    5  503    0 -0.12830800886E+03  0.72286644428E+02  0.49225322683E+02  0.15527857706E+03  0.00000000000E+00 0. -1.
         -4    1    5    5    0  503 -0.41474094114E+03  0.33646108950E+03  0.57179690728E+02  0.53710858310E+03  0.00000000000E+00 0.  1.
         -3    1    6    6    0  502  0.17408225036E+03 -0.22621162873E+02 -0.29434079114E+03  0.34271394520E+03  0.00000000000E+00 0.  1.
<mgrwt>
<rscale>  0 0.16129892E+04</rscale>
<asrwt>0</asrwt>
<pdfrwt beam="1">  1        2 0.86039774E-01 0.16129892E+04</pdfrwt>
<pdfrwt beam="2">  1       -2 0.17892745E+00 0.16129892E+04</pdfrwt>
<totfact> 0.95272484E+00</totfact>
</mgrwt>
</event>
<event>
12    1  0.1562393E-007  0.1744786E+04  0.7818608E-02  0.8736225E-01
         -2   -1    0    0    0  501 -0.00000000000E+00  0.00000000000E+00  0.66403136489E+03  0.66403136489E+03  0.00000000000E+00 0.  1.
          2   -1    0    0  501    0  0.00000000000E+00 -0.00000000000E+00 -0.11461353175E+04  0.11461353175E+04  0.00000000000E+00 0. -1.
         23    2    1    2    0    0  0.27529441854E+03 -0.52078176595E+03  0.72518167894E+02  0.60038756237E+03  0.90585185039E+02 0.  0.
        254    2    1    2    0    0 -0.27529441854E+03  0.52078176595E+03 -0.55462212047E+03  0.12097791200E+04  0.89942156858E+03 0.  0.
        -24    2    4    4    0    0  0.27105628501E+03  0.42855149487E+03 -0.23292346018E+03  0.56354415139E+03  0.78745024377E+02 0.  0.
         24    2    4    4    0    0 -0.54635070355E+03  0.92230271084E+02 -0.32169866029E+03  0.64623496860E+03  0.84404338940E+02 0.  0.
         13    1    3    3    0    0  0.11057667560E+02 -0.23143352240E+02 -0.15714720194E+02  0.30080545134E+02  0.00000000000E+00 0. -1.
        -13    1    3    3    0    0  0.26423675098E+03 -0.49763841371E+03  0.88232888088E+02  0.57030701724E+03  0.00000000000E+00 0.  1.
          2    1    6    6  502    0 -0.69905781711E+02  0.86141811636E+01 -0.10913219014E+02  0.71274966033E+02  0.00000000000E+00 0. -1.
          1    1    5    5  503    0  0.73555371279E+02  0.11455377705E+03 -0.10223445432E+03  0.17024935868E+03  0.00000000000E+00 0. -1.
         -4    1    5    5    0  503  0.19750091373E+03  0.31399771782E+03 -0.13068900586E+03  0.39329479272E+03  0.00000000000E+00 0.  1.
         -1    1    6    6    0  502 -0.47644492184E+03  0.83616089920E+02 -0.31078544128E+03  0.57496000257E+03  0.00000000000E+00 0.  1.
<mgrwt>
<rscale>  0 0.17447863E+04</rscale>
<asrwt>0</asrwt>
<pdfrwt beam="1">  1        2 0.17632851E+00 0.17447863E+04</pdfrwt>
<pdfrwt beam="2">  1       -2 0.10215867E+00 0.17447863E+04</pdfrwt>
<totfact> 0.15197117E+01</totfact>
</mgrwt>
</event>
<event>
12    1  0.1562393E-007  0.2083555E+04  0.7818608E-02  0.8568522E-01
         -1   -1    0    0    0  501 -0.00000000000E+00  0.00000000000E+00  0.97597115548E+03  0.97597115548E+03  0.00000000000E+00 0.  1.
          1   -1    0    0  501    0  0.00000000000E+00 -0.00000000000E+00 -0.11120212791E+04  0.11120212791E+04  0.00000000000E+00 0. -1.
         23    2    1    2    0    0  0.61402031388E+03 -0.35005168909E+03 -0.54106852550E+03  0.89461359381E+03  0.89561163769E+02 0.  0.
        254    2    1    2    0    0 -0.61402031388E+03  0.35005168909E+03  0.40501840189E+03  0.11933788408E+04  0.87209863021E+03 0.  0.
        -24    2    4    4    0    0 -0.17398724963E+03  0.25167884571E+03 -0.24392430057E+03  0.39930791218E+03  0.79586053459E+02 0.  0.
         24    2    4    4    0    0 -0.44003306424E+03  0.98372843374E+02  0.64894270246E+03  0.79407092858E+03  0.78202906653E+02 0.  0.
         11    1    3    3    0    0  0.38375159924E+02 -0.36349728228E+02 -0.68240109138E+02  0.86317252833E+02  0.00000000000E+00 0. -1.
        -11    1    3    3    0    0  0.57564515396E+03 -0.31370196086E+03 -0.47282841636E+03  0.80829634098E+03  0.00000000000E+00 0.  1.
          4    1    6    6  502    0 -0.23400467468E+03  0.17926903299E+02  0.29925133847E+03  0.38030372758E+03  0.00000000000E+00 0. -1.
          1    1    5    5  503    0 -0.10988182457E+03  0.21704199978E+03 -0.18644500929E+03  0.30650120151E+03  0.00000000000E+00 0. -1.
         -2    1    5    5    0  503 -0.64105425060E+02  0.34636845932E+02 -0.57479291278E+02  0.92806710663E+02  0.00000000000E+00 0.  1.
         -3    1    6    6    0  502 -0.20602838956E+03  0.80445940075E+02  0.34969136399E+03  0.41376720101E+03  0.00000000000E+00 0.  1.
<mgrwt>
<rscale>  0 0.20835553E+04</rscale>
<asrwt>0</asrwt>
<pdfrwt beam="1">  1        1 0.17108020E+00 0.20835553E+04</pdfrwt>
<pdfrwt beam="2">  1       -1 0.15014941E+00 0.20835553E+04</pdfrwt>
<totfact> 0.39797210E+00</totfact>
</mgrwt>
</event>
<event>
12    1  0.1562393E-007  0.4010161E+04  0.7818608E-02  0.8002500E-01
         -1   -1    0    0    0  501 -0.00000000000E+00  0.00000000000E+00  0.19658795642E+04  0.19658795642E+04  0.00000000000E+00 0.  1.
          1   -1    0    0  501    0  0.00000000000E+00 -0.00000000000E+00 -0.20450628660E+04  0.20450628660E+04  0.00000000000E+00 0. -1.
         23    2    1    2    0    0  0.76656454791E+03 -0.17397658002E+04  0.44674349647E+02  0.19039807969E+04  0.93492415447E+02 0.  0.
        254    2    1    2    0    0 -0.76656454791E+03  0.17397658002E+04 -0.12385765145E+03  0.21069616333E+04  0.89974460848E+03 0.  0.
        -24    2    4    4    0    0 -0.91397157163E+03  0.16957540879E+04 -0.12660950970E+03  0.19320908130E+04  0.77582093349E+02 0.  0.
         24    2    4    4    0    0  0.14740702372E+03  0.44011712304E+02  0.27518582497E+01  0.17487082029E+03  0.83104570287E+02 0.  0.
         13    1    3    3    0    0  0.14979102368E+03 -0.39156389250E+03  0.42586814253E+02  0.42139443451E+03  0.00000000000E+00 0.  1.
        -13    1    3    3    0    0  0.61677352424E+03 -0.13482019077E+04  0.20875353940E+01  0.14825863624E+04  0.00000000000E+00 0. -1.
          4    1    6    6  502    0  0.14049828000E+03  0.10800805213E+02  0.31067195801E+01  0.14094706731E+03  0.00000000000E+00 0. -1.
          1    1    5    5  503    0 -0.25587193527E+03  0.50546584544E+03 -0.49906717052E+01  0.56656074252E+03  0.00000000000E+00 0. -1.
         -2    1    5    5    0  503 -0.65809963636E+03  0.11902882425E+04 -0.12161883799E+03  0.13655300705E+04  0.00000000000E+00 0.  1.
         -3    1    6    6    0  502  0.69087437165E+01  0.33210907090E+02 -0.35486133034E+00  0.33923752977E+02  0.00000000000E+00 0.  1.
<mgrwt>
<rscale>  0 0.40101607E+04</rscale>
<asrwt>0</asrwt>
<pdfrwt beam="1">  1        1 0.31462506E+00 0.40101607E+04</pdfrwt>
<pdfrwt beam="2">  1       -1 0.30244301E+00 0.40101607E+04</pdfrwt>
<totfact> 0.69152375E-02</totfact>
</mgrwt>
</event>
<event>
12    1  0.1562393E-007  0.2309753E+04  0.7818608E-02  0.8474085E-01
         -2   -1    0    0    0  501 -0.00000000000E+00  0.00000000000E+00  0.58744569596E+03  0.58744569596E+03  0.00000000000E+00 0.  1.
          2   -1    0    0  501    0  0.00000000000E+00 -0.00000000000E+00 -0.22704058743E+04  0.22704058743E+04  0.00000000000E+00 0. -1.
         23    2    1    2    0    0 -0.97592648493E+03  0.83351000916E+02 -0.76577705828E+03  0.12466006410E+04  0.90657386843E+02 0.  0.
        254    2    1    2    0    0  0.97592648493E+03 -0.83351000916E+02 -0.91718312003E+03  0.16112509293E+04  0.89192196296E+03 0.  0.
        -24    2    4    4    0    0  0.87440979331E+03  0.17780549660E+03 -0.32786934145E+03  0.95383272545E+03  0.78046664388E+02 0.  0.
         24    2    4    4    0    0  0.10151669162E+03 -0.26115649752E+03 -0.58931377858E+03  0.65741820380E+03  0.79997563670E+02 0.  0.
         13    1    3    3    0    0 -0.94770034311E+03  0.91395689117E+02 -0.75574939429E+03  0.12155847397E+04  0.00000000000E+00 0. -1.
        -13    1    3    3    0    0 -0.28226141820E+02 -0.80446882012E+01 -0.10027663985E+02  0.31015901330E+02  0.00000000000E+00 0.  1.
          2    1    6    6  502    0  0.10123640452E+03 -0.17069018685E+03 -0.36326940197E+03  0.41394275920E+03  0.00000000000E+00 0. -1.
          3    1    5    5  503    0  0.26812563890E+02  0.20086059380E+02 -0.14434052351E+02  0.36478832644E+02  0.00000000000E+00 0. -1.
         -4    1    5    5    0  503  0.84759722941E+03  0.15771943722E+03 -0.31343528910E+03  0.91735389281E+03  0.00000000000E+00 0.  1.
         -1    1    6    6    0  502  0.28028709929E+00 -0.90466310666E+02 -0.22604437661E+03  0.24347544460E+03  0.00000000000E+00 0.  1.
<mgrwt>
<rscale>  0 0.23097534E+04</rscale>
<asrwt>0</asrwt>
<pdfrwt beam="1">  1        2 0.34929322E+00 0.23097534E+04</pdfrwt>
<pdfrwt beam="2">  1       -2 0.90376259E-01 0.23097534E+04</pdfrwt>
<totfact> 0.44673723E+00</totfact>
</mgrwt>
</event>
<event>
12    1  0.1562393E-007  0.1246714E+04  0.7818608E-02  0.9072922E-01
          1   -1    0    0  501    0  0.00000000000E+00  0.00000000000E+00  0.22400834733E+04  0.22400834733E+04  0.00000000000E+00 0. -1.
         -1   -1    0    0    0  501 -0.00000000000E+00 -0.00000000000E+00 -0.17346410199E+03  0.17346410199E+03  0.00000000000E+00 0.  1.
         23    2    1    2    0    0  0.12467651453E+03 -0.71104886392E+02  0.15347479101E+02  0.17053224432E+03  0.90805082978E+02 0.  0.
        254    2    1    2    0    0 -0.12467651453E+03  0.71104886392E+02  0.20512718922E+04  0.22430153310E+04  0.89599177508E+03 0.  0.
        -24    2    4    4    0    0 -0.23488411377E+03 -0.24940800684E+03  0.17419242696E+04  0.17771482534E+04  0.81122453853E+02 0.  0.
         24    2    4    4    0    0  0.11020759924E+03  0.32051289323E+03  0.30934762259E+03  0.46586707761E+03  0.80386272123E+02 0.  0.
         11    1    3    3    0    0  0.35986279791E+02 -0.98918127276E+01  0.45290145735E+02  0.58686093693E+02  0.00000000000E+00 0. -1.
        -11    1    3    3    0    0  0.88690234741E+02 -0.61213073665E+02 -0.29942666633E+02  0.11184615063E+03  0.00000000000E+00 0.  1.
          2    1    6    6  502    0  0.22643101069E+02  0.50703611777E+02  0.96092630103E+02  0.11098360164E+03  0.00000000000E+00 0. -1.
          1    1    5    5  503    0 -0.64879505547E+00  0.41253184899E+01  0.61370796331E+02  0.61512712751E+02  0.00000000000E+00 0. -1.
         -2    1    5    5    0  503 -0.23423531871E+03 -0.25353332532E+03  0.16805534733E+04  0.17156355406E+04  0.00000000000E+00 0.  1.
         -1    1    6    6    0  502  0.87564498167E+02  0.26980928145E+03  0.21325499249E+03  0.35488347597E+03  0.00000000000E+00 0.  1.
<mgrwt>
<rscale>  0 0.12467142E+04</rscale>
<asrwt>0</asrwt>
<pdfrwt beam="1">  1        1 0.34462821E+00 0.12467142E+04</pdfrwt>
<pdfrwt beam="2">  1       -1 0.26686787E-01 0.12467142E+04</pdfrwt>
<totfact> 0.25331659E+01</totfact>
</mgrwt>
</event>
<event>
12    1  0.1562393E-007  0.1724903E+04  0.7818608E-02  0.8747287E-01
         -1   -1    0    0    0  501 -0.00000000000E+00  0.00000000000E+00  0.13662489974E+04  0.13662489974E+04  0.00000000000E+00 0.  1.
          1   -1    0    0  501    0  0.00000000000E+00 -0.00000000000E+00 -0.54442712201E+03  0.54442712201E+03  0.00000000000E+00 0. -1.
         23    2    1    2    0    0 -0.57059235049E+03 -0.24970094192E+03  0.32767995759E+03  0.70822175302E+03  0.79231975921E+02 0.  0.
        254    2    1    2    0    0  0.57059235049E+03  0.24970094192E+03  0.49414191776E+03  0.12024543663E+04  0.90210535827E+03 0.  0.
        -24    2    4    4    0    0 -0.19218568218E+03 -0.57114239683E+02 -0.38772075379E+02  0.21936694613E+03  0.80132455433E+02 0.  0.
         24    2    4    4    0    0  0.76277803267E+03  0.30681518160E+03  0.53291399314E+03  0.98308742022E+03  0.80608119405E+02 0.  0.
         11    1    3    3    0    0 -0.49718856262E+03 -0.21828392516E+03  0.25357244428E+03  0.59928567752E+03  0.00000000000E+00 0. -1.
        -11    1    3    3    0    0 -0.73403787871E+02 -0.31417016752E+02  0.74107513308E+02  0.10893607549E+03  0.00000000000E+00 0.  1.
          4    1    6    6  502    0  0.27157736364E+03  0.13272027061E+03  0.23438574970E+03  0.38249916907E+03  0.00000000000E+00 0. -1.
          3    1    5    5  503    0 -0.28161306640E+02 -0.24709872213E+02 -0.36281963465E+02  0.52153790364E+02  0.00000000000E+00 0. -1.
         -4    1    5    5    0  503 -0.16402437554E+03 -0.32404367470E+02 -0.24901119143E+01  0.16721315576E+03  0.00000000000E+00 0.  1.
         -3    1    6    6    0  502  0.49120066903E+03  0.17409491099E+03  0.29852824345E+03  0.60058825115E+03  0.00000000000E+00 0.  1.
<mgrwt>
<rscale>  0 0.17249035E+04</rscale>
<asrwt>0</asrwt>
<pdfrwt beam="1">  1        1 0.83758019E-01 0.17249035E+04</pdfrwt>
<pdfrwt beam="2">  1       -1 0.21019215E+00 0.17249035E+04</pdfrwt>
<totfact> 0.47891586E+00</totfact>
</mgrwt>
</event>
<event>
12    1  0.1562393E-007  0.2098887E+04  0.7818608E-02  0.8561734E-01
         -1   -1    0    0    0  501 -0.00000000000E+00  0.00000000000E+00  0.16854153491E+04  0.16854153491E+04  0.00000000000E+00 0.  1.
          1   -1    0    0  501    0  0.00000000000E+00 -0.00000000000E+00 -0.65344829903E+03  0.65344829903E+03  0.00000000000E+00 0. -1.
         23    2    1    2    0    0  0.30741957487E+03 -0.44098688795E+03 -0.31513870026E+03  0.62984990817E+03  0.91772959324E+02 0.  0.
        254    2    1    2    0    0 -0.30741957487E+03  0.44098688795E+03  0.13471057503E+04  0.17090137400E+04  0.90391251261E+03 0.  0.
        -24    2    4    4    0    0  0.15157356100E+03 -0.19673084431E+03  0.30641334394E+03  0.40250217446E+03  0.80257670079E+02 0.  0.
         24    2    4    4    0    0 -0.45899313587E+03  0.63771773226E+03  0.10406924064E+04  0.13065115655E+04  0.81075158066E+02 0.  0.
         11    1    3    3    0    0  0.84760857563E+02 -0.14817122257E+03 -0.55140016419E+02  0.17938655352E+03  0.00000000000E+00 0.  1.
        -11    1    3    3    0    0  0.22265871731E+03 -0.29281566538E+03 -0.25999868384E+03  0.45046335465E+03  0.00000000000E+00 0. -1.
          2    1    6    6  502    0 -0.46071072256E+03  0.63645440456E+03  0.10292297332E+04  0.12948522783E+04  0.00000000000E+00 0. -1.
          3    1    5    5  503    0  0.15180126243E+03 -0.18650629521E+03  0.25668075633E+03  0.35172891849E+03  0.00000000000E+00 0. -1.
         -4    1    5    5    0  503 -0.22770142874E+00 -0.10224549095E+02  0.49732587611E+02  0.50773255978E+02  0.00000000000E+00 0.  1.
         -1    1    6    6    0  502  0.17175866893E+01  0.12633276944E+01  0.11462673183E+02  0.11659287174E+02  0.00000000000E+00 0.  1.
<mgrwt>
<rscale>  0 0.20988871E+04</rscale>
<asrwt>0</asrwt>
<pdfrwt beam="1">  1        1 0.10053051E+00 0.20988871E+04</pdfrwt>
<pdfrwt beam="2">  1       -1 0.25929467E+00 0.20988871E+04</pdfrwt>
<totfact> 0.16854194E+00</totfact>
</mgrwt>
</event>
<event>
12    1  0.1562393E-007  0.1742718E+04  0.7818608E-02  0.8737369E-01
          2   -1    0    0  501    0  0.00000000000E+00  0.00000000000E+00  0.77373719079E+03  0.77373719079E+03  0.00000000000E+00 0. -1.
         -2   -1    0    0    0  501 -0.00000000000E+00 -0.00000000000E+00 -0.98129812558E+03  0.98129812558E+03  0.00000000000E+00 0.  1.
         23    2    1    2    0    0 -0.34358117413E+03 -0.27537130224E+03  0.38387424757E+03  0.59126269814E+03  0.91404392410E+02 0.  0.
        254    2    1    2    0    0  0.34358117413E+03  0.27537130224E+03 -0.59143518237E+03  0.11637726182E+04  0.90038533677E+03 0.  0.
        -24    2    4    4    0    0 -0.18913596757E+03  0.36409791558E+03 -0.10204654218E+03  0.43040974297E+03  0.80618507257E+02 0.  0.
         24    2    4    4    0    0  0.53271714171E+03 -0.88726613341E+02 -0.48938864018E+03  0.73336287526E+03  0.81608214536E+02 0.  0.
         11    1    3    3    0    0 -0.75475413104E+01 -0.34287555590E+02  0.41544101322E+02  0.54392225574E+02  0.00000000000E+00 0.  1.
        -11    1    3    3    0    0 -0.33603363282E+03 -0.24108374665E+03  0.34233014625E+03  0.53687047257E+03  0.00000000000E+00 0. -1.
          4    1    6    6  502    0  0.40165579321E+02 -0.29132235698E+02 -0.36477095690E+02  0.61583597077E+02  0.00000000000E+00 0. -1.
          1    1    5    5  503    0 -0.45158407338E+02  0.17299013771E+03 -0.47731821135E+02  0.18504917251E+03  0.00000000000E+00 0. -1.
         -2    1    5    5    0  503 -0.14397756023E+03  0.19110777787E+03 -0.54314721045E+02  0.24536057046E+03  0.00000000000E+00 0.  1.
         -3    1    6    6    0  502  0.49255156239E+03 -0.59594377644E+02 -0.45291154449E+03  0.67177927818E+03  0.00000000000E+00 0.  1.
<mgrwt>
<rscale>  0 0.17427184E+04</rscale>
<asrwt>0</asrwt>
<pdfrwt beam="1">  1        2 0.11903649E+00 0.17427184E+04</pdfrwt>
<pdfrwt beam="2">  1       -2 0.15096894E+00 0.17427184E+04</pdfrwt>
<totfact> 0.10052219E+01</totfact>
</mgrwt>
</event>
<event>
12    1  0.1562393E-007  0.1534079E+04  0.7818608E-02  0.8862102E-01
          1   -1    0    0  501    0  0.00000000000E+00  0.00000000000E+00  0.15351173908E+04  0.15351173908E+04  0.00000000000E+00 0. -1.
         -1   -1    0    0    0  501 -0.00000000000E+00 -0.00000000000E+00 -0.38326010436E+03  0.38326010436E+03  0.00000000000E+00 0.  1.
         23    2    1    2    0    0 -0.27449279847E+03  0.21698110091E+03  0.83654961446E+03  0.91144995101E+03  0.92188183513E+02 0.  0.
        254    2    1    2    0    0  0.27449279847E+03 -0.21698110091E+03  0.31530767200E+03  0.10069275442E+04  0.88997587417E+03 0.  0.
        -24    2    4    4    0    0  0.52151817069E+03 -0.29403135623E+03  0.18345449027E+02  0.60446839688E+03  0.81300962630E+02 0.  0.
         24    2    4    4    0    0 -0.24702537222E+03  0.77050255312E+02  0.29696222297E+03  0.40245914728E+03  0.82634901777E+02 0.  0.
         11    1    3    3    0    0 -0.40074959508E+02  0.53986888717E+02  0.91343827461E+02  0.11342081532E+03  0.00000000000E+00 0.  1.
        -11    1    3    3    0    0 -0.23441783896E+03  0.16299421220E+03  0.74520578700E+03  0.79802913569E+03  0.00000000000E+00 0. -1.
          2    1    6    6  502    0 -0.18674503042E+03  0.70541950823E+02  0.17175044623E+03  0.26334025327E+03  0.00000000000E+00 0. -1.
          3    1    5    5  503    0  0.35780429268E+03 -0.16834002471E+03  0.37401535746E+02  0.39719157929E+03  0.00000000000E+00 0. -1.
         -4    1    5    5    0  503  0.16371387801E+03 -0.12569133152E+03 -0.19056086719E+02  0.20727681760E+03  0.00000000000E+00 0.  1.
         -1    1    6    6    0  502 -0.60280341798E+02  0.65083044886E+01  0.12521177674E+03  0.13911889401E+03  0.00000000000E+00 0.  1.
<mgrwt>
<rscale>  0 0.15340786E+04</rscale>
<asrwt>0</asrwt>
<pdfrwt beam="1">  1        1 0.23617190E+00 0.15340786E+04</pdfrwt>
<pdfrwt beam="2">  1       -1 0.58963094E-01 0.15340786E+04</pdfrwt>
<totfact> 0.17394942E+01</totfact>
</mgrwt>
</event>
<event>
12    1  0.1562393E-007  0.2177989E+04  0.7818608E-02  0.8527646E-01
          1   -1    0    0  501    0  0.00000000000E+00  0.00000000000E+00  0.15882237295E+04  0.15882237295E+04  0.00000000000E+00 0. -1.
         -1   -1    0    0    0  501 -0.00000000000E+00 -0.00000000000E+00 -0.74668890327E+03  0.74668890327E+03  0.00000000000E+00 0.  1.
         23    2    1    2    0    0 -0.76358181294E+03 -0.66132801508E+01  0.86440785987E+03  0.11572058445E+04  0.93933475064E+02 0.  0.
        254    2    1    2    0    0  0.76358181294E+03  0.66132801508E+01 -0.22873033653E+02  0.11777067883E+04  0.89630864271E+03 0.  0.
        -24    2    4    4    0    0 -0.73307345145E+01 -0.13531860850E+03  0.28979006114E+03  0.32960351290E+03  0.79343120098E+02 0.  0.
         24    2    4    4    0    0  0.77091254746E+03  0.14193188865E+03 -0.31266309480E+03  0.84810327539E+03  0.84084112871E+02 0.  0.
         13    1    3    3    0    0 -0.34538920103E+03 -0.15833360004E+02  0.45935728097E+03  0.57493782886E+03  0.00000000000E+00 0. -1.
        -13    1    3    3    0    0 -0.41819261192E+03  0.92200798532E+01  0.40505057890E+03  0.58226801561E+03  0.00000000000E+00 0.  1.
          4    1    6    6  502    0  0.83024657084E+02  0.34940366718E+02 -0.56392503173E+02  0.10627340836E+03  0.00000000000E+00 0. -1.
          1    1    5    5  503    0 -0.63821106408E+01 -0.51239181724E+02  0.37905187332E+02  0.64054572878E+02  0.00000000000E+00 0. -1.
         -2    1    5    5    0  503 -0.94862387374E+00 -0.84079426777E+02  0.25188487381E+03  0.26554894003E+03  0.00000000000E+00 0.  1.
         -3    1    6    6    0  502  0.68788789037E+03  0.10699152193E+03 -0.25627059162E+03  0.74182986703E+03  0.00000000000E+00 0.  1.
<mgrwt>
<rscale>  0 0.21779890E+04</rscale>
<asrwt>0</asrwt>
<pdfrwt beam="1">  1        1 0.24434211E+00 0.21779890E+04</pdfrwt>
<pdfrwt beam="2">  1       -1 0.11487522E+00 0.21779890E+04</pdfrwt>
<totfact> 0.35737909E+00</totfact>
</mgrwt>
</event>
<event>
12    1  0.1562393E-007  0.1684724E+04  0.7818608E-02  0.8770125E-01
          1   -1    0    0  501    0  0.00000000000E+00  0.00000000000E+00  0.54254051920E+03  0.54254051920E+03  0.00000000000E+00 0. -1.
         -1   -1    0    0    0  501 -0.00000000000E+00 -0.00000000000E+00 -0.13078718942E+04  0.13078718942E+04  0.00000000000E+00 0.  1.
         23    2    1    2    0    0 -0.55033254277E+03 -0.21758041788E+03 -0.36582020433E+03  0.70187249546E+03  0.92700766506E+02 0.  0.
        254    2    1    2    0    0  0.55033254277E+03  0.21758041788E+03 -0.39951117062E+03  0.11485399179E+04  0.89962637894E+03 0.  0.
        -24    2    4    4    0    0  0.76298274058E+03  0.16355647145E+02 -0.23054099983E+03  0.80109982881E+03  0.78750323723E+02 0.  0.
         24    2    4    4    0    0 -0.21265019782E+03  0.20122477073E+03 -0.16897017079E+03  0.34744008909E+03  0.80325474801E+02 0.  0.
         11    1    3    3    0    0 -0.15611302525E+03 -0.90864599631E+02 -0.15071605989E+03  0.23525089336E+03  0.00000000000E+00 0.  1.
        -11    1    3    3    0    0 -0.39421951752E+03 -0.12671581825E+03 -0.21510414444E+03  0.46662160210E+03  0.00000000000E+00 0. -1.
          4    1    6    6  502    0 -0.17328339963E+03  0.16209997436E+03 -0.96494705358E+02  0.25615379450E+03  0.00000000000E+00 0. -1.
          3    1    5    5  503    0  0.73971977321E+03  0.29618620881E+02 -0.21985990906E+03  0.77227002090E+03  0.00000000000E+00 0. -1.
         -4    1    5    5    0  503  0.23262967378E+02 -0.13262973736E+02 -0.10681090776E+02  0.28829807903E+02  0.00000000000E+00 0.  1.
         -3    1    6    6    0  502 -0.39366798192E+02  0.39124796378E+02 -0.72475465431E+02  0.91286294595E+02  0.00000000000E+00 0.  1.
<mgrwt>
<rscale>  0 0.16847237E+04</rscale>
<asrwt>0</asrwt>
<pdfrwt beam="1">  1        1 0.83467773E-01 0.16847237E+04</pdfrwt>
<pdfrwt beam="2">  1       -1 0.20121106E+00 0.16847237E+04</pdfrwt>
<totfact> 0.55621038E+00</totfact>
</mgrwt>
</event>
<event>
12    1  0.1562393E-007  0.1885742E+04  0.7818608E-02  0.8661986E-01
         -1   -1    0    0    0  501 -0.00000000000E+00  0.00000000000E+00  0.47734351994E+03  0.47734351994E+03  0.00000000000E+00 0. -1.
          1   -1    0    0  501    0  0.00000000000E+00 -0.00000000000E+00 -0.18624018895E+04  0.18624018895E+04  0.00000000000E+00 0.  1.
         23    2    1    2    0    0  0.86158634028E+01 -0.49321547260E+03 -0.11846572496E+04  0.12863662687E+04  0.89384801526E+02 0.  0.
        254    2    1    2    0    0 -0.86158634028E+01  0.49321547260E+03 -0.20040112002E+03  0.10533791408E+04  0.90890663427E+03 0.  0.
        -24    2    4    4    0    0 -0.31100127793E+03 -0.81919194011E+02  0.81027052946E+02  0.34086504382E+03  0.78683197507E+02 0.  0.
         24    2    4    4    0    0  0.30238541453E+03  0.57513466661E+03 -0.28142817296E+03  0.71251409696E+03  0.79105614043E+02 0.  0.
         13    1    3    3    0    0 -0.34202524532E+02 -0.16095631746E+03 -0.44237389887E+03  0.47198666848E+03  0.00000000000E+00 0.  1.
        -13    1    3    3    0    0  0.42818387934E+02 -0.33225915514E+03 -0.74228335071E+03  0.81437960022E+03  0.00000000000E+00 0. -1.
          4    1    6    6  502    0  0.64474203012E+02  0.85253116998E+02 -0.21336534729E+02  0.10899662621E+03  0.00000000000E+00 0. -1.
          3    1    5    5  503    0 -0.62892563440E+02 -0.50771002294E+02  0.14600010953E+02  0.82136042818E+02  0.00000000000E+00 0. -1.
         -4    1    5    5    0  503 -0.24810871449E+03 -0.31148191717E+02  0.66427041993E+02  0.25872900100E+03  0.00000000000E+00 0.  1.
         -3    1    6    6    0  502  0.23791121151E+03  0.48988154962E+03 -0.26009163823E+03  0.60351747075E+03  0.00000000000E+00 0.  1.
<mgrwt>
<rscale>  0 0.18857417E+04</rscale>
<asrwt>0</asrwt>
<pdfrwt beam="1">  1        1 0.28652337E+00 0.18857417E+04</pdfrwt>
<pdfrwt beam="2">  1       -1 0.73437464E-01 0.18857417E+04</pdfrwt>
<totfact> 0.64663964E+00</totfact>
</mgrwt>
</event>
<event>
12    1  0.1562393E-007  0.1296703E+04  0.7818608E-02  0.9032184E-01
          2   -1    0    0  501    0  0.00000000000E+00  0.00000000000E+00  0.83278583159E+03  0.83278583159E+03  0.00000000000E+00 0. -1.
         -2   -1    0    0    0  501 -0.00000000000E+00 -0.00000000000E+00 -0.50476325720E+03  0.50476325720E+03  0.00000000000E+00 0.  1.
         23    2    1    2    0    0 -0.25807089938E+03  0.12700187627E+03 -0.48885680985E+02  0.30649428570E+03  0.93908847694E+02 0.  0.
        254    2    1    2    0    0  0.25807089938E+03 -0.12700187627E+03  0.37690825537E+03  0.10310548031E+04  0.91557856481E+03 0.  0.
        -24    2    4    4    0    0 -0.32021067746E+03 -0.16860181739E+03  0.10007753997E+03  0.38371587886E+03  0.79125917985E+02 0.  0.
         24    2    4    4    0    0  0.57828157684E+03  0.41599941119E+02  0.27683071540E+03  0.64733892424E+03  0.79197857506E+02 0.  0.
         13    1    3    3    0    0 -0.62672295442E+02 -0.81163273267E+01  0.32338815154E+01  0.63278348389E+02  0.00000000000E+00 0. -1.
        -13    1    3    3    0    0 -0.19539860394E+03  0.13511820360E+03 -0.52119562501E+02  0.24321593731E+03  0.00000000000E+00 0.  1.
          4    1    6    6  502    0  0.39582886708E+03  0.62998751953E+02  0.20383367952E+03  0.44966376735E+03  0.00000000000E+00 0. -1.
          1    1    5    5  503    0 -0.28732485869E+03 -0.15156723663E+03  0.11381811256E+03  0.34421325423E+03  0.00000000000E+00 0. -1.
         -2    1    5    5    0  503 -0.32885818761E+02 -0.17034580756E+02 -0.13740572586E+02  0.39502624623E+02  0.00000000000E+00 0.  1.
         -3    1    6    6    0  502  0.18245270976E+03 -0.21398810833E+02  0.72997035880E+02  0.19767515689E+03  0.00000000000E+00 0.  1.
<mgrwt>
<rscale>  0 0.12967030E+04</rscale>
<asrwt>0</asrwt>
<pdfrwt beam="1">  1        2 0.12812090E+00 0.12967030E+04</pdfrwt>
<pdfrwt beam="2">  1       -2 0.77655886E-01 0.12967030E+04</pdfrwt>
<totfact> 0.47298642E+01</totfact>
</mgrwt>
</event>
<event>
12    1  0.1562393E-007  0.1266758E+04  0.7818608E-02  0.9056350E-01
         -1   -1    0    0    0  501 -0.00000000000E+00  0.00000000000E+00  0.93886830499E+03  0.93886830499E+03  0.00000000000E+00 0.  1.
          1   -1    0    0  501    0  0.00000000000E+00 -0.00000000000E+00 -0.42728979912E+03  0.42728979912E+03  0.00000000000E+00 0. -1.
         23    2    1    2    0    0  0.23348255043E+03 -0.25887274340E+02  0.33937539142E+03  0.42285050791E+03  0.91883858242E+02 0.  0.
        254    2    1    2    0    0 -0.23348255043E+03  0.25887274340E+02  0.17220311445E+03  0.94330759621E+03  0.89721293799E+03 0.  0.
        -24    2    4    4    0    0 -0.54132979736E+03  0.12411006002E+03  0.22739219886E+03  0.60549567930E+03  0.80477009389E+02 0.  0.
         24    2    4    4    0    0  0.30784724692E+03 -0.98222785677E+02 -0.55189084406E+02  0.33781191691E+03  0.81568456555E+02 0.  0.
         11    1    3    3    0    0  0.23429416939E+03 -0.10585575736E+02  0.30140038502E+03  0.38190051625E+03  0.00000000000E+00 0.  1.
        -11    1    3    3    0    0 -0.81161895306E+00 -0.15301698605E+02  0.37975006402E+02  0.40949991658E+02  0.00000000000E+00 0. -1.
          4    1    6    6  502    0  0.21354903713E+03 -0.10168863645E+03 -0.21029692256E+02  0.23745740249E+03  0.00000000000E+00 0. -1.
          1    1    5    5  503    0 -0.33134457493E+03  0.80070033681E+02  0.96947684081E+02  0.35439990276E+03  0.00000000000E+00 0. -1.
         -2    1    5    5    0  503 -0.20998522242E+03  0.44040026336E+02  0.13044451478E+03  0.25109577653E+03  0.00000000000E+00 0.  1.
         -3    1    6    6    0  502  0.94298209793E+02  0.34658507751E+01 -0.34159392149E+02  0.10035451442E+03  0.00000000000E+00 0.  1.
<mgrwt>
<rscale>  0 0.12667578E+04</rscale>
<asrwt>0</asrwt>
<pdfrwt beam="1">  1        1 0.65736892E-01 0.12667578E+04</pdfrwt>
<pdfrwt beam="2">  1       -1 0.14444128E+00 0.12667578E+04</pdfrwt>
<totfact> 0.20882319E+01</totfact>
</mgrwt>
</event>
<event>
12    1  0.1562393E-007  0.2155299E+04  0.7818608E-02  0.8537268E-01
          2   -1    0    0  501    0  0.00000000000E+00  0.00000000000E+00  0.81825411929E+03  0.81825411929E+03  0.00000000000E+00 0. -1.
         -2   -1    0    0    0  501 -0.00000000000E+00 -0.00000000000E+00 -0.14192753630E+04  0.14192753630E+04  0.00000000000E+00 0.  1.
         23    2    1    2    0    0 -0.12163564554E+03 -0.19035194148E+03  0.64194318753E+03  0.68679545877E+03  0.92562704590E+02 0.  0.
        254    2    1    2    0    0  0.12163564554E+03  0.19035194148E+03 -0.12429644312E+04  0.15507340235E+04  0.89932549307E+03 0.  0.
        -24    2    4    4    0    0  0.46948619766E+03 -0.29599552215E+02 -0.86144121629E+03  0.98409030180E+03  0.71128965152E+02 0.  0.
         24    2    4    4    0    0 -0.34785055212E+03  0.21995149370E+03 -0.38152321495E+03  0.56664372172E+03  0.78399474675E+02 0.  0.
         13    1    3    3    0    0 -0.10917536615E+03 -0.19369746152E+03  0.53919246607E+03  0.58323792970E+03  0.00000000000E+00 0. -1.
        -13    1    3    3    0    0 -0.12460279387E+02  0.33455200392E+01  0.10275072146E+03  0.10355752907E+03  0.00000000000E+00 0.  1.
          2    1    6    6  502    0 -0.92933232700E+02  0.44683934324E+02 -0.55092396295E+02  0.11691198337E+03  0.00000000000E+00 0. -1.
          3    1    5    5  503    0  0.85401569035E+02  0.15026696196E+02 -0.19870810560E+03  0.21680438377E+03  0.00000000000E+00 0. -1.
         -4    1    5    5    0  503  0.38408462862E+03 -0.44626248411E+02 -0.66273311069E+03  0.76728591803E+03  0.00000000000E+00 0.  1.
         -1    1    6    6    0  502 -0.25491731942E+03  0.17526755937E+03 -0.32643081865E+03  0.44973173835E+03  0.00000000000E+00 0.  1.
<mgrwt>
<rscale>  0 0.21552985E+04</rscale>
<asrwt>0</asrwt>
<pdfrwt beam="1">  1        2 0.12588525E+00 0.21552985E+04</pdfrwt>
<pdfrwt beam="2">  1       -2 0.21835006E+00 0.21552985E+04</pdfrwt>
<totfact> 0.31030268E+00</totfact>
</mgrwt>
</event>
<event>
12    1  0.1562393E-007  0.1308137E+04  0.7818608E-02  0.9023137E-01
          2   -1    0    0  501    0  0.00000000000E+00  0.00000000000E+00  0.11596281145E+03  0.11596281145E+03  0.00000000000E+00 0.  1.
         -2   -1    0    0    0  501 -0.00000000000E+00 -0.00000000000E+00 -0.36891601125E+04  0.36891601125E+04  0.00000000000E+00 0. -1.
         23    2    1    2    0    0 -0.22143136887E+03  0.26753980627E+03 -0.83702834615E+03  0.91179779996E+03  0.10074411488E+03 0.  0.
        254    2    1    2    0    0  0.22143136887E+03 -0.26753980627E+03 -0.27361689549E+04  0.28933251240E+04  0.87412832254E+03 0.  0.
        -24    2    4    4    0    0  0.44438466260E+03 -0.37200296260E+03 -0.11909132666E+04  0.13264616314E+04  0.73226487670E+02 0.  0.
         24    2    4    4    0    0 -0.22295329372E+03  0.10446315633E+03 -0.15452556882E+04  0.15668634925E+04  0.81396191247E+02 0.  0.
         13    1    3    3    0    0  0.86119445635E+01  0.19628266618E+01 -0.10714077528E+02  0.13885594512E+02  0.00000000000E+00 0. -1.
        -13    1    3    3    0    0 -0.23004331344E+03  0.26557697961E+03 -0.82631426862E+03  0.89791220544E+03  0.00000000000E+00 0.  1.
          2    1    6    6  502    0 -0.10200317883E+03  0.71310905923E+02 -0.56034069468E+03  0.57399615670E+03  0.00000000000E+00 0. -1.
          3    1    5    5  503    0  0.42494450072E+03 -0.35792899490E+03 -0.10989020380E+04  0.12313718704E+04  0.00000000000E+00 0. -1.
         -4    1    5    5    0  503  0.19440161879E+02 -0.14073967705E+02 -0.92011228615E+02  0.95089761027E+02  0.00000000000E+00 0.  1.
         -1    1    6    6    0  502 -0.12095011490E+03  0.33152250408E+02 -0.98491499354E+03  0.99286733580E+03  0.00000000000E+00 0.  1.
<mgrwt>
<rscale>  0 0.13081367E+04</rscale>
<asrwt>0</asrwt>
<pdfrwt beam="1">  1        2 0.17840431E-01 0.13081367E+04</pdfrwt>
<pdfrwt beam="2">  1       -2 0.56756314E+00 0.13081367E+04</pdfrwt>
<totfact> 0.22119757E-01</totfact>
</mgrwt>
</event>
<event>
12    1  0.1562393E-007  0.1573041E+04  0.7818608E-02  0.8837283E-01
          1   -1    0    0  501    0  0.00000000000E+00  0.00000000000E+00  0.66058342012E+03  0.66058342012E+03  0.00000000000E+00 0. -1.
         -1   -1    0    0    0  501 -0.00000000000E+00 -0.00000000000E+00 -0.93646687017E+03  0.93646687017E+03  0.00000000000E+00 0.  1.
         23    2    1    2    0    0 -0.41693782913E+03 -0.19881500653E+03  0.19466935210E+03  0.51037088220E+03  0.96008960863E+02 0.  0.
        254    2    1    2    0    0  0.41693782913E+03  0.19881500653E+03 -0.47055280215E+03  0.10866794081E+04  0.86376364601E+03 0.  0.
        -24    2    4    4    0    0 -0.39006209384E+02  0.22143105483E+03 -0.56531421612E+03  0.61356011593E+03  0.79515133780E+02 0.  0.
         24    2    4    4    0    0  0.45594403852E+03 -0.22616048294E+02  0.94761413972E+02  0.47311929216E+03  0.80409496543E+02 0.  0.
         13    1    3    3    0    0 -0.17107052782E+03 -0.68146031877E+02  0.12742267991E+03  0.22393201313E+03  0.00000000000E+00 0.  1.
        -13    1    3    3    0    0 -0.24586730131E+03 -0.13066897466E+03  0.67246672187E+02  0.28643886907E+03  0.00000000000E+00 0. -1.
          4    1    6    6  502    0  0.17352023152E+03 -0.41416620143E+02  0.14878205946E+02  0.17901387707E+03  0.00000000000E+00 0. -1.
          1    1    5    5  503    0 -0.23565097896E+02  0.15132470859E+03 -0.46943245932E+03  0.49378265981E+03  0.00000000000E+00 0. -1.
         -2    1    5    5    0  503 -0.15441111489E+02  0.70106346241E+02 -0.95881756807E+02  0.11977745612E+03  0.00000000000E+00 0.  1.
         -3    1    6    6    0  502  0.28242380700E+03  0.18800571849E+02  0.79883208026E+02  0.29410541509E+03  0.00000000000E+00 0.  1.
<mgrwt>
<rscale>  0 0.15730410E+04</rscale>
<asrwt>0</asrwt>
<pdfrwt beam="1">  1        1 0.10162822E+00 0.15730410E+04</pdfrwt>
<pdfrwt beam="2">  1       -1 0.14407183E+00 0.15730410E+04</pdfrwt>
<totfact> 0.11113869E+01</totfact>
</mgrwt>
</event>
<event>
12    1  0.1562393E-007  0.1044653E+04  0.7818608E-02  0.9260882E-01
         -2   -1    0    0    0  501 -0.00000000000E+00  0.00000000000E+00  0.62482264381E+03  0.62482264381E+03  0.00000000000E+00 0.  1.
          2   -1    0    0  501    0  0.00000000000E+00 -0.00000000000E+00 -0.43664410076E+03  0.43664410076E+03  0.00000000000E+00 0. -1.
         23    2    1    2    0    0  0.68470726024E+02 -0.39502275114E+02  0.10332387645E+03  0.15880585869E+03  0.91075832418E+02 0.  0.
        254    2    1    2    0    0 -0.68470726024E+02  0.39502275114E+02  0.84854666604E+02  0.90266088588E+03  0.89518025581E+03 0.  0.
        -24    2    4    4    0    0 -0.22063712645E+03  0.41895229603E+03  0.11703590614E+02  0.48039409322E+03  0.80248008446E+02 0.  0.
         24    2    4    4    0    0  0.15216640042E+03 -0.37945002091E+03  0.73151075989E+02  0.42226679265E+03  0.76297001722E+02 0.  0.
         11    1    3    3    0    0  0.28009958107E+02 -0.46634677419E+02  0.79739387043E+01  0.54981220336E+02  0.00000000000E+00 0. -1.
        -11    1    3    3    0    0  0.40460767917E+02  0.71324023051E+01  0.95349937741E+02  0.10382463836E+03  0.00000000000E+00 0.  1.
          4    1    6    6  502    0  0.11305522940E+03 -0.27593662041E+03  0.87288006863E+02  0.31071160185E+03  0.00000000000E+00 0. -1.
          3    1    5    5  503    0 -0.48622714122E+02  0.36187499901E+02  0.16505509425E+01  0.60633553385E+02  0.00000000000E+00 0. -1.
         -4    1    5    5    0  503 -0.17201441233E+03  0.38276479612E+03  0.10053039672E+02  0.41976053984E+03  0.00000000000E+00 0.  1.
         -3    1    6    6    0  502  0.39111171022E+02 -0.10351340050E+03 -0.14136930873E+02  0.11155519081E+03  0.00000000000E+00 0.  1.
<mgrwt>
<rscale>  0 0.10446533E+04</rscale>
<asrwt>0</asrwt>
<pdfrwt beam="1">  1        2 0.67176015E-01 0.10446533E+04</pdfrwt>
<pdfrwt beam="2">  1       -2 0.96126561E-01 0.10446533E+04</pdfrwt>
<totfact> 0.65027437E+01</totfact>
</mgrwt>
</event>
<event>
12    1  0.1562393E-007  0.1817001E+04  0.7818608E-02  0.8697310E-01
          2   -1    0    0  501    0  0.00000000000E+00  0.00000000000E+00  0.11962003935E+04  0.11962003935E+04  0.00000000000E+00 0. -1.
         -2   -1    0    0    0  501 -0.00000000000E+00 -0.00000000000E+00 -0.68999576078E+03  0.68999576078E+03  0.00000000000E+00 0.  1.
         23    2    1    2    0    0 -0.48991536959E+03  0.35388973440E+03 -0.13659069203E+03  0.62510076991E+03  0.82697895496E+02 0.  0.
        254    2    1    2    0    0  0.48991536959E+03 -0.35388973440E+03  0.64279532476E+03  0.12610953844E+04  0.90106643791E+03 0.  0.
        -24    2    4    4    0    0  0.54827255222E+03 -0.60116930878E+03  0.50219888321E+03  0.95946203178E+03  0.79726675618E+02 0.  0.
         24    2    4    4    0    0 -0.58357182631E+02  0.24727957438E+03  0.14059644155E+03  0.30163335261E+03  0.81624575702E+02 0.  0.
         11    1    3    3    0    0 -0.18012838640E+03  0.12914620824E+03 -0.95660733960E+01  0.22184789485E+03  0.00000000000E+00 0. -1.
        -11    1    3    3    0    0 -0.30978698320E+03  0.22474352616E+03 -0.12702461863E+03  0.40325287506E+03  0.00000000000E+00 0.  1.
          2    1    6    6  502    0 -0.73637887179E+02  0.22450519964E+03  0.11025009974E+03  0.26073014323E+03  0.00000000000E+00 0. -1.
          3    1    5    5  503    0  0.51618713491E+03 -0.56614410084E+03  0.49307606172E+03  0.91109401480E+03  0.00000000000E+00 0. -1.
         -4    1    5    5    0  503  0.32085417315E+02 -0.35025207938E+02  0.91228214885E+01  0.48368016988E+02  0.00000000000E+00 0.  1.
         -1    1    6    6    0  502  0.15280704548E+02  0.22774374736E+02  0.30346341815E+02  0.40903209381E+02  0.00000000000E+00 0.  1.
<mgrwt>
<rscale>  0 0.18170010E+04</rscale>
<asrwt>0</asrwt>
<pdfrwt beam="1">  1        2 0.18403083E+00 0.18170010E+04</pdfrwt>
<pdfrwt beam="2">  1       -2 0.10615319E+00 0.18170010E+04</pdfrwt>
<totfact> 0.12855621E+01</totfact>
</mgrwt>
</event>
<event>
12    1  0.1562393E-007  0.1975663E+04  0.7818608E-02  0.8618084E-01
          1   -1    0    0  501    0  0.00000000000E+00  0.00000000000E+00  0.27428209524E+04  0.27428209524E+04  0.00000000000E+00 0. -1.
         -1   -1    0    0    0  501 -0.00000000000E+00 -0.00000000000E+00 -0.35576930393E+03  0.35576930393E+03  0.00000000000E+00 0.  1.
         23    2    1    2    0    0 -0.69203899912E+03  0.35396460567E+03  0.10299437004E+04  0.12937615834E+04  0.93947274314E+02 0.  0.
        254    2    1    2    0    0  0.69203899912E+03 -0.35396460567E+03  0.13571079480E+04  0.18048286729E+04  0.90080832450E+03 0.  0.
        -24    2    4    4    0    0  0.18058568775E+03 -0.14660778345E+03  0.12003587705E+04  0.12252693160E+04  0.79490162372E+02 0.  0.
         24    2    4    4    0    0  0.51145331138E+03 -0.20735682222E+03  0.15674917748E+03  0.57955935688E+03  0.82081679270E+02 0.  0.
         11    1    3    3    0    0 -0.43510738535E+03  0.26302118411E+03  0.62581228535E+03  0.80631234429E+03  0.00000000000E+00 0.  1.
        -11    1    3    3    0    0 -0.25693161378E+03  0.90943421562E+02  0.40413141509E+03  0.48744923915E+03  0.00000000000E+00 0. -1.
          2    1    6    6  502    0  0.45628009552E+03 -0.20989048537E+03  0.13386114569E+03  0.51977336191E+03  0.00000000000E+00 0. -1.
          3    1    5    5  503    0  0.13745762991E+03 -0.10205185653E+03  0.10266029363E+04  0.10407798856E+04  0.00000000000E+00 0. -1.
         -4    1    5    5    0  503  0.43128057833E+02 -0.44555926916E+02  0.17375583427E+03  0.18448943042E+03  0.00000000000E+00 0.  1.
         -1    1    6    6    0  502  0.55173215852E+02  0.25336631511E+01  0.22888031783E+02  0.59785994977E+02  0.00000000000E+00 0.  1.
<mgrwt>
<rscale>  0 0.19756634E+04</rscale>
<asrwt>0</asrwt>
<pdfrwt beam="1">  1        1 0.42197244E+00 0.19756634E+04</pdfrwt>
<pdfrwt beam="2">  1       -1 0.54733741E-01 0.19756634E+04</pdfrwt>
<totfact> 0.28727419E+00</totfact>
</mgrwt>
</event>
<event>
12    1  0.1562393E-007  0.1619811E+04  0.7818608E-02  0.8808469E-01
         -1   -1    0    0    0  501 -0.00000000000E+00  0.00000000000E+00  0.59900990620E+03  0.59900990620E+03  0.00000000000E+00 0.  1.
          1   -1    0    0  501    0  0.00000000000E+00 -0.00000000000E+00 -0.10950518759E+04  0.10950518759E+04  0.00000000000E+00 0. -1.
         23    2    1    2    0    0 -0.50429036143E+03 -0.16329488916E+03 -0.14095273126E+02  0.53763369789E+03  0.88754306466E+02 0.  0.
        254    2    1    2    0    0  0.50429036143E+03  0.16329488916E+03 -0.48194669659E+03  0.11564280842E+04  0.90778813947E+03 0.  0.
        -24    2    4    4    0    0 -0.49366980921E+02  0.11359986210E+03 -0.57003850112E+03  0.58823905450E+03  0.75757936898E+02 0.  0.
         24    2    4    4    0    0  0.55365734236E+03  0.49695027062E+02  0.88091804531E+02  0.56818902972E+03  0.77926625820E+02 0.  0.
         13    1    3    3    0    0 -0.46310528621E+02 -0.61817322372E+01 -0.25683405482E+02  0.53315252900E+02  0.00000000000E+00 0.  1.
        -13    1    3    3    0    0 -0.45797983281E+03 -0.15711315693E+03  0.11588132356E+02  0.48431844499E+03  0.00000000000E+00 0. -1.
          4    1    6    6  502    0  0.77082694083E+02  0.32629403405E+02  0.28674478792E+01  0.83753459337E+02  0.00000000000E+00 0. -1.
          1    1    5    5  503    0 -0.73501154915E+01  0.40057892430E+02 -0.69247237140E+02  0.80335787761E+02  0.00000000000E+00 0. -1.
         -2    1    5    5    0  503 -0.42016865430E+02  0.73541969674E+02 -0.50079126398E+03  0.50790326674E+03  0.00000000000E+00 0.  1.
         -3    1    6    6    0  502  0.47657464827E+03  0.17065623657E+02  0.85224356652E+02  0.48443557038E+03  0.00000000000E+00 0.  1.
<mgrwt>
<rscale>  0 0.16198110E+04</rscale>
<asrwt>0</asrwt>
<pdfrwt beam="1">  1        1 0.16846952E+00 0.16198110E+04</pdfrwt>
<pdfrwt beam="2">  1       -1 0.92155371E-01 0.16198110E+04</pdfrwt>
<totfact> 0.14043672E+01</totfact>
</mgrwt>
</event>
<event>
12    1  0.1562393E-007  0.2322784E+04  0.7818608E-02  0.8468992E-01
          1   -1    0    0  501    0  0.00000000000E+00  0.00000000000E+00  0.11409003107E+04  0.11409003107E+04  0.00000000000E+00 0. -1.
         -1   -1    0    0    0  501 -0.00000000000E+00 -0.00000000000E+00 -0.11822514307E+04  0.11822514307E+04  0.00000000000E+00 0.  1.
         23    2    1    2    0    0  0.23422508578E+03 -0.96983407864E+03  0.13407025453E+03  0.10106669389E+04  0.89628663593E+02 0.  0.
        254    2    1    2    0    0 -0.23422508578E+03  0.96983407864E+03 -0.17542137451E+03  0.13124848024E+04  0.83450833852E+03 0.  0.
        -24    2    4    4    0    0  0.24384397963E+03  0.68440032542E+03 -0.32135441710E+02  0.73154342182E+03  0.79116367199E+02 0.  0.
         24    2    4    4    0    0 -0.47806906541E+03  0.28543375322E+03 -0.14328593280E+03  0.58094138061E+03  0.83304083804E+02 0.  0.
         11    1    3    3    0    0  0.94570605641E+02 -0.36131606447E+03  0.93496114143E+02  0.38501223520E+03  0.00000000000E+00 0.  1.
        -11    1    3    3    0    0  0.13965448014E+03 -0.60851801417E+03  0.40574140386E+02  0.62565470370E+03  0.00000000000E+00 0. -1.
          2    1    6    6  502    0 -0.20244783922E+02 -0.37804261881E+01 -0.11597137622E+02  0.23635492363E+02  0.00000000000E+00 0. -1.
          1    1    5    5  503    0  0.42860771570E+01  0.51455399073E+02  0.13104746500E+02  0.53270657327E+02  0.00000000000E+00 0. -1.
         -2    1    5    5    0  503  0.23955790248E+03  0.63294492634E+03 -0.45240188210E+02  0.67827276449E+03  0.00000000000E+00 0.  1.
         -1    1    6    6    0  502 -0.45782428149E+03  0.28921417941E+03 -0.13168879518E+03  0.55730588824E+03  0.00000000000E+00 0.  1.
<mgrwt>
<rscale>  0 0.23227837E+04</rscale>
<asrwt>0</asrwt>
<pdfrwt beam="1">  1        1 0.17552312E+00 0.23227837E+04</pdfrwt>
<pdfrwt beam="2">  1       -1 0.18188484E+00 0.23227837E+04</pdfrwt>
<totfact> 0.21502197E+00</totfact>
</mgrwt>
</event>
<event>
12    1  0.1562393E-007  0.1427352E+04  0.7818608E-02  0.8934254E-01
         -1   -1    0    0    0  501 -0.00000000000E+00  0.00000000000E+00  0.22237111691E+03  0.22237111691E+03  0.00000000000E+00 0.  1.
          1   -1    0    0  501    0  0.00000000000E+00 -0.00000000000E+00 -0.22904653692E+04  0.22904653692E+04  0.00000000000E+00 0. -1.
         23    2    1    2    0    0 -0.15308982767E+03 -0.36289006122E+03 -0.76355926296E+03  0.86348453233E+03  0.86354488308E+02 0.  0.
        254    2    1    2    0    0  0.15308982767E+03  0.36289006122E+03 -0.13045349893E+04  0.16493519538E+04  0.92920645561E+03 0.  0.
        -24    2    4    4    0    0  0.25241350634E+03  0.29608517212E+03 -0.14135797889E+04  0.14683749018E+04  0.80858056456E+02 0.  0.
         24    2    4    4    0    0 -0.99323678666E+02  0.66804889096E+02  0.10904479960E+03  0.18097705195E+03  0.80832163527E+02 0.  0.
         11    1    3    3    0    0 -0.52720102925E+02 -0.96072699219E+02 -0.13949506962E+03  0.17739291766E+03  0.00000000000E+00 0.  1.
        -11    1    3    3    0    0 -0.10036972475E+03 -0.26681736200E+03 -0.62406419334E+03  0.68609161467E+03  0.00000000000E+00 0. -1.
          2    1    6    6  502    0 -0.75250833901E+02  0.85488641628E+02  0.83636913236E+02  0.14130155380E+03  0.00000000000E+00 0. -1.
          1    1    5    5  503    0  0.16180539947E+03  0.24009368847E+03 -0.10848319073E+04  0.11228028472E+04  0.00000000000E+00 0. -1.
         -2    1    5    5    0  503  0.90608106874E+02  0.55991483653E+02 -0.32874788163E+03  0.34557205464E+03  0.00000000000E+00 0.  1.
         -1    1    6    6    0  502 -0.24072844765E+02 -0.18683752532E+02  0.25407886368E+02  0.39675498150E+02  0.00000000000E+00 0.  1.
<mgrwt>
<rscale>  0 0.14273519E+04</rscale>
<asrwt>0</asrwt>
<pdfrwt beam="1">  1        1 0.35237927E+00 0.14273519E+04</pdfrwt>
<pdfrwt beam="2">  1       -1 0.34210943E-01 0.14273519E+04</pdfrwt>
<totfact> 0.14890455E+01</totfact>
</mgrwt>
</event>
<event>
12    1  0.1562393E-007  0.1735364E+04  0.7818608E-02  0.8741448E-01
         -2   -1    0    0    0  501 -0.00000000000E+00  0.00000000000E+00  0.63116973290E+03  0.63116973290E+03  0.00000000000E+00 0.  1.
          2   -1    0    0  501    0  0.00000000000E+00 -0.00000000000E+00 -0.11928204478E+04  0.11928204478E+04  0.00000000000E+00 0. -1.
         23    2    1    2    0    0  0.18377473539E+03 -0.56999620678E+03 -0.60193006594E+01  0.60600943766E+03  0.92424982779E+02 0.  0.
        254    2    1    2    0    0 -0.18377473539E+03  0.56999620678E+03 -0.55563141423E+03  0.12179807430E+04  0.90337256590E+03 0.  0.
        -24    2    4    4    0    0  0.11758106601E+01  0.78514694161E+03 -0.42005162734E+03  0.89395680695E+03  0.79109421675E+02 0.  0.
         24    2    4    4    0    0 -0.18495054605E+03 -0.21515073483E+03 -0.13557978689E+03  0.32402393609E+03  0.78186247929E+02 0.  0.
         11    1    3    3    0    0 -0.40449707149E+01 -0.46366178944E+02  0.16171045735E+02  0.49271564397E+02  0.00000000000E+00 0. -1.
        -11    1    3    3    0    0  0.18781970610E+03 -0.52363002783E+03 -0.22190346395E+02  0.55673787326E+03  0.00000000000E+00 0.  1.
          2    1    6    6  502    0 -0.18268060751E+03 -0.20147708371E+03 -0.10699393811E+03  0.29225489288E+03  0.00000000000E+00 0. -1.
          1    1    5    5  503    0 -0.89498353506E+01  0.53711750145E+03 -0.24636748075E+03  0.59099259343E+03  0.00000000000E+00 0. -1.
         -2    1    5    5    0  503  0.10125646011E+02  0.24802944016E+03 -0.17368414659E+03  0.30296421352E+03  0.00000000000E+00 0.  1.
         -1    1    6    6    0  502 -0.22699385364E+01 -0.13673651121E+02 -0.28585848780E+02  0.31769043209E+02  0.00000000000E+00 0.  1.
<mgrwt>
<rscale>  0 0.17353641E+04</rscale>
<asrwt>0</asrwt>
<pdfrwt beam="1">  1        2 0.18351084E+00 0.17353641E+04</pdfrwt>
<pdfrwt beam="2">  1       -2 0.97103036E-01 0.17353641E+04</pdfrwt>
<totfact> 0.16073867E+01</totfact>
</mgrwt>
</event>
<event>
12    1  0.1562393E-007  0.1576491E+04  0.7818608E-02  0.8835122E-01
         -2   -1    0    0    0  501 -0.00000000000E+00  0.00000000000E+00  0.15308186609E+03  0.15308186609E+03  0.00000000000E+00 0.  1.
          2   -1    0    0  501    0  0.00000000000E+00 -0.00000000000E+00 -0.40588143695E+04  0.40588143695E+04  0.00000000000E+00 0. -1.
         23    2    1    2    0    0 -0.10823370131E+03 -0.43794204969E+03 -0.51018319946E+03  0.68691887532E+03  0.89793492404E+02 0.  0.
        254    2    1    2    0    0  0.10823370131E+03  0.43794204969E+03 -0.33955493039E+04  0.35249773602E+04  0.83198710439E+03 0.  0.
        -24    2    4    4    0    0 -0.27465919834E+03  0.33662544103E+03 -0.96427573902E+03  0.10606399892E+04  0.79844367294E+02 0.  0.
         24    2    4    4    0    0  0.38289289965E+03  0.10131660866E+03 -0.24312735649E+04  0.24643373711E+04  0.70678874228E+02 0.  0.
         13    1    3    3    0    0 -0.33923413809E+01 -0.58677217491E+02 -0.29637130333E+02  0.65824640728E+02  0.00000000000E+00 0. -1.
        -13    1    3    3    0    0 -0.10484135993E+03 -0.37926483220E+03 -0.48054606913E+03  0.62109423459E+03  0.00000000000E+00 0.  1.
          2    1    6    6  502    0  0.79125568908E+02  0.61509019577E+01 -0.65201858188E+03  0.65683096788E+03  0.00000000000E+00 0. -1.
          3    1    5    5  503    0 -0.47512514924E+02  0.88590605753E+02 -0.16114639995E+03  0.18993129473E+03  0.00000000000E+00 0. -1.
         -4    1    5    5    0  503 -0.22714668342E+03  0.24803483528E+03 -0.80312933907E+03  0.87070869444E+03  0.00000000000E+00 0.  1.
         -1    1    6    6    0  502  0.30376733074E+03  0.95165706704E+02 -0.17792549830E+04  0.18075064032E+04  0.00000000000E+00 0.  1.
<mgrwt>
<rscale>  0 0.15764909E+04</rscale>
<asrwt>0</asrwt>
<pdfrwt beam="1">  1        2 0.62443298E+00 0.15764909E+04</pdfrwt>
<pdfrwt beam="2">  1       -2 0.23551056E-01 0.15764909E+04</pdfrwt>
<totfact> 0.48067392E+00</totfact>
</mgrwt>
</event>
<event>
12    1  0.1562393E-007  0.1890852E+04  0.7818608E-02  0.8659423E-01
          2   -1    0    0  501    0  0.00000000000E+00  0.00000000000E+00  0.15023695192E+04  0.15023695192E+04  0.00000000000E+00 0. -1.
         -2   -1    0    0    0  501 -0.00000000000E+00 -0.00000000000E+00 -0.59494695431E+03  0.59494695431E+03  0.00000000000E+00 0.  1.
         23    2    1    2    0    0 -0.42710075291E+03  0.19910959102E+03 -0.26392428905E+03  0.54805280762E+03  0.92984768772E+02 0.  0.
        254    2    1    2    0    0  0.42710075291E+03 -0.19910959102E+03  0.11713468540E+04  0.15492636659E+04  0.89783337646E+03 0.  0.
        -24    2    4    4    0    0  0.32949932972E+03 -0.34275644938E+03  0.14195761626E+03  0.50239865867E+03  0.78744241359E+02 0.  0.
         24    2    4    4    0    0  0.97601423189E+02  0.14364685836E+03  0.10293892377E+04  0.10468650073E+04  0.78253964583E+02 0.  0.
         13    1    3    3    0    0 -0.34404646341E+02  0.21775279675E+02 -0.57034117899E+02  0.70076623058E+02  0.00000000000E+00 0. -1.
        -13    1    3    3    0    0 -0.39269610657E+03  0.17733431134E+03 -0.20689017115E+03  0.47797618456E+03  0.00000000000E+00 0.  1.
          2    1    6    6  502    0  0.22805261124E+02  0.10114729211E+03  0.60904475770E+03  0.61780771403E+03  0.00000000000E+00 0. -1.
          3    1    5    5  503    0  0.17021767961E+03 -0.13436941358E+03  0.91120744527E+02  0.23522794868E+03  0.00000000000E+00 0. -1.
         -4    1    5    5    0  503  0.15928165011E+03 -0.20838703580E+03  0.50836871732E+02  0.26717070999E+03  0.00000000000E+00 0.  1.
         -1    1    6    6    0  502  0.74796162065E+02  0.42499566249E+02  0.42034448002E+03  0.42905729323E+03  0.00000000000E+00 0.  1.
<mgrwt>
<rscale>  0 0.18908518E+04</rscale>
<asrwt>0</asrwt>
<pdfrwt beam="1">  1        2 0.23113377E+00 0.18908518E+04</pdfrwt>
<pdfrwt beam="2">  1       -2 0.91530301E-01 0.18908518E+04</pdfrwt>
<totfact> 0.12055518E+01</totfact>
</mgrwt>
</event>
<event>
12    1  0.1562393E-007  0.1862541E+04  0.7818608E-02  0.8673730E-01
          2   -1    0    0  501    0  0.00000000000E+00  0.00000000000E+00  0.83624935486E+03  0.83624935486E+03  0.00000000000E+00 0. -1.
         -2   -1    0    0    0  501 -0.00000000000E+00 -0.00000000000E+00 -0.10370886054E+04  0.10370886054E+04  0.00000000000E+00 0.  1.
         23    2    1    2    0    0 -0.34929837931E+03  0.58829657608E+03  0.90009970841E+02  0.69642624328E+03  0.93837616426E+02 0.  0.
        254    2    1    2    0    0  0.34929837931E+03 -0.58829657608E+03 -0.29084922142E+03  0.11769117170E+04  0.91237366295E+03 0.  0.
        -24    2    4    4    0    0  0.33753266190E+03 -0.30232936915E+03  0.27648066668E+03  0.53645101267E+03  0.77503449274E+02 0.  0.
         24    2    4    4    0    0  0.11765717418E+02 -0.28596720693E+03 -0.56732988810E+03  0.64046070436E+03  0.80068947470E+02 0.  0.
         11    1    3    3    0    0 -0.19562095961E+03  0.41536952179E+03  0.65742990069E+02  0.46381196645E+03  0.00000000000E+00 0. -1.
        -11    1    3    3    0    0 -0.15367741970E+03  0.17292705429E+03  0.24266980772E+02  0.23261427683E+03  0.00000000000E+00 0.  1.
          2    1    6    6  502    0  0.31009622425E+02 -0.25054945902E+03 -0.44456871905E+03  0.51125138049E+03  0.00000000000E+00 0. -1.
          1    1    5    5  503    0  0.30565682074E+03 -0.29054684934E+03  0.27282338994E+03  0.50227100835E+03  0.00000000000E+00 0. -1.
         -2    1    5    5    0  503  0.31875841153E+02 -0.11782519804E+02  0.36572767418E+01  0.34180004320E+02  0.00000000000E+00 0.  1.
         -1    1    6    6    0  502 -0.19243905007E+02 -0.35417747909E+02 -0.12276116905E+03  0.12920932387E+03  0.00000000000E+00 0.  1.
<mgrwt>
<rscale>  0 0.18625409E+04</rscale>
<asrwt>0</asrwt>
<pdfrwt beam="1">  1        2 0.12865375E+00 0.18625409E+04</pdfrwt>
<pdfrwt beam="2">  1       -2 0.15955209E+00 0.18625409E+04</pdfrwt>
<totfact> 0.77346860E+00</totfact>
</mgrwt>
</event>
<event>
12    1  0.1562393E-007  0.1182379E+04  0.7818608E-02  0.9128422E-01
         -2   -1    0    0    0  501 -0.00000000000E+00  0.00000000000E+00  0.18264545907E+03  0.18264545907E+03  0.00000000000E+00 0.  1.
          2   -1    0    0  501    0  0.00000000000E+00 -0.00000000000E+00 -0.19135698718E+04  0.19135698718E+04  0.00000000000E+00 0. -1.
         23    2    1    2    0    0 -0.38208071469E+02 -0.55060107817E+02  0.29200312898E+02  0.11783185998E+03  0.92413293168E+02 0.  0.
        254    2    1    2    0    0  0.38208071469E+02  0.55060107817E+02 -0.17601247257E+04  0.19783834709E+04  0.90081664946E+03 0.  0.
        -24    2    4    4    0    0  0.27273621829E+03  0.33336099332E+03 -0.13721550691E+04  0.14405154635E+04  0.82223295622E+02 0.  0.
         24    2    4    4    0    0 -0.23452814682E+03 -0.27830088550E+03 -0.38796965655E+03  0.53786800740E+03  0.79540583701E+02 0.  0.
         13    1    3    3    0    0  0.99775000993E+01 -0.20733527867E+01  0.43602888325E+02  0.44777909400E+02  0.00000000000E+00 0.  1.
        -13    1    3    3    0    0 -0.48185571568E+02 -0.52986755030E+02 -0.14402575427E+02  0.73053950577E+02  0.00000000000E+00 0. -1.
          2    1    6    6  502    0 -0.33121028536E+02 -0.87679328302E+01 -0.52823666817E+02  0.62962043752E+02  0.00000000000E+00 0. -1.
          1    1    5    5  503    0  0.67737702152E+02  0.34568301869E+02 -0.22726395525E+03  0.23965030595E+03  0.00000000000E+00 0. -1.
         -2    1    5    5    0  503  0.20499851613E+03  0.29879269145E+03 -0.11448911139E+04  0.12008651576E+04  0.00000000000E+00 0.  1.
         -1    1    6    6    0  502 -0.20140711828E+03 -0.26953295267E+03 -0.33514598973E+03  0.47490596364E+03  0.00000000000E+00 0.  1.
<mgrwt>
<rscale>  0 0.11823787E+04</rscale>
<asrwt>0</asrwt>
<pdfrwt beam="1">  1        2 0.29439536E+00 0.11823787E+04</pdfrwt>
<pdfrwt beam="2">  1       -2 0.28099302E-01 0.11823787E+04</pdfrwt>
<totfact> 0.85454152E+01</totfact>
</mgrwt>
</event>
<event>
12    1  0.1564907E-007  0.2378948E+04  0.7818608E-02  0.8447427E-01
          2   -1    0    0  501    0  0.00000000000E+00  0.00000000000E+00  0.17608617375E+04  0.17608617375E+04  0.00000000000E+00 0. -1.
         -2   -1    0    0    0  501 -0.00000000000E+00 -0.00000000000E+00 -0.80349803059E+03  0.80349803059E+03  0.00000000000E+00 0.  1.
         23    2    1    2    0    0  0.53210295984E+03 -0.61176471460E+03  0.10785732085E+04  0.13524550877E+04  0.91787647753E+02 0.  0.
        254    2    1    2    0    0 -0.53210295984E+03  0.61176471460E+03 -0.12120950154E+03  0.12119046804E+04  0.89254220364E+03 0.  0.
        -24    2    4    4    0    0 -0.40397482901E+03  0.82014705804E+03 -0.20592168384E+03  0.94052148542E+03  0.79624527469E+02 0.  0.
         24    2    4    4    0    0 -0.12812813083E+03 -0.20838234344E+03  0.84712182306E+02  0.27138319501E+03  0.81441179602E+02 0.  0.
         11    1    3    3    0    0  0.31684898468E+01 -0.18947393266E+02  0.44089881376E+02  0.48093249830E+02  0.00000000000E+00 0.  1.
        -11    1    3    3    0    0  0.52893446999E+03 -0.59281732133E+03  0.10344833271E+04  0.13043618379E+04  0.00000000000E+00 0. -1.
          4    1    6    6  502    0  0.34325979196E+01 -0.30770996926E+02 -0.75522684961E+01  0.31869636643E+02  0.00000000000E+00 0. -1.
          1    1    5    5  503    0 -0.35154174230E+02  0.32045357043E+02 -0.10615231976E+02  0.48738116743E+02  0.00000000000E+00 0. -1.
         -2    1    5    5    0  503 -0.36882065478E+03  0.78810170100E+03 -0.19530645186E+03  0.89178336867E+03  0.00000000000E+00 0.  1.
         -3    1    6    6    0  502 -0.13156072875E+03 -0.17761134651E+03  0.92264450802E+02  0.23951355837E+03  0.00000000000E+00 0.  1.
<mgrwt>
<rscale>  0 0.23789485E+04</rscale>
<asrwt>0</asrwt>
<pdfrwt beam="1">  1        2 0.27090180E+00 0.23789485E+04</pdfrwt>
<pdfrwt beam="2">  1       -2 0.12361508E+00 0.23789485E+04</pdfrwt>
<totfact> 0.40296092E+00</totfact>
</mgrwt>
</event>
<event>
12    1  0.1562393E-007  0.2963478E+04  0.7818608E-02  0.8254238E-01
         -1   -1    0    0    0  501 -0.00000000000E+00  0.00000000000E+00  0.10507014460E+04  0.10507014460E+04  0.00000000000E+00 0.  1.
          1   -1    0    0  501    0  0.00000000000E+00 -0.00000000000E+00 -0.20896042809E+04  0.20896042809E+04  0.00000000000E+00 0. -1.
         23    2    1    2    0    0 -0.43176613265E+03  0.11770179281E+04 -0.98200506995E+03  0.15952789463E+04  0.93743067491E+02 0.  0.
        254    2    1    2    0    0  0.43176613265E+03 -0.11770179281E+04 -0.56897764990E+02  0.15450267806E+04  0.90115326160E+03 0.  0.
        -24    2    4    4    0    0  0.68506906804E+03 -0.10248966843E+04 -0.80841343703E+02  0.12380556199E+04  0.80706589792E+02 0.  0.
         24    2    4    4    0    0 -0.25330293540E+03 -0.15212124377E+03  0.23943578713E+02  0.30697116073E+03  0.79716677492E+02 0.  0.
         11    1    3    3    0    0 -0.39500941391E+03  0.10417959709E+04 -0.90485019890E+03  0.14353136119E+04  0.00000000000E+00 0. -1.
        -11    1    3    3    0    0 -0.36756718733E+02  0.13522195714E+03 -0.77154871044E+02  0.15996533434E+03  0.00000000000E+00 0.  1.
          2    1    6    6  502    0 -0.11466570941E+03 -0.45834988633E+02  0.44089831821E+02  0.13112202091E+03  0.00000000000E+00 0. -1.
          3    1    5    5  503    0  0.61353511862E+03 -0.93728490729E+03 -0.94071120637E+02  0.11241786846E+04  0.00000000000E+00 0. -1.
         -4    1    5    5    0  503  0.71533949427E+02 -0.87611776986E+02  0.13229776934E+02  0.11387693526E+03  0.00000000000E+00 0.  1.
         -1    1    6    6    0  502 -0.13863722598E+03 -0.10628625514E+03 -0.20146253107E+02  0.17584913982E+03  0.00000000000E+00 0.  1.
<mgrwt>
<rscale>  0 0.29634778E+04</rscale>
<asrwt>0</asrwt>
<pdfrwt beam="1">  1        1 0.32147758E+00 0.29634778E+04</pdfrwt>
<pdfrwt beam="2">  1       -1 0.16164638E+00 0.29634778E+04</pdfrwt>
<totfact> 0.62792405E-01</totfact>
</mgrwt>
</event>
<event>
12    1  0.1562393E-007  0.2946419E+04  0.7818608E-02  0.8259199E-01
         -1   -1    0    0    0  501 -0.00000000000E+00  0.00000000000E+00  0.13545657728E+04  0.13545657728E+04  0.00000000000E+00 0.  1.
          1   -1    0    0  501    0  0.00000000000E+00 -0.00000000000E+00 -0.16022449389E+04  0.16022449389E+04  0.00000000000E+00 0. -1.
         23    2    1    2    0    0 -0.11775808220E+04  0.41674811208E+03 -0.56679506228E+03  0.13747272212E+04  0.90789365173E+02 0.  0.
        254    2    1    2    0    0  0.11775808220E+04 -0.41674811208E+03  0.31911589616E+03  0.15820834905E+04  0.91693927525E+03 0.  0.
        -24    2    4    4    0    0 -0.11149886789E+03 -0.12336101104E+03 -0.76913391569E+02  0.19968793496E+03  0.79433399655E+02 0.  0.
         24    2    4    4    0    0  0.12890796899E+04 -0.29338710103E+03  0.39602928773E+03  0.13823955555E+04  0.79848840361E+02 0.  0.
         11    1    3    3    0    0 -0.11060542375E+04  0.40206530315E+03 -0.55341873607E+03  0.13004940529E+04  0.00000000000E+00 0. -1.
        -11    1    3    3    0    0 -0.71526584487E+02  0.14682808922E+02 -0.13376326212E+02  0.74233168255E+02  0.00000000000E+00 0.  1.
          4    1    6    6  502    0  0.12290210955E+04 -0.28585080479E+03  0.36095181068E+03  0.13124365681E+04  0.00000000000E+00 0. -1.
          1    1    5    5  503    0 -0.68292538696E+02 -0.11747124994E+03 -0.76799635392E+02  0.15608186763E+03  0.00000000000E+00 0. -1.
         -2    1    5    5    0  503 -0.43206329194E+02 -0.58897611000E+01 -0.11375617722E+00  0.43606067339E+02  0.00000000000E+00 0.  1.
         -3    1    6    6    0  502  0.60058594423E+02 -0.75362962427E+01  0.35077477056E+02  0.69958987426E+02  0.00000000000E+00 0.  1.
<mgrwt>
<rscale>  0 0.29464189E+04</rscale>
<asrwt>0</asrwt>
<pdfrwt beam="1">  1        1 0.24649922E+00 0.29464189E+04</pdfrwt>
<pdfrwt beam="2">  1       -1 0.20839474E+00 0.29464189E+04</pdfrwt>
<totfact> 0.62673846E-01</totfact>
</mgrwt>
</event>
<event>
12    1  0.1562393E-007  0.2160300E+04  0.7818608E-02  0.8535136E-01
          1   -1    0    0  501    0  0.00000000000E+00  0.00000000000E+00  0.11485055265E+04  0.11485055265E+04  0.00000000000E+00 0. -1.
         -1   -1    0    0    0  501 -0.00000000000E+00 -0.00000000000E+00 -0.10158631678E+04  0.10158631678E+04  0.00000000000E+00 0.  1.
         23    2    1    2    0    0  0.77715346660E+03 -0.37946577282E+03  0.21796216596E+03  0.89653873400E+03  0.91172432140E+02 0.  0.
        254    2    1    2    0    0 -0.77715346660E+03  0.37946577282E+03 -0.85319807254E+02  0.12678299604E+04  0.92312055305E+03 0.  0.
        -24    2    4    4    0    0 -0.85114780853E+03  0.70059645749E+02 -0.25997153128E+03  0.89643866412E+03  0.81585142714E+02 0.  0.
         24    2    4    4    0    0  0.73994341936E+02  0.30940612707E+03  0.17465172403E+03  0.37139129623E+03  0.78873037886E+02 0.  0.
         13    1    3    3    0    0  0.74095776838E+03 -0.37919142330E+03  0.19958078262E+03  0.85594219362E+03  0.00000000000E+00 0. -1.
        -13    1    3    3    0    0  0.36195698221E+02 -0.27434951858E+00  0.18381383343E+02  0.40596540382E+02  0.00000000000E+00 0.  1.
          2    1    6    6  502    0 -0.71000804450E+01  0.10333023380E+03  0.78499719337E+02  0.12996058747E+03  0.00000000000E+00 0. -1.
          1    1    5    5  503    0 -0.58887856420E+03  0.36060422146E+02 -0.21636208369E+03  0.62840342828E+03  0.00000000000E+00 0. -1.
         -2    1    5    5    0  503 -0.26226924434E+03  0.33999223602E+02 -0.43609447593E+02  0.26803523583E+03  0.00000000000E+00 0.  1.
         -1    1    6    6    0  502  0.81094422381E+02  0.20607589327E+03  0.96152004691E+02  0.24143070877E+03  0.00000000000E+00 0.  1.
<mgrwt>
<rscale>  0 0.21603004E+04</rscale>
<asrwt>0</asrwt>
<pdfrwt beam="1">  1        1 0.17669316E+00 0.21603004E+04</pdfrwt>
<pdfrwt beam="2">  1       -1 0.15628664E+00 0.21603004E+04</pdfrwt>
<totfact> 0.33284582E+00</totfact>
</mgrwt>
</event>
<event>
12    1  0.1562393E-007  0.2308145E+04  0.7818608E-02  0.8474717E-01
         -2   -1    0    0    0  501 -0.00000000000E+00  0.00000000000E+00  0.36040406243E+03  0.36040406243E+03  0.00000000000E+00 0.  1.
          2   -1    0    0  501    0  0.00000000000E+00 -0.00000000000E+00 -0.36955265188E+04  0.36955265188E+04  0.00000000000E+00 0. -1.
         23    2    1    2    0    0  0.66739891215E+03  0.70614834744E+03 -0.13066620184E+04  0.16309544117E+04  0.92627567166E+02 0.  0.
        254    2    1    2    0    0 -0.66739891215E+03 -0.70614834744E+03 -0.20284604379E+04  0.24249761695E+04  0.90652682135E+03 0.  0.
        -24    2    4    4    0    0 -0.41188614050E+03 -0.17800583481E+03 -0.16735780196E+04  0.17345575137E+04  0.80561221990E+02 0.  0.
         24    2    4    4    0    0 -0.25551277165E+03 -0.52814251263E+03 -0.35488241828E+03  0.69041865580E+03  0.80716165361E+02 0.  0.
         11    1    3    3    0    0  0.61775129868E+03  0.61308846377E+03 -0.11759401612E+04  0.14629864641E+04  0.00000000000E+00 0.  1.
        -11    1    3    3    0    0  0.49647613472E+02  0.93059883675E+02 -0.13072185728E+03  0.16796794767E+03  0.00000000000E+00 0. -1.
          4    1    6    6  502    0 -0.24031010570E+03 -0.43966461179E+03 -0.28328904628E+03  0.57559239181E+03  0.00000000000E+00 0. -1.
          1    1    5    5  503    0 -0.16234925962E+03 -0.82246898064E+02 -0.82702385337E+03  0.84681183765E+03  0.00000000000E+00 0. -1.
         -2    1    5    5    0  503 -0.24953688088E+03 -0.95758936747E+02 -0.84655416626E+03  0.88774567602E+03  0.00000000000E+00 0.  1.
         -3    1    6    6    0  502 -0.15202665950E+02 -0.88477900839E+02 -0.71593371996E+02  0.11482626399E+03  0.00000000000E+00 0.  1.
<mgrwt>
<rscale>  0 0.23081445E+04</rscale>
<asrwt>0</asrwt>
<pdfrwt beam="1">  1        2 0.56854256E+00 0.23081445E+04</pdfrwt>
<pdfrwt beam="2">  1       -2 0.55446777E-01 0.23081445E+04</pdfrwt>
<totfact> 0.16350243E+00</totfact>
</mgrwt>
</event>
<event>
12    1  0.1562393E-007  0.2159287E+04  0.7818608E-02  0.8535568E-01
          2   -1    0    0  501    0  0.00000000000E+00  0.00000000000E+00  0.34480918011E+04  0.34480918011E+04  0.00000000000E+00 0. -1.
         -2   -1    0    0    0  501 -0.00000000000E+00 -0.00000000000E+00 -0.33805068373E+03  0.33805068373E+03  0.00000000000E+00 0.  1.
         23    2    1    2    0    0  0.45939490054E+03  0.66507175454E+03  0.62883581734E+03  0.10281521986E+04  0.91095252623E+02 0.  0.
        254    2    1    2    0    0 -0.45939490054E+03 -0.66507175454E+03  0.24812053001E+04  0.27579902862E+04  0.89261781551E+03 0.  0.
        -24    2    4    4    0    0 -0.23975968266E+03 -0.45448023709E+03  0.40880371426E+03  0.66183110596E+03  0.82842891606E+02 0.  0.
         24    2    4    4    0    0 -0.21963521788E+03 -0.21059151746E+03  0.20724015858E+04  0.20961591803E+04  0.80290472984E+02 0.  0.
         11    1    3    3    0    0  0.22733238358E+03  0.39927289775E+03  0.38233822583E+03  0.59773018866E+03  0.00000000000E+00 0. -1.
        -11    1    3    3    0    0  0.23206251697E+03  0.26579885679E+03  0.24649759151E+03  0.43042200998E+03  0.00000000000E+00 0.  1.
          2    1    6    6  502    0 -0.16349279306E+03 -0.19868656603E+03  0.16971332890E+04  0.17165277876E+04  0.00000000000E+00 0. -1.
          1    1    5    5  503    0 -0.19743501242E+03 -0.41842285738E+03  0.34457873647E+03  0.57688194402E+03  0.00000000000E+00 0. -1.
         -2    1    5    5    0  503 -0.42324670238E+02 -0.36057379706E+02  0.64224977786E+02  0.84949161936E+02  0.00000000000E+00 0.  1.
         -1    1    6    6    0  502 -0.56142424822E+02 -0.11904951423E+02  0.37526829679E+03  0.37963139268E+03  0.00000000000E+00 0.  1.
<mgrwt>
<rscale>  0 0.21592867E+04</rscale>
<asrwt>0</asrwt>
<pdfrwt beam="1">  1        2 0.53047564E+00 0.21592867E+04</pdfrwt>
<pdfrwt beam="2">  1       -2 0.52007800E-01 0.21592867E+04</pdfrwt>
<totfact> 0.28385975E+00</totfact>
</mgrwt>
</event>
<event>
12    1  0.1562393E-007  0.2037868E+04  0.7818608E-02  0.8589118E-01
         -1   -1    0    0    0  501 -0.00000000000E+00  0.00000000000E+00  0.13953796068E+04  0.13953796068E+04  0.00000000000E+00 0.  1.
          1   -1    0    0  501    0  0.00000000000E+00 -0.00000000000E+00 -0.74404611285E+03  0.74404611285E+03  0.00000000000E+00 0. -1.
         23    2    1    2    0    0 -0.31768447243E+03  0.73010011263E+03  0.45529846171E+03  0.92168001574E+03  0.90707021222E+02 0.  0.
        254    2    1    2    0    0  0.31768447243E+03 -0.73010011263E+03  0.19603503226E+03  0.12177457039E+04  0.90028066016E+03 0.  0.
        -24    2    4    4    0    0  0.24389718407E+03 -0.38825191999E+03  0.54519688332E+03  0.71693016566E+03  0.80770236387E+02 0.  0.
         24    2    4    4    0    0  0.73787288364E+02 -0.34184819264E+03 -0.34916185106E+03  0.50081553826E+03  0.81224715382E+02 0.  0.
         11    1    3    3    0    0 -0.21675307736E+02  0.12322572952E+03  0.88630717056E+02  0.15332906895E+03  0.00000000000E+00 0.  1.
        -11    1    3    3    0    0 -0.29600916470E+03  0.60687438311E+03  0.36666774465E+03  0.76835094679E+03  0.00000000000E+00 0. -1.
          4    1    6    6  502    0  0.90722903389E+02 -0.30932985006E+03 -0.31437579142E+03  0.45027518205E+03  0.00000000000E+00 0. -1.
          1    1    5    5  503    0  0.11218437789E+03 -0.25238335063E+03  0.31490599308E+03  0.41886570019E+03  0.00000000000E+00 0. -1.
         -2    1    5    5    0  503  0.13171280618E+03 -0.13586856936E+03  0.23029089024E+03  0.29806446547E+03  0.00000000000E+00 0.  1.
         -3    1    6    6    0  502 -0.16935615026E+02 -0.32518342576E+02 -0.34786059643E+02  0.50540356209E+02  0.00000000000E+00 0.  1.
<mgrwt>
<rscale>  0 0.20378683E+04</rscale>
<asrwt>0</asrwt>
<pdfrwt beam="1">  1        1 0.11446863E+00 0.20378683E+04</pdfrwt>
<pdfrwt beam="2">  1       -1 0.21467378E+00 0.20378683E+04</pdfrwt>
<totfact> 0.27402039E+00</totfact>
</mgrwt>
</event>
<event>
12    1  0.1562393E-007  0.2007687E+04  0.7818608E-02  0.8603035E-01
         -2   -1    0    0    0  501 -0.00000000000E+00  0.00000000000E+00  0.39382853780E+03  0.39382853780E+03  0.00000000000E+00 0.  1.
          2   -1    0    0  501    0  0.00000000000E+00 -0.00000000000E+00 -0.25587332368E+04  0.25587332368E+04  0.00000000000E+00 0. -1.
         23    2    1    2    0    0 -0.29906963138E+03  0.17000052218E+03  0.19424034049E+03  0.40556529712E+03  0.91711931583E+02 0.  0.
        254    2    1    2    0    0  0.29906963138E+03 -0.17000052218E+03 -0.23591450395E+04  0.25469964775E+04  0.89626051849E+03 0.  0.
        -24    2    4    4    0    0  0.56262162097E+03 -0.23272011897E+03 -0.19886699638E+04  0.20812546646E+04  0.78172962355E+02 0.  0.
         24    2    4    4    0    0 -0.26355198959E+03  0.62719596793E+02 -0.37047507573E+03  0.46574181287E+03  0.79184944779E+02 0.  0.
         13    1    3    3    0    0 -0.14068396523E+01  0.16007221699E+00 -0.76707167671E+01  0.78003023430E+01  0.00000000000E+00 0. -1.
        -13    1    3    3    0    0 -0.29766279173E+03  0.16984044996E+03  0.20191105726E+03  0.39776499478E+03  0.00000000000E+00 0.  1.
          4    1    6    6  502    0 -0.99142063254E+02  0.51951179150E+02 -0.19641276795E+03  0.22606647061E+03  0.00000000000E+00 0. -1.
          1    1    5    5  503    0  0.24951694116E+02  0.22734042234E+01 -0.53443419096E+02  0.59025032407E+02  0.00000000000E+00 0. -1.
         -4    1    5    5    0  503  0.53766992686E+03 -0.23499352319E+03 -0.19352265447E+04  0.20222296322E+04  0.00000000000E+00 0.  1.
         -3    1    6    6    0  502 -0.16440992634E+03  0.10768417643E+02 -0.17406230777E+03  0.23967534225E+03  0.00000000000E+00 0.  1.
<mgrwt>
<rscale>  0 0.20076874E+04</rscale>
<asrwt>0</asrwt>
<pdfrwt beam="1">  1        2 0.39365126E+00 0.20076874E+04</pdfrwt>
<pdfrwt beam="2">  1       -2 0.60589007E-01 0.20076874E+04</pdfrwt>
<totfact> 0.75838269E+00</totfact>
</mgrwt>
</event>
<event>
12    1  0.1562393E-007  0.2960660E+04  0.7818608E-02  0.8255055E-01
          2   -1    0    0  501    0  0.00000000000E+00  0.00000000000E+00  0.28317981821E+04  0.28317981821E+04  0.00000000000E+00 0. -1.
         -2   -1    0    0    0  501 -0.00000000000E+00 -0.00000000000E+00 -0.77384642302E+03  0.77384642302E+03  0.00000000000E+00 0.  1.
         23    2    1    2    0    0  0.76182034354E+01  0.11752097165E+04  0.17327375268E+04  0.20958016316E+04  0.93963968236E+02 0.  0.
        254    2    1    2    0    0 -0.76182034354E+01 -0.11752097165E+04  0.32521423228E+03  0.15098429735E+04  0.89032892407E+03 0.  0.
        -24    2    4    4    0    0 -0.38822918312E+03 -0.57543086881E+03 -0.53446910353E+02  0.70071623709E+03  0.79398295221E+02 0.  0.
         24    2    4    4    0    0  0.38061097969E+03 -0.59977884770E+03  0.37866114263E+03  0.80912673645E+03  0.81868374110E+02 0.  0.
         13    1    3    3    0    0 -0.27736117436E+01  0.11315267473E+04  0.16898808295E+04  0.20337299945E+04  0.00000000000E+00 0. -1.
        -13    1    3    3    0    0  0.10391815179E+02  0.43682969175E+02  0.42856697317E+02  0.62071637030E+02  0.00000000000E+00 0.  1.
          2    1    6    6  502    0  0.36755513019E+03 -0.59078572066E+03  0.38071902980E+03  0.79314029095E+03  0.00000000000E+00 0. -1.
          1    1    5    5  503    0 -0.34968065069E+03 -0.48181571061E+03 -0.26376344323E+02  0.59591832326E+03  0.00000000000E+00 0. -1.
         -2    1    5    5    0  503 -0.38548532437E+02 -0.93615158197E+02 -0.27070566030E+02  0.10479791383E+03  0.00000000000E+00 0.  1.
         -1    1    6    6    0  502  0.13055849499E+02 -0.89931270408E+01 -0.20578871702E+01  0.15986445500E+02  0.00000000000E+00 0.  1.
<mgrwt>
<rscale>  0 0.29606600E+04</rscale>
<asrwt>0</asrwt>
<pdfrwt beam="1">  1        2 0.43566125E+00 0.29606600E+04</pdfrwt>
<pdfrwt beam="2">  1       -2 0.11905330E+00 0.29606600E+04</pdfrwt>
<totfact> 0.10282289E+00</totfact>
</mgrwt>
</event>
<event>
12    1  0.1562393E-007  0.2222320E+04  0.7818608E-02  0.8509195E-01
          2   -1    0    0  501    0  0.00000000000E+00  0.00000000000E+00  0.21422347201E+04  0.21422347201E+04  0.00000000000E+00 0. -1.
         -2   -1    0    0    0  501 -0.00000000000E+00 -0.00000000000E+00 -0.57634979785E+03  0.57634979785E+03  0.00000000000E+00 0.  1.
         23    2    1    2    0    0  0.48847266303E+03  0.52171000854E+03  0.13823833951E+04  0.15587630253E+04  0.89282934067E+02 0.  0.
        254    2    1    2    0    0 -0.48847266303E+03 -0.52171000854E+03  0.18350152717E+03  0.11598214927E+04  0.89483306207E+03 0.  0.
        -24    2    4    4    0    0 -0.52720443044E+03 -0.19151250113E+03 -0.24024035546E+03  0.61524488007E+03  0.78672005771E+02 0.  0.
         24    2    4    4    0    0  0.38731767415E+02 -0.33019750740E+03  0.42374188263E+03  0.54457661266E+03  0.80473351211E+02 0.  0.
         11    1    3    3    0    0  0.14502503992E+03  0.15486076940E+03  0.50310634741E+03  0.54601292742E+03  0.00000000000E+00 0. -1.
        -11    1    3    3    0    0  0.34344762310E+03  0.36684923913E+03  0.87927704770E+03  0.10127500978E+04  0.00000000000E+00 0.  1.
          4    1    6    6  502    0 -0.17450234964E+02 -0.81225947031E+02  0.71660334801E+02  0.10971494317E+03  0.00000000000E+00 0. -1.
          3    1    5    5  503    0 -0.42442699356E+02 -0.36247589361E+02 -0.37988948837E+02  0.67516151377E+02  0.00000000000E+00 0. -1.
         -4    1    5    5    0  503 -0.48476173109E+03 -0.15526491177E+03 -0.20225140662E+03  0.54772872869E+03  0.00000000000E+00 0.  1.
         -3    1    6    6    0  502  0.56182002378E+02 -0.24897156037E+03  0.35208154783E+03  0.43486166949E+03  0.00000000000E+00 0.  1.
<mgrwt>
<rscale>  0 0.22223200E+04</rscale>
<asrwt>0</asrwt>
<pdfrwt beam="1">  1        2 0.32957457E+00 0.22223200E+04</pdfrwt>
<pdfrwt beam="2">  1       -2 0.88669201E-01 0.22223200E+04</pdfrwt>
<totfact> 0.55520345E+00</totfact>
</mgrwt>
</event>
<event>
12    1  0.1562393E-007  0.2426612E+04  0.7818608E-02  0.8429607E-01
          2   -1    0    0  501    0  0.00000000000E+00  0.00000000000E+00  0.62860493690E+03  0.62860493690E+03  0.00000000000E+00 0. -1.
         -2   -1    0    0    0  501 -0.00000000000E+00 -0.00000000000E+00 -0.23418709196E+04  0.23418709196E+04  0.00000000000E+00 0.  1.
         23    2    1    2    0    0 -0.96128930099E+03 -0.33169568532E+03 -0.47309458138E+03  0.11251992599E+04  0.90309156339E+02 0.  0.
        254    2    1    2    0    0  0.96128930099E+03  0.33169568532E+03 -0.12401714013E+04  0.18452765966E+04  0.91264531196E+03 0.  0.
        -24    2    4    4    0    0 -0.10623660864E+03  0.79577835360E+02 -0.49015938387E+03  0.51405629160E+03  0.79867392898E+02 0.  0.
         24    2    4    4    0    0  0.10675259096E+04  0.25211784996E+03 -0.75001201744E+03  0.13312203050E+04  0.80339878681E+02 0.  0.
         11    1    3    3    0    0 -0.83333707483E+03 -0.27376615451E+03 -0.37539859361E+03  0.95410832285E+03  0.00000000000E+00 0.  1.
        -11    1    3    3    0    0 -0.12795222616E+03 -0.57929530809E+02 -0.97695987776E+02  0.17109093706E+03  0.00000000000E+00 0. -1.
          2    1    6    6  502    0  0.58983997467E+03  0.11757624370E+03 -0.45187486452E+03  0.75228070691E+03  0.00000000000E+00 0. -1.
          3    1    5    5  503    0 -0.10102792785E+03  0.36660706327E+02 -0.28982609873E+03  0.30911133447E+03  0.00000000000E+00 0. -1.
         -4    1    5    5    0  503 -0.52086807919E+01  0.42917129033E+02 -0.20033328514E+03  0.20494495713E+03  0.00000000000E+00 0.  1.
         -1    1    6    6    0  502  0.47768593496E+03  0.13454160626E+03 -0.29813715293E+03  0.57893959808E+03  0.00000000000E+00 0.  1.
<mgrwt>
<rscale>  0 0.24266121E+04</rscale>
<asrwt>0</asrwt>
<pdfrwt beam="1">  1        2 0.96708453E-01 0.24266121E+04</pdfrwt>
<pdfrwt beam="2">  1       -2 0.36028783E+00 0.24266121E+04</pdfrwt>
<totfact> 0.56341855E-01</totfact>
</mgrwt>
</event>
<event>
12    1  0.1562393E-007  0.1116170E+04  0.7818608E-02  0.9189573E-01
          2   -1    0    0  501    0  0.00000000000E+00  0.00000000000E+00  0.86723749564E+03  0.86723749564E+03  0.00000000000E+00 0. -1.
         -2   -1    0    0    0  501 -0.00000000000E+00 -0.00000000000E+00 -0.35913896869E+03  0.35913896869E+03  0.00000000000E+00 0.  1.
         23    2    1    2    0    0  0.97592678005E+02 -0.99251157308E+02  0.20052397115E+03  0.26059416497E+03  0.91237781566E+02 0.  0.
        254    2    1    2    0    0 -0.97592678005E+02  0.99251157308E+02  0.30757455580E+03  0.96578229936E+03  0.90485259537E+03 0.  0.
        -24    2    4    4    0    0 -0.22309862747E+02 -0.21459626842E+03  0.52208646773E+03  0.57011084400E+03  0.76829722501E+02 0.  0.
         24    2    4    4    0    0 -0.75282815258E+02  0.31384742573E+03 -0.21451191194E+03  0.39567145536E+03  0.79830015130E+02 0.  0.
         13    1    3    3    0    0  0.10854849332E+03 -0.56647608983E+02  0.14794827956E+03  0.19204275678E+03  0.00000000000E+00 0. -1.
        -13    1    3    3    0    0 -0.10955815320E+02 -0.42603548324E+02  0.52575691591E+02  0.68551408194E+02  0.00000000000E+00 0.  1.
          2    1    6    6  502    0 -0.82128913973E+02  0.22098573194E+03 -0.12651315245E+03  0.26755453645E+03  0.00000000000E+00 0. -1.
          1    1    5    5  503    0  0.21472680952E+02 -0.54252115045E+02  0.91090853248E+02  0.10817537409E+03  0.00000000000E+00 0. -1.
         -4    1    5    5    0  503 -0.43782543699E+02 -0.16034415337E+03  0.43099561449E+03  0.46193546991E+03  0.00000000000E+00 0.  1.
         -1    1    6    6    0  502  0.68460987156E+01  0.92861693791E+02 -0.87998759481E+02  0.12811691891E+03  0.00000000000E+00 0.  1.
<mgrwt>
<rscale>  0 0.11161698E+04</rscale>
<asrwt>0</asrwt>
<pdfrwt beam="1">  1        2 0.13342115E+00 0.11161698E+04</pdfrwt>
<pdfrwt beam="2">  1       -2 0.55252149E-01 0.11161698E+04</pdfrwt>
<totfact> 0.94323278E+01</totfact>
</mgrwt>
</event>
<event>
12    1  0.1562393E-007  0.4293901E+04  0.7818608E-02  0.7947747E-01
          2   -1    0    0  501    0  0.00000000000E+00  0.00000000000E+00  0.28129313689E+04  0.28129313689E+04  0.00000000000E+00 0.  1.
         -2   -1    0    0    0  501 -0.00000000000E+00 -0.00000000000E+00 -0.16386449382E+04  0.16386449382E+04  0.00000000000E+00 0. -1.
         23    2    1    2    0    0  0.11391546680E+04 -0.15228197188E+04 -0.23510850482E+03  0.19183158989E+04  0.89479747883E+02 0.  0.
        254    2    1    2    0    0 -0.11391546680E+04  0.15228197188E+04  0.14093949355E+04  0.25332604083E+04  0.90241950236E+03 0.  0.
        -24    2    4    4    0    0 -0.99297321532E+03  0.63301515126E+03  0.62451860168E+03  0.13351237569E+04  0.76341170368E+02 0.  0.
         24    2    4    4    0    0 -0.14618145272E+03  0.88980456751E+03  0.78487633381E+03  0.11981366514E+04  0.79871086715E+02 0.  0.
         13    1    3    3    0    0  0.11256047868E+04 -0.14830401301E+04 -0.22930686364E+03  0.18758933342E+04  0.00000000000E+00 0. -1.
        -13    1    3    3    0    0  0.13549881290E+02 -0.39779588628E+02 -0.58016411826E+01  0.42422564689E+02  0.00000000000E+00 0.  1.
          4    1    6    6  502    0 -0.95179371683E+02  0.72744953946E+03  0.60992587047E+03  0.95407102080E+03  0.00000000000E+00 0. -1.
          1    1    5    5  503    0 -0.73368178827E+03  0.50364621049E+03  0.45666043551E+03  0.10002435829E+04  0.00000000000E+00 0. -1.
         -2    1    5    5    0  503 -0.25929142705E+03  0.12936894077E+03  0.16785816618E+03  0.33488017398E+03  0.00000000000E+00 0.  1.
         -3    1    6    6    0  502 -0.51002081040E+02  0.16235502805E+03  0.17495046333E+03  0.24406563057E+03  0.00000000000E+00 0.  1.
<mgrwt>
<rscale>  0 0.42939007E+04</rscale>
<asrwt>0</asrwt>
<pdfrwt beam="1">  1        2 0.43275867E+00 0.42939007E+04</pdfrwt>
<pdfrwt beam="2">  1       -2 0.25209922E+00 0.42939007E+04</pdfrwt>
<totfact> 0.10911264E-01</totfact>
</mgrwt>
</event>
<event>
12    1  0.1562393E-007  0.1424016E+04  0.7818608E-02  0.8936616E-01
         -1   -1    0    0    0  501 -0.00000000000E+00  0.00000000000E+00  0.72180524384E+03  0.72180524384E+03  0.00000000000E+00 0.  1.
          1   -1    0    0  501    0  0.00000000000E+00 -0.00000000000E+00 -0.70234347511E+03  0.70234347511E+03  0.00000000000E+00 0. -1.
         23    2    1    2    0    0  0.75192996780E+02 -0.25250208715E+03 -0.31741830940E+03  0.42268673328E+03  0.92186770054E+02 0.  0.
        254    2    1    2    0    0 -0.75192996780E+02  0.25250208715E+03  0.33688007813E+03  0.10014619857E+04  0.90555321816E+03 0.  0.
        -24    2    4    4    0    0  0.23582479966E+03  0.45849857638E+03  0.50590361072E+02  0.52440296619E+03  0.81269955282E+02 0.  0.
         24    2    4    4    0    0 -0.31101779644E+03 -0.20599648923E+03  0.28628971706E+03  0.47705901949E+03  0.80354730450E+02 0.  0.
         13    1    3    3    0    0  0.13551859577E+02  0.47358626525E+01 -0.12647058087E+02  0.19131894085E+02  0.00000000000E+00 0.  1.
        -13    1    3    3    0    0  0.61641137203E+02 -0.25723794981E+03 -0.30477125131E+03  0.40355483920E+03  0.00000000000E+00 0. -1.
          2    1    6    6  502    0 -0.23384943187E+03 -0.12240625435E+03  0.23015082772E+03  0.35019744630E+03  0.00000000000E+00 0. -1.
          1    1    5    5  503    0  0.20064925295E+03  0.31099933396E+03  0.29086547006E+02  0.37125023320E+03  0.00000000000E+00 0. -1.
         -2    1    5    5    0  503  0.35175546703E+02  0.14749924242E+03  0.21503814066E+02  0.15315273299E+03  0.00000000000E+00 0.  1.
         -1    1    6    6    0  502 -0.77168364565E+02 -0.83590234880E+02  0.56138889336E+02  0.12686157319E+03  0.00000000000E+00 0.  1.
<mgrwt>
<rscale>  0 0.14240157E+04</rscale>
<asrwt>0</asrwt>
<pdfrwt beam="1">  1        1 0.10805284E+00 0.14240157E+04</pdfrwt>
<pdfrwt beam="2">  1       -1 0.11104696E+00 0.14240157E+04</pdfrwt>
<totfact> 0.19693362E+01</totfact>
</mgrwt>
</event>
<event>
12    1  0.1562393E-007  0.1461735E+04  0.7818608E-02  0.8910305E-01
         -1   -1    0    0    0  501 -0.00000000000E+00  0.00000000000E+00  0.93739251084E+03  0.93739251084E+03  0.00000000000E+00 0.  1.
          1   -1    0    0  501    0  0.00000000000E+00 -0.00000000000E+00 -0.56984411784E+03  0.56984411784E+03  0.00000000000E+00 0. -1.
         23    2    1    2    0    0 -0.12355720944E+03 -0.88089655192E+02  0.53098071639E+03  0.55887631436E+03  0.85883888001E+02 0.  0.
        254    2    1    2    0    0  0.12355720944E+03  0.88089655192E+02 -0.16343232338E+03  0.94836031432E+03  0.92176514910E+03 0.  0.
        -24    2    4    4    0    0  0.39450328073E+02  0.11991434012E+03 -0.53581387431E+03  0.55626242768E+03  0.79972515229E+02 0.  0.
         24    2    4    4    0    0  0.84106881367E+02 -0.31824684927E+02  0.37238155093E+03  0.39209788664E+03  0.83582026607E+02 0.  0.
         13    1    3    3    0    0 -0.12922357230E+03 -0.57079033946E+02  0.46015979302E+03  0.48135619126E+03  0.00000000000E+00 0.  1.
        -13    1    3    3    0    0  0.56663628591E+01 -0.31010621247E+02  0.70820923364E+02  0.77520123092E+02  0.00000000000E+00 0. -1.
          2    1    6    6  502    0  0.47200387717E+02 -0.40498743927E+02  0.32747156591E+03  0.33332514357E+03  0.00000000000E+00 0. -1.
          3    1    5    5  503    0  0.56642277004E+02  0.99371604772E+02 -0.49017058226E+03  0.50333911341E+03  0.00000000000E+00 0. -1.
         -4    1    5    5    0  503 -0.17191948931E+02  0.20542735348E+02 -0.45643292054E+02  0.52923314268E+02  0.00000000000E+00 0.  1.
         -1    1    6    6    0  502  0.36906493650E+02  0.86740590005E+01  0.44909985026E+02  0.58772743071E+02  0.00000000000E+00 0.  1.
<mgrwt>
<rscale>  0 0.14617354E+04</rscale>
<asrwt>0</asrwt>
<pdfrwt beam="1">  1        1 0.87668326E-01 0.14617354E+04</pdfrwt>
<pdfrwt beam="2">  1       -1 0.14421423E+00 0.14617354E+04</pdfrwt>
<totfact> 0.13875351E+01</totfact>
</mgrwt>
</event>
<event>
12    1  0.1562393E-007  0.1012174E+04  0.7818608E-02  0.9295293E-01
          3   -1    0    0  501    0  0.00000000000E+00  0.00000000000E+00  0.43173283145E+03  0.43173283145E+03  0.00000000000E+00 0. -1.
         -3   -1    0    0    0  501 -0.00000000000E+00 -0.00000000000E+00 -0.59324621958E+03  0.59324621958E+03  0.00000000000E+00 0.  1.
         23    2    1    2    0    0 -0.22246940761E+02 -0.17863690987E+01  0.43637143127E+02  0.10088411485E+03  0.88177587182E+02 0.  0.
        254    2    1    2    0    0  0.22246940761E+02  0.17863690987E+01 -0.20515053126E+03  0.92409493618E+03  0.90075889844E+03 0.  0.
        -24    2    4    4    0    0 -0.20526398239E+03  0.37339146386E+03  0.52114512243E+01  0.43371144946E+03  0.80771123648E+02 0.  0.
         24    2    4    4    0    0  0.22751092315E+03 -0.37160509476E+03 -0.21036198248E+03  0.49038348672E+03  0.79826272432E+02 0.  0.
         13    1    3    3    0    0  0.64763215601E+01  0.39759076584E+02  0.22408574654E+02  0.46096324471E+02  0.00000000000E+00 0.  1.
        -13    1    3    3    0    0 -0.28723262321E+02 -0.41545445683E+02  0.21228568474E+02  0.54787790380E+02  0.00000000000E+00 0. -1.
          2    1    6    6  502    0  0.11992634221E+02 -0.67963158977E+01  0.55132939200E+01  0.14846198004E+02  0.00000000000E+00 0. -1.
          3    1    5    5  503    0 -0.48151760900E+02  0.39920303777E+02 -0.15706052461E+02  0.64489555862E+02  0.00000000000E+00 0. -1.
         -4    1    5    5    0  503 -0.15711222149E+03  0.33347116008E+03  0.20917503685E+02  0.36922189360E+03  0.00000000000E+00 0.  1.
         -1    1    6    6    0  502  0.21551828893E+03 -0.36480877886E+03 -0.21587527640E+03  0.47553728872E+03  0.00000000000E+00 0.  1.
<mgrwt>
<rscale>  0 0.10121736E+04</rscale>
<asrwt>0</asrwt>
<pdfrwt beam="1">  1        3 0.66420436E-01 0.10121736E+04</pdfrwt>
<pdfrwt beam="2">  1       -3 0.91268649E-01 0.10121736E+04</pdfrwt>
<totfact> 0.61726049E+00</totfact>
</mgrwt>
</event>
<event>
12    1  0.1562393E-007  0.1525335E+04  0.7818608E-02  0.8867778E-01
          1   -1    0    0  501    0  0.00000000000E+00  0.00000000000E+00  0.84326987812E+03  0.84326987812E+03  0.00000000000E+00 0. -1.
         -1   -1    0    0    0  501 -0.00000000000E+00 -0.00000000000E+00 -0.68976954823E+03  0.68976954823E+03  0.00000000000E+00 0.  1.
         23    2    1    2    0    0  0.24664807058E+03 -0.12237059386E+03 -0.35614902756E+03  0.46046429545E+03  0.96826672919E+02 0.  0.
        254    2    1    2    0    0 -0.24664807058E+03  0.12237059386E+03  0.50964935746E+03  0.10725751309E+04  0.90269879301E+03 0.  0.
        -24    2    4    4    0    0 -0.27893515686E+02  0.79929405344E+02  0.73560775789E+03  0.74459593465E+03  0.78342672788E+02 0.  0.
         24    2    4    4    0    0 -0.21875455490E+03  0.42441188514E+02 -0.22595840043E+03  0.32797919625E+03  0.82815123478E+02 0.  0.
         13    1    3    3    0    0  0.17160858074E+02  0.12186811394E+02 -0.84777929125E+01  0.22691108268E+02  0.00000000000E+00 0. -1.
        -13    1    3    3    0    0  0.22948721251E+03 -0.13455740525E+03 -0.34767123465E+03  0.43777318718E+03  0.00000000000E+00 0.  1.
          4    1    6    6  502    0 -0.13338578701E+03  0.26408500573E+02 -0.78967536871E+02  0.15724200761E+03  0.00000000000E+00 0. -1.
          1    1    5    5  503    0  0.83392188138E+00 -0.14609262346E+02  0.57763555691E+02  0.59588206367E+02  0.00000000000E+00 0. -1.
         -2    1    5    5    0  503 -0.28727437568E+02  0.94538667690E+02  0.67784420220E+03  0.68500772828E+03  0.00000000000E+00 0.  1.
         -3    1    6    6    0  502 -0.85368767885E+02  0.16032687940E+02 -0.14699086356E+03  0.17073718864E+03  0.00000000000E+00 0.  1.
<mgrwt>
<rscale>  0 0.15253352E+04</rscale>
<asrwt>0</asrwt>
<pdfrwt beam="1">  1        1 0.12973383E+00 0.15253352E+04</pdfrwt>
<pdfrwt beam="2">  1       -1 0.10611839E+00 0.15253352E+04</pdfrwt>
<totfact> 0.16275362E+01</totfact>
</mgrwt>
</event>
<event>
12    1  0.1562393E-007  0.2420687E+04  0.7818608E-02  0.8431799E-01
          2   -1    0    0  501    0  0.00000000000E+00  0.00000000000E+00  0.15129545025E+04  0.15129545025E+04  0.00000000000E+00 0. -1.
         -2   -1    0    0    0  501 -0.00000000000E+00 -0.00000000000E+00 -0.96825868085E+03  0.96825868085E+03  0.00000000000E+00 0.  1.
         23    2    1    2    0    0  0.44366215347E+03 -0.44893227288E+03  0.10854006619E+04  0.12588077408E+04  0.90144546757E+02 0.  0.
        254    2    1    2    0    0 -0.44366215347E+03  0.44893227288E+03 -0.54070484026E+03  0.12224054426E+04  0.89640228119E+03 0.  0.
        -24    2    4    4    0    0  0.26466940249E+03  0.19567827028E+03 -0.18563881267E+03  0.38667398533E+03  0.81945860723E+02 0.  0.
         24    2    4    4    0    0 -0.70833155596E+03  0.25325400260E+03 -0.35506602759E+03  0.83573145725E+03  0.80647391069E+02 0.  0.
         11    1    3    3    0    0  0.20420049357E+03 -0.14619626482E+03  0.40508905534E+03  0.47662179155E+03  0.00000000000E+00 0.  1.
        -11    1    3    3    0    0  0.23946165990E+03 -0.30273600806E+03  0.68031160659E+03  0.78218594924E+03  0.00000000000E+00 0. -1.
          2    1    6    6  502    0 -0.16316384931E+03  0.50781491534E+02 -0.45118949172E+02  0.17673969893E+03  0.00000000000E+00 0. -1.
          1    1    5    5  503    0  0.58678313055E+02  0.89885283731E+01 -0.17969937603E+02  0.62023033808E+02  0.00000000000E+00 0. -1.
         -2    1    5    5    0  503  0.20599108943E+03  0.18668974191E+03 -0.16766887507E+03  0.32465095153E+03  0.00000000000E+00 0.  1.
         -1    1    6    6    0  502 -0.54516770665E+03  0.20247251106E+03 -0.30994707842E+03  0.65899175832E+03  0.00000000000E+00 0.  1.
<mgrwt>
<rscale>  0 0.24206870E+04</rscale>
<asrwt>0</asrwt>
<pdfrwt beam="1">  1        2 0.23276223E+00 0.24206870E+04</pdfrwt>
<pdfrwt beam="2">  1       -2 0.14896287E+00 0.24206870E+04</pdfrwt>
<totfact> 0.34201098E+00</totfact>
</mgrwt>
</event>
<event>
12    1  0.1562393E-007  0.4085639E+04  0.7818608E-02  0.7987490E-01
          2   -1    0    0  501    0  0.00000000000E+00  0.00000000000E+00  0.22598134224E+04  0.22598134224E+04  0.00000000000E+00 0. -1.
         -2   -1    0    0    0  501 -0.00000000000E+00 -0.00000000000E+00 -0.18466618855E+04  0.18466618855E+04  0.00000000000E+00 0.  1.
         23    2    1    2    0    0 -0.27495213790E+03  0.54243031237E+03  0.20490084101E+04  0.21392449456E+04  0.90023058248E+02 0.  0.
        254    2    1    2    0    0  0.27495213790E+03 -0.54243031237E+03 -0.16358568731E+04  0.19672303622E+04  0.90782061375E+03 0.  0.
        -24    2    4    4    0    0  0.12321447389E+03 -0.59172900575E+02 -0.13901106783E+04  0.13985383799E+04  0.69416593475E+02 0.  0.
         24    2    4    4    0    0  0.15173766401E+03 -0.48325741179E+03 -0.24574619483E+03  0.56869198230E+03  0.80357536829E+02 0.  0.
         11    1    3    3    0    0  0.60174822680E+01  0.76434328729E+01  0.20443339618E+02  0.22639838640E+02  0.00000000000E+00 0.  1.
        -11    1    3    3    0    0 -0.28096962016E+03  0.53478687949E+03  0.20285650705E+04  0.21166051070E+04  0.00000000000E+00 0. -1.
          2    1    6    6  502    0 -0.63766319436E+01 -0.66136876354E+02 -0.38810976852E+02  0.76948292853E+02  0.00000000000E+00 0. -1.
          3    1    5    5  503    0  0.61848847721E+02 -0.15786574369E+02 -0.35424618904E+03  0.35995118884E+03  0.00000000000E+00 0. -1.
         -2    1    5    5    0  503  0.61365626165E+02 -0.43386326205E+02 -0.10358644893E+04  0.10385871911E+04  0.00000000000E+00 0.  1.
         -3    1    6    6    0  502  0.15811429595E+03 -0.41712053544E+03 -0.20693521798E+03  0.49174368945E+03  0.00000000000E+00 0.  1.
<mgrwt>
<rscale>  0 0.40856389E+04</rscale>
<asrwt>0</asrwt>
<pdfrwt beam="1">  1        2 0.34766360E+00 0.40856389E+04</pdfrwt>
<pdfrwt beam="2">  1       -2 0.28410183E+00 0.40856389E+04</pdfrwt>
<totfact> 0.14881425E-01</totfact>
</mgrwt>
</event>
<event>
12    1  0.1562393E-007  0.1661991E+04  0.7818608E-02  0.8783344E-01
         -2   -1    0    0    0  501 -0.00000000000E+00  0.00000000000E+00  0.31661291650E+03  0.31661291650E+03  0.00000000000E+00 0.  1.
          2   -1    0    0  501    0  0.00000000000E+00 -0.00000000000E+00 -0.21810664743E+04  0.21810664743E+04  0.00000000000E+00 0. -1.
         23    2    1    2    0    0 -0.49052619291E+03 -0.22134909459E+02 -0.33517913258E+03  0.60158336925E+03  0.91932579039E+02 0.  0.
        254    2    1    2    0    0  0.49052619291E+03  0.22134909459E+02 -0.15292744252E+04  0.18960960215E+04  0.10076675817E+04 0.  0.
        -24    2    4    4    0    0  0.42985095451E+03 -0.44110860652E+03 -0.10636346429E+04  0.12318144876E+04  0.81851283409E+02 0.  0.
         24    2    4    4    0    0  0.60675238409E+02  0.46324351598E+03 -0.46563978231E+03  0.66428153388E+03  0.78571685322E+02 0.  0.
         13    1    3    3    0    0 -0.18692886550E+01 -0.20296574300E+01 -0.19023350281E+02  0.19222424542E+02  0.00000000000E+00 0. -1.
        -13    1    3    3    0    0 -0.48865690426E+03 -0.20105252029E+02 -0.31615578230E+03  0.58236094471E+03  0.00000000000E+00 0.  1.
          4    1    6    6  502    0  0.59522163242E+02  0.19055662999E+03 -0.22255369510E+03  0.29897301610E+03  0.00000000000E+00 0. -1.
          1    1    5    5  503    0  0.11213735506E+03 -0.16857161019E+03 -0.36405902697E+03  0.41656950115E+03  0.00000000000E+00 0. -1.
         -2    1    5    5    0  503  0.31771359944E+03 -0.27253699633E+03 -0.69957561591E+03  0.81524498650E+03  0.00000000000E+00 0.  1.
         -3    1    6    6    0  502  0.11530751662E+01  0.27268688599E+03 -0.24308608720E+03  0.36530851778E+03  0.00000000000E+00 0.  1.
<mgrwt>
<rscale>  0 0.16619914E+04</rscale>
<asrwt>0</asrwt>
<pdfrwt beam="1">  1        2 0.33554869E+00 0.16619914E+04</pdfrwt>
<pdfrwt beam="2">  1       -2 0.48709679E-01 0.16619914E+04</pdfrwt>
<totfact> 0.20169791E+01</totfact>
</mgrwt>
</event>
<event>
12    1  0.1562393E-007  0.2102342E+04  0.7818608E-02  0.8560212E-01
         -2   -1    0    0    0  501 -0.00000000000E+00  0.00000000000E+00  0.17016756393E+04  0.17016756393E+04  0.00000000000E+00 0.  1.
          2   -1    0    0  501    0  0.00000000000E+00 -0.00000000000E+00 -0.64933671634E+03  0.64933671634E+03  0.00000000000E+00 0. -1.
         23    2    1    2    0    0  0.51978708777E+03  0.28928879027E+03  0.11252090838E+04  0.12754816763E+04  0.83014478612E+02 0.  0.
        254    2    1    2    0    0 -0.51978708777E+03 -0.28928879027E+03 -0.72870160811E+02  0.10755306793E+04  0.89307869811E+03 0.  0.
        -24    2    4    4    0    0 -0.54988004264E+03 -0.45369673684E+03 -0.30373424449E+03  0.77930790257E+03  0.82810176936E+02 0.  0.
         24    2    4    4    0    0  0.30092954873E+02  0.16440794657E+03  0.23086408368E+03  0.29622277675E+03  0.80710281259E+02 0.  0.
         11    1    3    3    0    0  0.38676209710E+03  0.23516786707E+03  0.78410641357E+03  0.90537932009E+03  0.00000000000E+00 0. -1.
        -11    1    3    3    0    0  0.13302499067E+03  0.54120923204E+02  0.34110267020E+03  0.37010235624E+03  0.00000000000E+00 0.  1.
          2    1    6    6  502    0  0.13357368565E+02  0.35554442075E+02  0.11851030436E+03  0.12444769940E+03  0.00000000000E+00 0. -1.
          3    1    5    5  503    0 -0.10630531967E+03 -0.76401907541E+02 -0.23300957783E+02  0.13296994810E+03  0.00000000000E+00 0. -1.
         -4    1    5    5    0  503 -0.44357472298E+03 -0.37729482930E+03 -0.28043328671E+03  0.64633795446E+03  0.00000000000E+00 0.  1.
         -1    1    6    6    0  502  0.16735586308E+02  0.12885350450E+03  0.11235377932E+03  0.17177507735E+03  0.00000000000E+00 0.  1.
<mgrwt>
<rscale>  0 0.21023420E+04</rscale>
<asrwt>0</asrwt>
<pdfrwt beam="1">  1        2 0.99897957E-01 0.21023420E+04</pdfrwt>
<pdfrwt beam="2">  1       -2 0.26179625E+00 0.21023420E+04</pdfrwt>
<totfact> 0.22563841E+00</totfact>
</mgrwt>
</event>
<event>
12    1  0.1562393E-007  0.1261588E+04  0.7818608E-02  0.9060593E-01
          1   -1    0    0  501    0  0.00000000000E+00  0.00000000000E+00  0.34171712587E+03  0.34171712587E+03  0.00000000000E+00 0. -1.
         -1   -1    0    0    0  501 -0.00000000000E+00 -0.00000000000E+00 -0.11644163055E+04  0.11644163055E+04  0.00000000000E+00 0.  1.
         23    2    1    2    0    0  0.74773225226E+02  0.20784543231E+03  0.38465938226E+02  0.23841011646E+03  0.81049344750E+02 0.  0.
        254    2    1    2    0    0 -0.74773225226E+02 -0.20784543231E+03 -0.86116511785E+03  0.12677233149E+04  0.90372909880E+03 0.  0.
        -24    2    4    4    0    0  0.31815582606E+03  0.17645157766E+03 -0.31339609271E+03  0.48761981907E+03  0.84839189675E+02 0.  0.
         24    2    4    4    0    0 -0.39292905128E+03 -0.38429700996E+03 -0.54776902514E+03  0.78010349585E+03  0.80206783520E+02 0.  0.
         13    1    3    3    0    0  0.35739496262E+02  0.18815640056E+03  0.29446143322E+02  0.19377104537E+03  0.00000000000E+00 0. -1.
        -13    1    3    3    0    0  0.39033728964E+02  0.19689031745E+02  0.90197949042E+01  0.44639071093E+02  0.00000000000E+00 0.  1.
          2    1    6    6  502    0 -0.26298099939E+03 -0.21752790046E+03 -0.30005725524E+03  0.45443563894E+03  0.00000000000E+00 0. -1.
          1    1    5    5  503    0  0.32031090384E+03  0.18033068134E+03 -0.31359611909E+03  0.48317776817E+03  0.00000000000E+00 0. -1.
         -2    1    5    5    0  503 -0.21550777820E+01 -0.38791036785E+01  0.20002637154E+00  0.44420508940E+01  0.00000000000E+00 0.  1.
         -1    1    6    6    0  502 -0.12994805190E+03 -0.16676910951E+03 -0.24771176989E+03  0.32566785691E+03  0.00000000000E+00 0.  1.
<mgrwt>
<rscale>  0 0.12615879E+04</rscale>
<asrwt>0</asrwt>
<pdfrwt beam="1">  1        1 0.52571864E-01 0.12615879E+04</pdfrwt>
<pdfrwt beam="2">  1       -1 0.17914097E+00 0.12615879E+04</pdfrwt>
<totfact> 0.15373179E+01</totfact>
</mgrwt>
</event>
<event>
12    1  0.1562393E-007  0.2360282E+04  0.7818608E-02  0.8454525E-01
         -1   -1    0    0    0  501 -0.00000000000E+00  0.00000000000E+00  0.47167869940E+03  0.47167869940E+03  0.00000000000E+00 0.  1.
          1   -1    0    0  501    0  0.00000000000E+00 -0.00000000000E+00 -0.29527162573E+04  0.29527162573E+04  0.00000000000E+00 0. -1.
         23    2    1    2    0    0  0.25153377623E+03 -0.86080218147E+03 -0.39257934149E+03  0.98307695326E+03  0.89844980100E+02 0.  0.
        254    2    1    2    0    0 -0.25153377623E+03  0.86080218147E+03 -0.20884582164E+04  0.24413180035E+04  0.89113760783E+03 0.  0.
        -24    2    4    4    0    0 -0.56172153535E+03  0.64466858243E+03 -0.16253504512E+04  0.18382513771E+04  0.79217245930E+02 0.  0.
         24    2    4    4    0    0  0.31018775912E+03  0.21613359904E+03 -0.46310776528E+03  0.60306662633E+03  0.79311884260E+02 0.  0.
         13    1    3    3    0    0  0.14363895135E+03 -0.38413841574E+03 -0.14312672433E+03  0.43437280072E+03  0.00000000000E+00 0. -1.
        -13    1    3    3    0    0  0.10789482488E+03 -0.47666376573E+03 -0.24945261717E+03  0.54870415253E+03  0.00000000000E+00 0.  1.
          4    1    6    6  502    0  0.10103290883E+03  0.30148582612E+02 -0.10819644439E+03  0.15107301638E+03  0.00000000000E+00 0. -1.
          3    1    5    5  503    0 -0.45674223875E+03  0.56561518394E+03 -0.13585344712E+04  0.15408276732E+04  0.00000000000E+00 0. -1.
         -4    1    5    5    0  503 -0.10497929660E+03  0.79053398494E+02 -0.26681597994E+03  0.29742370397E+03  0.00000000000E+00 0.  1.
         -3    1    6    6    0  502  0.20915485030E+03  0.18598501642E+03 -0.35491132090E+03  0.45199360995E+03  0.00000000000E+00 0.  1.
<mgrwt>
<rscale>  0 0.23602825E+04</rscale>
<asrwt>0</asrwt>
<pdfrwt beam="1">  1        1 0.45426403E+00 0.23602825E+04</pdfrwt>
<pdfrwt beam="2">  1       -1 0.72565955E-01 0.23602825E+04</pdfrwt>
<totfact> 0.11147014E+00</totfact>
</mgrwt>
</event>
<event>
12    1  0.1562393E-007  0.2774026E+04  0.7818608E-02  0.8311378E-01
         -1   -1    0    0    0  501 -0.00000000000E+00  0.00000000000E+00  0.77145743455E+03  0.77145743455E+03  0.00000000000E+00 0.  1.
          1   -1    0    0  501    0  0.00000000000E+00 -0.00000000000E+00 -0.24937282832E+04  0.24937282832E+04  0.00000000000E+00 0. -1.
         23    2    1    2    0    0  0.30933172452E+03  0.11236086088E+04 -0.12644530020E+04  0.17219232594E+04  0.89419771652E+02 0.  0.
        254    2    1    2    0    0 -0.30933172452E+03 -0.11236086088E+04 -0.45781784668E+03  0.15432624584E+04  0.90215265510E+03 0.  0.
        -24    2    4    4    0    0 -0.47169673870E+03 -0.95412419821E+03 -0.53462960567E+02  0.10687819948E+04  0.81153344911E+02 0.  0.
         24    2    4    4    0    0  0.16236501417E+03 -0.16948441057E+03 -0.40435488611E+03  0.47448046354E+03  0.80879373776E+02 0.  0.
         13    1    3    3    0    0  0.20639285895E+03  0.86247422734E+03 -0.99468353753E+03  0.13326121510E+04  0.00000000000E+00 0. -1.
        -13    1    3    3    0    0  0.10293886557E+03  0.26113438144E+03 -0.26976946448E+03  0.38931110848E+03  0.00000000000E+00 0.  1.
          4    1    6    6  502    0  0.48926230778E+02 -0.10516698649E+03 -0.16161153529E+03  0.19892752309E+03  0.00000000000E+00 0. -1.
          1    1    5    5  503    0 -0.14774297777E+03 -0.22118675166E+03 -0.65742084217E+01  0.26607289754E+03  0.00000000000E+00 0. -1.
         -2    1    5    5    0  503 -0.32395376093E+03 -0.73293744655E+03 -0.46888752146E+02  0.80270909728E+03  0.00000000000E+00 0.  1.
         -3    1    6    6    0  502  0.11343878340E+03 -0.64317424082E+02 -0.24274335083E+03  0.27555294045E+03  0.00000000000E+00 0.  1.
<mgrwt>
<rscale>  0 0.27740261E+04</rscale>
<asrwt>0</asrwt>
<pdfrwt beam="1">  1        1 0.38365050E+00 0.27740261E+04</pdfrwt>
<pdfrwt beam="2">  1       -1 0.11868576E+00 0.27740261E+04</pdfrwt>
<totfact> 0.75479723E-01</totfact>
</mgrwt>
</event>
<event>
12    1  0.1562393E-007  0.2116500E+04  0.7818608E-02  0.8554010E-01
          2   -1    0    0  501    0  0.00000000000E+00  0.00000000000E+00  0.17381327761E+04  0.17381327761E+04  0.00000000000E+00 0. -1.
         -2   -1    0    0    0  501 -0.00000000000E+00 -0.00000000000E+00 -0.64430811272E+03  0.64430811272E+03  0.00000000000E+00 0.  1.
         23    2    1    2    0    0  0.78930211319E+03  0.41653047786E+02  0.52435349254E+02  0.79738104116E+03  0.91292150054E+02 0.  0.
        254    2    1    2    0    0 -0.78930211319E+03 -0.41653047786E+02  0.10413893141E+04  0.15850598476E+04  0.89620880088E+03 0.  0.
        -24    2    4    4    0    0 -0.74624942725E+03  0.15047901356E+03  0.31336123914E+03  0.82714510411E+03  0.80259677739E+02 0.  0.
         24    2    4    4    0    0 -0.43052685943E+02 -0.19213206135E+03  0.72802807495E+03  0.75791474351E+03  0.75110703336E+02 0.  0.
         13    1    3    3    0    0  0.34476647149E+03  0.40980840380E+01  0.66022096123E+02  0.35105502607E+03  0.00000000000E+00 0. -1.
        -13    1    3    3    0    0  0.44453564170E+03  0.37554963748E+02 -0.13586746868E+02  0.44632601508E+03  0.00000000000E+00 0.  1.
          4    1    6    6  502    0  0.69219883523E+01 -0.14516219317E+02  0.15688337989E+03  0.15770551490E+03  0.00000000000E+00 0. -1.
          3    1    5    5  503    0 -0.82565206038E+02 -0.59210176989E+00  0.54448707166E+02  0.98904122991E+02  0.00000000000E+00 0. -1.
         -4    1    5    5    0  503 -0.66368422121E+03  0.15107111533E+03  0.25891253197E+03  0.72824098112E+03  0.00000000000E+00 0.  1.
         -3    1    6    6    0  502 -0.49974674295E+02 -0.17761584203E+03  0.57114469506E+03  0.60020922861E+03  0.00000000000E+00 0.  1.
<mgrwt>
<rscale>  0 0.21165000E+04</rscale>
<asrwt>0</asrwt>
<pdfrwt beam="1">  1        2 0.26740504E+00 0.21165000E+04</pdfrwt>
<pdfrwt beam="2">  1       -2 0.99124325E-01 0.21165000E+04</pdfrwt>
<totfact> 0.72492003E+00</totfact>
</mgrwt>
</event>
<event>
12    1  0.1562393E-007  0.1508732E+04  0.7818608E-02  0.8878667E-01
         -2   -1    0    0    0  501 -0.00000000000E+00  0.00000000000E+00  0.45822566357E+03  0.45822566357E+03  0.00000000000E+00 0.  1.
          2   -1    0    0  501    0  0.00000000000E+00 -0.00000000000E+00 -0.12418946617E+04  0.12418946617E+04  0.00000000000E+00 0. -1.
         23    2    1    2    0    0 -0.83787737178E+02  0.18209883032E+03 -0.73831842821E+03  0.77056604973E+03  0.92073702272E+02 0.  0.
        254    2    1    2    0    0  0.83787737178E+02 -0.18209883032E+03 -0.45350569918E+02  0.92955427553E+03  0.90655066492E+03 0.  0.
        -24    2    4    4    0    0 -0.18574570810E+03 -0.45761924777E+03  0.10073193012E+03  0.50941064651E+03  0.73725443542E+02 0.  0.
         24    2    4    4    0    0  0.26953344528E+03  0.27552041744E+03 -0.14608250004E+03  0.42014362903E+03  0.81368259421E+02 0.  0.
         13    1    3    3    0    0  0.40426031908E+01  0.99789120318E+02 -0.35632055366E+03  0.37005208840E+03  0.00000000000E+00 0. -1.
        -13    1    3    3    0    0 -0.87830340369E+02  0.82309710004E+02 -0.38199787456E+03  0.40051396133E+03  0.00000000000E+00 0.  1.
          2    1    6    6  502    0  0.18135712645E+03  0.21595864243E+03 -0.73793084755E+02  0.29150293637E+03  0.00000000000E+00 0. -1.
          1    1    5    5  503    0 -0.13035986514E+03 -0.36573720873E+03  0.52590692343E+02  0.39182034303E+03  0.00000000000E+00 0. -1.
         -2    1    5    5    0  503 -0.55385842957E+02 -0.91882039035E+02  0.48141237777E+02  0.11759030348E+03  0.00000000000E+00 0.  1.
         -1    1    6    6    0  502  0.88176318828E+02  0.59561775012E+02 -0.72289415283E+02  0.12864069265E+03  0.00000000000E+00 0.  1.
<mgrwt>
<rscale>  0 0.15087319E+04</rscale>
<asrwt>0</asrwt>
<pdfrwt beam="1">  1        2 0.19106072E+00 0.15087319E+04</pdfrwt>
<pdfrwt beam="2">  1       -2 0.70496256E-01 0.15087319E+04</pdfrwt>
<totfact> 0.31609535E+01</totfact>
</mgrwt>
</event>
<event>
12    1  0.1562393E-007  0.1213221E+04  0.7818608E-02  0.9101362E-01
          1   -1    0    0  501    0  0.00000000000E+00  0.00000000000E+00  0.62189939682E+03  0.62189939682E+03  0.00000000000E+00 0. -1.
         -1   -1    0    0    0  501 -0.00000000000E+00 -0.00000000000E+00 -0.59169727219E+03  0.59169727219E+03  0.00000000000E+00 0.  1.
         23    2    1    2    0    0 -0.19743640864E+03  0.17583999486E+03 -0.20471577331E+02  0.28007581921E+03  0.90125134011E+02 0.  0.
        254    2    1    2    0    0  0.19743640864E+03 -0.17583999486E+03  0.50673701959E+02  0.93352084979E+03  0.89386381160E+03 0.  0.
        -24    2    4    4    0    0 -0.33038040244E+03 -0.20442398140E+03  0.17178853409E+02  0.39753733733E+03  0.82464823312E+02 0.  0.
         24    2    4    4    0    0  0.52781681108E+03  0.28583986542E+02  0.33494848550E+02  0.53598351246E+03  0.82151021948E+02 0.  0.
         11    1    3    3    0    0 -0.11354812059E+03  0.76972764224E+02 -0.51886292700E+02  0.14666345656E+03  0.00000000000E+00 0.  1.
        -11    1    3    3    0    0 -0.83888288053E+02  0.98867230632E+02  0.31414715369E+02  0.13341236265E+03  0.00000000000E+00 0. -1.
          4    1    6    6  502    0  0.27258685633E+03  0.32277937097E+01  0.56732051946E+02  0.27844665309E+03  0.00000000000E+00 0. -1.
          3    1    5    5  503    0 -0.76164469929E+02 -0.77262287073E+02  0.31373402267E+02  0.11293705261E+03  0.00000000000E+00 0. -1.
         -4    1    5    5    0  503 -0.25421593251E+03 -0.12716169433E+03 -0.14194548858E+02  0.28460028472E+03  0.00000000000E+00 0.  1.
         -3    1    6    6    0  502  0.25522995474E+03  0.25356192832E+02 -0.23237203395E+02  0.25753685937E+03  0.00000000000E+00 0.  1.
<mgrwt>
<rscale>  0 0.12132208E+04</rscale>
<asrwt>0</asrwt>
<pdfrwt beam="1">  1        1 0.95676830E-01 0.12132208E+04</pdfrwt>
<pdfrwt beam="2">  1       -1 0.91030350E-01 0.12132208E+04</pdfrwt>
<totfact> 0.37880600E+01</totfact>
</mgrwt>
</event>
<event>
12    1  0.1562393E-007  0.1327401E+04  0.7818608E-02  0.9008114E-01
          1   -1    0    0  501    0  0.00000000000E+00  0.00000000000E+00  0.17839626128E+04  0.17839626128E+04  0.00000000000E+00 0. -1.
         -1   -1    0    0    0  501 -0.00000000000E+00 -0.00000000000E+00 -0.24692121909E+03  0.24692121909E+03  0.00000000000E+00 0.  1.
         23    2    1    2    0    0  0.86191827159E+02 -0.23815653900E+03  0.73474999983E+03  0.78263610299E+03  0.92272093968E+02 0.  0.
        254    2    1    2    0    0 -0.86191827159E+02  0.23815653900E+03  0.80229139392E+03  0.12482477289E+04  0.92211894238E+03 0.  0.
        -24    2    4    4    0    0  0.16995415221E+02  0.18732608129E+03 -0.16937181431E+03  0.26651662050E+03  0.83452936729E+02 0.  0.
         24    2    4    4    0    0 -0.10318724238E+03  0.50830457705E+02  0.97166320823E+03  0.98173110843E+03  0.80219926446E+02 0.  0.
         11    1    3    3    0    0 -0.56912244407E+01 -0.24011909430E+02  0.23083878272E+02  0.33790934674E+02  0.00000000000E+00 0.  1.
        -11    1    3    3    0    0  0.91883051600E+02 -0.21414462957E+03  0.71166612156E+03  0.74884516832E+03  0.00000000000E+00 0. -1.
          4    1    6    6  502    0 -0.37184416933E+01  0.39992413336E+02  0.28489148367E+03  0.28770884137E+03  0.00000000000E+00 0. -1.
          1    1    5    5  503    0 -0.24495961106E+02  0.14003650380E+03 -0.12734720154E+03  0.19086011696E+03  0.00000000000E+00 0. -1.
         -2    1    5    5    0  503  0.41491376328E+02  0.47289577500E+02 -0.42024612772E+02  0.75656503542E+02  0.00000000000E+00 0.  1.
         -3    1    6    6    0  502 -0.99468800687E+02  0.10838044369E+02  0.68677172456E+03  0.69402226706E+03  0.00000000000E+00 0.  1.
<mgrwt>
<rscale>  0 0.13274008E+04</rscale>
<asrwt>0</asrwt>
<pdfrwt beam="1">  1        1 0.27445578E+00 0.13274008E+04</pdfrwt>
<pdfrwt beam="2">  1       -1 0.37987881E-01 0.13274008E+04</pdfrwt>
<totfact> 0.27425008E+01</totfact>
</mgrwt>
</event>
<event>
12    1  0.1562393E-007  0.2314971E+04  0.7818608E-02  0.8472041E-01
         -2   -1    0    0    0  501 -0.00000000000E+00  0.00000000000E+00  0.64184391860E+03  0.64184391860E+03  0.00000000000E+00 0. -1.
          2   -1    0    0  501    0  0.00000000000E+00 -0.00000000000E+00 -0.20873815536E+04  0.20873815536E+04  0.00000000000E+00 0.  1.
         23    2    1    2    0    0 -0.21072398582E+03 -0.94724656871E+03 -0.85339954999E+03  0.12949995622E+04  0.83978651974E+02 0.  0.
        254    2    1    2    0    0  0.21072398582E+03  0.94724656871E+03 -0.59213808506E+03  0.14342259101E+04  0.87446886120E+03 0.  0.
        -24    2    4    4    0    0  0.33544728505E+03  0.99610458952E+02 -0.42760893525E+03  0.55835544212E+03  0.80400706853E+02 0.  0.
         24    2    4    4    0    0 -0.12472329924E+03  0.84763610976E+03 -0.16452914981E+03  0.87587046795E+03  0.77694012305E+02 0.  0.
         11    1    3    3    0    0 -0.42697569214E+02 -0.16850357692E+03 -0.19722274515E+03  0.26289417844E+03  0.00000000000E+00 0.  1.
        -11    1    3    3    0    0 -0.16802641660E+03 -0.77874299179E+03 -0.65617680484E+03  0.10321053837E+04  0.00000000000E+00 0. -1.
          2    1    6    6  502    0 -0.44388255856E+02  0.45766208593E+03 -0.12010755582E+03  0.47523754810E+03  0.00000000000E+00 0. -1.
          1    1    5    5  503    0  0.14454579576E+03  0.40952524273E+01 -0.19309336096E+03  0.24123702911E+03  0.00000000000E+00 0. -1.
         -2    1    5    5    0  503  0.19090148929E+03  0.95515206525E+02 -0.23451557429E+03  0.31711841302E+03  0.00000000000E+00 0.  1.
         -1    1    6    6    0  502 -0.80335043380E+02  0.38997402383E+03 -0.44421593983E+02  0.40063291985E+03  0.00000000000E+00 0.  1.
<mgrwt>
<rscale>  0 0.23149714E+04</rscale>
<asrwt>0</asrwt>
<pdfrwt beam="1">  1        2 0.32113563E+00 0.23149714E+04</pdfrwt>
<pdfrwt beam="2">  1       -2 0.98745217E-01 0.23149714E+04</pdfrwt>
<totfact> 0.46018509E+00</totfact>
</mgrwt>
</event>
<event>
12    1  0.1562393E-007  0.1304756E+04  0.7818608E-02  0.9025802E-01
         -1   -1    0    0    0  501 -0.00000000000E+00  0.00000000000E+00  0.46449343892E+03  0.46449343892E+03  0.00000000000E+00 0.  1.
          1   -1    0    0  501    0  0.00000000000E+00 -0.00000000000E+00 -0.91626007425E+03  0.91626007425E+03  0.00000000000E+00 0. -1.
         23    2    1    2    0    0 -0.68450509001E+02 -0.10451061545E+03 -0.43270179094E+03  0.45977330749E+03  0.92480881665E+02 0.  0.
        254    2    1    2    0    0  0.68450509001E+02  0.10451061545E+03 -0.19064844396E+02  0.92098020569E+03  0.91226812399E+03 0.  0.
        -24    2    4    4    0    0 -0.24767115734E+03 -0.26182398451E+03 -0.17199790274E+03  0.40759549449E+03  0.81596614757E+02 0.  0.
         24    2    4    4    0    0  0.31612166634E+03  0.36633459996E+03  0.15293305835E+03  0.51338471119E+03  0.77726406667E+02 0.  0.
         11    1    3    3    0    0 -0.40038491720E+02 -0.10613935464E+03 -0.40290220687E+03  0.41856759517E+03  0.00000000000E+00 0. -1.
        -11    1    3    3    0    0 -0.28412017281E+02  0.16287391879E+01 -0.29799584065E+02  0.41205712319E+02  0.00000000000E+00 0.  1.
          4    1    6    6  502    0  0.29276566903E+03  0.34395908010E+03  0.12028398059E+03  0.46742680896E+03  0.00000000000E+00 0. -1.
          1    1    5    5  503    0 -0.17064524895E+03 -0.16302576289E+03 -0.70338873318E+02  0.24626156309E+03  0.00000000000E+00 0. -1.
         -2    1    5    5    0  503 -0.77025908388E+02 -0.98798221621E+02 -0.10165902942E+03  0.16133393140E+03  0.00000000000E+00 0.  1.
         -3    1    6    6    0  502  0.23355997314E+02  0.22375519856E+02  0.32649077758E+02  0.45957902235E+02  0.00000000000E+00 0.  1.
<mgrwt>
<rscale>  0 0.13047556E+04</rscale>
<asrwt>0</asrwt>
<pdfrwt beam="1">  1        1 0.14096309E+00 0.13047556E+04</pdfrwt>
<pdfrwt beam="2">  1       -1 0.71460530E-01 0.13047556E+04</pdfrwt>
<totfact> 0.34279521E+01</totfact>
</mgrwt>
</event>
<event>
12    1  0.1562393E-007  0.1440670E+04  0.7818608E-02  0.8924894E-01
          3   -1    0    0  501    0  0.00000000000E+00  0.00000000000E+00  0.30948414035E+04  0.30948414035E+04  0.00000000000E+00 0. -1.
         -3   -1    0    0    0  501 -0.00000000000E+00 -0.00000000000E+00 -0.16766050597E+03  0.16766050597E+03  0.00000000000E+00 0.  1.
         23    2    1    2    0    0 -0.86552920988E-01 -0.31427061391E+03  0.22678104118E+03  0.39857142592E+03  0.93078003088E+02 0.  0.
        254    2    1    2    0    0  0.86552920988E-01  0.31427061391E+03  0.27003998564E+04  0.28639304836E+04  0.90065110018E+03 0.  0.
        -24    2    4    4    0    0  0.53306433581E+02 -0.16424577946E+03  0.20091781894E+04  0.20181379702E+04  0.79155657650E+02 0.  0.
         24    2    4    4    0    0 -0.53219880660E+02  0.47851639336E+03  0.69122166700E+03  0.84579251340E+03  0.75942665052E+02 0.  0.
         11    1    3    3    0    0  0.97288623392E+01 -0.55888853422E+01 -0.51471798310E+01  0.12344223831E+02  0.00000000000E+00 0. -1.
        -11    1    3    3    0    0 -0.98154152602E+01 -0.30868172857E+03  0.23192822102E+03  0.38622720209E+03  0.00000000000E+00 0.  1.
          4    1    6    6  502    0  0.11802013060E+02  0.19553146232E+03  0.25001975837E+03  0.31761882791E+03  0.00000000000E+00 0. -1.
          1    1    5    5  503    0  0.35988519905E+02 -0.14700168100E+03  0.19102484625E+04  0.19162342906E+04  0.00000000000E+00 0. -1.
         -2    1    5    5    0  503  0.17317913676E+02 -0.17244098451E+02  0.98929726853E+02  0.10190367962E+03  0.00000000000E+00 0.  1.
         -3    1    6    6    0  502 -0.65021893720E+02  0.28298493105E+03  0.44120190863E+03  0.52817368549E+03  0.00000000000E+00 0.  1.
<mgrwt>
<rscale>  0 0.14406702E+04</rscale>
<asrwt>0</asrwt>
<pdfrwt beam="1">  1        3 0.47612940E+00 0.14406702E+04</pdfrwt>
<pdfrwt beam="2">  1       -3 0.25793926E-01 0.14406702E+04</pdfrwt>
<totfact> 0.16727102E-01</totfact>
</mgrwt>
</event>
<event>
12    1  0.1562393E-007  0.1357649E+04  0.7818608E-02  0.8985058E-01
          1   -1    0    0  501    0  0.00000000000E+00  0.00000000000E+00  0.63457268089E+03  0.63457268089E+03  0.00000000000E+00 0. -1.
         -1   -1    0    0    0  501 -0.00000000000E+00 -0.00000000000E+00 -0.72616263932E+03  0.72616263932E+03  0.00000000000E+00 0.  1.
         23    2    1    2    0    0  0.84400076421E+02 -0.49072231589E+02  0.33637461704E+03  0.36197838283E+03  0.91372916305E+02 0.  0.
        254    2    1    2    0    0 -0.84400076421E+02  0.49072231589E+02 -0.42796457546E+03  0.99875693738E+03  0.89712333895E+03 0.  0.
        -24    2    4    4    0    0  0.26768882368E+03  0.14599284423E+03  0.11813637374E+03  0.33703858190E+03  0.81655287619E+02 0.  0.
         24    2    4    4    0    0 -0.35208890010E+03 -0.96920612644E+02 -0.54610094921E+03  0.66171835548E+03  0.79276330176E+02 0.  0.
         11    1    3    3    0    0  0.62980565961E+02 -0.20101358205E+02  0.31090394439E+03  0.31785512254E+03  0.00000000000E+00 0. -1.
        -11    1    3    3    0    0  0.21419510460E+02 -0.28970873384E+02  0.25470672651E+02  0.44123260286E+02  0.00000000000E+00 0.  1.
          2    1    6    6  502    0 -0.66356869538E+02 -0.10934946899E+01 -0.58339025567E+02  0.88362162545E+02  0.00000000000E+00 0. -1.
          1    1    5    5  503    0  0.71610178109E+02  0.24976890175E+02  0.66591671399E+02  0.10092726763E+03  0.00000000000E+00 0. -1.
         -2    1    5    5    0  503  0.19607864557E+03  0.12101595406E+03  0.51544702345E+02  0.23611131427E+03  0.00000000000E+00 0.  1.
         -1    1    6    6    0  502 -0.28573203056E+03 -0.95827117954E+02 -0.48776192364E+03  0.57335619294E+03  0.00000000000E+00 0.  1.
<mgrwt>
<rscale>  0 0.13576494E+04</rscale>
<asrwt>0</asrwt>
<pdfrwt beam="1">  1        1 0.97626566E-01 0.13576494E+04</pdfrwt>
<pdfrwt beam="2">  1       -1 0.11171733E+00 0.13576494E+04</pdfrwt>
<totfact> 0.22719801E+01</totfact>
</mgrwt>
</event>
<event>
12    1  0.1815155E-007  0.2359266E+04  0.7818608E-02  0.8454913E-01
          2   -1    0    0  501    0  0.00000000000E+00  0.00000000000E+00  0.25117127469E+04  0.25117127469E+04  0.00000000000E+00 0. -1.
         -2   -1    0    0    0  501 -0.00000000000E+00 -0.00000000000E+00 -0.55401792599E+03  0.55401792599E+03  0.00000000000E+00 0.  1.
         23    2    1    2    0    0 -0.35217118108E+03  0.98396651232E+02  0.20729278635E+04  0.21069045483E+04  0.91161431260E+02 0.  0.
        254    2    1    2    0    0  0.35217118108E+03 -0.98396651232E+02 -0.11523304262E+03  0.95882612457E+03  0.87884153366E+03 0.  0.
        -24    2    4    4    0    0  0.56663988703E+03 -0.80744987079E+02  0.16141937743E+03  0.59966227386E+03  0.77059151088E+02 0.  0.
         24    2    4    4    0    0 -0.21446870595E+03 -0.17651664153E+02 -0.27665242005E+03  0.35916385071E+03  0.78445541989E+02 0.  0.
         13    1    3    3    0    0 -0.34353271100E+03  0.92901858978E+02  0.20594917978E+04  0.20900124268E+04  0.00000000000E+00 0. -1.
        -13    1    3    3    0    0 -0.86384700826E+01  0.54947922540E+01  0.13436065725E+02  0.16892121520E+02  0.00000000000E+00 0.  1.
          4    1    6    6  502    0 -0.18263854844E+03 -0.29155746093E+02 -0.18557832267E+03  0.26200421895E+03  0.00000000000E+00 0. -1.
          1    1    5    5  503    0  0.51190921884E+03 -0.76129673995E+02  0.12107650548E+03  0.53151321318E+03  0.00000000000E+00 0. -1.
         -2    1    5    5    0  503  0.54730668188E+02 -0.46153130840E+01  0.40342871948E+02  0.68149060684E+02  0.00000000000E+00 0.  1.
         -3    1    6    6    0  502 -0.31830157510E+02  0.11504081940E+02 -0.91074097388E+02  0.97159631758E+02  0.00000000000E+00 0.  1.
<mgrwt>
<rscale>  0 0.23592659E+04</rscale>
<asrwt>0</asrwt>
<pdfrwt beam="1">  1        2 0.38641734E+00 0.23592659E+04</pdfrwt>
<pdfrwt beam="2">  1       -2 0.85233528E-01 0.23592659E+04</pdfrwt>
<totfact> 0.37020695E+00</totfact>
</mgrwt>
</event>
<event>
12    1  0.1562393E-007  0.1779987E+04  0.7818608E-02  0.8717015E-01
         -1   -1    0    0    0  501 -0.00000000000E+00  0.00000000000E+00  0.80741549708E+03  0.80741549708E+03  0.00000000000E+00 0.  1.
          1   -1    0    0  501    0  0.00000000000E+00 -0.00000000000E+00 -0.98101719255E+03  0.98101719255E+03  0.00000000000E+00 0. -1.
         23    2    1    2    0    0 -0.57532664099E+03  0.10057987145E+02  0.24745848256E+03  0.63294144836E+03  0.90979500585E+02 0.  0.
        254    2    1    2    0    0  0.57532664099E+03 -0.10057987145E+02 -0.42106017804E+03  0.11554912413E+04  0.90926697300E+03 0.  0.
        -24    2    4    4    0    0  0.78872397860E+03 -0.10776863319E+03 -0.20446111157E+03  0.82575026863E+03  0.79746895168E+02 0.  0.
         24    2    4    4    0    0 -0.21339733761E+03  0.97710646045E+02 -0.21659906647E+03  0.32974097263E+03  0.82025358217E+02 0.  0.
         11    1    3    3    0    0 -0.15318475894E+03  0.43700429291E+01  0.11111400613E+03  0.18929075520E+03  0.00000000000E+00 0. -1.
        -11    1    3    3    0    0 -0.42214188204E+03  0.56879442158E+01  0.13634447643E+03  0.44365069316E+03  0.00000000000E+00 0.  1.
          4    1    6    6  502    0 -0.22083302742E+03  0.96813854784E+02 -0.21061499872E+03  0.32015437865E+03  0.00000000000E+00 0. -1.
          3    1    5    5  503    0  0.53308566177E+03 -0.99469769714E+02 -0.11166374978E+03  0.55366357194E+03  0.00000000000E+00 0. -1.
         -4    1    5    5    0  503  0.25563831683E+03 -0.82988634756E+01 -0.92797361792E+02  0.27208669670E+03  0.00000000000E+00 0.  1.
         -3    1    6    6    0  502  0.74356898129E+01  0.89679126078E+00 -0.59840677418E+01  0.95865939884E+01  0.00000000000E+00 0.  1.
<mgrwt>
<rscale>  0 0.17799871E+04</rscale>
<asrwt>0</asrwt>
<pdfrwt beam="1">  1        1 0.15092572E+00 0.17799871E+04</pdfrwt>
<pdfrwt beam="2">  1       -1 0.12421777E+00 0.17799871E+04</pdfrwt>
<totfact> 0.84155542E+00</totfact>
</mgrwt>
</event>
<event>
12    1  0.1562393E-007  0.1879122E+04  0.7818608E-02  0.8665319E-01
         -1   -1    0    0    0  501 -0.00000000000E+00  0.00000000000E+00  0.94704175674E+03  0.94704175674E+03  0.00000000000E+00 0.  1.
          1   -1    0    0  501    0  0.00000000000E+00 -0.00000000000E+00 -0.93213948985E+03  0.93213948985E+03  0.00000000000E+00 0. -1.
         23    2    1    2    0    0 -0.61187488081E+03  0.31965327907E+03 -0.19692758026E+03  0.72353182400E+03  0.90270371098E+02 0.  0.
        254    2    1    2    0    0  0.61187488081E+03 -0.31965327907E+03  0.21182984714E+03  0.11556494226E+04  0.90226637708E+03 0.  0.
        -24    2    4    4    0    0  0.41601665755E+03 -0.70979682452E+02  0.54164156476E+03  0.69164746926E+03  0.83022059599E+02 0.  0.
         24    2    4    4    0    0  0.19585822325E+03 -0.24867359662E+03 -0.32981171762E+03  0.46400195332E+03  0.79517559926E+02 0.  0.
         13    1    3    3    0    0 -0.71395265136E+02  0.23933139299E+02 -0.49290088588E+02  0.89997732602E+02  0.00000000000E+00 0. -1.
        -13    1    3    3    0    0 -0.54047961567E+03  0.29572013977E+03 -0.14763749167E+03  0.63353409140E+03  0.00000000000E+00 0.  1.
          4    1    6    6  502    0  0.19836351142E+03 -0.24682752517E+03 -0.33301678097E+03  0.45953464097E+03  0.00000000000E+00 0. -1.
          3    1    5    5  503    0  0.32514857246E+03 -0.41908663893E+02  0.46664491205E+03  0.57029413834E+03  0.00000000000E+00 0. -1.
         -4    1    5    5    0  503  0.90868085094E+02 -0.29071018559E+02  0.74996652709E+02  0.12135333092E+03  0.00000000000E+00 0.  1.
         -3    1    6    6    0  502 -0.25052881703E+01 -0.18460714450E+01  0.32050633457E+01  0.44673123515E+01  0.00000000000E+00 0.  1.
<mgrwt>
<rscale>  0 0.18791222E+04</rscale>
<asrwt>0</asrwt>
<pdfrwt beam="1">  1        1 0.14340607E+00 0.18791222E+04</pdfrwt>
<pdfrwt beam="2">  1       -1 0.14569873E+00 0.18791222E+04</pdfrwt>
<totfact> 0.60578720E+00</totfact>
</mgrwt>
</event>
<event>
12    1  0.1562393E-007  0.2624939E+04  0.7818608E-02  0.8359779E-01
          1   -1    0    0  501    0  0.00000000000E+00  0.00000000000E+00  0.16019037143E+04  0.16019037143E+04  0.00000000000E+00 0. -1.
         -1   -1    0    0    0  501 -0.00000000000E+00 -0.00000000000E+00 -0.10753304122E+04  0.10753304122E+04  0.00000000000E+00 0.  1.
         23    2    1    2    0    0 -0.98654629686E+02  0.75453916335E+03 -0.65103345079E+03  0.10056073395E+04  0.91320764993E+02 0.  0.
        254    2    1    2    0    0  0.98654629686E+02 -0.75453916335E+03  0.11776067528E+04  0.16716267871E+04  0.91022874378E+03 0.  0.
        -24    2    4    4    0    0 -0.10058053670E+03 -0.19343641668E+02  0.81301851404E+03  0.82337477245E+03  0.80351047919E+02 0.  0.
         24    2    4    4    0    0  0.19923516638E+03 -0.73519552168E+03  0.36458823879E+03  0.84825201464E+03  0.79998686497E+02 0.  0.
         13    1    3    3    0    0 -0.94489659443E+02  0.39387479748E+03 -0.32315969394E+03  0.51816777169E+03  0.00000000000E+00 0.  1.
        -13    1    3    3    0    0 -0.41649702433E+01  0.36066436587E+03 -0.32787375685E+03  0.48743956776E+03  0.00000000000E+00 0. -1.
          2    1    6    6  502    0  0.74403857075E+02 -0.14985616165E+03  0.85046377900E+02  0.18768508072E+03  0.00000000000E+00 0. -1.
          1    1    5    5  503    0 -0.16702547601E+02  0.38383474943E+01  0.23556721373E+02  0.29131205428E+02  0.00000000000E+00 0. -1.
         -2    1    5    5    0  503 -0.83877989096E+02 -0.23181989162E+02  0.78946179267E+03  0.79424356702E+03  0.00000000000E+00 0.  1.
         -1    1    6    6    0  502  0.12483130931E+03 -0.58533936003E+03  0.27954186089E+03  0.66056693391E+03  0.00000000000E+00 0.  1.
<mgrwt>
<rscale>  0 0.26249387E+04</rscale>
<asrwt>0</asrwt>
<pdfrwt beam="1">  1        1 0.24644673E+00 0.26249387E+04</pdfrwt>
<pdfrwt beam="2">  1       -1 0.16543545E+00 0.26249387E+04</pdfrwt>
<totfact> 0.13005375E+00</totfact>
</mgrwt>
</event>
<event>
12    1  0.1562393E-007  0.2110370E+04  0.7818608E-02  0.8556689E-01
         -1   -1    0    0    0  501 -0.00000000000E+00  0.00000000000E+00  0.14367364318E+04  0.14367364318E+04  0.00000000000E+00 0.  1.
          1   -1    0    0  501    0  0.00000000000E+00 -0.00000000000E+00 -0.77496142700E+03  0.77496142700E+03  0.00000000000E+00 0. -1.
         23    2    1    2    0    0  0.54772122686E+02  0.80884384336E+03 -0.37090436160E+02  0.81622434883E+03  0.87281950023E+02 0.  0.
        254    2    1    2    0    0 -0.54772122686E+02 -0.80884384336E+03  0.69886544098E+03  0.13954735100E+04  0.89537984350E+03 0.  0.
        -24    2    4    4    0    0 -0.27612357545E+03 -0.89977360410E+03  0.47124181560E+03  0.10555496724E+04  0.79243262406E+02 0.  0.
         24    2    4    4    0    0  0.22135145277E+03  0.90929760742E+02  0.22762362538E+03  0.33992383757E+03  0.80442609872E+02 0.  0.
         13    1    3    3    0    0  0.54365875547E+02  0.79451124899E+03 -0.48581487072E+02  0.79784956858E+03  0.00000000000E+00 0. -1.
        -13    1    3    3    0    0  0.40624713870E+00  0.14332594368E+02  0.11491050912E+02  0.18374780247E+02  0.00000000000E+00 0.  1.
          4    1    6    6  502    0  0.91540393968E+02  0.53001074499E+02  0.50886455486E+02  0.11738053066E+03  0.00000000000E+00 0. -1.
          1    1    5    5  503    0 -0.24467166523E+03 -0.75958289019E+03  0.42779047162E+03  0.90544744654E+03  0.00000000000E+00 0. -1.
         -2    1    5    5    0  503 -0.31451910225E+02 -0.14019071391E+03  0.43451343986E+02  0.15010222590E+03  0.00000000000E+00 0.  1.
         -3    1    6    6    0  502  0.12981105880E+03  0.37928686243E+02  0.17673716989E+03  0.22254330691E+03  0.00000000000E+00 0.  1.
<mgrwt>
<rscale>  0 0.21103699E+04</rscale>
<asrwt>0</asrwt>
<pdfrwt beam="1">  1        1 0.11922484E+00 0.21103699E+04</pdfrwt>
<pdfrwt beam="2">  1       -1 0.22103637E+00 0.21103699E+04</pdfrwt>
<totfact> 0.23146679E+00</totfact>
</mgrwt>
</event>
<event>
12    1  0.1562393E-007  0.1345246E+04  0.7818608E-02  0.8994434E-01
          2   -1    0    0  501    0  0.00000000000E+00  0.00000000000E+00  0.10159123909E+04  0.10159123909E+04  0.00000000000E+00 0.  1.
         -2   -1    0    0    0  501 -0.00000000000E+00 -0.00000000000E+00 -0.44533551904E+03  0.44533551904E+03  0.00000000000E+00 0. -1.
         23    2    1    2    0    0 -0.15424087146E+03 -0.27828745527E+03  0.35469068958E+03  0.48550917517E+03  0.93163939944E+02 0.  0.
        254    2    1    2    0    0  0.15424087146E+03  0.27828745527E+03  0.21588618225E+03  0.97573873474E+03  0.89678597257E+03 0.  0.
        -24    2    4    4    0    0  0.46011921426E+03 -0.78057081595E+02  0.13789359674E+03  0.49314121357E+03  0.79818626735E+02 0.  0.
         24    2    4    4    0    0 -0.30587834280E+03  0.35634453687E+03  0.77992585507E+02  0.48259752118E+03  0.79211959316E+02 0.  0.
         13    1    3    3    0    0 -0.40698448256E+02 -0.17965557063E+02  0.73068939931E+02  0.85546448867E+02  0.00000000000E+00 0.  1.
        -13    1    3    3    0    0 -0.11354242320E+03 -0.26032189821E+03  0.28162174965E+03  0.39996272630E+03  0.00000000000E+00 0. -1.
          4    1    6    6  502    0 -0.16645843891E+03  0.25236451576E+03  0.47935268246E+02  0.30609483929E+03  0.00000000000E+00 0. -1.
          3    1    5    5  503    0  0.77486265810E+02 -0.44309021073E+02  0.29801165080E+02  0.94103773451E+02  0.00000000000E+00 0. -1.
         -4    1    5    5    0  503  0.38263294845E+03 -0.33748060522E+02  0.10809243166E+03  0.39903744012E+03  0.00000000000E+00 0.  1.
         -3    1    6    6    0  502 -0.13941990389E+03  0.10398002111E+03  0.30057317260E+02  0.17650268188E+03  0.00000000000E+00 0.  1.
<mgrwt>
<rscale>  0 0.13452463E+04</rscale>
<asrwt>0</asrwt>
<pdfrwt beam="1">  1        2 0.15629421E+00 0.13452463E+04</pdfrwt>
<pdfrwt beam="2">  1       -2 0.68513157E-01 0.13452463E+04</pdfrwt>
<totfact> 0.46841595E+01</totfact>
</mgrwt>
</event>
<event>
12    1  0.1562393E-007  0.1273594E+04  0.7818608E-02  0.9050772E-01
          1   -1    0    0  501    0  0.00000000000E+00  0.00000000000E+00  0.13215419141E+04  0.13215419141E+04  0.00000000000E+00 0. -1.
         -1   -1    0    0    0  501 -0.00000000000E+00 -0.00000000000E+00 -0.30684621866E+03  0.30684621866E+03  0.00000000000E+00 0.  1.
         23    2    1    2    0    0  0.22978272022E+03 -0.11876211541E+03  0.33904376281E+02  0.27421483986E+03  0.84496941377E+02 0.  0.
        254    2    1    2    0    0 -0.22978272022E+03  0.11876211541E+03  0.98079131920E+03  0.13541732929E+04  0.89717844208E+03 0.  0.
        -24    2    4    4    0    0 -0.22467364519E+03  0.37301318319E+02  0.11358275971E+04  0.11612596951E+04  0.80932774377E+02 0.  0.
         24    2    4    4    0    0 -0.51090750332E+01  0.81460797090E+02 -0.15503627787E+03  0.19291359786E+03  0.80730692248E+02 0.  0.
         11    1    3    3    0    0  0.49874340695E+02 -0.47921853637E+02 -0.22616844517E+02  0.72770018357E+02  0.00000000000E+00 0. -1.
        -11    1    3    3    0    0  0.17990837952E+03 -0.70840261772E+02  0.56521220797E+02  0.20144482151E+03  0.00000000000E+00 0.  1.
          2    1    6    6  502    0 -0.16388523702E+02  0.62457635242E+02 -0.15793538366E+03  0.17062568775E+03  0.00000000000E+00 0. -1.
          1    1    5    5  503    0 -0.21201556260E+03  0.50879737480E+02  0.10937295593E+04  0.11152505079E+04  0.00000000000E+00 0. -1.
         -2    1    5    5    0  503 -0.12658082584E+02 -0.13578419161E+02  0.42098037759E+02  0.46009187178E+02  0.00000000000E+00 0.  1.
         -1    1    6    6    0  502  0.11279448669E+02  0.19003161848E+02  0.28991057857E+01  0.22287910105E+02  0.00000000000E+00 0.  1.
<mgrwt>
<rscale>  0 0.12735936E+04</rscale>
<asrwt>0</asrwt>
<pdfrwt beam="1">  1        1 0.20331414E+00 0.12735936E+04</pdfrwt>
<pdfrwt beam="2">  1       -1 0.47207111E-01 0.12735936E+04</pdfrwt>
<totfact> 0.38462755E+01</totfact>
</mgrwt>
</event>
<event>
12    1  0.1562393E-007  0.1413670E+04  0.7818608E-02  0.8943983E-01
         -2   -1    0    0    0  501 -0.00000000000E+00  0.00000000000E+00  0.26182871545E+03  0.26182871545E+03  0.00000000000E+00 0.  1.
          2   -1    0    0  501    0  0.00000000000E+00 -0.00000000000E+00 -0.19081777214E+04  0.19081777214E+04  0.00000000000E+00 0. -1.
         23    2    1    2    0    0 -0.14968224450E+03  0.39570711081E+03 -0.18101477816E+03  0.47282424661E+03  0.10866244248E+03 0.  0.
        254    2    1    2    0    0  0.14968224450E+03 -0.39570711081E+03 -0.14653342278E+04  0.16971821903E+04  0.74446900263E+03 0.  0.
        -24    2    4    4    0    0 -0.22657735045E+03  0.41689577915E+02 -0.24689666973E+03  0.34678489949E+03  0.78908075286E+02 0.  0.
         24    2    4    4    0    0  0.37625959495E+03 -0.43739668873E+03 -0.12184375581E+04  0.13503972908E+04  0.78074412421E+02 0.  0.
         11    1    3    3    0    0 -0.36594350938E+02  0.62158700530E+02 -0.77179739512E+02  0.10563883170E+03  0.00000000000E+00 0. -1.
        -11    1    3    3    0    0 -0.11308789356E+03  0.33354841028E+03 -0.10383503865E+03  0.36718541491E+03  0.00000000000E+00 0.  1.
          4    1    6    6  502    0  0.57166890935E+02 -0.96844721361E+02 -0.18550211087E+03  0.21692852881E+03  0.00000000000E+00 0. -1.
          3    1    5    5  503    0 -0.20579867748E+02  0.11211907518E+02 -0.69107622033E+02  0.72973291345E+02  0.00000000000E+00 0. -1.
         -4    1    5    5    0  503 -0.20599748270E+03  0.30477670397E+02 -0.17778904769E+03  0.27381160814E+03  0.00000000000E+00 0.  1.
         -3    1    6    6    0  502  0.31909270401E+03 -0.34055196737E+03 -0.10329354472E+04  0.11334687620E+04  0.00000000000E+00 0.  1.
<mgrwt>
<rscale>  0 0.14136700E+04</rscale>
<asrwt>0</asrwt>
<pdfrwt beam="1">  1        2 0.29356581E+00 0.14136700E+04</pdfrwt>
<pdfrwt beam="2">  1       -2 0.40281340E-01 0.14136700E+04</pdfrwt>
<totfact> 0.42635540E+01</totfact>
</mgrwt>
</event>
<event>
12    1  0.1562393E-007  0.1219631E+04  0.7818608E-02  0.9095845E-01
          1   -1    0    0  501    0  0.00000000000E+00  0.00000000000E+00  0.98941756599E+03  0.98941756599E+03  0.00000000000E+00 0. -1.
         -1   -1    0    0    0  501 -0.00000000000E+00 -0.00000000000E+00 -0.37585262803E+03  0.37585262803E+03  0.00000000000E+00 0.  1.
         23    2    1    2    0    0  0.67927614821E+02  0.23402487150E+03  0.31132236688E+03  0.40712073291E+03  0.97179595145E+02 0.  0.
        254    2    1    2    0    0 -0.67927614821E+02 -0.23402487150E+03  0.30224257108E+03  0.95814946111E+03  0.87596690389E+03 0.  0.
        -24    2    4    4    0    0 -0.67099171319E+02  0.22088524500E+02 -0.28983875728E+03  0.30889188308E+03  0.80109228578E+02 0.  0.
         24    2    4    4    0    0 -0.82844350291E+00 -0.25611339600E+03  0.59208132836E+03  0.64925757803E+03  0.73350837107E+02 0.  0.
         11    1    3    3    0    0  0.21040260101E+02  0.51933030002E+01  0.61028804017E+02  0.64762472629E+02  0.00000000000E+00 0.  1.
        -11    1    3    3    0    0  0.46887354720E+02  0.22883156850E+03  0.25029356286E+03  0.34235826028E+03  0.00000000000E+00 0. -1.
          2    1    6    6  502    0  0.29091228811E+02 -0.63064401487E+02  0.18835401706E+03  0.20075022807E+03  0.00000000000E+00 0. -1.
          1    1    5    5  503    0 -0.41775469067E+02  0.34418253432E+01 -0.42972464116E+02  0.60030564296E+02  0.00000000000E+00 0. -1.
         -2    1    5    5    0  503 -0.25323702251E+02  0.18646699157E+02 -0.24686629316E+03  0.24886131878E+03  0.00000000000E+00 0.  1.
         -1    1    6    6    0  502 -0.29919672314E+02 -0.19304899452E+03  0.40372731130E+03  0.44850734996E+03  0.00000000000E+00 0.  1.
<mgrwt>
<rscale>  0 0.12196314E+04</rscale>
<asrwt>0</asrwt>
<pdfrwt beam="1">  1        1 0.15221809E+00 0.12196314E+04</pdfrwt>
<pdfrwt beam="2">  1       -1 0.57823482E-01 0.12196314E+04</pdfrwt>
<totfact> 0.46179791E+01</totfact>
</mgrwt>
</event>
<event>
12    1  0.1562393E-007  0.1966039E+04  0.7818608E-02  0.8622665E-01
          1   -1    0    0  501    0  0.00000000000E+00  0.00000000000E+00  0.28049519720E+04  0.28049519720E+04  0.00000000000E+00 0. -1.
         -1   -1    0    0    0  501 -0.00000000000E+00 -0.00000000000E+00 -0.34450763231E+03  0.34450763231E+03  0.00000000000E+00 0.  1.
         23    2    1    2    0    0 -0.19762838525E+03 -0.74375967616E+03  0.81556059001E+03  0.11248635135E+04  0.89125829207E+02 0.  0.
        254    2    1    2    0    0  0.19762838525E+03  0.74375967616E+03  0.16448837497E+04  0.20245960908E+04  0.89504823695E+03 0.  0.
        -24    2    4    4    0    0 -0.40896045843E+01 -0.26837745706E+02  0.98117641726E+03  0.98489875215E+03  0.81125832661E+02 0.  0.
         24    2    4    4    0    0  0.20171798984E+03  0.77059742187E+03  0.66370733240E+03  0.10396973387E+04  0.77153087594E+02 0.  0.
         11    1    3    3    0    0 -0.64932886887E+02 -0.22554703147E+03  0.31002045122E+03  0.38884498631E+03  0.00000000000E+00 0. -1.
        -11    1    3    3    0    0 -0.13269549836E+03 -0.51821264469E+03  0.50554013879E+03  0.73601852717E+03  0.00000000000E+00 0.  1.
          2    1    6    6  502    0  0.16034545324E+03  0.70081683240E+03  0.60393529544E+03  0.93893170040E+03  0.00000000000E+00 0. -1.
          1    1    5    5  503    0 -0.14701947605E+02 -0.10454156179E+02  0.92924017173E+03  0.92941526424E+03  0.00000000000E+00 0. -1.
         -2    1    5    5    0  503  0.10612343021E+02 -0.16383589527E+02  0.51936245536E+02  0.55483487909E+02  0.00000000000E+00 0.  1.
         -1    1    6    6    0  502  0.41372536592E+02  0.69780589472E+02  0.59772036966E+02  0.10076563826E+03  0.00000000000E+00 0.  1.
<mgrwt>
<rscale>  0 0.19660390E+04</rscale>
<asrwt>0</asrwt>
<pdfrwt beam="1">  1        1 0.43153106E+00 0.19660390E+04</pdfrwt>
<pdfrwt beam="2">  1       -1 0.53001176E-01 0.19660390E+04</pdfrwt>
<totfact> 0.27642480E+00</totfact>
</mgrwt>
</event>
<event>
12    1  0.1562393E-007  0.1008315E+04  0.7818608E-02  0.9299472E-01
          2   -1    0    0  501    0  0.00000000000E+00  0.00000000000E+00  0.27444800935E+04  0.27444800935E+04  0.00000000000E+00 0.  1.
         -2   -1    0    0    0  501 -0.00000000000E+00 -0.00000000000E+00 -0.92613009276E+02  0.92613009276E+02  0.00000000000E+00 0. -1.
         23    2    1    2    0    0  0.91486368573E+02  0.66300682064E+02  0.41730944497E+03  0.44292335967E+03  0.96272496591E+02 0.  0.
        254    2    1    2    0    0 -0.91486368573E+02 -0.66300682064E+02  0.22345576393E+04  0.23941697431E+04  0.85207709721E+03 0.  0.
        -24    2    4    4    0    0 -0.23007238394E+03  0.96515288781E+02  0.15983551250E+03  0.30706178395E+03  0.80567023562E+02 0.  0.
         24    2    4    4    0    0  0.13858601537E+03 -0.16281597085E+03  0.20747221268E+04  0.20871079592E+04  0.76371499418E+02 0.  0.
         11    1    3    3    0    0  0.10597789893E+03  0.63318967507E+02  0.29596596149E+03  0.32068123904E+03  0.00000000000E+00 0.  1.
        -11    1    3    3    0    0 -0.14491530355E+02  0.29817145570E+01  0.12134348348E+03  0.12224212063E+03  0.00000000000E+00 0. -1.
          2    1    6    6  502    0  0.95815926792E+02 -0.12018689808E+03  0.17561077433E+04  0.17628215986E+04  0.00000000000E+00 0. -1.
          1    1    5    5  503    0 -0.13114070746E+03  0.14042563957E+02  0.64496035976E+02  0.14681558982E+03  0.00000000000E+00 0. -1.
         -2    1    5    5    0  503 -0.98931676479E+02  0.82472724824E+02  0.95339476523E+02  0.16024619413E+03  0.00000000000E+00 0.  1.
         -1    1    6    6    0  502  0.42770088576E+02 -0.42629072764E+02  0.31861438342E+03  0.32428636056E+03  0.00000000000E+00 0.  1.
<mgrwt>
<rscale>  0 0.10083146E+04</rscale>
<asrwt>0</asrwt>
<pdfrwt beam="1">  1        2 0.42222764E+00 0.10083146E+04</pdfrwt>
<pdfrwt beam="2">  1       -2 0.14248157E-01 0.10083146E+04</pdfrwt>
<totfact> 0.97148557E+01</totfact>
</mgrwt>
</event>
<event>
12    1  0.1562393E-007  0.1942499E+04  0.7818608E-02  0.8633987E-01
         -2   -1    0    0    0  501 -0.00000000000E+00  0.00000000000E+00  0.38931071539E+03  0.38931071539E+03  0.00000000000E+00 0.  1.
          2   -1    0    0  501    0  0.00000000000E+00 -0.00000000000E+00 -0.24230650292E+04  0.24230650292E+04  0.00000000000E+00 0. -1.
         23    2    1    2    0    0  0.71719090090E+03  0.15150597728E+03 -0.48236116034E+03  0.88156884342E+03  0.84702344659E+02 0.  0.
        254    2    1    2    0    0 -0.71719090090E+03 -0.15150597728E+03 -0.15513931534E+04  0.19308069011E+04  0.88536869353E+03 0.  0.
        -24    2    4    4    0    0 -0.88537047753E+03 -0.47856909153E+01 -0.10477261964E+04  0.13740774340E+04  0.80341935021E+02 0.  0.
         24    2    4    4    0    0  0.16817957663E+03 -0.14672028637E+03 -0.50366695698E+03  0.55672946716E+03  0.80349758078E+02 0.  0.
         13    1    3    3    0    0  0.68098955899E+03  0.13832498409E+03 -0.43226882894E+03  0.81837456042E+03  0.00000000000E+00 0.  1.
        -13    1    3    3    0    0  0.36201341912E+02  0.13180993194E+02 -0.50092331403E+02  0.63194282994E+02  0.00000000000E+00 0. -1.
          4    1    6    6  502    0  0.17139435394E+03 -0.15252990733E+03 -0.47792500871E+03  0.53014499068E+03  0.00000000000E+00 0. -1.
          1    1    5    5  503    0 -0.78507931934E+03 -0.27096310563E+02 -0.90803414762E+03  0.12006705464E+04  0.00000000000E+00 0. -1.
         -2    1    5    5    0  503 -0.10029115818E+03  0.22310619648E+02 -0.13969204882E+03  0.17340688759E+03  0.00000000000E+00 0.  1.
         -3    1    6    6    0  502 -0.32147773158E+01  0.58096209603E+01 -0.25741948273E+02  0.26584476482E+02  0.00000000000E+00 0.  1.
<mgrwt>
<rscale>  0 0.19424986E+04</rscale>
<asrwt>0</asrwt>
<pdfrwt beam="1">  1        2 0.37277924E+00 0.19424986E+04</pdfrwt>
<pdfrwt beam="2">  1       -2 0.59893956E-01 0.19424986E+04</pdfrwt>
<totfact> 0.93613807E+00</totfact>
</mgrwt>
</event>
<event>
12    1  0.1562393E-007  0.1291616E+04  0.7818608E-02  0.9036240E-01
          2   -1    0    0  501    0  0.00000000000E+00  0.00000000000E+00  0.45656550484E+03  0.45656550484E+03  0.00000000000E+00 0. -1.
         -2   -1    0    0    0  501 -0.00000000000E+00 -0.00000000000E+00 -0.91349058541E+03  0.91349058541E+03  0.00000000000E+00 0.  1.
         23    2    1    2    0    0  0.99613474068E+02 -0.22550073532E+03 -0.36567967487E+03  0.45046086153E+03  0.91760216382E+02 0.  0.
        254    2    1    2    0    0 -0.99613474068E+02  0.22550073532E+03 -0.91245405707E+02  0.91959522872E+03  0.88122428177E+03 0.  0.
        -24    2    4    4    0    0 -0.29637129552E+03 -0.18163671570E+02  0.28843963392E+03  0.42119270138E+03  0.77717472354E+02 0.  0.
         24    2    4    4    0    0  0.19675782145E+03  0.24366440689E+03 -0.37968503962E+03  0.49840252734E+03  0.78475260186E+02 0.  0.
         11    1    3    3    0    0  0.90863873450E+02 -0.12698050288E+03 -0.16762111169E+03  0.22907887003E+03  0.00000000000E+00 0.  1.
        -11    1    3    3    0    0  0.87496006183E+01 -0.98520232437E+02 -0.19805856318E+03  0.22138199150E+03  0.00000000000E+00 0. -1.
          2    1    6    6  502    0  0.20279121015E+03  0.23830124756E+03 -0.37690113719E+03  0.48986347763E+03  0.00000000000E+00 0. -1.
          1    1    5    5  503    0 -0.26573505013E+03  0.50824225240E+01  0.23141131791E+03  0.35240906053E+03  0.00000000000E+00 0. -1.
         -2    1    5    5    0  503 -0.30636245391E+02 -0.23246094094E+02  0.57028316007E+02  0.68783640853E+02  0.00000000000E+00 0.  1.
         -1    1    6    6    0  502 -0.60333886987E+01  0.53631593313E+01 -0.27839024302E+01  0.85390497096E+01  0.00000000000E+00 0.  1.
<mgrwt>
<rscale>  0 0.12916165E+04</rscale>
<asrwt>0</asrwt>
<pdfrwt beam="1">  1        2 0.70240847E-01 0.12916165E+04</pdfrwt>
<pdfrwt beam="2">  1       -2 0.14053701E+00 0.12916165E+04</pdfrwt>
<totfact> 0.23836016E+01</totfact>
</mgrwt>
</event>
<event>
12    1  0.1562393E-007  0.1441218E+04  0.7818608E-02  0.8924512E-01
          2   -1    0    0  501    0  0.00000000000E+00  0.00000000000E+00  0.14017460987E+04  0.14017460987E+04  0.00000000000E+00 0. -1.
         -2   -1    0    0    0  501 -0.00000000000E+00 -0.00000000000E+00 -0.37045041852E+03  0.37045041852E+03  0.00000000000E+00 0.  1.
         23    2    1    2    0    0 -0.31234895910E+03 -0.15089982520E+02 -0.61128384665E+02  0.33105393537E+03  0.89835677159E+02 0.  0.
        254    2    1    2    0    0  0.31234895910E+03  0.15089982520E+02  0.10924240648E+04  0.14411425818E+04  0.88640398461E+03 0.  0.
        -24    2    4    4    0    0 -0.98480466862E+02  0.32076980956E+03  0.17328986424E+03  0.38594047867E+03  0.79555030933E+02 0.  0.
         24    2    4    4    0    0  0.41082942596E+03 -0.30567982704E+03  0.91913420059E+03  0.10552021032E+04  0.80142535072E+02 0.  0.
         11    1    3    3    0    0 -0.29457311186E+03 -0.34210696311E+01 -0.77035437055E+02  0.30449873647E+03  0.00000000000E+00 0.  1.
        -11    1    3    3    0    0 -0.17775847240E+02 -0.11668912889E+02  0.15907052390E+02  0.26555198904E+02  0.00000000000E+00 0. -1.
          4    1    6    6  502    0  0.18750593787E+03 -0.15509938568E+03  0.51415546234E+03  0.56883225615E+03  0.00000000000E+00 0. -1.
          1    1    5    5  503    0 -0.33546422176E+02  0.12779714298E+03  0.11228263235E+03  0.17339221932E+03  0.00000000000E+00 0. -1.
         -2    1    5    5    0  503 -0.64934044687E+02  0.19297266659E+03  0.61007231888E+02  0.21254825935E+03  0.00000000000E+00 0.  1.
         -3    1    6    6    0  502  0.22332348809E+03 -0.15058044137E+03  0.40497873824E+03  0.48636984701E+03  0.00000000000E+00 0.  1.
<mgrwt>
<rscale>  0 0.14412181E+04</rscale>
<asrwt>0</asrwt>
<pdfrwt beam="1">  1        2 0.21565324E+00 0.14412181E+04</pdfrwt>
<pdfrwt beam="2">  1       -2 0.56992373E-01 0.14412181E+04</pdfrwt>
<totfact> 0.40430724E+01</totfact>
</mgrwt>
</event>
<event>
12    1  0.1562393E-007  0.1417706E+04  0.7818608E-02  0.8941101E-01
          1   -1    0    0  501    0  0.00000000000E+00  0.00000000000E+00  0.28776686486E+04  0.28776686486E+04  0.00000000000E+00 0. -1.
         -1   -1    0    0    0  501 -0.00000000000E+00 -0.00000000000E+00 -0.17461110399E+03  0.17461110399E+03  0.00000000000E+00 0.  1.
         23    2    1    2    0    0  0.14335220437E+03 -0.38079473875E+03  0.78192103705E+03  0.88610322069E+03  0.90685842155E+02 0.  0.
        254    2    1    2    0    0 -0.14335220437E+03  0.38079473875E+03  0.19211365076E+04  0.21661765319E+04  0.91433079305E+03 0.  0.
        -24    2    4    4    0    0  0.13608569993E+03 -0.24447826846E+03  0.38588993377E+03  0.48319013342E+03  0.79200521299E+02 0.  0.
         24    2    4    4    0    0 -0.27943790430E+03  0.62527300721E+03  0.15352465738E+04  0.16829863985E+04  0.80058099073E+02 0.  0.
         11    1    3    3    0    0 -0.88934347695E+01 -0.32162154798E+02  0.38125454004E+02  0.50666040168E+02  0.00000000000E+00 0.  1.
        -11    1    3    3    0    0  0.15224563914E+03 -0.34863258395E+03  0.74379558305E+03  0.83543718052E+03  0.00000000000E+00 0. -1.
          2    1    6    6  502    0 -0.12830271653E+03  0.38363511886E+03  0.89732981568E+03  0.98429583440E+03  0.00000000000E+00 0. -1.
          1    1    5    5  503    0  0.49251701944E+02 -0.14673449866E+03  0.25423903145E+03  0.29764782605E+03  0.00000000000E+00 0. -1.
         -2    1    5    5    0  503  0.86833997988E+02 -0.97743769800E+02  0.13165090232E+03  0.18554230737E+03  0.00000000000E+00 0.  1.
         -1    1    6    6    0  502 -0.15113518776E+03  0.24163788835E+03  0.63791675811E+03  0.69869056409E+03  0.00000000000E+00 0.  1.
<mgrwt>
<rscale>  0 0.14177065E+04</rscale>
<asrwt>0</asrwt>
<pdfrwt beam="1">  1        1 0.44271822E+00 0.14177065E+04</pdfrwt>
<pdfrwt beam="2">  1       -1 0.26863249E-01 0.14177065E+04</pdfrwt>
<totfact> 0.88896365E+00</totfact>
</mgrwt>
</event>
<event>
12    1  0.1562393E-007  0.1142164E+04  0.7818608E-02  0.9165044E-01
         -2   -1    0    0    0  501 -0.00000000000E+00  0.00000000000E+00  0.30046103120E+03  0.30046103120E+03  0.00000000000E+00 0.  1.
          2   -1    0    0  501    0  0.00000000000E+00 -0.00000000000E+00 -0.10854467068E+04  0.10854467068E+04  0.00000000000E+00 0. -1.
         23    2    1    2    0    0  0.15207328708E+03  0.49847919474E+02 -0.81067379683E+01  0.18403566932E+03  0.90511373124E+02 0.  0.
        254    2    1    2    0    0 -0.15207328708E+03 -0.49847919474E+02 -0.77687893765E+03  0.12018720687E+04  0.90296427728E+03 0.  0.
        -24    2    4    4    0    0 -0.40990216985E+03 -0.26671908169E+03 -0.21127919991E+03  0.53886175666E+03  0.81081656938E+02 0.  0.
         24    2    4    4    0    0  0.25782888277E+03  0.21687116222E+03 -0.56559973774E+03  0.66301031204E+03  0.78554291698E+02 0.  0.
         11    1    3    3    0    0  0.66801854854E+02  0.12022568533E+02 -0.47426894749E+02  0.82803021150E+02  0.00000000000E+00 0. -1.
        -11    1    3    3    0    0  0.85271432221E+02  0.37825350941E+02  0.39320156780E+02  0.10123264817E+03  0.00000000000E+00 0.  1.
          2    1    6    6  502    0  0.58316557402E+02  0.60966263036E+02 -0.84831198796E+02  0.11964129047E+03  0.00000000000E+00 0. -1.
          3    1    5    5  503    0 -0.16661563255E+03 -0.79289136024E+02 -0.11316342940E+03  0.21645668817E+03  0.00000000000E+00 0. -1.
         -4    1    5    5    0  503 -0.24328653730E+03 -0.18742994567E+03 -0.98115770513E+02  0.32240506849E+03  0.00000000000E+00 0.  1.
         -1    1    6    6    0  502  0.19951232537E+03  0.15590489918E+03 -0.48076853894E+03  0.54336902157E+03  0.00000000000E+00 0.  1.
<mgrwt>
<rscale>  0 0.11421636E+04</rscale>
<asrwt>0</asrwt>
<pdfrwt beam="1">  1        2 0.16699180E+00 0.11421636E+04</pdfrwt>
<pdfrwt beam="2">  1       -2 0.46224775E-01 0.11421636E+04</pdfrwt>
<totfact> 0.97708077E+01</totfact>
</mgrwt>
</event>
<event>
12    1  0.1562393E-007  0.3151421E+04  0.7818608E-02  0.8201766E-01
         -2   -1    0    0    0  501 -0.00000000000E+00  0.00000000000E+00  0.16496307883E+04  0.16496307883E+04  0.00000000000E+00 0.  1.
          2   -1    0    0  501    0  0.00000000000E+00 -0.00000000000E+00 -0.15051022049E+04  0.15051022049E+04  0.00000000000E+00 0. -1.
         23    2    1    2    0    0  0.61261008980E+03 -0.46832431842E+03 -0.11505655984E+04  0.13882985439E+04  0.94619561281E+02 0.  0.
        254    2    1    2    0    0 -0.61261008980E+03  0.46832431842E+03  0.12950941819E+04  0.17664344493E+04  0.92108790802E+03 0.  0.
        -24    2    4    4    0    0 -0.71227016785E+03  0.53203110112E+03  0.13463782307E+04  0.16153818549E+04  0.79613519282E+02 0.  0.
         24    2    4    4    0    0  0.99660078046E+02 -0.63706782696E+02 -0.51284048834E+02  0.15105259437E+03  0.78715610170E+02 0.  0.
         11    1    3    3    0    0  0.85224267690E+02 -0.37309695763E+02 -0.17954325230E+03  0.20221515435E+03  0.00000000000E+00 0.  1.
        -11    1    3    3    0    0  0.52738582211E+03 -0.43101462266E+03 -0.97102234613E+03  0.11860833896E+04  0.00000000000E+00 0. -1.
          4    1    6    6  502    0  0.39689181359E+02 -0.10085708902E+02 -0.57245844064E+02  0.70384936625E+02  0.00000000000E+00 0. -1.
          3    1    5    5  503    0 -0.20941259505E+03  0.17008212318E+03  0.47357869290E+03  0.54503058810E+03  0.00000000000E+00 0. -1.
         -4    1    5    5    0  503 -0.50285757280E+03  0.36194897794E+03  0.87279953781E+03  0.10703512668E+04  0.00000000000E+00 0.  1.
         -3    1    6    6    0  502  0.59970896687E+02 -0.53621073794E+02  0.59617952301E+01  0.80667657749E+02  0.00000000000E+00 0.  1.
<mgrwt>
<rscale>  0 0.31514206E+04</rscale>
<asrwt>0</asrwt>
<pdfrwt beam="1">  1        2 0.23155418E+00 0.31514206E+04</pdfrwt>
<pdfrwt beam="2">  1       -2 0.25378935E+00 0.31514206E+04</pdfrwt>
<totfact> 0.64930900E-01</totfact>
</mgrwt>
</event>
<event>
12    1  0.2317299E-007  0.2465302E+04  0.7818608E-02  0.8415452E-01
          2   -1    0    0  501    0  0.00000000000E+00  0.00000000000E+00  0.21860796096E+04  0.21860796096E+04  0.00000000000E+00 0.  1.
         -2   -1    0    0    0  501 -0.00000000000E+00 -0.00000000000E+00 -0.69504723090E+03  0.69504723090E+03  0.00000000000E+00 0. -1.
         23    2    1    2    0    0  0.68897494912E+03 -0.56750139591E+03  0.13237183691E+04  0.15992843377E+04  0.93465272397E+02 0.  0.
        254    2    1    2    0    0 -0.68897494912E+03  0.56750139591E+03  0.16731400957E+03  0.12818425028E+04  0.90464463149E+03 0.  0.
        -24    2    4    4    0    0 -0.74191724232E+03  0.19137396842E+03  0.35766052983E+03  0.84971715304E+03  0.83862955671E+02 0.  0.
         24    2    4    4    0    0  0.52942293198E+02  0.37612742749E+03 -0.19034652026E+03  0.43212534975E+03  0.78903688146E+02 0.  0.
         13    1    3    3    0    0  0.67837029853E+03 -0.55110829112E+03  0.12663460168E+04  0.15386808781E+04  0.00000000000E+00 0.  1.
        -13    1    3    3    0    0  0.10604650589E+02 -0.16393104784E+02  0.57372352318E+02  0.60603459547E+02  0.00000000000E+00 0. -1.
          2    1    6    6  502    0  0.35855687056E+02  0.23851144183E+03 -0.16210760404E+03  0.29060663012E+03  0.00000000000E+00 0. -1.
          1    1    5    5  503    0 -0.71926267391E+03  0.19953190103E+03  0.35030943948E+03  0.82454137373E+03  0.00000000000E+00 0. -1.
         -2    1    5    5    0  503 -0.22654568414E+02 -0.81579326136E+01  0.73510903456E+01  0.25175779309E+02  0.00000000000E+00 0.  1.
         -1    1    6    6    0  502  0.17086606143E+02  0.13761598566E+03 -0.28238916218E+02  0.14151871964E+03  0.00000000000E+00 0.  1.
<mgrwt>
<rscale>  0 0.24653021E+04</rscale>
<asrwt>0</asrwt>
<pdfrwt beam="1">  1        2 0.33631994E+00 0.24653021E+04</pdfrwt>
<pdfrwt beam="2">  1       -2 0.10693034E+00 0.24653021E+04</pdfrwt>
<totfact> 0.33081898E+00</totfact>
</mgrwt>
</event>
<event>
12    1  0.1562393E-007  0.1206881E+04  0.7818608E-02  0.9106855E-01
         -1   -1    0    0    0  501 -0.00000000000E+00  0.00000000000E+00  0.33646853093E+03  0.33646853093E+03  0.00000000000E+00 0.  1.
          1   -1    0    0  501    0  0.00000000000E+00 -0.00000000000E+00 -0.10822428935E+04  0.10822428935E+04  0.00000000000E+00 0. -1.
         23    2    1    2    0    0 -0.74488122911E+02 -0.13840666574E+03  0.69107306223E+02  0.20012008671E+03  0.10279758633E+03 0.  0.
        254    2    1    2    0    0  0.74488122911E+02  0.13840666574E+03 -0.81488166875E+03  0.12185913377E+04  0.89231599147E+03 0.  0.
        -24    2    4    4    0    0  0.13279251052E+03  0.41850680520E+03 -0.80300260713E+03  0.91866504230E+03  0.79689874107E+02 0.  0.
         24    2    4    4    0    0 -0.58304387609E+02 -0.28010013946E+03 -0.11879061620E+02  0.29992629539E+03  0.89214241121E+02 0.  0.
         13    1    3    3    0    0 -0.83822133402E+02 -0.12634781622E+03  0.88412742657E+02  0.17551847132E+03  0.00000000000E+00 0.  1.
        -13    1    3    3    0    0  0.93340104910E+01 -0.12058849517E+02 -0.19305436433E+02  0.24601615382E+02  0.00000000000E+00 0. -1.
          4    1    6    6  502    0 -0.22703725566E+02 -0.25303608908E+03 -0.18470891633E+02  0.25472317399E+03  0.00000000000E+00 0. -1.
          1    1    5    5  503    0  0.11584679573E+03  0.26056585972E+03 -0.47052094417E+03  0.55018633774E+03  0.00000000000E+00 0. -1.
         -2    1    5    5    0  503  0.16945714790E+02  0.15794094547E+03 -0.33248166296E+03  0.36847870455E+03  0.00000000000E+00 0.  1.
         -3    1    6    6    0  502 -0.35600662043E+02 -0.27064050385E+02  0.65918300134E+01  0.45203121397E+02  0.00000000000E+00 0.  1.
<mgrwt>
<rscale>  0 0.12068814E+04</rscale>
<asrwt>0</asrwt>
<pdfrwt beam="1">  1        1 0.16649891E+00 0.12068814E+04</pdfrwt>
<pdfrwt beam="2">  1       -1 0.51764390E-01 0.12068814E+04</pdfrwt>
<totfact> 0.48579503E+01</totfact>
</mgrwt>
</event>
<event>
12    1  0.1562393E-007  0.2149892E+04  0.7818608E-02  0.8539578E-01
          2   -1    0    0  501    0  0.00000000000E+00  0.00000000000E+00  0.70471130490E+03  0.70471130490E+03  0.00000000000E+00 0. -1.
         -2   -1    0    0    0  501 -0.00000000000E+00 -0.00000000000E+00 -0.16396916315E+04  0.16396916315E+04  0.00000000000E+00 0.  1.
         23    2    1    2    0    0 -0.68646900216E+03 -0.52687753487E+03 -0.53753995565E+03  0.10230982146E+04  0.94557522956E+02 0.  0.
        254    2    1    2    0    0  0.68646900216E+03  0.52687753487E+03 -0.39744037096E+03  0.13213047218E+04  0.91599546489E+03 0.  0.
        -24    2    4    4    0    0  0.20169874929E+03 -0.19828152942E+03 -0.32990383940E+03  0.44198491015E+03  0.80722779804E+02 0.  0.
         24    2    4    4    0    0  0.48477025288E+03  0.72515906429E+03 -0.67536531561E+02  0.87931981165E+03  0.88228575141E+02 0.  0.
         11    1    3    3    0    0 -0.12054687992E+03 -0.11880942329E+03 -0.69604016823E+02  0.18300805578E+03  0.00000000000E+00 0. -1.
        -11    1    3    3    0    0 -0.56592212224E+03 -0.40806811158E+03 -0.46793593882E+03  0.84009015883E+03  0.00000000000E+00 0.  1.
          4    1    6    6  502    0  0.19472812862E+03  0.32064554384E+03 -0.69705642224E+02  0.38156452327E+03  0.00000000000E+00 0. -1.
          3    1    5    5  503    0  0.24615801757E+02 -0.29647142316E+02 -0.10911157128E+02  0.40049270824E+02  0.00000000000E+00 0. -1.
         -4    1    5    5    0  503  0.17708294753E+03 -0.16863438710E+03 -0.31899268227E+03  0.40193563933E+03  0.00000000000E+00 0.  1.
         -3    1    6    6    0  502  0.29004212426E+03  0.40451352044E+03  0.21691106636E+01  0.49775528838E+03  0.00000000000E+00 0.  1.
<mgrwt>
<rscale>  0 0.21498923E+04</rscale>
<asrwt>0</asrwt>
<pdfrwt beam="1">  1        2 0.10841712E+00 0.21498923E+04</pdfrwt>
<pdfrwt beam="2">  1       -2 0.25226025E+00 0.21498923E+04</pdfrwt>
<totfact> 0.23201670E+00</totfact>
</mgrwt>
</event>
<event>
12    1  0.1562393E-007  0.1566103E+04  0.7818608E-02  0.8841647E-01
         -2   -1    0    0    0  501 -0.00000000000E+00  0.00000000000E+00  0.52758435634E+03  0.52758435634E+03  0.00000000000E+00 0.  1.
          2   -1    0    0  501    0  0.00000000000E+00 -0.00000000000E+00 -0.11622212476E+04  0.11622212476E+04  0.00000000000E+00 0. -1.
         23    2    1    2    0    0  0.17549221260E+03 -0.14719206517E+03 -0.71046863504E+03  0.75258320993E+03  0.95670192642E+02 0.  0.
        254    2    1    2    0    0 -0.17549221260E+03  0.14719206517E+03  0.75831743779E+02  0.93722239401E+03  0.90563366862E+03 0.  0.
        -24    2    4    4    0    0  0.12795498012E+03 -0.32859148173E+03 -0.78936995995E+01  0.36113453635E+03  0.77530665208E+02 0.  0.
         24    2    4    4    0    0 -0.30344719272E+03  0.47578354690E+03  0.83725443379E+02  0.57608785765E+03  0.80106726262E+02 0.  0.
         11    1    3    3    0    0  0.15022831906E+03 -0.14112374499E+03 -0.68806943441E+03  0.71827850157E+03  0.00000000000E+00 0. -1.
        -11    1    3    3    0    0  0.25263893545E+02 -0.60683201783E+01 -0.22399200630E+02  0.34304708361E+02  0.00000000000E+00 0.  1.
          2    1    6    6  502    0 -0.84723774445E+00 -0.22769565647E+01 -0.28236124959E+01  0.37249336263E+01  0.00000000000E+00 0. -1.
          1    1    5    5  503    0 -0.50507167776E+01 -0.34293600506E+02  0.14116074595E+02  0.37427587921E+02  0.00000000000E+00 0. -1.
         -2    1    5    5    0  503  0.13300569690E+03 -0.29429788123E+03 -0.22009774195E+02  0.32370694843E+03  0.00000000000E+00 0.  1.
         -1    1    6    6    0  502 -0.30259995498E+03  0.47806050347E+03  0.86549055875E+02  0.57236292403E+03  0.00000000000E+00 0.  1.
<mgrwt>
<rscale>  0 0.15661031E+04</rscale>
<asrwt>0</asrwt>
<pdfrwt beam="1">  1        2 0.17880327E+00 0.15661031E+04</pdfrwt>
<pdfrwt beam="2">  1       -2 0.81166825E-01 0.15661031E+04</pdfrwt>
<totfact> 0.25676354E+01</totfact>
</mgrwt>
</event>
<event>
12    1  0.1562393E-007  0.1776158E+04  0.7818608E-02  0.8719082E-01
         -1   -1    0    0    0  501 -0.00000000000E+00  0.00000000000E+00  0.66264611893E+03  0.66264611893E+03  0.00000000000E+00 0.  1.
          1   -1    0    0  501    0  0.00000000000E+00 -0.00000000000E+00 -0.11902046507E+04  0.11902046507E+04  0.00000000000E+00 0. -1.
         23    2    1    2    0    0  0.48306936644E+03  0.42581490975E+03 -0.31525850104E+03  0.72302863056E+03  0.93317350851E+02 0.  0.
        254    2    1    2    0    0 -0.48306936644E+03 -0.42581490975E+03 -0.21230003072E+03  0.11298221391E+04  0.90374355472E+03 0.  0.
        -24    2    4    4    0    0 -0.34270936115E+03  0.17881316881E+03  0.13164210824E+03  0.41560852814E+03  0.77310726561E+02 0.  0.
         24    2    4    4    0    0 -0.14036000529E+03 -0.60462807856E+03 -0.34394213895E+03  0.71421361092E+03  0.80801253712E+02 0.  0.
         11    1    3    3    0    0  0.48042019974E+03  0.42939946898E+03 -0.31716707496E+03  0.71817993965E+03  0.00000000000E+00 0. -1.
        -11    1    3    3    0    0  0.26491666983E+01 -0.35845592295E+01  0.19085739232E+01  0.48486909043E+01  0.00000000000E+00 0.  1.
          4    1    6    6  502    0 -0.77304288092E+02 -0.29460638471E+03 -0.21377027355E+03  0.37211101129E+03  0.00000000000E+00 0. -1.
          1    1    5    5  503    0 -0.14557772932E+03  0.85246992346E+02  0.18220573851E+02  0.16968180306E+03  0.00000000000E+00 0. -1.
         -2    1    5    5    0  503 -0.19713163183E+03  0.93566176462E+02  0.11342153439E+03  0.24592672508E+03  0.00000000000E+00 0.  1.
         -3    1    6    6    0  502 -0.63055717199E+02 -0.31002169385E+03 -0.13017186541E+03  0.34210259963E+03  0.00000000000E+00 0.  1.
<mgrwt>
<rscale>  0 0.17761582E+04</rscale>
<asrwt>0</asrwt>
<pdfrwt beam="1">  1        1 0.18310841E+00 0.17761582E+04</pdfrwt>
<pdfrwt beam="2">  1       -1 0.10194556E+00 0.17761582E+04</pdfrwt>
<totfact> 0.93666658E+00</totfact>
</mgrwt>
</event>
<event>
12    1  0.1562393E-007  0.2016566E+04  0.7818608E-02  0.8598915E-01
          1   -1    0    0  501    0  0.00000000000E+00  0.00000000000E+00  0.10551745472E+04  0.10551745472E+04  0.00000000000E+00 0. -1.
         -1   -1    0    0    0  501 -0.00000000000E+00 -0.00000000000E+00 -0.96347492936E+03  0.96347492936E+03  0.00000000000E+00 0.  1.
         23    2    1    2    0    0  0.60756387414E+03  0.19169211734E+03 -0.45080506755E+03  0.78574335996E+03  0.91036749683E+02 0.  0.
        254    2    1    2    0    0 -0.60756387414E+03 -0.19169211734E+03  0.54250468543E+03  0.12329061166E+04  0.90546475896E+03 0.  0.
        -24    2    4    4    0    0 -0.54530694493E+03  0.21883056936E+03  0.55223619609E+03  0.81032673281E+03  0.80113141081E+02 0.  0.
         24    2    4    4    0    0 -0.62256929211E+02 -0.41052268670E+03 -0.97315106562E+01  0.42257938382E+03  0.77934791989E+02 0.  0.
         11    1    3    3    0    0  0.22672690678E+03  0.26078065159E+02 -0.15530428381E+03  0.27605176383E+03  0.00000000000E+00 0.  1.
        -11    1    3    3    0    0  0.38083696736E+03  0.16561405218E+03 -0.29550078373E+03  0.50969159614E+03  0.00000000000E+00 0. -1.
          2    1    6    6  502    0 -0.59314084696E+02 -0.28634861731E+03  0.25314620202E+02  0.29352090432E+03  0.00000000000E+00 0. -1.
          1    1    5    5  503    0 -0.27414509078E+03  0.15042209344E+03  0.27249773210E+03  0.41477385525E+03  0.00000000000E+00 0. -1.
         -2    1    5    5    0  503 -0.27116185414E+03  0.68408475923E+02  0.27973846398E+03  0.39555287757E+03  0.00000000000E+00 0.  1.
         -1    1    6    6    0  502 -0.29428445151E+01 -0.12417406939E+03 -0.35046130858E+02  0.12905847950E+03  0.00000000000E+00 0.  1.
<mgrwt>
<rscale>  0 0.20165656E+04</rscale>
<asrwt>0</asrwt>
<pdfrwt beam="1">  1        1 0.16233455E+00 0.20165656E+04</pdfrwt>
<pdfrwt beam="2">  1       -1 0.14822691E+00 0.20165656E+04</pdfrwt>
<totfact> 0.45767129E+00</totfact>
</mgrwt>
</event>
<event>
12    1  0.1562393E-007  0.2516391E+04  0.7818608E-02  0.8397169E-01
         -1   -1    0    0    0  501 -0.00000000000E+00  0.00000000000E+00  0.10940656797E+04  0.10940656797E+04  0.00000000000E+00 0.  1.
          1   -1    0    0  501    0  0.00000000000E+00 -0.00000000000E+00 -0.14469478774E+04  0.14469478774E+04  0.00000000000E+00 0. -1.
         23    2    1    2    0    0  0.90756587573E+03  0.99316167978E+01  0.46541327888E+03  0.10239290286E+04  0.89703286218E+02 0.  0.
        254    2    1    2    0    0 -0.90756587573E+03 -0.99316167978E+01 -0.81829547655E+03  0.15170845285E+04  0.89897915661E+03 0.  0.
        -24    2    4    4    0    0 -0.28454816512E+03 -0.33830337417E+03 -0.64774120198E+03  0.78789169181E+03  0.76077736794E+02 0.  0.
         24    2    4    4    0    0 -0.62301771060E+03  0.32837175737E+03 -0.17055427457E+03  0.72919283673E+03  0.81574222667E+02 0.  0.
         13    1    3    3    0    0  0.11885924207E+03 -0.25313151541E+02  0.45954304824E+02  0.12992333585E+03  0.00000000000E+00 0. -1.
        -13    1    3    3    0    0  0.78870663366E+03  0.35244768339E+02  0.41945897405E+03  0.89400569270E+03  0.00000000000E+00 0.  1.
          4    1    6    6  502    0 -0.25577954095E+03  0.16489337228E+03 -0.10483439773E+03  0.32187458542E+03  0.00000000000E+00 0. -1.
          1    1    5    5  503    0 -0.90534375678E+02 -0.10996502530E+03 -0.14949147669E+03  0.20648603239E+03  0.00000000000E+00 0. -1.
         -4    1    5    5    0  503 -0.19401378944E+03 -0.22833834887E+03 -0.49824972529E+03  0.58140565942E+03  0.00000000000E+00 0.  1.
         -3    1    6    6    0  502 -0.36723816965E+03  0.16347838509E+03 -0.65719876838E+02  0.40731825132E+03  0.00000000000E+00 0.  1.
<mgrwt>
<rscale>  0 0.25163911E+04</rscale>
<asrwt>0</asrwt>
<pdfrwt beam="1">  1        1 0.22260736E+00 0.25163911E+04</pdfrwt>
<pdfrwt beam="2">  1       -1 0.16831780E+00 0.25163911E+04</pdfrwt>
<totfact> 0.15999197E+00</totfact>
</mgrwt>
</event>
<event>
12    1  0.1562393E-007  0.1462144E+04  0.7818608E-02  0.8910025E-01
         -2   -1    0    0    0  501 -0.00000000000E+00  0.00000000000E+00  0.41059753510E+03  0.41059753510E+03  0.00000000000E+00 0.  1.
          2   -1    0    0  501    0  0.00000000000E+00 -0.00000000000E+00 -0.13016783894E+04  0.13016783894E+04  0.00000000000E+00 0. -1.
         23    2    1    2    0    0  0.79045274074E+02  0.26358960471E+03 -0.68950141399E+03  0.74828041091E+03  0.93721600464E+02 0.  0.
        254    2    1    2    0    0 -0.79045274074E+02 -0.26358960471E+03 -0.20157944027E+03  0.96399551355E+03  0.90162378204E+03 0.  0.
        -24    2    4    4    0    0 -0.38571753476E+01 -0.23067488535E+03  0.33550349715E+03  0.41487634214E+03  0.79586444419E+02 0.  0.
         24    2    4    4    0    0 -0.75188098726E+02 -0.32914719368E+02 -0.53708293743E+03  0.54911917141E+03  0.79606242191E+02 0.  0.
         13    1    3    3    0    0  0.10063595607E+03  0.20803058598E+03 -0.54588098453E+03  0.59278189044E+03  0.00000000000E+00 0. -1.
        -13    1    3    3    0    0 -0.21590681998E+02  0.55559018732E+02 -0.14362042946E+03  0.15549852048E+03  0.00000000000E+00 0.  1.
          4    1    6    6  502    0 -0.40718522899E+02  0.36380374512E+01 -0.41631307558E+03  0.41831544357E+03  0.00000000000E+00 0. -1.
          1    1    5    5  503    0 -0.22325307230E+02 -0.18442842495E+03  0.30297596103E+03  0.35539653380E+03  0.00000000000E+00 0. -1.
         -2    1    5    5    0  503  0.18468131882E+02 -0.46246460394E+02  0.32527536119E+02  0.59479808340E+02  0.00000000000E+00 0.  1.
         -3    1    6    6    0  502 -0.34469575827E+02 -0.36552756819E+02 -0.12076986184E+03  0.13080372785E+03  0.00000000000E+00 0.  1.
<mgrwt>
<rscale>  0 0.14621435E+04</rscale>
<asrwt>0</asrwt>
<pdfrwt beam="1">  1        2 0.20025822E+00 0.14621435E+04</pdfrwt>
<pdfrwt beam="2">  1       -2 0.63168851E-01 0.14621435E+04</pdfrwt>
<totfact> 0.37095231E+01</totfact>
</mgrwt>
</event>
<event>
12    1  0.1562393E-007  0.2206737E+04  0.7818608E-02  0.8515629E-01
          2   -1    0    0  501    0  0.00000000000E+00  0.00000000000E+00  0.24300158447E+04  0.24300158447E+04  0.00000000000E+00 0. -1.
         -2   -1    0    0    0  501 -0.00000000000E+00 -0.00000000000E+00 -0.50099357858E+03  0.50099357858E+03  0.00000000000E+00 0.  1.
         23    2    1    2    0    0  0.63231512996E+03 -0.10129768963E+03  0.16900397105E+04  0.18094712704E+04  0.88704058976E+02 0.  0.
        254    2    1    2    0    0 -0.63231512996E+03  0.10129768963E+03  0.23898255565E+03  0.11215381528E+04  0.88918587531E+03 0.  0.
        -24    2    4    4    0    0 -0.67665835571E+03  0.39103764763E+03  0.22645156393E+03  0.81772042150E+03  0.81298245529E+02 0.  0.
         24    2    4    4    0    0  0.44343225742E+02 -0.28973995801E+03  0.12530991719E+02  0.30381773133E+03  0.78946964359E+02 0.  0.
         13    1    3    3    0    0  0.31084542293E+02 -0.19210435627E+02  0.61287383029E+02  0.71354277553E+02  0.00000000000E+00 0.  1.
        -13    1    3    3    0    0  0.60123058767E+03 -0.82087254000E+02  0.16287523274E+04  0.17381169929E+04  0.00000000000E+00 0. -1.
          4    1    6    6  502    0  0.16766482366E+02 -0.12676691931E+03 -0.33599344628E+02  0.13221150752E+03  0.00000000000E+00 0. -1.
          3    1    5    5  503    0 -0.46382836775E+03  0.30863083919E+03  0.17223808516E+03  0.58314295641E+03  0.00000000000E+00 0. -1.
         -4    1    5    5    0  503 -0.21282998796E+03  0.82406808447E+02  0.54213478768E+02  0.23457746510E+03  0.00000000000E+00 0.  1.
         -3    1    6    6    0  502  0.27576743376E+02 -0.16297303870E+03  0.46130336347E+02  0.17160622380E+03  0.00000000000E+00 0.  1.
<mgrwt>
<rscale>  0 0.22067373E+04</rscale>
<asrwt>0</asrwt>
<pdfrwt beam="1">  1        2 0.37384859E+00 0.22067373E+04</pdfrwt>
<pdfrwt beam="2">  1       -2 0.77075936E-01 0.22067373E+04</pdfrwt>
<totfact> 0.52448788E+00</totfact>
</mgrwt>
</event>
<event>
12    1  0.1562393E-007  0.1879181E+04  0.7818608E-02  0.8665289E-01
         -1   -1    0    0    0  501 -0.00000000000E+00  0.00000000000E+00  0.38874822579E+03  0.38874822579E+03  0.00000000000E+00 0.  1.
          1   -1    0    0  501    0  0.00000000000E+00 -0.00000000000E+00 -0.22709566342E+04  0.22709566342E+04  0.00000000000E+00 0. -1.
         23    2    1    2    0    0 -0.19605279304E+03 -0.59686026906E+03 -0.23133412363E+03  0.67308216395E+03  0.69607788495E+02 0.  0.
        254    2    1    2    0    0  0.19605279304E+03  0.59686026906E+03 -0.16508742847E+04  0.19866226960E+04  0.90917817495E+03 0.  0.
        -24    2    4    4    0    0 -0.34779866521E+03  0.15599330133E+03 -0.72688410111E+03  0.82453621902E+03  0.78750609134E+02 0.  0.
         24    2    4    4    0    0  0.54385145825E+03  0.44086696773E+03 -0.92399018363E+03  0.11620864770E+04  0.80926069201E+02 0.  0.
         13    1    3    3    0    0 -0.45338641401E+02 -0.65599335805E+02 -0.33414972909E+02  0.86460544046E+02  0.00000000000E+00 0. -1.
        -13    1    3    3    0    0 -0.15071415164E+03 -0.53126093326E+03 -0.19791915072E+03  0.58662161990E+03  0.00000000000E+00 0.  1.
          2    1    6    6  502    0  0.41409289464E+03  0.33624159181E+03 -0.64383902944E+03  0.83609809788E+03  0.00000000000E+00 0. -1.
          1    1    5    5  503    0 -0.34175141153E+03  0.16345573927E+03 -0.69916737980E+03  0.79520238364E+03  0.00000000000E+00 0. -1.
         -2    1    5    5    0  503 -0.60472536736E+01 -0.74624379386E+01 -0.27716721317E+02  0.29333835370E+02  0.00000000000E+00 0.  1.
         -1    1    6    6    0  502  0.12975856361E+03  0.10462537593E+03 -0.28015115420E+03  0.32598837911E+03  0.00000000000E+00 0.  1.
<mgrwt>
<rscale>  0 0.18791811E+04</rscale>
<asrwt>0</asrwt>
<pdfrwt beam="1">  1        1 0.34937795E+00 0.18791811E+04</pdfrwt>
<pdfrwt beam="2">  1       -1 0.59807418E-01 0.18791811E+04</pdfrwt>
<totfact> 0.51781521E+00</totfact>
</mgrwt>
</event>
<event>
12    1  0.1562393E-007  0.1634865E+04  0.7818608E-02  0.8799411E-01
          1   -1    0    0  501    0  0.00000000000E+00  0.00000000000E+00  0.45280175584E+03  0.45280175584E+03  0.00000000000E+00 0. -1.
         -1   -1    0    0    0  501 -0.00000000000E+00 -0.00000000000E+00 -0.14756927849E+04  0.14756927849E+04  0.00000000000E+00 0.  1.
         23    2    1    2    0    0  0.82498826399E+02  0.28869679903E+03 -0.93091317091E+03  0.98327165017E+03  0.10035889660E+03 0.  0.
        254    2    1    2    0    0 -0.82498826399E+02 -0.28869679903E+03 -0.91977858186E+02  0.94522289061E+03  0.89153490589E+03 0.  0.
        -24    2    4    4    0    0  0.26393359765E+03  0.13284246370E+03  0.15265506912E+03  0.34192841529E+03  0.79393998068E+02 0.  0.
         24    2    4    4    0    0 -0.34643242405E+03 -0.42153926273E+03 -0.24463292730E+03  0.60329447532E+03  0.80051111041E+02 0.  0.
         11    1    3    3    0    0  0.87734095635E+02  0.23820461739E+03 -0.65002297603E+03  0.69783134112E+03  0.00000000000E+00 0.  1.
        -11    1    3    3    0    0 -0.52352692353E+01  0.50492181645E+02 -0.28089019488E+03  0.28544030905E+03  0.00000000000E+00 0. -1.
          2    1    6    6  502    0 -0.27453378882E+03 -0.37579103118E+03 -0.19430291389E+03  0.50432263747E+03  0.00000000000E+00 0. -1.
          1    1    5    5  503    0  0.20780733948E+03  0.10020557398E+03  0.79267453405E+02  0.24394338804E+03  0.00000000000E+00 0. -1.
         -2    1    5    5    0  503  0.56126258170E+02  0.32636889716E+02  0.73387615711E+02  0.97985027256E+02  0.00000000000E+00 0.  1.
         -1    1    6    6    0  502 -0.71898635221E+02 -0.45748231549E+02 -0.50330013417E+02  0.98971837849E+02  0.00000000000E+00 0.  1.
<mgrwt>
<rscale>  0 0.16348655E+04</rscale>
<asrwt>0</asrwt>
<pdfrwt beam="1">  1        1 0.69661809E-01 0.16348655E+04</pdfrwt>
<pdfrwt beam="2">  1       -1 0.22702966E+00 0.16348655E+04</pdfrwt>
<totfact> 0.47985255E+00</totfact>
</mgrwt>
</event>
<event>
12    1  0.1562393E-007  0.1618924E+04  0.7818608E-02  0.8809006E-01
          1   -1    0    0  501    0  0.00000000000E+00  0.00000000000E+00  0.88974286050E+03  0.88974286050E+03  0.00000000000E+00 0. -1.
         -1   -1    0    0    0  501 -0.00000000000E+00 -0.00000000000E+00 -0.73642443464E+03  0.73642443464E+03  0.00000000000E+00 0.  1.
         23    2    1    2    0    0  0.30931597435E+03  0.72496065818E+02  0.52431169536E+03  0.62017827458E+03  0.93735195217E+02 0.  0.
        254    2    1    2    0    0 -0.30931597435E+03 -0.72496065818E+02 -0.37099326949E+03  0.10059890206E+04  0.87945770333E+03 0.  0.
        -24    2    4    4    0    0  0.59090665131E+02 -0.40564318742E+03 -0.85584432138E+02  0.42672507420E+03  0.82045668507E+02 0.  0.
         24    2    4    4    0    0 -0.36840663948E+03  0.33314712160E+03 -0.28540883735E+03  0.57926394636E+03  0.85895625477E+02 0.  0.
         11    1    3    3    0    0  0.25952922479E+03  0.73915684693E+02  0.36946686822E+03  0.45752017844E+03  0.00000000000E+00 0. -1.
        -11    1    3    3    0    0  0.49786749559E+02 -0.14196188745E+01  0.15484482713E+03  0.16265809614E+03  0.00000000000E+00 0.  1.
          2    1    6    6  502    0 -0.68051111337E+02  0.80765619746E+02 -0.99614069807E+02  0.14517920647E+03  0.00000000000E+00 0. -1.
          1    1    5    5  503    0 -0.98854275758E+01 -0.45425444015E+02 -0.31114280939E+02  0.55940067220E+02  0.00000000000E+00 0. -1.
         -2    1    5    5    0  503  0.68976092706E+02 -0.36021774340E+03 -0.54470151199E+02  0.37078500698E+03  0.00000000000E+00 0.  1.
         -1    1    6    6    0  502 -0.30035552814E+03  0.25238150186E+03 -0.18579476755E+03  0.43408473990E+03  0.00000000000E+00 0.  1.
<mgrwt>
<rscale>  0 0.16189236E+04</rscale>
<asrwt>0</asrwt>
<pdfrwt beam="1">  1        1 0.13688352E+00 0.16189236E+04</pdfrwt>
<pdfrwt beam="2">  1       -1 0.11329607E+00 0.16189236E+04</pdfrwt>
<totfact> 0.12649006E+01</totfact>
</mgrwt>
</event>
<event>
12    1  0.1562393E-007  0.2381183E+04  0.7818608E-02  0.8446582E-01
         -2   -1    0    0    0  501 -0.00000000000E+00  0.00000000000E+00  0.95508509491E+03  0.95508509491E+03  0.00000000000E+00 0.  1.
          2   -1    0    0  501    0  0.00000000000E+00 -0.00000000000E+00 -0.14841698184E+04  0.14841698184E+04  0.00000000000E+00 0. -1.
         23    2    1    2    0    0  0.70616758502E+03  0.15200399472E+03  0.51140834909E+03  0.88967228726E+03  0.90556096682E+02 0.  0.
        254    2    1    2    0    0 -0.70616758502E+03 -0.15200399472E+03 -0.10404930726E+04  0.15495826261E+04  0.89263800520E+03 0.  0.
        -24    2    4    4    0    0  0.53433317401E+02 -0.30568949080E+03 -0.52177815000E+03  0.61363769631E+03  0.89429303432E+02 0.  0.
         24    2    4    4    0    0 -0.75960090243E+03  0.15368549609E+03 -0.51871492259E+03  0.93594492976E+03  0.79466835473E+02 0.  0.
         11    1    3    3    0    0  0.14117174624E+03  0.62010678616E+02  0.84466287318E+02  0.17581052270E+03  0.00000000000E+00 0. -1.
        -11    1    3    3    0    0  0.56499583878E+03  0.89993316101E+02  0.42694206177E+03  0.71386176456E+03  0.00000000000E+00 0.  1.
          4    1    6    6  502    0 -0.90476462689E+02 -0.55746696488E+01 -0.48996446771E+02  0.10304231674E+03  0.00000000000E+00 0. -1.
          3    1    5    5  503    0  0.11375497361E+02  0.24140145362E+01 -0.13889937300E+02  0.18115180502E+02  0.00000000000E+00 0. -1.
         -4    1    5    5    0  503  0.42057820040E+02 -0.30810350534E+03 -0.50788821270E+03  0.59552251580E+03  0.00000000000E+00 0.  1.
         -1    1    6    6    0  502 -0.66912443974E+03  0.15926016574E+03 -0.46971847582E+03  0.83290261302E+03  0.00000000000E+00 0.  1.
<mgrwt>
<rscale>  0 0.23811833E+04</rscale>
<asrwt>0</asrwt>
<pdfrwt beam="1">  1        2 0.22833382E+00 0.23811833E+04</pdfrwt>
<pdfrwt beam="2">  1       -2 0.14693617E+00 0.23811833E+04</pdfrwt>
<totfact> 0.36935493E+00</totfact>
</mgrwt>
</event>
<event>
12    1  0.1562393E-007  0.1478345E+04  0.7818608E-02  0.8898982E-01
          3   -1    0    0  501    0  0.00000000000E+00  0.00000000000E+00  0.67545785742E+03  0.67545785742E+03  0.00000000000E+00 0. -1.
         -3   -1    0    0    0  501 -0.00000000000E+00 -0.00000000000E+00 -0.80889716206E+03  0.80889716206E+03  0.00000000000E+00 0.  1.
         23    2    1    2    0    0 -0.36554372089E+03 -0.26203685982E+03  0.45177112695E+02  0.46090662702E+03  0.90046763000E+02 0.  0.
        254    2    1    2    0    0  0.36554372089E+03  0.26203685982E+03 -0.17861641733E+03  0.10234483925E+04  0.90180777315E+03 0.  0.
        -24    2    4    4    0    0  0.15406546626E+03 -0.47705726247E-01 -0.51338105302E+03  0.54200963231E+03  0.80487053287E+02 0.  0.
         24    2    4    4    0    0  0.21147825463E+03  0.26208456555E+03  0.33476463569E+03  0.48143876016E+03  0.79401176280E+02 0.  0.
         13    1    3    3    0    0 -0.68186979332E+02 -0.89744829631E+02  0.31238547852E+02  0.11695916154E+03  0.00000000000E+00 0.  1.
        -13    1    3    3    0    0 -0.29735674156E+03 -0.17229203019E+03  0.13938564843E+02  0.34394746548E+03  0.00000000000E+00 0. -1.
          2    1    6    6  502    0  0.10474809471E+03  0.17732373364E+03  0.23536299715E+03  0.31274847767E+03  0.00000000000E+00 0. -1.
          1    1    5    5  503    0  0.55444161215E+02 -0.20187016549E+02 -0.96172477779E+02  0.11283047519E+03  0.00000000000E+00 0. -1.
         -2    1    5    5    0  503  0.98621305048E+02  0.20139310823E+02 -0.41720857524E+03  0.42917915712E+03  0.00000000000E+00 0.  1.
         -1    1    6    6    0  502  0.10673015991E+03  0.84760831914E+02  0.99401638537E+02  0.16869028249E+03  0.00000000000E+00 0.  1.
<mgrwt>
<rscale>  0 0.14783449E+04</rscale>
<asrwt>0</asrwt>
<pdfrwt beam="1">  1        3 0.10391659E+00 0.14783449E+04</pdfrwt>
<pdfrwt beam="2">  1       -3 0.12444572E+00 0.14783449E+04</pdfrwt>
<totfact> 0.10477339E+00</totfact>
</mgrwt>
</event>
<event>
12    1  0.1562393E-007  0.2010434E+04  0.7818608E-02  0.8601758E-01
          1   -1    0    0  501    0  0.00000000000E+00  0.00000000000E+00  0.31966537935E+03  0.31966537935E+03  0.00000000000E+00 0. -1.
         -1   -1    0    0    0  501 -0.00000000000E+00 -0.00000000000E+00 -0.31609971943E+04  0.31609971943E+04  0.00000000000E+00 0.  1.
         23    2    1    2    0    0 -0.10904622304E+03 -0.73932343703E+03 -0.16423316790E+04  0.18064500426E+04  0.86707492814E+02 0.  0.
        254    2    1    2    0    0  0.10904622304E+03  0.73932343703E+03 -0.11990001359E+04  0.16742125310E+04  0.89827392802E+03 0.  0.
        -24    2    4    4    0    0 -0.19914892780E+03  0.47917613322E+03 -0.14665805310E+03  0.54434650715E+03  0.74394040171E+02 0.  0.
         24    2    4    4    0    0  0.30819515084E+03  0.26014730381E+03 -0.10523420828E+04  0.11298660239E+04  0.80700073926E+02 0.  0.
         11    1    3    3    0    0 -0.10598308385E+03 -0.64922585794E+03 -0.13734097479E+04  0.15228200696E+04  0.00000000000E+00 0.  1.
        -11    1    3    3    0    0 -0.30631391836E+01 -0.90097579094E+02 -0.26892193104E+03  0.28362997298E+03  0.00000000000E+00 0. -1.
          4    1    6    6  502    0  0.84490019375E+02  0.58905398120E+02 -0.37112165630E+03  0.38514892325E+03  0.00000000000E+00 0. -1.
          3    1    5    5  503    0 -0.57910118130E+02  0.23599040412E+03 -0.67509520513E+02  0.25219553521E+03  0.00000000000E+00 0. -1.
         -4    1    5    5    0  503 -0.14123880967E+03  0.24318572910E+03 -0.79148532590E+02  0.29215097194E+03  0.00000000000E+00 0.  1.
         -3    1    6    6    0  502  0.22370513146E+03  0.20124190569E+03 -0.68122042653E+03  0.74471710063E+03  0.00000000000E+00 0.  1.
<mgrwt>
<rscale>  0 0.20104341E+04</rscale>
<asrwt>0</asrwt>
<pdfrwt beam="1">  1        1 0.49179288E-01 0.20104341E+04</pdfrwt>
<pdfrwt beam="2">  1       -1 0.48630727E+00 0.20104341E+04</pdfrwt>
<totfact> 0.13672876E-01</totfact>
</mgrwt>
</event>
<event>
12    1  0.1562393E-007  0.1801017E+04  0.7818608E-02  0.8705759E-01
          2   -1    0    0  501    0  0.00000000000E+00  0.00000000000E+00  0.18318271402E+04  0.18318271402E+04  0.00000000000E+00 0.  1.
         -2   -1    0    0    0  501 -0.00000000000E+00 -0.00000000000E+00 -0.44268138053E+03  0.44268138053E+03  0.00000000000E+00 0. -1.
         23    2    1    2    0    0  0.17996570687E+03  0.53911428260E+03  0.75015679752E+02  0.57920404803E+03  0.82571857732E+02 0.  0.
        254    2    1    2    0    0 -0.17996570687E+03 -0.53911428260E+03  0.13141300799E+04  0.16953044727E+04  0.90779266513E+03 0.  0.
        -24    2    4    4    0    0  0.10257002241E+03 -0.71582475134E+03  0.85089696545E+03  0.11198281946E+04  0.84046745755E+02 0.  0.
         24    2    4    4    0    0 -0.28253572927E+03  0.17671046873E+03  0.46323311448E+03  0.57547627812E+03  0.74397582278E+02 0.  0.
         11    1    3    3    0    0  0.15157111157E+02  0.85800315499E+02  0.39174805201E+02  0.95530610387E+02  0.00000000000E+00 0. -1.
        -11    1    3    3    0    0  0.16480859571E+03  0.45331396710E+03  0.35840874551E+02  0.48367343764E+03  0.00000000000E+00 0.  1.
          2    1    6    6  502    0 -0.14535722127E+03  0.50022914064E+02  0.18742200998E+03  0.24240054359E+03  0.00000000000E+00 0. -1.
          3    1    5    5  503    0  0.10748171858E+03 -0.47343446726E+03  0.57538980316E+03  0.75283858841E+03  0.00000000000E+00 0. -1.
         -4    1    5    5    0  503 -0.49116961700E+01 -0.24239028407E+03  0.27550716229E+03  0.36698960618E+03  0.00000000000E+00 0.  1.
         -1    1    6    6    0  502 -0.13717850800E+03  0.12668755467E+03  0.27581110451E+03  0.33307573453E+03  0.00000000000E+00 0.  1.
<mgrwt>
<rscale>  0 0.18010172E+04</rscale>
<asrwt>0</asrwt>
<pdfrwt beam="1">  1        2 0.28181956E+00 0.18010172E+04</pdfrwt>
<pdfrwt beam="2">  1       -2 0.68104829E-01 0.18010172E+04</pdfrwt>
<totfact> 0.15433166E+01</totfact>
</mgrwt>
</event>
<event>
12    1  0.1562393E-007  0.1276660E+04  0.7818608E-02  0.9048282E-01
          2   -1    0    0  501    0  0.00000000000E+00  0.00000000000E+00  0.25704523120E+04  0.25704523120E+04  0.00000000000E+00 0. -1.
         -2   -1    0    0    0  501 -0.00000000000E+00 -0.00000000000E+00 -0.15851886925E+03  0.15851886925E+03  0.00000000000E+00 0.  1.
         23    2    1    2    0    0  0.55962523733E+02 -0.24173390064E+03  0.98904463894E+03  0.10236467208E+04  0.89867838168E+02 0.  0.
        254    2    1    2    0    0 -0.55962523733E+02  0.24173390064E+03  0.14228888038E+04  0.17053244605E+04  0.90661562126E+03 0.  0.
        -24    2    4    4    0    0  0.30337050445E+03 -0.10314880722E+02  0.13440366009E+03  0.34170283857E+03  0.80971762375E+02 0.  0.
         24    2    4    4    0    0 -0.35933302819E+03  0.25204878136E+03  0.12884851437E+04  0.13636216219E+04  0.81370442024E+02 0.  0.
         11    1    3    3    0    0  0.43211206727E+02 -0.94977651681E+02  0.26570238694E+03  0.28545703903E+03  0.00000000000E+00 0.  1.
        -11    1    3    3    0    0  0.12751317006E+02 -0.14675624895E+03  0.72334225199E+03  0.73818968173E+03  0.00000000000E+00 0. -1.
          4    1    6    6  502    0 -0.33959574116E+03  0.24658324077E+03  0.11614717387E+04  0.12349676765E+04  0.00000000000E+00 0. -1.
          3    1    5    5  503    0  0.27659866076E+03 -0.19435694446E+02  0.94803353534E+02  0.29303965806E+03  0.00000000000E+00 0. -1.
         -4    1    5    5    0  503  0.26771843692E+02  0.91208137239E+01  0.39600306560E+02  0.48663180510E+02  0.00000000000E+00 0.  1.
         -3    1    6    6    0  502 -0.19737287031E+02  0.54655405892E+01  0.12701340498E+03  0.12865394544E+03  0.00000000000E+00 0.  1.
<mgrwt>
<rscale>  0 0.12766600E+04</rscale>
<asrwt>0</asrwt>
<pdfrwt beam="1">  1        2 0.39545417E+00 0.12766600E+04</pdfrwt>
<pdfrwt beam="2">  1       -2 0.24387520E-01 0.12766600E+04</pdfrwt>
<totfact> 0.46933253E+01</totfact>
</mgrwt>
</event>
<event>
12    1  0.1562393E-007  0.1252467E+04  0.7818608E-02  0.9068132E-01
          1   -1    0    0  501    0  0.00000000000E+00  0.00000000000E+00  0.24987248310E+04  0.24987248310E+04  0.00000000000E+00 0. -1.
         -1   -1    0    0    0  501 -0.00000000000E+00 -0.00000000000E+00 -0.15694742220E+03  0.15694742220E+03  0.00000000000E+00 0.  1.
         23    2    1    2    0    0  0.28721169097E+00 -0.26680465113E+03  0.75922020830E+03  0.80994523960E+03  0.91712387946E+02 0.  0.
        254    2    1    2    0    0 -0.28721169097E+00  0.26680465113E+03  0.15825572005E+04  0.18457270136E+04  0.91161182064E+03 0.  0.
        -24    2    4    4    0    0  0.71346615123E+02  0.58441992380E+03  0.81092232311E+03  0.10052724398E+04  0.79628370227E+02 0.  0.
         24    2    4    4    0    0 -0.71633826814E+02 -0.31761527266E+03  0.77163487736E+03  0.84045457374E+03  0.70232755887E+02 0.  0.
         13    1    3    3    0    0  0.25092068083E+02 -0.24280215556E+03  0.70075602109E+03  0.74205222169E+03  0.00000000000E+00 0. -1.
        -13    1    3    3    0    0 -0.24804856393E+02 -0.24002495577E+02  0.58464187208E+02  0.67893017907E+02  0.00000000000E+00 0.  1.
          2    1    6    6  502    0  0.25153187830E+00 -0.34498425898E+02  0.14553821732E+03  0.14957131195E+03  0.00000000000E+00 0. -1.
          3    1    5    5  503    0  0.18888297120E+02  0.20936610736E+02  0.37984118125E+02  0.47306475951E+02  0.00000000000E+00 0. -1.
         -4    1    5    5    0  503  0.52458318003E+02  0.56348331306E+03  0.77293820499E+03  0.95796596388E+03  0.00000000000E+00 0.  1.
         -1    1    6    6    0  502 -0.71885358693E+02 -0.28311684677E+03  0.62609666003E+03  0.69088326179E+03  0.00000000000E+00 0.  1.
<mgrwt>
<rscale>  0 0.12524670E+04</rscale>
<asrwt>0</asrwt>
<pdfrwt beam="1">  1        1 0.38441917E+00 0.12524670E+04</pdfrwt>
<pdfrwt beam="2">  1       -1 0.24145759E-01 0.12524670E+04</pdfrwt>
<totfact> 0.20006502E+01</totfact>
</mgrwt>
</event>
<event>
12    1  0.1562393E-007  0.1566060E+04  0.7818608E-02  0.8841674E-01
         -1   -1    0    0    0  501 -0.00000000000E+00  0.00000000000E+00  0.54890672732E+03  0.54890672732E+03  0.00000000000E+00 0.  1.
          1   -1    0    0  501    0  0.00000000000E+00 -0.00000000000E+00 -0.11170131186E+04  0.11170131186E+04  0.00000000000E+00 0. -1.
         23    2    1    2    0    0  0.15871184196E+03 -0.37896085634E+03  0.14805856932E+03  0.44599745202E+03  0.90507501607E+02 0.  0.
        254    2    1    2    0    0 -0.15871184196E+03  0.37896085634E+03 -0.71616496061E+03  0.12199223939E+04  0.89806325887E+03 0.  0.
        -24    2    4    4    0    0  0.18714065828E+03  0.53013358921E+03 -0.57589321785E+03  0.80856614790E+03  0.77865067825E+02 0.  0.
         24    2    4    4    0    0 -0.34585250024E+03 -0.15117273287E+03 -0.14027174276E+03  0.41135624600E+03  0.84087170379E+02 0.  0.
         13    1    3    3    0    0  0.94314124212E+02 -0.31815127343E+03  0.12364005283E+03  0.35412180034E+03  0.00000000000E+00 0.  1.
        -13    1    3    3    0    0  0.64397717751E+02 -0.60809582907E+02  0.24418516485E+02  0.91875651683E+02  0.00000000000E+00 0. -1.
          2    1    6    6  502    0 -0.33304922561E+03 -0.15676868703E+03 -0.14633926743E+03  0.39612294695E+03  0.00000000000E+00 0. -1.
          3    1    5    5  503    0  0.12727288212E+03  0.44894940175E+03 -0.46943046041E+03  0.66190551366E+03  0.00000000000E+00 0. -1.
         -4    1    5    5    0  503  0.59867776160E+02  0.81184187458E+02 -0.10646275743E+03  0.14666063424E+03  0.00000000000E+00 0.  1.
         -1    1    6    6    0  502 -0.12803274632E+02  0.55959541593E+01  0.60675246714E+01  0.15233299048E+02  0.00000000000E+00 0.  1.
<mgrwt>
<rscale>  0 0.15660600E+04</rscale>
<asrwt>0</asrwt>
<pdfrwt beam="1">  1        1 0.17184817E+00 0.15660600E+04</pdfrwt>
<pdfrwt beam="2">  1       -1 0.84447191E-01 0.15660600E+04</pdfrwt>
<totfact> 0.16450937E+01</totfact>
</mgrwt>
</event>
<event>
12    1  0.1562393E-007  0.4416956E+04  0.7818608E-02  0.7925339E-01
         -2   -1    0    0    0  501 -0.00000000000E+00  0.00000000000E+00  0.12687974045E+04  0.12687974045E+04  0.00000000000E+00 0.  1.
          2   -1    0    0  501    0  0.00000000000E+00 -0.00000000000E+00 -0.38440925840E+04  0.38440925840E+04  0.00000000000E+00 0. -1.
         23    2    1    2    0    0 -0.94058723591E+03 -0.18390589459E+04 -0.17613347036E+04  0.27161903701E+04  0.92455575907E+02 0.  0.
        254    2    1    2    0    0  0.94058723591E+03  0.18390589459E+04 -0.81396047584E+03  0.23966996184E+04  0.90266009641E+03 0.  0.
        -24    2    4    4    0    0  0.33669208221E+03  0.22202445593E+03 -0.48778958377E+03  0.63808796617E+03  0.81000970809E+02 0.  0.
         24    2    4    4    0    0  0.60389515370E+03  0.16170344900E+04 -0.32617089207E+03  0.17586116522E+04  0.82689745627E+02 0.  0.
         11    1    3    3    0    0 -0.81690730408E+03 -0.15642714056E+04 -0.14653682668E+04  0.22938148860E+04  0.00000000000E+00 0. -1.
        -11    1    3    3    0    0 -0.12367993183E+03 -0.27478754031E+03 -0.29596643684E+03  0.42237548411E+03  0.00000000000E+00 0.  1.
          2    1    6    6  502    0  0.31348622094E+03  0.89532367309E+03 -0.14234332411E+03  0.95923913193E+03  0.00000000000E+00 0. -1.
          1    1    5    5  503    0  0.28240289966E+02  0.37152474215E+01 -0.65380329343E+02  0.71315527802E+02  0.00000000000E+00 0. -1.
         -2    1    5    5    0  503  0.30845179225E+03  0.21830920851E+03 -0.42240925443E+03  0.56677243836E+03  0.00000000000E+00 0.  1.
         -1    1    6    6    0  502  0.29040893275E+03  0.72171081691E+03 -0.18382756796E+03  0.79937252030E+03  0.00000000000E+00 0.  1.
<mgrwt>
<rscale>  0 0.44169558E+04</rscale>
<asrwt>0</asrwt>
<pdfrwt beam="1">  1        2 0.59139886E+00 0.44169558E+04</pdfrwt>
<pdfrwt beam="2">  1       -2 0.19519960E+00 0.44169558E+04</pdfrwt>
<totfact> 0.49426644E-02</totfact>
</mgrwt>
</event>
<event>
12    1  0.1562393E-007  0.1241179E+04  0.7818608E-02  0.9077557E-01
         -2   -1    0    0    0  501 -0.00000000000E+00  0.00000000000E+00  0.34027314692E+03  0.34027314692E+03  0.00000000000E+00 0.  1.
          2   -1    0    0  501    0  0.00000000000E+00 -0.00000000000E+00 -0.11318290268E+04  0.11318290268E+04  0.00000000000E+00 0. -1.
         23    2    1    2    0    0  0.23900123698E+03  0.11163908816E+03 -0.33106836253E+03  0.43320677543E+03  0.92070474779E+02 0.  0.
        254    2    1    2    0    0 -0.23900123698E+03 -0.11163908816E+03 -0.46048751733E+03  0.10388953983E+04  0.89312374152E+03 0.  0.
        -24    2    4    4    0    0 -0.48572437223E+03 -0.11082698166E+03  0.62974755969E+01  0.50459487734E+03  0.79784374365E+02 0.  0.
         24    2    4    4    0    0  0.24672313525E+03 -0.81210650490E+00 -0.46678499293E+03  0.53430052094E+03  0.81950302426E+02 0.  0.
         11    1    3    3    0    0  0.38946943166E+02 -0.80044381339E+01 -0.20047163823E+02  0.44528914080E+02  0.00000000000E+00 0.  1.
        -11    1    3    3    0    0  0.20005429381E+03  0.11964352630E+03 -0.31102119871E+03  0.38867786135E+03  0.00000000000E+00 0. -1.
          4    1    6    6  502    0  0.32405231617E+02 -0.29408001348E+02 -0.79218162765E+02  0.90501087790E+02  0.00000000000E+00 0. -1.
          3    1    5    5  503    0 -0.16704055712E+02  0.19714983059E+01 -0.13838699796E+02  0.21781228038E+02  0.00000000000E+00 0. -1.
         -4    1    5    5    0  503 -0.46902031652E+03 -0.11279847996E+03  0.20136175393E+02  0.48281364930E+03  0.00000000000E+00 0.  1.
         -3    1    6    6    0  502  0.21431790363E+03  0.28595894843E+02 -0.38756683017E+03  0.44379943315E+03  0.00000000000E+00 0.  1.
<mgrwt>
<rscale>  0 0.12411785E+04</rscale>
<asrwt>0</asrwt>
<pdfrwt beam="1">  1        2 0.17412755E+00 0.12411785E+04</pdfrwt>
<pdfrwt beam="2">  1       -2 0.52349714E-01 0.12411785E+04</pdfrwt>
<totfact> 0.70571297E+01</totfact>
</mgrwt>
</event>
<event>
12    1  0.1562393E-007  0.2492659E+04  0.7818608E-02  0.8405605E-01
          2   -1    0    0  501    0  0.00000000000E+00  0.00000000000E+00  0.21220473758E+04  0.21220473758E+04  0.00000000000E+00 0. -1.
         -2   -1    0    0    0  501 -0.00000000000E+00 -0.00000000000E+00 -0.73199946755E+03  0.73199946755E+03  0.00000000000E+00 0.  1.
         23    2    1    2    0    0  0.13090351776E+03  0.10067884918E+04  0.17775125616E+03  0.10347470846E+04  0.91363131700E+02 0.  0.
        254    2    1    2    0    0 -0.13090351776E+03 -0.10067884918E+04  0.12122966521E+04  0.18192997588E+04  0.89968307837E+03 0.  0.
        -24    2    4    4    0    0  0.10841069600E+03 -0.14026632979E+03  0.80791139349E+03  0.83062299963E+03  0.76067243379E+02 0.  0.
         24    2    4    4    0    0 -0.23931421376E+03 -0.86652216198E+03  0.40438525861E+03  0.98867675916E+03  0.76304302631E+02 0.  0.
         13    1    3    3    0    0  0.57956682138E+02  0.37636837227E+03  0.22848776648E+02  0.38148944316E+03  0.00000000000E+00 0. -1.
        -13    1    3    3    0    0  0.72946835622E+02  0.63042011951E+03  0.15490247951E+03  0.65325764141E+03  0.00000000000E+00 0.  1.
          2    1    6    6  502    0 -0.19380876145E+03 -0.56829230734E+03  0.27539241199E+03  0.66057472188E+03  0.00000000000E+00 0. -1.
          3    1    5    5  503    0  0.64627331397E+02 -0.13249296967E+03  0.58220655422E+03  0.60057934592E+03  0.00000000000E+00 0. -1.
         -4    1    5    5    0  503  0.43783364600E+02 -0.77733601241E+01  0.22570483927E+03  0.23004365371E+03  0.00000000000E+00 0.  1.
         -1    1    6    6    0  502 -0.45505452309E+02 -0.29822985464E+03  0.12899284662E+03  0.32810203728E+03  0.00000000000E+00 0.  1.
<mgrwt>
<rscale>  0 0.24926593E+04</rscale>
<asrwt>0</asrwt>
<pdfrwt beam="1">  1        2 0.32646882E+00 0.24926593E+04</pdfrwt>
<pdfrwt beam="2">  1       -2 0.11261530E+00 0.24926593E+04</pdfrwt>
<totfact> 0.31627038E+00</totfact>
</mgrwt>
</event>
<event>
12    1  0.1562393E-007  0.1345877E+04  0.7818608E-02  0.8993955E-01
         -1   -1    0    0    0  501 -0.00000000000E+00  0.00000000000E+00  0.19940503338E+03  0.19940503338E+03  0.00000000000E+00 0.  1.
          1   -1    0    0  501    0  0.00000000000E+00 -0.00000000000E+00 -0.22709872467E+04  0.22709872467E+04  0.00000000000E+00 0. -1.
         23    2    1    2    0    0 -0.23196021920E+03 -0.21706823844E+03 -0.90311362956E+03  0.95985095748E+03  0.69104770088E+02 0.  0.
        254    2    1    2    0    0  0.23196021920E+03  0.21706823844E+03 -0.11684685838E+04  0.15105413226E+04  0.90304600803E+03 0.  0.
        -24    2    4    4    0    0 -0.15587203660E+03 -0.17167386082E+03 -0.81873726061E+03  0.85458212345E+03  0.78815591999E+02 0.  0.
         24    2    4    4    0    0  0.38783225580E+03  0.38874209926E+03 -0.34973132317E+03  0.65595919916E+03  0.80225894704E+02 0.  0.
         11    1    3    3    0    0 -0.45702014853E+02 -0.14727521280E+02 -0.99469983640E+02  0.11045293880E+03  0.00000000000E+00 0.  1.
        -11    1    3    3    0    0 -0.18625820434E+03 -0.20234071716E+03 -0.80364364592E+03  0.84939801868E+03  0.00000000000E+00 0. -1.
          4    1    6    6  502    0  0.27853632895E+03  0.30191802237E+03 -0.29633737637E+03  0.50651043366E+03  0.00000000000E+00 0. -1.
          3    1    5    5  503    0 -0.16324588411E+03 -0.15186642488E+03 -0.76527239403E+03  0.79709125371E+03  0.00000000000E+00 0. -1.
         -4    1    5    5    0  503  0.73738475063E+01 -0.19807435942E+02 -0.53464866580E+02  0.57490869745E+02  0.00000000000E+00 0.  1.
         -3    1    6    6    0  502  0.10929592684E+03  0.86824076890E+02 -0.53393946802E+02  0.14944876549E+03  0.00000000000E+00 0.  1.
<mgrwt>
<rscale>  0 0.13458771E+04</rscale>
<asrwt>0</asrwt>
<pdfrwt beam="1">  1        1 0.34938269E+00 0.13458771E+04</pdfrwt>
<pdfrwt beam="2">  1       -1 0.30677695E-01 0.13458771E+04</pdfrwt>
<totfact> 0.18761524E+01</totfact>
</mgrwt>
</event>
<event>
12    1  0.1562393E-007  0.2511815E+04  0.7818608E-02  0.8398788E-01
         -1   -1    0    0    0  501 -0.00000000000E+00  0.00000000000E+00  0.56633540827E+03  0.56633540827E+03  0.00000000000E+00 0.  1.
          1   -1    0    0  501    0  0.00000000000E+00 -0.00000000000E+00 -0.27851058757E+04  0.27851058757E+04  0.00000000000E+00 0. -1.
         23    2    1    2    0    0  0.57290099957E+03 -0.15903894013E+03  0.25668727759E+03  0.65282704631E+03  0.82376295871E+02 0.  0.
        254    2    1    2    0    0 -0.57290099957E+03  0.15903894013E+03 -0.24754577450E+04  0.26986142376E+04  0.89505240994E+03 0.  0.
        -24    2    4    4    0    0 -0.65791855447E+03 -0.17248921964E+03 -0.19471935882E+04  0.20640523008E+04  0.78356080260E+02 0.  0.
         24    2    4    4    0    0  0.85017554894E+02  0.33152815978E+03 -0.52826415683E+03  0.63456193686E+03  0.80417205644E+02 0.  0.
         11    1    3    3    0    0  0.32771000378E+03 -0.13174576004E+03  0.16190342763E+03  0.38854023182E+03  0.00000000000E+00 0.  1.
        -11    1    3    3    0    0  0.24519099579E+03 -0.27293180098E+02  0.94783849963E+02  0.26428681448E+03  0.00000000000E+00 0. -1.
          4    1    6    6  502    0 -0.95436625509E+01  0.66505840285E+01 -0.30884396677E+02  0.33002389624E+02  0.00000000000E+00 0. -1.
          3    1    5    5  503    0 -0.12640129317E+03 -0.35217330352E+01 -0.39055383982E+03  0.41051430099E+03  0.00000000000E+00 0. -1.
         -4    1    5    5    0  503 -0.53151726130E+03 -0.16896748661E+03 -0.15566397483E+04  0.16535379998E+04  0.00000000000E+00 0.  1.
         -3    1    6    6    0  502  0.94561217445E+02  0.32487757575E+03 -0.49737976015E+03  0.60155954724E+03  0.00000000000E+00 0.  1.
<mgrwt>
<rscale>  0 0.25118153E+04</rscale>
<asrwt>0</asrwt>
<pdfrwt beam="1">  1        1 0.42847782E+00 0.25118153E+04</pdfrwt>
<pdfrwt beam="2">  1       -1 0.87128527E-01 0.25118153E+04</pdfrwt>
<totfact> 0.98299081E-01</totfact>
</mgrwt>
</event>
<event>
12    1  0.1562393E-007  0.1948714E+04  0.7818608E-02  0.8630981E-01
          1   -1    0    0  501    0  0.00000000000E+00  0.00000000000E+00  0.27235541964E+04  0.27235541964E+04  0.00000000000E+00 0. -1.
         -1   -1    0    0    0  501 -0.00000000000E+00 -0.00000000000E+00 -0.34857829833E+03  0.34857829833E+03  0.00000000000E+00 0.  1.
         23    2    1    2    0    0 -0.38809394207E+03 -0.26824515236E+03  0.18952587928E+04  0.19548503709E+04  0.82835446593E+02 0.  0.
        254    2    1    2    0    0  0.38809394207E+03  0.26824515236E+03  0.47971710524E+03  0.11172821238E+04  0.89197448029E+03 0.  0.
        -24    2    4    4    0    0  0.53357977443E+03  0.46991746920E+03  0.21929094406E+03  0.74840739007E+03  0.80593422880E+02 0.  0.
         24    2    4    4    0    0 -0.14548583236E+03 -0.20167231684E+03  0.26042616118E+03  0.36887473374E+03  0.80055811604E+02 0.  0.
         11    1    3    3    0    0 -0.66697824507E+02 -0.87623080193E+02  0.41256381058E+03  0.42700737907E+03  0.00000000000E+00 0.  1.
        -11    1    3    3    0    0 -0.32139611757E+03 -0.18062207217E+03  0.14826949822E+04  0.15278429918E+04  0.00000000000E+00 0. -1.
          2    1    6    6  502    0 -0.14500330569E+03 -0.17084006791E+03  0.19706007902E+03  0.29840402512E+03  0.00000000000E+00 0. -1.
          3    1    5    5  503    0  0.52587354575E+03  0.44849140798E+03  0.20278457708E+03  0.72028405081E+03  0.00000000000E+00 0. -1.
         -4    1    5    5    0  503  0.77062286862E+01  0.21426061224E+02  0.16506366977E+02  0.28123339256E+02  0.00000000000E+00 0.  1.
         -1    1    6    6    0  502 -0.48252667400E+00 -0.30832248926E+02  0.63366082157E+02  0.70470708623E+02  0.00000000000E+00 0.  1.
<mgrwt>
<rscale>  0 0.19487143E+04</rscale>
<asrwt>0</asrwt>
<pdfrwt beam="1">  1        1 0.41900832E+00 0.19487143E+04</pdfrwt>
<pdfrwt beam="2">  1       -1 0.53627432E-01 0.19487143E+04</pdfrwt>
<totfact> 0.30914036E+00</totfact>
</mgrwt>
</event>
<event>
12    1  0.1562393E-007  0.1829527E+04  0.7818608E-02  0.8690753E-01
         -1   -1    0    0    0  501 -0.00000000000E+00  0.00000000000E+00  0.47116242278E+03  0.47116242278E+03  0.00000000000E+00 0.  1.
          1   -1    0    0  501    0  0.00000000000E+00 -0.00000000000E+00 -0.17760161458E+04  0.17760161458E+04  0.00000000000E+00 0. -1.
         23    2    1    2    0    0 -0.35541697547E+03 -0.19186088161E+02  0.23843184297E+03  0.43640372283E+03  0.83121195413E+02 0.  0.
        254    2    1    2    0    0  0.35541697547E+03  0.19186088161E+02 -0.15432855660E+04  0.18107748457E+04  0.87777324597E+03 0.  0.
        -24    2    4    4    0    0  0.28884598004E+03  0.38799678715E+03 -0.50876165890E+03  0.70756241354E+03  0.88502183374E+02 0.  0.
         24    2    4    4    0    0  0.66570995429E+02 -0.36881069899E+03 -0.10345239071E+04  0.11032124322E+04  0.79905738857E+02 0.  0.
         13    1    3    3    0    0 -0.33087908785E+03 -0.23473818954E+02  0.24284906872E+03  0.41110541365E+03  0.00000000000E+00 0.  1.
        -13    1    3    3    0    0 -0.24537887622E+02  0.42877307938E+01 -0.44172257475E+01  0.25298309185E+02  0.00000000000E+00 0. -1.
          4    1    6    6  502    0 -0.31121643535E+01 -0.47075134124E+02 -0.21350223002E+03  0.21865259213E+03  0.00000000000E+00 0. -1.
          1    1    5    5  503    0  0.33818810317E+02  0.10366598110E+03 -0.97184615142E+02  0.14606572832E+03  0.00000000000E+00 0. -1.
         -2    1    5    5    0  503  0.25502716972E+03  0.28433080605E+03 -0.41157704376E+03  0.56149668522E+03  0.00000000000E+00 0.  1.
         -3    1    6    6    0  502  0.69683159783E+02 -0.32173556486E+03 -0.82102167707E+03  0.88455984007E+03  0.00000000000E+00 0.  1.
<mgrwt>
<rscale>  0 0.18295268E+04</rscale>
<asrwt>0</asrwt>
<pdfrwt beam="1">  1        1 0.27323324E+00 0.18295268E+04</pdfrwt>
<pdfrwt beam="2">  1       -1 0.72486529E-01 0.18295268E+04</pdfrwt>
<totfact> 0.76423613E+00</totfact>
</mgrwt>
</event>
<event>
12    1  0.1562393E-007  0.2144413E+04  0.7818608E-02  0.8541928E-01
          1   -1    0    0  501    0  0.00000000000E+00  0.00000000000E+00  0.96702341964E+03  0.96702341964E+03  0.00000000000E+00 0. -1.
         -1   -1    0    0    0  501 -0.00000000000E+00 -0.00000000000E+00 -0.11888302878E+04  0.11888302878E+04  0.00000000000E+00 0.  1.
         23    2    1    2    0    0  0.59888756630E+03 -0.58507912625E+03  0.16209766417E+03  0.86061524078E+03  0.11575421764E+03 0.  0.
        254    2    1    2    0    0 -0.59888756630E+03  0.58507912625E+03 -0.38390453230E+03  0.12952384666E+04  0.91064597648E+03 0.  0.
        -24    2    4    4    0    0 -0.57430183760E+03  0.36431524369E+03  0.15918934875E+03  0.70326650977E+03  0.81818931558E+02 0.  0.
         24    2    4    4    0    0 -0.24585728706E+02  0.22076388256E+03 -0.54309388105E+03  0.59197195686E+03  0.78349755410E+02 0.  0.
         13    1    3    3    0    0  0.44445758533E+03 -0.45143343850E+03  0.72669425439E+02  0.63766412785E+03  0.00000000000E+00 0.  1.
        -13    1    3    3    0    0  0.15442998098E+03 -0.13364568774E+03  0.89428238728E+02  0.22295111294E+03  0.00000000000E+00 0. -1.
          4    1    6    6  502    0  0.22062315285E+02  0.43448915899E+02 -0.77132229184E+02  0.91235600658E+02  0.00000000000E+00 0. -1.
          1    1    5    5  503    0 -0.61150454158E+02  0.66860544599E+02  0.35885951273E+02  0.97455179270E+02  0.00000000000E+00 0. -1.
         -2    1    5    5    0  503 -0.51315138344E+03  0.29745469909E+03  0.12330339748E+03  0.60581133050E+03  0.00000000000E+00 0.  1.
         -3    1    6    6    0  502 -0.46648043991E+02  0.17731496666E+03 -0.46596165187E+03  0.50073635620E+03  0.00000000000E+00 0.  1.
<mgrwt>
<rscale>  0 0.21444130E+04</rscale>
<asrwt>0</asrwt>
<pdfrwt beam="1">  1        1 0.14877283E+00 0.21444130E+04</pdfrwt>
<pdfrwt beam="2">  1       -1 0.18289697E+00 0.21444130E+04</pdfrwt>
<totfact> 0.29198989E+00</totfact>
</mgrwt>
</event>
<event>
12    1  0.1562393E-007  0.1870553E+04  0.7818608E-02  0.8669654E-01
          3   -1    0    0  501    0  0.00000000000E+00  0.00000000000E+00  0.23763517007E+04  0.23763517007E+04  0.00000000000E+00 0. -1.
         -3   -1    0    0    0  501 -0.00000000000E+00 -0.00000000000E+00 -0.36810312772E+03  0.36810312772E+03  0.00000000000E+00 0.  1.
         23    2    1    2    0    0 -0.33351470544E+03  0.17799088827E+03 -0.11409605092E+03  0.40834969529E+03  0.10401321915E+03 0.  0.
        254    2    1    2    0    0  0.33351470544E+03 -0.17799088827E+03  0.21223446239E+04  0.23361051332E+04  0.90007092801E+03 0.  0.
        -24    2    4    4    0    0  0.26607779306E+03  0.36733101864E+02  0.20734262586E+04  0.20922979423E+04  0.80420873445E+02 0.  0.
         24    2    4    4    0    0  0.67436912375E+02 -0.21472399013E+03  0.48918365365E+02  0.24380719087E+03  0.79967560692E+02 0.  0.
         11    1    3    3    0    0 -0.30476987709E+03  0.17709814713E+03 -0.12974490293E+03  0.37560906743E+03  0.00000000000E+00 0.  1.
        -11    1    3    3    0    0 -0.28744828346E+02  0.89274113994E+00  0.15648852011E+02  0.32740627859E+02  0.00000000000E+00 0. -1.
          2    1    6    6  502    0  0.11896365770E+02 -0.78392028843E+01 -0.14578461431E+02  0.20384017222E+02  0.00000000000E+00 0. -1.
          3    1    5    5  503    0  0.37398119605E+02 -0.23148104961E+02  0.31887552601E+03  0.32189447836E+03  0.00000000000E+00 0. -1.
         -4    1    5    5    0  503  0.22867967346E+03  0.59881206825E+02  0.17545507326E+04  0.17704034639E+04  0.00000000000E+00 0.  1.
         -1    1    6    6    0  502  0.55540546605E+02 -0.20688478725E+03  0.63496826796E+02  0.22342317365E+03  0.00000000000E+00 0.  1.
<mgrwt>
<rscale>  0 0.18705534E+04</rscale>
<asrwt>0</asrwt>
<pdfrwt beam="1">  1        3 0.36559256E+00 0.18705534E+04</pdfrwt>
<pdfrwt beam="2">  1       -3 0.56631252E-01 0.18705534E+04</pdfrwt>
<totfact> 0.12836912E-01</totfact>
</mgrwt>
</event>
<event>
12    1  0.1562393E-007  0.2052603E+04  0.7818608E-02  0.8582414E-01
         -1   -1    0    0    0  501 -0.00000000000E+00  0.00000000000E+00  0.65361309184E+03  0.65361309184E+03  0.00000000000E+00 0.  1.
          1   -1    0    0  501    0  0.00000000000E+00 -0.00000000000E+00 -0.16114965855E+04  0.16114965855E+04  0.00000000000E+00 0. -1.
         23    2    1    2    0    0 -0.43242154343E+03  0.70729630501E+03 -0.46661065564E+03  0.95577424172E+03  0.92317077964E+02 0.  0.
        254    2    1    2    0    0  0.43242154343E+03 -0.70729630501E+03 -0.49127283798E+03  0.13093354356E+04  0.88642756457E+03 0.  0.
        -24    2    4    4    0    0 -0.53154692774E+02 -0.46652253671E+03  0.11737120987E+03  0.49030525631E+03  0.78450907187E+02 0.  0.
         24    2    4    4    0    0  0.48557623620E+03 -0.24077376830E+03 -0.60864404785E+03  0.81903017927E+03  0.81280802799E+02 0.  0.
         11    1    3    3    0    0 -0.14957080118E+03  0.22192057008E+03 -0.19908502787E+03  0.33354911529E+03  0.00000000000E+00 0.  1.
        -11    1    3    3    0    0 -0.28285074225E+03  0.48537573493E+03 -0.26752562777E+03  0.62222512644E+03  0.00000000000E+00 0. -1.
          2    1    6    6  502    0  0.46198668027E+03 -0.21165697423E+03 -0.54485580892E+03  0.74504913932E+03  0.00000000000E+00 0. -1.
          1    1    5    5  503    0 -0.55734060359E+02 -0.17720459039E+03  0.30774848867E+02  0.18829456621E+03  0.00000000000E+00 0. -1.
         -2    1    5    5    0  503  0.25793675853E+01 -0.28931794632E+03  0.86596361006E+02  0.30201069010E+03  0.00000000000E+00 0.  1.
         -1    1    6    6    0  502  0.23589555932E+02 -0.29116794071E+02 -0.63788238935E+02  0.73981039952E+02  0.00000000000E+00 0.  1.
<mgrwt>
<rscale>  0 0.20526035E+04</rscale>
<asrwt>0</asrwt>
<pdfrwt beam="1">  1        1 0.24792255E+00 0.20526035E+04</pdfrwt>
<pdfrwt beam="2">  1       -1 0.10055586E+00 0.20526035E+04</pdfrwt>
<totfact> 0.47615703E+00</totfact>
</mgrwt>
</event>
<event>
12    1  0.1562393E-007  0.3146908E+04  0.7818608E-02  0.8202981E-01
          2   -1    0    0  501    0  0.00000000000E+00  0.00000000000E+00  0.15964624321E+04  0.15964624321E+04  0.00000000000E+00 0. -1.
         -2   -1    0    0    0  501 -0.00000000000E+00 -0.00000000000E+00 -0.15507770948E+04  0.15507770948E+04  0.00000000000E+00 0.  1.
         23    2    1    2    0    0  0.28897274178E+03 -0.18184235620E+03 -0.13783416275E+04  0.14229703636E+04  0.91908245502E+02 0.  0.
        254    2    1    2    0    0 -0.28897274178E+03  0.18184235620E+03  0.14240269648E+04  0.17242691633E+04  0.91031833066E+03 0.  0.
        -24    2    4    4    0    0 -0.45621764394E+03  0.16179334765E+03  0.14543678998E+04  0.15349784220E+04  0.81615819598E+02 0.  0.
         24    2    4    4    0    0  0.16724490216E+03  0.20049008550E+02 -0.30340935003E+02  0.18929074135E+03  0.80855379415E+02 0.  0.
         11    1    3    3    0    0  0.46388015336E+02 -0.45492741212E+02 -0.14940299997E+03  0.16291928636E+03  0.00000000000E+00 0. -1.
        -11    1    3    3    0    0  0.24258472644E+03 -0.13634961499E+03 -0.12289386275E+04  0.12600510772E+04  0.00000000000E+00 0.  1.
          4    1    6    6  502    0  0.88188510575E+02  0.13639715414E+01  0.24183395738E+02  0.91454417308E+02  0.00000000000E+00 0. -1.
          3    1    5    5  503    0 -0.24832565692E+03  0.86381393590E+02  0.66116230029E+03  0.71152158390E+03  0.00000000000E+00 0. -1.
         -4    1    5    5    0  503 -0.20789198702E+03  0.75411954060E+02  0.79320559950E+03  0.82345683807E+03  0.00000000000E+00 0.  1.
         -3    1    6    6    0  502  0.79056391584E+02  0.18685037009E+02 -0.54524330741E+02  0.97836324037E+02  0.00000000000E+00 0.  1.
<mgrwt>
<rscale>  0 0.31469079E+04</rscale>
<asrwt>0</asrwt>
<pdfrwt beam="1">  1        2 0.24560961E+00 0.31469079E+04</pdfrwt>
<pdfrwt beam="2">  1       -2 0.23858109E+00 0.31469079E+04</pdfrwt>
<totfact> 0.71625234E-01</totfact>
</mgrwt>
</event>
<event>
12    1  0.1562393E-007  0.1447847E+04  0.7818608E-02  0.8919894E-01
         -1   -1    0    0    0  501 -0.00000000000E+00  0.00000000000E+00  0.13100233972E+04  0.13100233972E+04  0.00000000000E+00 0.  1.
          1   -1    0    0  501    0  0.00000000000E+00 -0.00000000000E+00 -0.40004274259E+03  0.40004274259E+03  0.00000000000E+00 0. -1.
         23    2    1    2    0    0  0.22436768938E+02 -0.64042625257E+01 -0.23443596963E+03  0.25204454861E+03  0.89564543480E+02 0.  0.
        254    2    1    2    0    0 -0.22436768938E+02  0.64042625257E+01  0.11444166242E+04  0.14580215912E+04  0.90310194737E+03 0.  0.
        -24    2    4    4    0    0  0.13319325389E+03 -0.41381316752E+03  0.49031481154E+03  0.66007251966E+03  0.79406147737E+02 0.  0.
         24    2    4    4    0    0 -0.15563002283E+03  0.42021743005E+03  0.65410181267E+03  0.79794907150E+03  0.89833996052E+02 0.  0.
         13    1    3    3    0    0  0.54922586647E+02 -0.18361439372E+02 -0.14377232571E+03  0.15499714391E+03  0.00000000000E+00 0.  1.
        -13    1    3    3    0    0 -0.32485817709E+02  0.11957176846E+02 -0.90663643922E+02  0.97047404703E+02  0.00000000000E+00 0. -1.
          4    1    6    6  502    0 -0.10907659981E+03  0.36920444312E+03  0.51875026285E+03  0.64599648656E+03  0.00000000000E+00 0. -1.
          3    1    5    5  503    0  0.91434842997E+02 -0.35744291882E+03  0.43723677704E+03  0.57210293647E+03  0.00000000000E+00 0. -1.
         -4    1    5    5    0  503  0.41758410893E+02 -0.56370248706E+02  0.53078034496E+02  0.87969583183E+02  0.00000000000E+00 0.  1.
         -3    1    6    6    0  502 -0.46553423016E+02  0.51012986929E+02  0.13535154982E+03  0.15195258494E+03  0.00000000000E+00 0.  1.
<mgrwt>
<rscale>  0 0.14478472E+04</rscale>
<asrwt>0</asrwt>
<pdfrwt beam="1">  1        1 0.61545038E-01 0.14478472E+04</pdfrwt>
<pdfrwt beam="2">  1       -1 0.20154206E+00 0.14478472E+04</pdfrwt>
<totfact> 0.85571811E+00</totfact>
</mgrwt>
</event>
<event>
12    1  0.1562393E-007  0.2031363E+04  0.7818608E-02  0.8592096E-01
         -1   -1    0    0    0  501 -0.00000000000E+00  0.00000000000E+00  0.28395903960E+03  0.28395903960E+03  0.00000000000E+00 0.  1.
          1   -1    0    0  501    0  0.00000000000E+00 -0.00000000000E+00 -0.36329508139E+04  0.36329508139E+04  0.00000000000E+00 0. -1.
         23    2    1    2    0    0  0.92121967788E+01  0.22211442086E+03 -0.28378767515E+04  0.28480409089E+04  0.91503450362E+02 0.  0.
        254    2    1    2    0    0 -0.92121967788E+01 -0.22211442086E+03 -0.51111502279E+03  0.10688689446E+04  0.91204307667E+03 0.  0.
        -24    2    4    4    0    0  0.67869247963E+02  0.15635492521E+03  0.18825010010E+03  0.26592947293E+03  0.78913160665E+02 0.  0.
         24    2    4    4    0    0 -0.77081444742E+02 -0.37846934607E+03 -0.69936512289E+03  0.80293947168E+03  0.80122562510E+02 0.  0.
         11    1    3    3    0    0  0.40321321014E+02  0.13944655507E+03 -0.20741919247E+04  0.20792650844E+04  0.00000000000E+00 0. -1.
        -11    1    3    3    0    0 -0.31109124236E+02  0.82667865790E+02 -0.76368482683E+03  0.76877582452E+03  0.00000000000E+00 0.  1.
          2    1    6    6  502    0  0.12183423117E+02 -0.58216670879E+02 -0.14196587374E+03  0.15392181741E+03  0.00000000000E+00 0. -1.
          3    1    5    5  503    0  0.65166245945E+01  0.39962762626E+02  0.56767984030E+01  0.40886609457E+02  0.00000000000E+00 0. -1.
         -4    1    5    5    0  503  0.61352623368E+02  0.11639216259E+03  0.18257330170E+03  0.22504286347E+03  0.00000000000E+00 0.  1.
         -1    1    6    6    0  502 -0.89264867859E+02 -0.32025267519E+03 -0.55739924915E+03  0.64901765427E+03  0.00000000000E+00 0.  1.
<mgrwt>
<rscale>  0 0.20313633E+04</rscale>
<asrwt>0</asrwt>
<pdfrwt beam="1">  1        1 0.55891547E+00 0.20313633E+04</pdfrwt>
<pdfrwt beam="2">  1       -1 0.43686009E-01 0.20313633E+04</pdfrwt>
<totfact> 0.94161707E-01</totfact>
</mgrwt>
</event>
<event>
12    1  0.1562393E-007  0.2011883E+04  0.7818608E-02  0.8601085E-01
         -1   -1    0    0    0  501 -0.00000000000E+00  0.00000000000E+00  0.57014724461E+03  0.57014724461E+03  0.00000000000E+00 0.  1.
          1   -1    0    0  501    0  0.00000000000E+00 -0.00000000000E+00 -0.17748372089E+04  0.17748372089E+04  0.00000000000E+00 0. -1.
         23    2    1    2    0    0 -0.36523048439E+03  0.46442862887E+03 -0.11087420338E+04  0.12599372522E+04  0.95109010032E+02 0.  0.
        254    2    1    2    0    0  0.36523048439E+03 -0.46442862887E+03 -0.95947930457E+02  0.10850472013E+04  0.90500506391E+03 0.  0.
        -24    2    4    4    0    0  0.28454317482E+03 -0.61342358971E+02  0.35633904926E+03  0.46858786880E+03  0.88709466327E+02 0.  0.
         24    2    4    4    0    0  0.80687309563E+02 -0.40308626990E+03 -0.45228697971E+03  0.61645933253E+03  0.80433909091E+02 0.  0.
         13    1    3    3    0    0 -0.35822757673E+03  0.41980151331E+03 -0.10455625857E+04  0.11822696088E+04  0.00000000000E+00 0.  1.
        -13    1    3    3    0    0 -0.70029076556E+01  0.44627115565E+02 -0.63179448145E+02  0.77667643373E+02  0.00000000000E+00 0. -1.
          4    1    6    6  502    0  0.49747819552E+02 -0.80777740846E+02 -0.11098126423E+03  0.14600249990E+03  0.00000000000E+00 0. -1.
          3    1    5    5  503    0  0.75276225275E+02 -0.56968481767E+02  0.12442943396E+03  0.15618771412E+03  0.00000000000E+00 0. -1.
         -4    1    5    5    0  503  0.20926694955E+03 -0.43738772041E+01  0.23190961530E+03  0.31240015468E+03  0.00000000000E+00 0.  1.
         -3    1    6    6    0  502  0.30939490011E+02 -0.32230852906E+03 -0.34130571548E+03  0.47045683263E+03  0.00000000000E+00 0.  1.
<mgrwt>
<rscale>  0 0.20118832E+04</rscale>
<asrwt>0</asrwt>
<pdfrwt beam="1">  1        1 0.27305187E+00 0.20118832E+04</pdfrwt>
<pdfrwt beam="2">  1       -1 0.87714962E-01 0.20118832E+04</pdfrwt>
<totfact> 0.50195949E+00</totfact>
</mgrwt>
</event>
<event>
12    1  0.1562393E-007  0.1470192E+04  0.7818608E-02  0.8904520E-01
          1   -1    0    0  501    0  0.00000000000E+00  0.00000000000E+00  0.15925257310E+04  0.15925257310E+04  0.00000000000E+00 0. -1.
         -1   -1    0    0    0  501 -0.00000000000E+00 -0.00000000000E+00 -0.33931408681E+03  0.33931408681E+03  0.00000000000E+00 0.  1.
         23    2    1    2    0    0 -0.51078942644E+03  0.17539097393E+03  0.55097386287E+03  0.77692775163E+03  0.91524323427E+02 0.  0.
        254    2    1    2    0    0  0.51078942644E+03 -0.17539097393E+03  0.70223778136E+03  0.11549120662E+04  0.74095623842E+03 0.  0.
        -24    2    4    4    0    0  0.50351347515E+03 -0.28450768251E+03  0.79546570421E+03  0.98647201175E+03  0.76752213792E+02 0.  0.
         24    2    4    4    0    0  0.72759512931E+01  0.10911670858E+03 -0.93227922853E+02  0.16844005448E+03  0.87870420493E+02 0.  0.
         13    1    3    3    0    0 -0.44992467366E+03  0.16148316031E+03  0.44052830471E+03  0.65005708233E+03  0.00000000000E+00 0.  1.
        -13    1    3    3    0    0 -0.60864752777E+02  0.13907813624E+02  0.11044555816E+03  0.12687066930E+03  0.00000000000E+00 0. -1.
          4    1    6    6  502    0 -0.23415969111E+02  0.61268345500E+02 -0.90182857107E+02  0.11151262478E+03  0.00000000000E+00 0. -1.
          3    1    5    5  503    0  0.29587164707E+03 -0.13828758480E+03  0.49533797047E+03  0.59331542424E+03  0.00000000000E+00 0. -1.
         -4    1    5    5    0  503  0.20764182808E+03 -0.14622009771E+03  0.30012773374E+03  0.39315658751E+03  0.00000000000E+00 0.  1.
         -3    1    6    6    0  502  0.30691920404E+02  0.47848363077E+02 -0.30450657453E+01  0.56927429703E+02  0.00000000000E+00 0.  1.
<mgrwt>
<rscale>  0 0.14701924E+04</rscale>
<asrwt>0</asrwt>
<pdfrwt beam="1">  1        1 0.24500396E+00 0.14701924E+04</pdfrwt>
<pdfrwt beam="2">  1       -1 0.52202168E-01 0.14701924E+04</pdfrwt>
<totfact> 0.20235770E+01</totfact>
</mgrwt>
</event>
<event>
12    1  0.1562393E-007  0.1800896E+04  0.7818608E-02  0.8705823E-01
          1   -1    0    0  501    0  0.00000000000E+00  0.00000000000E+00  0.10156673286E+04  0.10156673286E+04  0.00000000000E+00 0. -1.
         -1   -1    0    0    0  501 -0.00000000000E+00 -0.00000000000E+00 -0.79829927386E+03  0.79829927386E+03  0.00000000000E+00 0.  1.
         23    2    1    2    0    0  0.44745854858E+03  0.36404669587E+03  0.43138990806E+03  0.72604809052E+03  0.91101193725E+02 0.  0.
        254    2    1    2    0    0 -0.44745854858E+03 -0.36404669587E+03 -0.21402185336E+03  0.10879185119E+04  0.89722471287E+03 0.  0.
        -24    2    4    4    0    0 -0.82296739104E+02 -0.60884474291E+03 -0.12143781679E+03  0.63111609692E+03  0.78075029433E+02 0.  0.
         24    2    4    4    0    0 -0.36516180948E+03  0.24479804704E+03 -0.92584036567E+02  0.45680241499E+03  0.82628152471E+02 0.  0.
         11    1    3    3    0    0  0.42873345382E+03  0.35399664122E+03  0.38879173079E+03  0.67844307525E+03  0.00000000000E+00 0. -1.
        -11    1    3    3    0    0  0.18725094755E+02  0.10050054653E+02  0.42598177271E+02  0.47605015270E+02  0.00000000000E+00 0.  1.
          2    1    6    6  502    0 -0.35859805332E+03  0.24436522855E+03 -0.10156443646E+03  0.44567057736E+03  0.00000000000E+00 0. -1.
          3    1    5    5  503    0 -0.69208904271E+02 -0.44766771332E+03 -0.12304725448E+03  0.46940055477E+03  0.00000000000E+00 0. -1.
         -4    1    5    5    0  503 -0.13087834832E+02 -0.16117702958E+03  0.16094376869E+01  0.16171554216E+03  0.00000000000E+00 0.  1.
         -1    1    6    6    0  502 -0.65637561519E+01  0.43281848437E+00  0.89803998957E+01  0.11131837627E+02  0.00000000000E+00 0.  1.
<mgrwt>
<rscale>  0 0.18008959E+04</rscale>
<asrwt>0</asrwt>
<pdfrwt beam="1">  1        1 0.15625651E+00 0.18008959E+04</pdfrwt>
<pdfrwt beam="2">  1       -1 0.12281527E+00 0.18008959E+04</pdfrwt>
<totfact> 0.81169691E+00</totfact>
</mgrwt>
</event>
<event>
12    1  0.1562393E-007  0.2597425E+04  0.7818608E-02  0.8369076E-01
         -1   -1    0    0    0  501 -0.00000000000E+00  0.00000000000E+00  0.13619292254E+04  0.13619292254E+04  0.00000000000E+00 0.  1.
          1   -1    0    0  501    0  0.00000000000E+00 -0.00000000000E+00 -0.12384300081E+04  0.12384300081E+04  0.00000000000E+00 0. -1.
         23    2    1    2    0    0 -0.60624837742E+03  0.11874701480E+03  0.10149456842E+04  0.11917485056E+04  0.92259471650E+02 0.  0.
        254    2    1    2    0    0  0.60624837742E+03 -0.11874701480E+03 -0.89144646691E+03  0.14086107278E+04  0.89881557094E+03 0.  0.
        -24    2    4    4    0    0  0.35081192704E+03 -0.36343754919E+03 -0.91206211799E+03  0.10456219498E+04  0.79448691032E+02 0.  0.
         24    2    4    4    0    0  0.25543645038E+03  0.24469053439E+03  0.20615651078E+02  0.36298877805E+03  0.78832798488E+02 0.  0.
         11    1    3    3    0    0 -0.41684582560E+03  0.85314085726E+02  0.61347577435E+03  0.74658653969E+03  0.00000000000E+00 0.  1.
        -11    1    3    3    0    0 -0.18940255182E+03  0.33432929076E+02  0.40146990987E+03  0.44516196593E+03  0.00000000000E+00 0. -1.
          2    1    6    6  502    0  0.22133534107E+03  0.24227678888E+03  0.20581518429E+02  0.32880233354E+03  0.00000000000E+00 0. -1.
          3    1    5    5  503    0  0.22115569173E+03 -0.17835415764E+03 -0.47149049709E+03  0.55047555294E+03  0.00000000000E+00 0. -1.
         -4    1    5    5    0  503  0.12965623531E+03 -0.18508339155E+03 -0.44057162089E+03  0.49514639686E+03  0.00000000000E+00 0.  1.
         -1    1    6    6    0  502  0.34101109305E+02  0.24137455076E+01  0.34132649268E-01  0.34186444510E+02  0.00000000000E+00 0.  1.
<mgrwt>
<rscale>  0 0.25974249E+04</rscale>
<asrwt>0</asrwt>
<pdfrwt beam="1">  1        1 0.19052769E+00 0.25974249E+04</pdfrwt>
<pdfrwt beam="2">  1       -1 0.20952757E+00 0.25974249E+04</pdfrwt>
<totfact> 0.11430404E+00</totfact>
</mgrwt>
</event>
<event>
12    1  0.1562393E-007  0.2248453E+04  0.7818608E-02  0.8498527E-01
         -2   -1    0    0    0  501 -0.00000000000E+00  0.00000000000E+00  0.10659904031E+04  0.10659904031E+04  0.00000000000E+00 0.  1.
          2   -1    0    0  501    0  0.00000000000E+00 -0.00000000000E+00 -0.11856438222E+04  0.11856438222E+04  0.00000000000E+00 0. -1.
         23    2    1    2    0    0  0.20812297617E+03 -0.59527632384E+03 -0.74757088614E+03  0.98204230424E+03  0.88745605960E+02 0.  0.
        254    2    1    2    0    0 -0.20812297617E+03  0.59527632384E+03  0.62791746703E+03  0.12695919211E+04  0.90549115166E+03 0.  0.
        -24    2    4    4    0    0 -0.41582615535E+02 -0.18455595654E+03 -0.59631534166E+02  0.21374472646E+03  0.79629600107E+02 0.  0.
         24    2    4    4    0    0 -0.16654036063E+03  0.77983228037E+03  0.68754900119E+03  0.10558471946E+04  0.78839026510E+02 0.  0.
         13    1    3    3    0    0  0.21135507480E+03 -0.59299978713E+03 -0.74843538611E+03  0.97799552267E+03  0.00000000000E+00 0. -1.
        -13    1    3    3    0    0 -0.32320986273E+01 -0.22765367030E+01  0.86449996355E+00  0.40467815711E+01  0.00000000000E+00 0.  1.
          2    1    6    6  502    0 -0.77006467488E+02  0.47210122818E+03  0.45191922875E+03  0.65805816992E+03  0.00000000000E+00 0. -1.
          1    1    5    5  503    0 -0.37512603841E+02 -0.14638314193E+03 -0.79249586067E+02  0.17063328099E+03  0.00000000000E+00 0. -1.
         -2    1    5    5    0  503 -0.40700116937E+01 -0.38172814608E+02  0.19618051901E+02  0.43111445472E+02  0.00000000000E+00 0.  1.
         -1    1    6    6    0  502 -0.89533893146E+02  0.30773105219E+03  0.23562977244E+03  0.39778902469E+03  0.00000000000E+00 0.  1.
<mgrwt>
<rscale>  0 0.22484527E+04</rscale>
<asrwt>0</asrwt>
<pdfrwt beam="1">  1        2 0.18240674E+00 0.22484527E+04</pdfrwt>
<pdfrwt beam="2">  1       -2 0.16399852E+00 0.22484527E+04</pdfrwt>
<totfact> 0.41412776E+00</totfact>
</mgrwt>
</event>
<event>
12    1  0.1658634E-007  0.1766457E+04  0.7818608E-02  0.8724343E-01
         -1   -1    0    0    0  501 -0.00000000000E+00  0.00000000000E+00  0.90097409856E+03  0.90097409856E+03  0.00000000000E+00 0.  1.
          1   -1    0    0  501    0  0.00000000000E+00 -0.00000000000E+00 -0.86583281813E+03  0.86583281813E+03  0.00000000000E+00 0. -1.
         23    2    1    2    0    0 -0.54942415856E+03  0.67188517833E+02  0.31866643558E+03  0.64476196360E+03  0.88252419784E+02 0.  0.
        254    2    1    2    0    0  0.54942415856E+03 -0.67188517833E+02 -0.28352515515E+03  0.11220449531E+04  0.93392567168E+03 0.  0.
        -24    2    4    4    0    0 -0.12539072502E+03 -0.30200240126E+03  0.29294418743E+02  0.33798625409E+03  0.80301062858E+02 0.  0.
         24    2    4    4    0    0  0.67481488358E+03  0.23481388343E+03 -0.31281957389E+03  0.78405869900E+03  0.79870336851E+02 0.  0.
         11    1    3    3    0    0 -0.11515275477E+03  0.24596578932E+01  0.10750557207E+03  0.15755524387E+03  0.00000000000E+00 0. -1.
        -11    1    3    3    0    0 -0.43427140379E+03  0.64728859940E+02  0.21116086352E+03  0.48720671972E+03  0.00000000000E+00 0.  1.
          4    1    6    6  502    0  0.41519030990E+03  0.16225222519E+03 -0.15650641970E+03  0.47244368704E+03  0.00000000000E+00 0. -1.
          3    1    5    5  503    0 -0.10668268647E+03 -0.26672090101E+03 -0.19654441728E+01  0.28727181832E+03  0.00000000000E+00 0. -1.
         -4    1    5    5    0  503 -0.18708038559E+02 -0.35281500251E+02  0.31259862916E+02  0.50714435777E+02  0.00000000000E+00 0.  1.
         -3    1    6    6    0  502  0.25962457368E+03  0.72561658244E+02 -0.15631315419E+03  0.31161501196E+03  0.00000000000E+00 0.  1.
<mgrwt>
<rscale>  0 0.17664574E+04</rscale>
<asrwt>0</asrwt>
<pdfrwt beam="1">  1        1 0.13320505E+00 0.17664574E+04</pdfrwt>
<pdfrwt beam="2">  1       -1 0.13861140E+00 0.17664574E+04</pdfrwt>
<totfact> 0.79086216E+00</totfact>
</mgrwt>
</event>
<event>
12    1  0.1562393E-007  0.1455791E+04  0.7818608E-02  0.8914396E-01
          2   -1    0    0  501    0  0.00000000000E+00  0.00000000000E+00  0.31829619861E+04  0.31829619861E+04  0.00000000000E+00 0. -1.
         -2   -1    0    0    0  501 -0.00000000000E+00 -0.00000000000E+00 -0.16645869434E+03  0.16645869434E+03  0.00000000000E+00 0.  1.
         23    2    1    2    0    0 -0.18229905297E+03  0.37489818549E+03  0.12522717708E+04  0.13229600251E+04  0.90868289206E+02 0.  0.
        254    2    1    2    0    0  0.18229905297E+03 -0.37489818549E+03  0.17642315210E+04  0.20264606553E+04  0.90567562280E+03 0.  0.
        -24    2    4    4    0    0  0.47159750687E+03  0.32562479665E+02  0.70688595296E+03  0.85404511694E+03  0.78998656401E+02 0.  0.
         24    2    4    4    0    0 -0.28929845390E+03 -0.40746066516E+03  0.10573455680E+04  0.11724155384E+04  0.82829676639E+02 0.  0.
         11    1    3    3    0    0 -0.10279230244E+03  0.17593469141E+03  0.74341673444E+03  0.77083572447E+03  0.00000000000E+00 0. -1.
        -11    1    3    3    0    0 -0.79506750532E+02  0.19896349408E+03  0.50885503635E+03  0.55212430066E+03  0.00000000000E+00 0.  1.
          2    1    6    6  502    0 -0.27032741912E+03 -0.40243125303E+03  0.99097782150E+03  0.11032066305E+04  0.00000000000E+00 0. -1.
          3    1    5    5  503    0  0.25408069451E+03  0.55366253353E+02  0.40377664833E+03  0.48026867800E+03  0.00000000000E+00 0. -1.
         -4    1    5    5    0  503  0.21751681237E+03 -0.22803773688E+02  0.30310930463E+03  0.37377643894E+03  0.00000000000E+00 0.  1.
         -1    1    6    6    0  502 -0.18971034786E+02 -0.50294121279E+01  0.66367746495E+02  0.69208907822E+02  0.00000000000E+00 0.  1.
<mgrwt>
<rscale>  0 0.14557908E+04</rscale>
<asrwt>0</asrwt>
<pdfrwt beam="1">  1        2 0.48968642E+00 0.14557908E+04</pdfrwt>
<pdfrwt beam="2">  1       -2 0.25609032E-01 0.14557908E+04</pdfrwt>
<totfact> 0.17895211E+01</totfact>
</mgrwt>
</event>
<event>
12    1  0.1562393E-007  0.1367179E+04  0.7818608E-02  0.8977924E-01
          2   -1    0    0  501    0  0.00000000000E+00  0.00000000000E+00  0.16495940745E+04  0.16495940745E+04  0.00000000000E+00 0.  1.
         -2   -1    0    0    0  501 -0.00000000000E+00 -0.00000000000E+00 -0.28327869953E+03  0.28327869953E+03  0.00000000000E+00 0. -1.
         23    2    1    2    0    0 -0.24771566925E+02 -0.37944126374E+03  0.37833370496E+03  0.54406822489E+03  0.91019436731E+02 0.  0.
        254    2    1    2    0    0  0.24771566925E+02  0.37944126374E+03  0.98798167000E+03  0.13888045491E+04  0.89893325242E+03 0.  0.
        -24    2    4    4    0    0 -0.41489515873E+03  0.24053783897E+03  0.35847173157E+03  0.60406953982E+03  0.80009886211E+02 0.  0.
         24    2    4    4    0    0  0.43966672565E+03  0.13890342478E+03  0.62950993843E+03  0.78473500932E+03  0.83218274517E+02 0.  0.
         13    1    3    3    0    0 -0.81481877582E+01 -0.83029852968E+01  0.39746665439E+02  0.41414127325E+02  0.00000000000E+00 0.  1.
        -13    1    3    3    0    0 -0.16623379166E+02 -0.37113827845E+03  0.33858703953E+03  0.50265409756E+03  0.00000000000E+00 0. -1.
          2    1    6    6  502    0  0.40835061705E+03  0.14349738791E+03  0.60853706665E+03  0.74676575194E+03  0.00000000000E+00 0. -1.
          1    1    5    5  503    0 -0.22487241749E+03  0.12998694537E+03  0.24327643277E+03  0.35587586720E+03  0.00000000000E+00 0. -1.
         -2    1    5    5    0  503 -0.19002274124E+03  0.11055089360E+03  0.11519529880E+03  0.24819367262E+03  0.00000000000E+00 0.  1.
         -1    1    6    6    0  502  0.31316108609E+02 -0.45939631380E+01  0.20972871778E+02  0.37969257385E+02  0.00000000000E+00 0.  1.
<mgrwt>
<rscale>  0 0.13671794E+04</rscale>
<asrwt>0</asrwt>
<pdfrwt beam="1">  1        2 0.25378370E+00 0.13671794E+04</pdfrwt>
<pdfrwt beam="2">  1       -2 0.43581340E-01 0.13671794E+04</pdfrwt>
<totfact> 0.50948692E+01</totfact>
</mgrwt>
</event>
<event>
12    1  0.1562393E-007  0.1480338E+04  0.7818608E-02  0.8897634E-01
         -1   -1    0    0    0  501 -0.00000000000E+00  0.00000000000E+00  0.25124361682E+04  0.25124361682E+04  0.00000000000E+00 0.  1.
          1   -1    0    0  501    0  0.00000000000E+00 -0.00000000000E+00 -0.21805541012E+03  0.21805541012E+03  0.00000000000E+00 0. -1.
         23    2    1    2    0    0  0.29394807142E+03 -0.30963021087E+02  0.13811275218E+04  0.14154993485E+04  0.93600196218E+02 0.  0.
        254    2    1    2    0    0 -0.29394807142E+03  0.30963021087E+02  0.91325323629E+03  0.13149922298E+04  0.89878190546E+03 0.  0.
        -24    2    4    4    0    0  0.16843807052E+03 -0.24904749426E+03  0.62336652734E+03  0.69644151935E+03  0.77774831820E+02 0.  0.
         24    2    4    4    0    0 -0.46238614194E+03  0.28001051534E+03  0.28988670895E+03  0.61855071049E+03  0.79773707878E+02 0.  0.
         13    1    3    3    0    0  0.21117569127E+02 -0.13898367484E+01  0.27591887269E+03  0.27672930398E+03  0.00000000000E+00 0. -1.
        -13    1    3    3    0    0  0.27283050230E+03 -0.29573184339E+02  0.11052086491E+04  0.11387700445E+04  0.00000000000E+00 0.  1.
          2    1    6    6  502    0 -0.19305868645E+03  0.16103829218E+03  0.11939236246E+03  0.27831551192E+03  0.00000000000E+00 0. -1.
          3    1    5    5  503    0  0.94592178353E+02 -0.19827073017E+03  0.47012089228E+03  0.51891484465E+03  0.00000000000E+00 0. -1.
         -4    1    5    5    0  503  0.73845892165E+02 -0.50776764084E+02  0.15324563506E+03  0.17752667469E+03  0.00000000000E+00 0.  1.
         -1    1    6    6    0  502 -0.26932745549E+03  0.11897222317E+03  0.17049434649E+03  0.34023519858E+03  0.00000000000E+00 0.  1.
<mgrwt>
<rscale>  0 0.14803382E+04</rscale>
<asrwt>0</asrwt>
<pdfrwt beam="1">  1        1 0.33546988E-01 0.14803382E+04</pdfrwt>
<pdfrwt beam="2">  1       -1 0.38652862E+00 0.14803382E+04</pdfrwt>
<totfact> 0.11458023E+00</totfact>
</mgrwt>
</event>
<event>
12    1  0.2320103E-007  0.2354545E+04  0.7818608E-02  0.8456720E-01
          2   -1    0    0  501    0  0.00000000000E+00  0.00000000000E+00  0.18650521187E+04  0.18650521187E+04  0.00000000000E+00 0. -1.
         -2   -1    0    0    0  501 -0.00000000000E+00 -0.00000000000E+00 -0.74312716164E+03  0.74312716164E+03  0.00000000000E+00 0.  1.
         23    2    1    2    0    0  0.91379439518E+03  0.29174176222E+02  0.91856416207E+03  0.12992801157E+04  0.92181180927E+02 0.  0.
        254    2    1    2    0    0 -0.91379439518E+03 -0.29174176222E+02  0.20336079497E+03  0.13088991646E+04  0.91432493179E+03 0.  0.
        -24    2    4    4    0    0 -0.39560052305E+02  0.33161531618E+03  0.31822284597E+02  0.34465177815E+03  0.78984015623E+02 0.  0.
         24    2    4    4    0    0 -0.87423434287E+03 -0.36078949240E+03  0.17153851038E+03  0.96424738642E+03  0.76764689793E+02 0.  0.
         11    1    3    3    0    0  0.19458480284E+03 -0.40295193162E+01  0.24939141011E+03  0.31634721108E+03  0.00000000000E+00 0.  1.
        -11    1    3    3    0    0  0.71920959234E+03  0.33203695539E+02  0.66917275197E+03  0.98293290467E+03  0.00000000000E+00 0. -1.
          4    1    6    6  502    0 -0.84958993541E+03 -0.33602563454E+03  0.16058444994E+03  0.92763336021E+03  0.00000000000E+00 0. -1.
          1    1    5    5  503    0 -0.44701078997E+01  0.28268139384E+03  0.21233793869E+02  0.28351300903E+03  0.00000000000E+00 0. -1.
         -2    1    5    5    0  503 -0.35089944406E+02  0.48933922343E+02  0.10588490728E+02  0.61138769125E+02  0.00000000000E+00 0.  1.
         -1    1    6    6    0  502 -0.24644407461E+02 -0.24763857860E+02  0.10954060434E+02  0.36614026209E+02  0.00000000000E+00 0.  1.
<mgrwt>
<rscale>  0 0.23545453E+04</rscale>
<asrwt>0</asrwt>
<pdfrwt beam="1">  1        2 0.28693109E+00 0.23545453E+04</pdfrwt>
<pdfrwt beam="2">  1       -2 0.11432726E+00 0.23545453E+04</pdfrwt>
<totfact> 0.42870619E+00</totfact>
</mgrwt>
</event>
<event>
12    1  0.1562393E-007  0.1503761E+04  0.7818608E-02  0.8881955E-01
          2   -1    0    0  501    0  0.00000000000E+00  0.00000000000E+00  0.37848972607E+03  0.37848972607E+03  0.00000000000E+00 0. -1.
         -2   -1    0    0    0  501 -0.00000000000E+00 -0.00000000000E+00 -0.14936326309E+04  0.14936326309E+04  0.00000000000E+00 0.  1.
         23    2    1    2    0    0  0.43076093350E+03 -0.12372515598E+03 -0.17559298500E+03  0.48860961142E+03  0.83925919310E+02 0.  0.
        254    2    1    2    0    0 -0.43076093350E+03  0.12372515598E+03 -0.93954991979E+03  0.13835127455E+04  0.91131255294E+03 0.  0.
        -24    2    4    4    0    0  0.15199924789E+03  0.33144633572E+03 -0.22819885396E+03  0.43737406840E+03  0.79125937220E+02 0.  0.
         24    2    4    4    0    0 -0.58276018139E+03 -0.20772117974E+03 -0.71135106582E+03  0.94613867710E+03  0.80003374429E+02 0.  0.
         13    1    3    3    0    0  0.29993027118E+03 -0.11102669379E+03 -0.91826585786E+02  0.33274196634E+03  0.00000000000E+00 0. -1.
        -13    1    3    3    0    0  0.13083066232E+03 -0.12698462197E+02 -0.83766399215E+02  0.15586764508E+03  0.00000000000E+00 0.  1.
          2    1    6    6  502    0 -0.50198975311E+03 -0.17820765018E+03 -0.65059246222E+03  0.84084613973E+03  0.00000000000E+00 0. -1.
          1    1    5    5  503    0  0.62269799667E+02  0.11725168728E+03 -0.40578352818E+02  0.13882394908E+03  0.00000000000E+00 0. -1.
         -4    1    5    5    0  503  0.89729448223E+02  0.21419464844E+03 -0.18762050115E+03  0.29855011932E+03  0.00000000000E+00 0.  1.
         -1    1    6    6    0  502 -0.80770428283E+02 -0.29513529562E+02 -0.60758603604E+02  0.10529253736E+03  0.00000000000E+00 0.  1.
<mgrwt>
<rscale>  0 0.15037614E+04</rscale>
<asrwt>0</asrwt>
<pdfrwt beam="1">  1        2 0.58229189E-01 0.15037614E+04</pdfrwt>
<pdfrwt beam="2">  1       -2 0.22978963E+00 0.15037614E+04</pdfrwt>
<totfact> 0.70087444E+00</totfact>
</mgrwt>
</event>
<event>
12    1  0.1562393E-007  0.2462970E+04  0.7818608E-02  0.8416298E-01
          3   -1    0    0  501    0  0.00000000000E+00  0.00000000000E+00  0.74598857374E+03  0.74598857374E+03  0.00000000000E+00 0. -1.
         -3   -1    0    0    0  501 -0.00000000000E+00 -0.00000000000E+00 -0.20329470700E+04  0.20329470700E+04  0.00000000000E+00 0.  1.
         23    2    1    2    0    0  0.22387593532E+03  0.11372249561E+03  0.61115013848E+03  0.66773977116E+03  0.96533257491E+02 0.  0.
        254    2    1    2    0    0 -0.22387593532E+03 -0.11372249561E+03 -0.18981086348E+04  0.21111958726E+04  0.88953829747E+03 0.  0.
        -24    2    4    4    0    0  0.23056493952E+03  0.13509926388E+03 -0.22482055980E+03  0.35773267714E+03  0.77565338571E+02 0.  0.
         24    2    4    4    0    0 -0.45444087484E+03 -0.24882175949E+03 -0.16732880750E+04  0.17534631954E+04  0.79444441440E+02 0.  0.
         11    1    3    3    0    0  0.10263130767E+03  0.15014130001E+01  0.26506176916E+03  0.28424141328E+03  0.00000000000E+00 0.  1.
        -11    1    3    3    0    0  0.12124462765E+03  0.11222108261E+03  0.34608836932E+03  0.38349835788E+03  0.00000000000E+00 0. -1.
          2    1    6    6  502    0 -0.34106784130E+03 -0.17270742408E+03 -0.13347898492E+04  0.13884592425E+04  0.00000000000E+00 0. -1.
          1    1    5    5  503    0  0.18601813060E+03  0.79733116924E+02 -0.13534680119E+03  0.24347252707E+03  0.00000000000E+00 0. -1.
         -2    1    5    5    0  503  0.44546808920E+02  0.55366146958E+02 -0.89473758607E+02  0.11426015007E+03  0.00000000000E+00 0.  1.
         -1    1    6    6    0  502 -0.11337303354E+03 -0.76114335410E+02 -0.33849822577E+03  0.36500395291E+03  0.00000000000E+00 0.  1.
<mgrwt>
<rscale>  0 0.24629700E+04</rscale>
<asrwt>0</asrwt>
<pdfrwt beam="1">  1        3 0.11476748E+00 0.24629700E+04</pdfrwt>
<pdfrwt beam="2">  1       -3 0.31276108E+00 0.24629700E+04</pdfrwt>
<totfact> 0.47420916E-02</totfact>
</mgrwt>
</event>
<event>
12    1  0.1562393E-007  0.1398496E+04  0.7818608E-02  0.8954908E-01
          3   -1    0    0  501    0  0.00000000000E+00  0.00000000000E+00  0.76965423803E+03  0.76965423803E+03  0.00000000000E+00 0. -1.
         -3   -1    0    0    0  501 -0.00000000000E+00 -0.00000000000E+00 -0.63528244621E+03  0.63528244621E+03  0.00000000000E+00 0.  1.
         23    2    1    2    0    0 -0.33295453236E+03 -0.22495472546E+03 -0.90296718890E+02  0.42192542693E+03  0.91674529268E+02 0.  0.
        254    2    1    2    0    0  0.33295453236E+03  0.22495472546E+03  0.22466851071E+03  0.98301125732E+03  0.86854582100E+03 0.  0.
        -24    2    4    4    0    0  0.34307567388E+03 -0.18685847772E+03 -0.14547121814E+03  0.42436363858E+03  0.79407894643E+02 0.  0.
         24    2    4    4    0    0 -0.10121141522E+02  0.41181320318E+03  0.37013972885E+03  0.55864761874E+03  0.73424731706E+02 0.  0.
         13    1    3    3    0    0 -0.19863112661E+03 -0.12489930269E+03 -0.97943880255E+02  0.25425806565E+03  0.00000000000E+00 0.  1.
        -13    1    3    3    0    0 -0.13432340575E+03 -0.10005542277E+03  0.76471613652E+01  0.16766736127E+03  0.00000000000E+00 0. -1.
          4    1    6    6  502    0 -0.31060448191E+02  0.22766640274E+03  0.23949495348E+03  0.33189542799E+03  0.00000000000E+00 0. -1.
          3    1    5    5  503    0  0.18685496167E+03 -0.57198933736E+02 -0.78377483295E+02  0.21054577794E+03  0.00000000000E+00 0. -1.
         -4    1    5    5    0  503  0.15622071221E+03 -0.12965954398E+03 -0.67093734850E+02  0.21381786063E+03  0.00000000000E+00 0.  1.
         -3    1    6    6    0  502  0.20939306669E+02  0.18414680044E+03  0.13064477537E+03  0.22675219075E+03  0.00000000000E+00 0.  1.
<mgrwt>
<rscale>  0 0.13984961E+04</rscale>
<asrwt>0</asrwt>
<pdfrwt beam="1">  1        3 0.11840834E+00 0.13984961E+04</pdfrwt>
<pdfrwt beam="2">  1       -3 0.97735761E-01 0.13984961E+04</pdfrwt>
<totfact> 0.13760339E+00</totfact>
</mgrwt>
</event>
<event>
12    1  0.1562393E-007  0.1922607E+04  0.7818608E-02  0.8643684E-01
          1   -1    0    0  501    0  0.00000000000E+00  0.00000000000E+00  0.73771357281E+03  0.73771357281E+03  0.00000000000E+00 0. -1.
         -1   -1    0    0    0  501 -0.00000000000E+00 -0.00000000000E+00 -0.12526603657E+04  0.12526603657E+04  0.00000000000E+00 0.  1.
         23    2    1    2    0    0  0.46444553895E+03 -0.25016721354E+03  0.34398161914E+03  0.63639862059E+03  0.91578144821E+02 0.  0.
        254    2    1    2    0    0 -0.46444553895E+03  0.25016721354E+03 -0.85892841208E+03  0.13539753180E+04  0.90398996188E+03 0.  0.
        -24    2    4    4    0    0 -0.41983630523E+03 -0.27828051778E+03 -0.39669722105E+03  0.64594204462E+03  0.78548520354E+02 0.  0.
         24    2    4    4    0    0 -0.44609233725E+02  0.52844773132E+03 -0.46223119102E+03  0.70803327333E+03  0.80040325631E+02 0.  0.
         11    1    3    3    0    0  0.10579250596E+03 -0.82889724996E+02  0.49953185764E+02  0.14338089690E+03  0.00000000000E+00 0.  1.
        -11    1    3    3    0    0  0.35865303299E+03 -0.16727748854E+03  0.29402843338E+03  0.49301772370E+03  0.00000000000E+00 0. -1.
          2    1    6    6  502    0 -0.12634256937E+02  0.23754327449E+03 -0.15612446819E+03  0.28453695942E+03  0.00000000000E+00 0. -1.
          3    1    5    5  503    0 -0.15229111690E+03 -0.71194979264E+02 -0.16734191800E+03  0.23720165868E+03  0.00000000000E+00 0. -1.
         -4    1    5    5    0  503 -0.26754518832E+03 -0.20708553852E+03 -0.22935530305E+03  0.40874038594E+03  0.00000000000E+00 0.  1.
         -1    1    6    6    0  502 -0.31974976788E+02  0.29090445682E+03 -0.30610672283E+03  0.42349631392E+03  0.00000000000E+00 0.  1.
<mgrwt>
<rscale>  0 0.19226071E+04</rscale>
<asrwt>0</asrwt>
<pdfrwt beam="1">  1        1 0.11349440E+00 0.19226071E+04</pdfrwt>
<pdfrwt beam="2">  1       -1 0.19271698E+00 0.19226071E+04</pdfrwt>
<totfact> 0.39683394E+00</totfact>
</mgrwt>
</event>
<event>
12    1  0.1562393E-007  0.1539743E+04  0.7818608E-02  0.8858446E-01
         -1   -1    0    0    0  501 -0.00000000000E+00  0.00000000000E+00  0.31540975062E+03  0.31540975062E+03  0.00000000000E+00 0.  1.
          1   -1    0    0  501    0  0.00000000000E+00 -0.00000000000E+00 -0.18791501722E+04  0.18791501722E+04  0.00000000000E+00 0. -1.
         23    2    1    2    0    0  0.44875481123E+03  0.13947502991E+03 -0.77515280489E+03  0.91103083975E+03  0.91000854228E+02 0.  0.
        254    2    1    2    0    0 -0.44875481123E+03 -0.13947502991E+03 -0.78858761669E+03  0.12835290831E+04  0.89707430759E+03 0.  0.
        -24    2    4    4    0    0  0.23923850160E+03  0.10416253616E+03 -0.15729151156E+03  0.31516736189E+03  0.80653281436E+02 0.  0.
         24    2    4    4    0    0 -0.68799331282E+03 -0.24363756607E+03 -0.63129610513E+03  0.96836172119E+03  0.80595214642E+02 0.  0.
         13    1    3    3    0    0  0.44281950963E+03  0.13056073322E+03 -0.72325975789E+03  0.85804422996E+03  0.00000000000E+00 0.  1.
        -13    1    3    3    0    0  0.59353015943E+01  0.89142966870E+01 -0.51893046999E+02  0.52986609792E+02  0.00000000000E+00 0. -1.
          2    1    6    6  502    0 -0.37996854567E+03 -0.94698757525E+02 -0.31801648357E+03  0.50445855548E+03  0.00000000000E+00 0. -1.
          3    1    5    5  503    0  0.20823481808E+03  0.55675413774E+02 -0.12525046329E+03  0.24929735200E+03  0.00000000000E+00 0. -1.
         -2    1    5    5    0  503  0.31003683517E+02  0.48487122383E+02 -0.32041048272E+02  0.65870009890E+02  0.00000000000E+00 0.  1.
         -1    1    6    6    0  502 -0.30802476715E+03 -0.14893880854E+03 -0.31327962156E+03  0.46390316571E+03  0.00000000000E+00 0.  1.
<mgrwt>
<rscale>  0 0.15397432E+04</rscale>
<asrwt>0</asrwt>
<pdfrwt beam="1">  1        1 0.28910003E+00 0.15397432E+04</pdfrwt>
<pdfrwt beam="2">  1       -1 0.48524577E-01 0.15397432E+04</pdfrwt>
<totfact> 0.14752176E+01</totfact>
</mgrwt>
</event>
<event>
12    1  0.1562393E-007  0.1820064E+04  0.7818608E-02  0.8695702E-01
          1   -1    0    0  501    0  0.00000000000E+00  0.00000000000E+00  0.72893865505E+03  0.72893865505E+03  0.00000000000E+00 0. -1.
         -1   -1    0    0    0  501 -0.00000000000E+00 -0.00000000000E+00 -0.11361151973E+04  0.11361151973E+04  0.00000000000E+00 0.  1.
         23    2    1    2    0    0 -0.50760501341E+03  0.45790835352E+03 -0.14171614331E+03  0.70457595788E+03  0.94873100979E+02 0.  0.
        254    2    1    2    0    0  0.50760501341E+03 -0.45790835352E+03 -0.26546039894E+03  0.11604778945E+04  0.89938690802E+03 0.  0.
        -24    2    4    4    0    0 -0.78239214899E+02 -0.25061402371E+03  0.23307946771E+03  0.35974337530E+03  0.78488815607E+02 0.  0.
         24    2    4    4    0    0  0.58584422831E+03 -0.20729432981E+03 -0.49853986664E+03  0.80073451918E+03  0.80307985679E+02 0.  0.
         13    1    3    3    0    0 -0.22528732098E+03  0.18927402270E+03 -0.10792510544E+03  0.31341164791E+03  0.00000000000E+00 0. -1.
        -13    1    3    3    0    0 -0.28231769243E+03  0.26863433082E+03 -0.33791037876E+02  0.39116430997E+03  0.00000000000E+00 0.  1.
          4    1    6    6  502    0  0.48435683064E+03 -0.20247182127E+03 -0.41478025819E+03  0.66905832360E+03  0.00000000000E+00 0. -1.
          3    1    5    5  503    0 -0.67834822744E+02 -0.22204239607E+03  0.23357098172E+03  0.32933234328E+03  0.00000000000E+00 0. -1.
         -4    1    5    5    0  503 -0.10404392155E+02 -0.28571627644E+02 -0.49151401485E+00  0.30411032018E+02  0.00000000000E+00 0.  1.
         -3    1    6    6    0  502  0.10148739767E+03 -0.48225085348E+01 -0.83759608454E+02  0.13167619558E+03  0.00000000000E+00 0.  1.
<mgrwt>
<rscale>  0 0.18200640E+04</rscale>
<asrwt>0</asrwt>
<pdfrwt beam="1">  1        1 0.11214441E+00 0.18200640E+04</pdfrwt>
<pdfrwt beam="2">  1       -1 0.17478695E+00 0.18200640E+04</pdfrwt>
<totfact> 0.54740965E+00</totfact>
</mgrwt>
</event>
<event>
12    1  0.1562393E-007  0.2002906E+04  0.7818608E-02  0.8605263E-01
         -1   -1    0    0    0  501 -0.00000000000E+00  0.00000000000E+00  0.57017746677E+03  0.57017746677E+03  0.00000000000E+00 0.  1.
          1   -1    0    0  501    0  0.00000000000E+00 -0.00000000000E+00 -0.17589411353E+04  0.17589411353E+04  0.00000000000E+00 0. -1.
         23    2    1    2    0    0  0.37073293587E+03 -0.69096267904E+03 -0.29814357659E+03  0.84402175937E+03  0.92794420376E+02 0.  0.
        254    2    1    2    0    0 -0.37073293587E+03  0.69096267904E+03 -0.89062009197E+03  0.14850968427E+04  0.89299280540E+03 0.  0.
        -24    2    4    4    0    0 -0.48171244144E+03  0.33589076074E+02 -0.22476452641E+03  0.53955304183E+03  0.86158518695E+02 0.  0.
         24    2    4    4    0    0  0.11097950557E+03  0.65737360297E+03 -0.66585556556E+03  0.94554380090E+03  0.78948975262E+02 0.  0.
         13    1    3    3    0    0  0.11152968528E+02 -0.52962342434E+01  0.39155263849E+01  0.12952611745E+02  0.00000000000E+00 0. -1.
        -13    1    3    3    0    0  0.35957996734E+03 -0.68566644480E+03 -0.30205910298E+03  0.83106914762E+03  0.00000000000E+00 0.  1.
          2    1    6    6  502    0 -0.81366761225E+01  0.14726609330E+03 -0.14386737488E+03  0.20603720365E+03  0.00000000000E+00 0. -1.
          3    1    5    5  503    0 -0.19723511318E+03 -0.27697002968E+02 -0.10113380997E+03  0.22337605370E+03  0.00000000000E+00 0. -1.
         -4    1    5    5    0  503 -0.28447732826E+03  0.61286079042E+02 -0.12363071644E+03  0.31617698813E+03  0.00000000000E+00 0.  1.
         -1    1    6    6    0  502  0.11911618170E+03  0.51010750967E+03 -0.52198819068E+03  0.73950659725E+03  0.00000000000E+00 0.  1.
<mgrwt>
<rscale>  0 0.20029065E+04</rscale>
<asrwt>0</asrwt>
<pdfrwt beam="1">  1        1 0.27060633E+00 0.20029065E+04</pdfrwt>
<pdfrwt beam="2">  1       -1 0.87719611E-01 0.20029065E+04</pdfrwt>
<totfact> 0.51496350E+00</totfact>
</mgrwt>
</event>
<event>
12    1  0.1562393E-007  0.1483917E+04  0.7818608E-02  0.8895219E-01
         -1   -1    0    0    0  501 -0.00000000000E+00  0.00000000000E+00  0.94748278872E+03  0.94748278872E+03  0.00000000000E+00 0.  1.
          1   -1    0    0  501    0  0.00000000000E+00 -0.00000000000E+00 -0.58101545009E+03  0.58101545009E+03  0.00000000000E+00 0. -1.
         23    2    1    2    0    0  0.22342987502E+03 -0.21638172780E+03  0.47052861070E+03  0.57104801512E+03  0.89200341362E+02 0.  0.
        254    2    1    2    0    0 -0.22342987502E+03  0.21638172780E+03 -0.10406127208E+03  0.95745022369E+03  0.89952221836E+03 0.  0.
        -24    2    4    4    0    0 -0.10728467319E+03  0.36899672478E+03  0.30611696467E+03  0.49761631199E+03  0.79030461878E+02 0.  0.
         24    2    4    4    0    0 -0.11614520183E+03 -0.15261499698E+03 -0.41017823675E+03  0.45983391170E+03  0.80124872792E+02 0.  0.
         13    1    3    3    0    0  0.30598680794E+02 -0.28560575418E+02  0.13237275075E+03  0.13883274425E+03  0.00000000000E+00 0.  1.
        -13    1    3    3    0    0  0.19283119423E+03 -0.18782115238E+03  0.33815585995E+03  0.43221527086E+03  0.00000000000E+00 0. -1.
          2    1    6    6  502    0 -0.91387808590E+02 -0.15797419980E+03 -0.35840892422E+03  0.40219962248E+03  0.00000000000E+00 0. -1.
          3    1    5    5  503    0 -0.91621898724E+02  0.32535724160E+03  0.29785382337E+03  0.45052059563E+03  0.00000000000E+00 0. -1.
         -4    1    5    5    0  503 -0.15662774465E+02  0.43639483173E+02  0.82631412984E+01  0.47095716362E+02  0.00000000000E+00 0.  1.
         -1    1    6    6    0  502 -0.24757393243E+02  0.53592028193E+01 -0.51769312529E+02  0.57634289227E+02  0.00000000000E+00 0.  1.
<mgrwt>
<rscale>  0 0.14839166E+04</rscale>
<asrwt>0</asrwt>
<pdfrwt beam="1">  1        1 0.89386992E-01 0.14839166E+04</pdfrwt>
<pdfrwt beam="2">  1       -1 0.14576658E+00 0.14839166E+04</pdfrwt>
<totfact> 0.13092657E+01</totfact>
</mgrwt>
</event>
<event>
12    1  0.1562393E-007  0.3981857E+04  0.7818608E-02  0.8008217E-01
          2   -1    0    0  501    0  0.00000000000E+00  0.00000000000E+00  0.24959022304E+04  0.24959022304E+04  0.00000000000E+00 0. -1.
         -2   -1    0    0    0  501 -0.00000000000E+00 -0.00000000000E+00 -0.15881216193E+04  0.15881216193E+04  0.00000000000E+00 0.  1.
         23    2    1    2    0    0  0.11294302209E+04  0.68766655814E+03  0.18087250529E+04  0.22423145208E+04  0.89387773562E+02 0.  0.
        254    2    1    2    0    0 -0.11294302209E+04 -0.68766655814E+03 -0.90094444177E+03  0.18417093289E+04  0.91197283181E+03 0.  0.
        -24    2    4    4    0    0 -0.83583062832E+03 -0.45905213551E+01 -0.33517309207E+03  0.90385970550E+03  0.77378636924E+02 0.  0.
         24    2    4    4    0    0 -0.29359959261E+03 -0.68307603679E+03 -0.56577134970E+03  0.93784962343E+03  0.81676821718E+02 0.  0.
         13    1    3    3    0    0  0.28053797547E+03  0.21578348679E+03  0.46743697931E+03  0.58631169055E+03  0.00000000000E+00 0.  1.
        -13    1    3    3    0    0  0.84889224547E+03  0.47188307135E+03  0.13412880736E+04  0.16560028303E+04  0.00000000000E+00 0. -1.
          4    1    6    6  502    0 -0.11537395292E+03 -0.36803359272E+03 -0.27818738587E+03  0.47555030863E+03  0.00000000000E+00 0. -1.
          3    1    5    5  503    0 -0.72746202191E+03 -0.11866118989E+02 -0.31750012666E+03  0.79381870004E+03  0.00000000000E+00 0. -1.
         -4    1    5    5    0  503 -0.10836860641E+03  0.72755976336E+01 -0.17672965407E+02  0.11004100546E+03  0.00000000000E+00 0.  1.
         -3    1    6    6    0  502 -0.17822563969E+03 -0.31504244406E+03 -0.28758396383E+03  0.46229931479E+03  0.00000000000E+00 0.  1.
<mgrwt>
<rscale>  0 0.39818570E+04</rscale>
<asrwt>0</asrwt>
<pdfrwt beam="1">  1        2 0.38398496E+00 0.39818570E+04</pdfrwt>
<pdfrwt beam="2">  1       -2 0.24432640E+00 0.39818570E+04</pdfrwt>
<totfact> 0.19260426E-01</totfact>
</mgrwt>
</event>
<event>
12    1  0.1650701E-007  0.2939779E+04  0.7818608E-02  0.8261139E-01
         -2   -1    0    0    0  501 -0.00000000000E+00  0.00000000000E+00  0.95146996113E+03  0.95146996113E+03  0.00000000000E+00 0.  1.
          2   -1    0    0  501    0  0.00000000000E+00 -0.00000000000E+00 -0.22707762696E+04  0.22707762696E+04  0.00000000000E+00 0. -1.
         23    2    1    2    0    0 -0.39248420674E+03  0.77821581313E+03  0.50235427726E+03  0.10109685663E+04  0.10016944567E+03 0.  0.
        254    2    1    2    0    0  0.39248420674E+03 -0.77821581313E+03 -0.18216605857E+04  0.22112776644E+04  0.90090949333E+03 0.  0.
        -24    2    4    4    0    0 -0.18328503910E+03  0.71973656079E+02 -0.20510809823E+03  0.29435713277E+03  0.76178585743E+02 0.  0.
         24    2    4    4    0    0  0.57576924584E+03 -0.85018946921E+03 -0.16165524875E+04  0.19169205316E+04  0.83725872831E+02 0.  0.
         13    1    3    3    0    0 -0.36704558784E+03  0.67668385658E+03  0.41452467665E+03  0.87433072281E+03  0.00000000000E+00 0.  1.
        -13    1    3    3    0    0 -0.25438618903E+02  0.10153195655E+03  0.87829600605E+02  0.13663784350E+03  0.00000000000E+00 0. -1.
          2    1    6    6  502    0  0.74917337538E+02 -0.15454828615E+03 -0.23553000213E+03  0.29149984926E+03  0.00000000000E+00 0. -1.
          1    1    5    5  503    0 -0.51082859208E+02  0.46427072879E+02 -0.10865314277E+03  0.12872620959E+03  0.00000000000E+00 0. -1.
         -2    1    5    5    0  503 -0.13220217989E+03  0.25546583200E+02 -0.96454955457E+02  0.16563092318E+03  0.00000000000E+00 0.  1.
         -1    1    6    6    0  502  0.50085190830E+03 -0.69564118306E+03 -0.13810224853E+04  0.16254206824E+04  0.00000000000E+00 0.  1.
<mgrwt>
<rscale>  0 0.29397792E+04</rscale>
<asrwt>0</asrwt>
<pdfrwt beam="1">  1        2 0.34935019E+00 0.29397792E+04</pdfrwt>
<pdfrwt beam="2">  1       -2 0.14638000E+00 0.29397792E+04</pdfrwt>
<totfact> 0.12948887E+00</totfact>
</mgrwt>
</event>
<event>
12    1  0.1562393E-007  0.1371848E+04  0.7818608E-02  0.8974452E-01
          2   -1    0    0  501    0  0.00000000000E+00  0.00000000000E+00  0.22932220001E+04  0.22932220001E+04  0.00000000000E+00 0. -1.
         -2   -1    0    0    0  501 -0.00000000000E+00 -0.00000000000E+00 -0.20516633233E+03  0.20516633233E+03  0.00000000000E+00 0.  1.
         23    2    1    2    0    0 -0.17997444465E+03 -0.28700809014E+03  0.91211034558E+03  0.97722756160E+03  0.90906435958E+02 0.  0.
        254    2    1    2    0    0  0.17997444465E+03  0.28700809014E+03  0.11759453222E+04  0.15211607708E+04  0.90350331787E+03 0.  0.
        -24    2    4    4    0    0 -0.23087841990E+03  0.16806799828E+03  0.33078555319E+02  0.29843470051E+03  0.80108568991E+02 0.  0.
         24    2    4    4    0    0  0.41085286455E+03  0.11894009185E+03  0.11428667668E+04  0.12227260703E+04  0.77251372012E+02 0.  0.
         11    1    3    3    0    0 -0.17265406968E+03 -0.28443357280E+03  0.91037601847E+03  0.96927621456E+03  0.00000000000E+00 0. -1.
        -11    1    3    3    0    0 -0.73203749634E+01 -0.25745173318E+01  0.17343271120E+01  0.79513470323E+01  0.00000000000E+00 0.  1.
          4    1    6    6  502    0  0.10797136696E+03  0.66665469216E+02  0.31084264068E+03  0.33574580881E+03  0.00000000000E+00 0. -1.
          1    1    5    5  503    0  0.65382316750E+01  0.62221346288E+01 -0.10263821163E+01  0.90838809451E+01  0.00000000000E+00 0. -1.
         -4    1    5    5    0  503 -0.23741665158E+03  0.16184586365E+03  0.34104937435E+02  0.28935081957E+03  0.00000000000E+00 0.  1.
         -3    1    6    6    0  502  0.30288149759E+03  0.52274622637E+02  0.83202412616E+03  0.88698026148E+03  0.00000000000E+00 0.  1.
<mgrwt>
<rscale>  0 0.13718483E+04</rscale>
<asrwt>0</asrwt>
<pdfrwt beam="1">  1        2 0.35280337E+00 0.13718483E+04</pdfrwt>
<pdfrwt beam="2">  1       -2 0.31564053E-01 0.13718483E+04</pdfrwt>
<totfact> 0.41679676E+01</totfact>
</mgrwt>
</event>
<event>
12    1  0.1841528E-007  0.1299729E+04  0.7818608E-02  0.9029780E-01
          1   -1    0    0  501    0  0.00000000000E+00  0.00000000000E+00  0.13791606277E+04  0.13791606277E+04  0.00000000000E+00 0. -1.
         -1   -1    0    0    0  501 -0.00000000000E+00 -0.00000000000E+00 -0.30621795389E+03  0.30621795389E+03  0.00000000000E+00 0.  1.
         23    2    1    2    0    0 -0.31655528985E+02  0.22596480922E+03 -0.28428091538E+02  0.24724814944E+03  0.90891823029E+02 0.  0.
        254    2    1    2    0    0  0.31655528985E+02 -0.22596480922E+03  0.11013707653E+04  0.14381304321E+04  0.89618045593E+03 0.  0.
        -24    2    4    4    0    0  0.44908352179E+03 -0.91335447548E+02  0.68288098890E+03  0.82661011903E+03  0.83304683872E+02 0.  0.
         24    2    4    4    0    0 -0.41742799280E+03 -0.13462936167E+03  0.41848977643E+03  0.61152031311E+03  0.80325625842E+02 0.  0.
         11    1    3    3    0    0  0.30257873233E+02  0.64495033247E+02 -0.20511899695E+02  0.74134244686E+02  0.00000000000E+00 0. -1.
        -11    1    3    3    0    0 -0.61913402218E+02  0.16146977597E+03 -0.79161918431E+01  0.17311390476E+03  0.00000000000E+00 0.  1.
          2    1    6    6  502    0 -0.39943181641E+03 -0.14518055516E+03  0.40054458759E+03  0.58400268510E+03  0.00000000000E+00 0. -1.
          1    1    5    5  503    0  0.43020881295E+03 -0.93815727667E+02  0.61679685929E+03  0.75783862340E+03  0.00000000000E+00 0. -1.
         -2    1    5    5    0  503  0.18874708838E+02  0.24802801191E+01  0.66084129619E+02  0.68771495627E+02  0.00000000000E+00 0.  1.
         -1    1    6    6    0  502 -0.17996176390E+02  0.10551193483E+02  0.17945188840E+02  0.27517628006E+02  0.00000000000E+00 0.  1.
<mgrwt>
<rscale>  0 0.12997288E+04</rscale>
<asrwt>0</asrwt>
<pdfrwt beam="1">  1        1 0.21217855E+00 0.12997288E+04</pdfrwt>
<pdfrwt beam="2">  1       -1 0.47110455E-01 0.12997288E+04</pdfrwt>
<totfact> 0.35078981E+01</totfact>
</mgrwt>
</event>
<event>
12    1  0.1562393E-007  0.1362020E+04  0.7818608E-02  0.8981779E-01
          2   -1    0    0  501    0  0.00000000000E+00  0.00000000000E+00  0.20815829690E+04  0.20815829690E+04  0.00000000000E+00 0. -1.
         -2   -1    0    0    0  501 -0.00000000000E+00 -0.00000000000E+00 -0.22279895064E+03  0.22279895064E+03  0.00000000000E+00 0.  1.
         23    2    1    2    0    0  0.15199661167E+02 -0.32382194737E+03  0.78362821641E+03  0.85371898076E+03  0.98342428566E+02 0.  0.
        254    2    1    2    0    0 -0.15199661167E+02  0.32382194737E+03  0.10751558019E+04  0.14506629389E+04  0.91835248160E+03 0.  0.
        -24    2    4    4    0    0  0.39983540673E+03  0.32291294440E+03  0.41541501330E+03  0.66694644933E+03  0.90037830156E+02 0.  0.
         24    2    4    4    0    0 -0.41503506789E+03  0.90900297197E+00  0.65974078862E+03  0.78371648952E+03  0.81845549186E+02 0.  0.
         11    1    3    3    0    0  0.26743174508E+02 -0.32580382963E+03  0.76091894928E+03  0.82816724166E+03  0.00000000000E+00 0.  1.
        -11    1    3    3    0    0 -0.11543513340E+02  0.19818822558E+01  0.22709267127E+02  0.25551739098E+02  0.00000000000E+00 0. -1.
          4    1    6    6  502    0 -0.31705241928E+03  0.18275600450E+02  0.55360384782E+03  0.63822680488E+03  0.00000000000E+00 0. -1.
          3    1    5    5  503    0  0.15356790346E+03  0.10565578954E+03  0.99670012638E+02  0.21137728888E+03  0.00000000000E+00 0. -1.
         -4    1    5    5    0  503  0.24626750327E+03  0.21725715485E+03  0.31574500066E+03  0.45556916044E+03  0.00000000000E+00 0.  1.
         -3    1    6    6    0  502 -0.97982648614E+02 -0.17366597478E+02  0.10613694080E+03  0.14548968465E+03  0.00000000000E+00 0.  1.
<mgrwt>
<rscale>  0 0.13620198E+04</rscale>
<asrwt>0</asrwt>
<pdfrwt beam="1">  1        2 0.32024352E+00 0.13620198E+04</pdfrwt>
<pdfrwt beam="2">  1       -2 0.34276763E-01 0.13620198E+04</pdfrwt>
<totfact> 0.46868301E+01</totfact>
</mgrwt>
</event>
<event>
12    1  0.1562393E-007  0.2354588E+04  0.7818608E-02  0.8456703E-01
          2   -1    0    0  501    0  0.00000000000E+00  0.00000000000E+00  0.14082456298E+04  0.14082456298E+04  0.00000000000E+00 0. -1.
         -2   -1    0    0    0  501 -0.00000000000E+00 -0.00000000000E+00 -0.98421843187E+03  0.98421843187E+03  0.00000000000E+00 0.  1.
         23    2    1    2    0    0  0.45715479401E+03 -0.20543380432E+03  0.10706480251E+04  0.11862141429E+04  0.98098142435E+02 0.  0.
        254    2    1    2    0    0 -0.45715479401E+03  0.20543380432E+03 -0.64662082714E+03  0.12062499188E+04  0.88641233005E+03 0.  0.
        -24    2    4    4    0    0 -0.47758390382E+03 -0.50676748771E+02 -0.76918109515E+03  0.91053011094E+03  0.82286133281E+02 0.  0.
         24    2    4    4    0    0  0.20429109808E+02  0.25611055309E+03  0.12256026802E+03  0.29571980786E+03  0.80120044498E+02 0.  0.
         13    1    3    3    0    0  0.32717403961E+03 -0.19307108288E+03  0.78064356204E+03  0.86817260162E+03  0.00000000000E+00 0. -1.
        -13    1    3    3    0    0  0.12998075440E+03 -0.12362721438E+02  0.29000446305E+03  0.31804154129E+03  0.00000000000E+00 0.  1.
          2    1    6    6  502    0  0.50774252927E+02  0.13699265096E+03  0.70670940197E+02  0.16229415568E+03  0.00000000000E+00 0. -1.
          3    1    5    5  503    0 -0.38624272999E+03 -0.14433266292E+02 -0.57393682094E+03  0.69195031619E+03  0.00000000000E+00 0. -1.
         -4    1    5    5    0  503 -0.91341173831E+02 -0.36243482479E+02 -0.19524427421E+03  0.21857979475E+03  0.00000000000E+00 0.  1.
         -1    1    6    6    0  502 -0.30345143119E+02  0.11911790213E+03  0.51889327821E+02  0.13342565218E+03  0.00000000000E+00 0.  1.
<mgrwt>
<rscale>  0 0.23545881E+04</rscale>
<asrwt>0</asrwt>
<pdfrwt beam="1">  1        2 0.21665318E+00 0.23545881E+04</pdfrwt>
<pdfrwt beam="2">  1       -2 0.15141822E+00 0.23545881E+04</pdfrwt>
<totfact> 0.37759483E+00</totfact>
</mgrwt>
</event>
<event>
12    1  0.1562393E-007  0.1519108E+04  0.7818608E-02  0.8871845E-01
         -2   -1    0    0    0  501 -0.00000000000E+00  0.00000000000E+00  0.24329380433E+03  0.24329380433E+03  0.00000000000E+00 0.  1.
          2   -1    0    0  501    0  0.00000000000E+00 -0.00000000000E+00 -0.23712998337E+04  0.23712998337E+04  0.00000000000E+00 0. -1.
         23    2    1    2    0    0  0.44163951090E+03  0.89042757339E+02 -0.10178349654E+04  0.11168390006E+04  0.91472762578E+02 0.  0.
        254    2    1    2    0    0 -0.44163951090E+03 -0.89042757339E+02 -0.11101710639E+04  0.14977546374E+04  0.89878534277E+03 0.  0.
        -24    2    4    4    0    0 -0.29898592773E+03  0.10816048843E+03  0.29736425402E+02  0.32918902794E+03  0.79936755497E+02 0.  0.
         24    2    4    4    0    0 -0.14265358317E+03 -0.19720324577E+03 -0.11399074893E+04  0.11685656094E+04  0.83170513967E+02 0.  0.
         13    1    3    3    0    0  0.18469452693E+03  0.31327968729E+01 -0.34149564522E+03  0.38825398697E+03  0.00000000000E+00 0.  1.
        -13    1    3    3    0    0  0.25694498397E+03  0.85909960467E+02 -0.67633932018E+03  0.72858501365E+03  0.00000000000E+00 0. -1.
          2    1    6    6  502    0 -0.20313085761E+02 -0.58138728019E+02 -0.45132589874E+03  0.45550828754E+03  0.00000000000E+00 0. -1.
          3    1    5    5  503    0 -0.14414625173E+03  0.35668637328E+02 -0.23015559093E+02  0.15026679453E+03  0.00000000000E+00 0. -1.
         -4    1    5    5    0  503 -0.15483967600E+03  0.72491851107E+02  0.52751984495E+02  0.17892223341E+03  0.00000000000E+00 0.  1.
         -1    1    6    6    0  502 -0.12234049741E+03 -0.13906451776E+03 -0.68858159060E+03  0.71305732190E+03  0.00000000000E+00 0.  1.
<mgrwt>
<rscale>  0 0.15191084E+04</rscale>
<asrwt>0</asrwt>
<pdfrwt beam="1">  1        2 0.36481537E+00 0.15191084E+04</pdfrwt>
<pdfrwt beam="2">  1       -2 0.37429815E-01 0.15191084E+04</pdfrwt>
<totfact> 0.26864872E+01</totfact>
</mgrwt>
</event>
<event>
12    1  0.1562393E-007  0.1553631E+04  0.7818608E-02  0.8849552E-01
          1   -1    0    0  501    0  0.00000000000E+00  0.00000000000E+00  0.78829564852E+03  0.78829564852E+03  0.00000000000E+00 0. -1.
         -1   -1    0    0    0  501 -0.00000000000E+00 -0.00000000000E+00 -0.76550251424E+03  0.76550251424E+03  0.00000000000E+00 0.  1.
         23    2    1    2    0    0 -0.12932518824E+03 -0.32882193632E+03  0.37942042856E+03  0.52720374907E+03  0.95577514682E+02 0.  0.
        254    2    1    2    0    0  0.12932518824E+03  0.32882193632E+03 -0.35662729427E+03  0.10265944137E+04  0.89546870021E+03 0.  0.
        -24    2    4    4    0    0  0.48813451622E+03  0.31600662820E+03 -0.28706138326E+03  0.65245557517E+03  0.71823010422E+02 0.  0.
         24    2    4    4    0    0 -0.35880932798E+03  0.12815308121E+02 -0.69565911019E+02  0.37413883851E+03  0.78943578194E+02 0.  0.
         13    1    3    3    0    0 -0.14026681651E+03 -0.29210059619E+03  0.31296795803E+03  0.45049581669E+03  0.00000000000E+00 0. -1.
        -13    1    3    3    0    0  0.10941628274E+02 -0.36721340132E+02  0.66452470529E+02  0.76707932379E+02  0.00000000000E+00 0.  1.
          2    1    6    6  502    0 -0.10265211398E+02 -0.70380362575E+01  0.10131212454E+02  0.16048363941E+02  0.00000000000E+00 0. -1.
          3    1    5    5  503    0  0.32690420617E+02  0.43813840892E+02 -0.36138269385E+02  0.65530838298E+02  0.00000000000E+00 0. -1.
         -4    1    5    5    0  503  0.45544409560E+03  0.27219278731E+03 -0.25092311387E+03  0.58692473687E+03  0.00000000000E+00 0.  1.
         -1    1    6    6    0  502 -0.34854411658E+03  0.19853344378E+02 -0.79697123473E+02  0.35809047457E+03  0.00000000000E+00 0.  1.
<mgrwt>
<rscale>  0 0.15536310E+04</rscale>
<asrwt>0</asrwt>
<pdfrwt beam="1">  1        1 0.12127625E+00 0.15536310E+04</pdfrwt>
<pdfrwt beam="2">  1       -1 0.11776962E+00 0.15536310E+04</pdfrwt>
<totfact> 0.14135585E+01</totfact>
</mgrwt>
</event>
<event>
12    1  0.1562393E-007  0.2196039E+04  0.7818608E-02  0.8520079E-01
          1   -1    0    0  501    0  0.00000000000E+00  0.00000000000E+00  0.16394906178E+04  0.16394906178E+04  0.00000000000E+00 0. -1.
         -1   -1    0    0    0  501 -0.00000000000E+00 -0.00000000000E+00 -0.73537877954E+03  0.73537877954E+03  0.00000000000E+00 0.  1.
         23    2    1    2    0    0  0.11107710663E+03  0.90029697712E+03  0.42618130173E+03  0.10066086502E+04  0.93582595388E+02 0.  0.
        254    2    1    2    0    0 -0.11107710663E+03 -0.90029697712E+03  0.47793053651E+03  0.13682607471E+04  0.90600612784E+03 0.  0.
        -24    2    4    4    0    0 -0.26093521586E+02  0.12771292489E+03 -0.10093705374E+03  0.18273181752E+03  0.78810946354E+02 0.  0.
         24    2    4    4    0    0 -0.84983585043E+02 -0.10280099020E+04  0.57886759025E+03  0.11855289296E+04  0.79778364563E+02 0.  0.
         13    1    3    3    0    0  0.10592745432E+03  0.65943829901E+03  0.34934716833E+03  0.75373930493E+03  0.00000000000E+00 0.  1.
        -13    1    3    3    0    0  0.51496523117E+01  0.24085867811E+03  0.76834133403E+02  0.25286934531E+03  0.00000000000E+00 0. -1.
          2    1    6    6  502    0 -0.77986695446E+02 -0.73094390229E+03  0.37544763293E+03  0.82542221804E+03  0.00000000000E+00 0. -1.
          3    1    5    5  503    0 -0.41690268002E+02  0.12608631496E+03 -0.75254574827E+02  0.15264038881E+03  0.00000000000E+00 0. -1.
         -4    1    5    5    0  503  0.15596746416E+02  0.16266099336E+01 -0.25682478912E+02  0.30091428708E+02  0.00000000000E+00 0.  1.
         -1    1    6    6    0  502 -0.69968895963E+01 -0.29706599971E+03  0.20341995732E+03  0.36010671153E+03  0.00000000000E+00 0.  1.
<mgrwt>
<rscale>  0 0.21960388E+04</rscale>
<asrwt>0</asrwt>
<pdfrwt beam="1">  1        1 0.25222932E+00 0.21960388E+04</pdfrwt>
<pdfrwt beam="2">  1       -1 0.11313520E+00 0.21960388E+04</pdfrwt>
<totfact> 0.34128584E+00</totfact>
</mgrwt>
</event>
<event>
12    1  0.1562393E-007  0.2398808E+04  0.7818608E-02  0.8439950E-01
          2   -1    0    0  501    0  0.00000000000E+00  0.00000000000E+00  0.14527719703E+04  0.14527719703E+04  0.00000000000E+00 0.  1.
         -2   -1    0    0    0  501 -0.00000000000E+00 -0.00000000000E+00 -0.99022419771E+03  0.99022419771E+03  0.00000000000E+00 0. -1.
         23    2    1    2    0    0  0.92075313579E+03 -0.29030547273E+03 -0.19017033852E+03  0.98819975842E+03  0.91161397098E+02 0.  0.
        254    2    1    2    0    0 -0.92075313579E+03  0.29030547273E+03  0.65271811106E+03  0.14547964095E+04  0.87082033518E+03 0.  0.
        -24    2    4    4    0    0 -0.95898454251E+03  0.65682420773E+02  0.26789867991E+03  0.10006463390E+04  0.74551055793E+02 0.  0.
         24    2    4    4    0    0  0.38231406718E+02  0.22462305196E+03  0.38481943115E+03  0.45415007053E+03  0.79051477193E+02 0.  0.
         11    1    3    3    0    0  0.53958429942E+03 -0.16680002609E+03 -0.15676941448E+03  0.58613148201E+03  0.00000000000E+00 0. -1.
        -11    1    3    3    0    0  0.38116883637E+03 -0.12350544664E+03 -0.33400924044E+02  0.40206827641E+03  0.00000000000E+00 0.  1.
          4    1    6    6  502    0  0.30023477854E+02  0.39509765956E+02  0.12947236006E+03  0.13865613167E+03  0.00000000000E+00 0. -1.
          3    1    5    5  503    0 -0.43848694116E+03  0.67036707828E+02  0.12762540385E+03  0.46157660412E+03  0.00000000000E+00 0. -1.
         -4    1    5    5    0  503 -0.52049760135E+03 -0.13542870547E+01  0.14027327606E+03  0.53906973489E+03  0.00000000000E+00 0.  1.
         -3    1    6    6    0  502  0.82079288640E+01  0.18511328600E+03  0.25534707108E+03  0.31549393886E+03  0.00000000000E+00 0.  1.
<mgrwt>
<rscale>  0 0.23988080E+04</rscale>
<asrwt>0</asrwt>
<pdfrwt beam="1">  1        2 0.22350338E+00 0.23988080E+04</pdfrwt>
<pdfrwt beam="2">  1       -2 0.15234218E+00 0.23988080E+04</pdfrwt>
<totfact> 0.34915512E+00</totfact>
</mgrwt>
</event>
<event>
12    1  0.1562393E-007  0.1414014E+04  0.7818608E-02  0.8943737E-01
         -2   -1    0    0    0  501 -0.00000000000E+00  0.00000000000E+00  0.35868919058E+03  0.35868919058E+03  0.00000000000E+00 0.  1.
          2   -1    0    0  501    0  0.00000000000E+00 -0.00000000000E+00 -0.13935702722E+04  0.13935702722E+04  0.00000000000E+00 0. -1.
         23    2    1    2    0    0 -0.32764710606E+03 -0.20189643931E+03 -0.54783025391E+03  0.67687592409E+03  0.99640509844E+02 0.  0.
        254    2    1    2    0    0  0.32764710606E+03  0.20189643931E+03 -0.48705082774E+03  0.10753835387E+04  0.87813236374E+03 0.  0.
        -24    2    4    4    0    0  0.29471090337E+02  0.49273855580E+03 -0.40467091364E+03  0.64340670815E+03  0.80955631106E+02 0.  0.
         24    2    4    4    0    0  0.29817601572E+03 -0.29084211649E+03 -0.82379914094E+02  0.43197683058E+03  0.79495023960E+02 0.  0.
         13    1    3    3    0    0 -0.25062713977E+03 -0.12512945064E+03 -0.32597809863E+03  0.42980584383E+03  0.00000000000E+00 0. -1.
        -13    1    3    3    0    0 -0.77019966288E+02 -0.76766988667E+02 -0.22185215528E+03  0.24707008026E+03  0.00000000000E+00 0.  1.
          2    1    6    6  502    0  0.16976924996E+03 -0.21207715188E+03 -0.34103285265E+02  0.27379070592E+03  0.00000000000E+00 0. -1.
          3    1    5    5  503    0  0.17711443941E+02  0.45606609525E+03 -0.39523574189E+03  0.60375596904E+03  0.00000000000E+00 0. -1.
         -4    1    5    5    0  503  0.11759646396E+02  0.36672460543E+02 -0.94351717517E+01  0.39650739106E+02  0.00000000000E+00 0.  1.
         -1    1    6    6    0  502  0.12840676576E+03 -0.78764964605E+02 -0.48276628829E+02  0.15818612466E+03  0.00000000000E+00 0.  1.
<mgrwt>
<rscale>  0 0.14140136E+04</rscale>
<asrwt>0</asrwt>
<pdfrwt beam="1">  1        2 0.21439543E+00 0.14140136E+04</pdfrwt>
<pdfrwt beam="2">  1       -2 0.55182951E-01 0.14140136E+04</pdfrwt>
<totfact> 0.43805572E+01</totfact>
</mgrwt>
</event>
<event>
12    1  0.1562393E-007  0.1765419E+04  0.7818608E-02  0.8724908E-01
          2   -1    0    0  501    0  0.00000000000E+00  0.00000000000E+00  0.21624754243E+04  0.21624754243E+04  0.00000000000E+00 0. -1.
         -2   -1    0    0    0  501 -0.00000000000E+00 -0.00000000000E+00 -0.36031686776E+03  0.36031686776E+03  0.00000000000E+00 0.  1.
         23    2    1    2    0    0  0.17349048184E+03  0.57929835355E+03  0.97613612832E+03  0.11522414120E+04  0.95566734871E+02 0.  0.
        254    2    1    2    0    0 -0.17349048184E+03 -0.57929835355E+03  0.82602242826E+03  0.13705508801E+04  0.91126896865E+03 0.  0.
        -24    2    4    4    0    0  0.28410297567E+03 -0.15541518267E+01  0.53358750484E+02  0.29980115797E+03  0.79477430114E+02 0.  0.
         24    2    4    4    0    0 -0.45759345751E+03 -0.57774420173E+03  0.77266367777E+03  0.10707497221E+04  0.79471211636E+02 0.  0.
         11    1    3    3    0    0  0.11609419447E+03  0.48487973883E+03  0.84096971167E+03  0.97765856978E+03  0.00000000000E+00 0. -1.
        -11    1    3    3    0    0  0.57396287372E+02  0.94418614727E+02  0.13516641665E+03  0.17458284223E+03  0.00000000000E+00 0.  1.
          2    1    6    6  502    0 -0.97140030559E+02 -0.97066753111E+02  0.18422099370E+03  0.22977274559E+03  0.00000000000E+00 0. -1.
          3    1    5    5  503    0  0.31064759485E+02 -0.26380287519E+02  0.66725463283E+01  0.41297236299E+02  0.00000000000E+00 0. -1.
         -4    1    5    5    0  503  0.25303821618E+03  0.24826135692E+02  0.46686204156E+02  0.25850392168E+03  0.00000000000E+00 0.  1.
         -1    1    6    6    0  502 -0.36045342695E+03 -0.48067744862E+03  0.58844268408E+03  0.84097697653E+03  0.00000000000E+00 0.  1.
<mgrwt>
<rscale>  0 0.17654194E+04</rscale>
<asrwt>0</asrwt>
<pdfrwt beam="1">  1        2 0.33268852E+00 0.17654194E+04</pdfrwt>
<pdfrwt beam="2">  1       -2 0.55433366E-01 0.17654194E+04</pdfrwt>
<totfact> 0.15700178E+01</totfact>
</mgrwt>
</event>
<event>
12    1  0.1562393E-007  0.1438068E+04  0.7818608E-02  0.8926715E-01
          2   -1    0    0  501    0  0.00000000000E+00  0.00000000000E+00  0.13130792576E+04  0.13130792576E+04  0.00000000000E+00 0.  1.
         -2   -1    0    0    0  501 -0.00000000000E+00 -0.00000000000E+00 -0.39373832861E+03  0.39373832861E+03  0.00000000000E+00 0. -1.
         23    2    1    2    0    0 -0.38150082303E+03 -0.11083704852E+03  0.81060528233E+02  0.41653162271E+03  0.95394204117E+02 0.  0.
        254    2    1    2    0    0  0.38150082303E+03  0.11083704852E+03  0.83828040077E+03  0.12902859635E+04  0.89682557281E+03 0.  0.
        -24    2    4    4    0    0  0.55391069590E+03 -0.21905798207E+03  0.52692995642E+03  0.79937116484E+03  0.80843191851E+02 0.  0.
         24    2    4    4    0    0 -0.17240987287E+03  0.32989503058E+03  0.31135044435E+03  0.49091479868E+03  0.74177792487E+02 0.  0.
         11    1    3    3    0    0 -0.34439236895E+03 -0.80835946949E+02  0.44755589595E+02  0.35657203607E+03  0.00000000000E+00 0. -1.
        -11    1    3    3    0    0 -0.37108454083E+02 -0.30001101568E+02  0.36304938638E+02  0.59959586633E+02  0.00000000000E+00 0.  1.
          4    1    6    6  502    0 -0.94408975662E+02  0.24943894084E+03  0.20458157275E+03  0.33613458584E+03  0.00000000000E+00 0. -1.
          1    1    5    5  503    0  0.41030120105E+03 -0.12380939420E+03  0.38541630493E+03  0.57638664955E+03  0.00000000000E+00 0. -1.
         -2    1    5    5    0  503  0.14360949485E+03 -0.95248587864E+02  0.14151365149E+03  0.22298451529E+03  0.00000000000E+00 0.  1.
         -3    1    6    6    0  502 -0.78000897207E+02  0.80456089747E+02  0.10676887161E+03  0.15478021284E+03  0.00000000000E+00 0.  1.
<mgrwt>
<rscale>  0 0.14380676E+04</rscale>
<asrwt>0</asrwt>
<pdfrwt beam="1">  1        2 0.20201219E+00 0.14380676E+04</pdfrwt>
<pdfrwt beam="2">  1       -2 0.60575128E-01 0.14380676E+04</pdfrwt>
<totfact> 0.40014464E+01</totfact>
</mgrwt>
</event>
<event>
12    1  0.1562393E-007  0.2151896E+04  0.7818608E-02  0.8538721E-01
          3   -1    0    0  501    0  0.00000000000E+00  0.00000000000E+00  0.60016174515E+03  0.60016174515E+03  0.00000000000E+00 0. -1.
         -3   -1    0    0    0  501 -0.00000000000E+00 -0.00000000000E+00 -0.19289207828E+04  0.19289207828E+04  0.00000000000E+00 0.  1.
         23    2    1    2    0    0 -0.44091306399E+03 -0.36426438931E+03 -0.13382125422E+04  0.14582172765E+04  0.92151734681E+02 0.  0.
        254    2    1    2    0    0  0.44091306399E+03  0.36426438931E+03  0.94535045677E+01  0.10708652514E+04  0.90530113364E+03 0.  0.
        -24    2    4    4    0    0  0.14265846259E+03 -0.26655376238E+03  0.16132101583E+03  0.35234421250E+03  0.81973341685E+02 0.  0.
         24    2    4    4    0    0  0.29825460139E+03  0.63081815169E+03 -0.15186751127E+03  0.71852103889E+03  0.79507198349E+02 0.  0.
         13    1    3    3    0    0 -0.79342806920E+02 -0.49069198378E+02 -0.14756653587E+03  0.17458221486E+03  0.00000000000E+00 0. -1.
        -13    1    3    3    0    0 -0.36157025707E+03 -0.31519519094E+03 -0.11906460063E+04  0.12836350617E+04  0.00000000000E+00 0.  1.
          4    1    6    6  502    0 -0.50301111165E+01  0.77040895099E+01 -0.32794412888E+01  0.97677913669E+01  0.00000000000E+00 0. -1.
          1    1    5    5  503    0  0.71845995932E+02 -0.18704896454E+03  0.13815704316E+03  0.24338556005E+03  0.00000000000E+00 0. -1.
         -2    1    5    5    0  503  0.70812466659E+02 -0.79504797838E+02  0.23163972673E+02  0.10895865245E+03  0.00000000000E+00 0.  1.
         -3    1    6    6    0  502  0.30328471251E+03  0.62311406218E+03 -0.14858806998E+03  0.70875324752E+03  0.00000000000E+00 0.  1.
<mgrwt>
<rscale>  0 0.21518963E+04</rscale>
<asrwt>0</asrwt>
<pdfrwt beam="1">  1        3 0.92332578E-01 0.21518963E+04</pdfrwt>
<pdfrwt beam="2">  1       -3 0.29675704E+00 0.21518963E+04</pdfrwt>
<totfact> 0.99953185E-02</totfact>
</mgrwt>
</event>
<event>
12    1  0.1562393E-007  0.1670044E+04  0.7818608E-02  0.8778636E-01
         -2   -1    0    0    0  501 -0.00000000000E+00  0.00000000000E+00  0.13030784547E+04  0.13030784547E+04  0.00000000000E+00 0. -1.
          2   -1    0    0  501    0  0.00000000000E+00 -0.00000000000E+00 -0.53508807015E+03  0.53508807015E+03  0.00000000000E+00 0.  1.
         23    2    1    2    0    0  0.36359713241E+02  0.29426923129E+03  0.83130195075E+03  0.88733930619E+03  0.91606232105E+02 0.  0.
        254    2    1    2    0    0 -0.36359713241E+02 -0.29426923129E+03 -0.63311566244E+02  0.95082721862E+03  0.90119234130E+03 0.  0.
        -24    2    4    4    0    0 -0.31872645138E+03 -0.30034115406E+03 -0.32921004104E+03  0.55476341733E+03  0.87131156615E+02 0.  0.
         24    2    4    4    0    0  0.28236673814E+03  0.60719227671E+01  0.26589847480E+03  0.39606380129E+03  0.79979326968E+02 0.  0.
         13    1    3    3    0    0  0.91465402860E+01  0.19381800863E+03  0.64942155220E+03  0.67778863382E+03  0.00000000000E+00 0. -1.
        -13    1    3    3    0    0  0.27213172955E+02  0.10045122266E+03  0.18188039855E+03  0.20955067237E+03  0.00000000000E+00 0.  1.
          4    1    6    6  502    0  0.18899998291E+02  0.67046692711E+00  0.56175915251E+02  0.59273880551E+02  0.00000000000E+00 0. -1.
          3    1    5    5  503    0 -0.15459446696E+03 -0.19467033736E+03 -0.21456275889E+03  0.32837960802E+03  0.00000000000E+00 0. -1.
         -4    1    5    5    0  503 -0.16413198442E+03 -0.10567081670E+03 -0.11464728215E+03  0.22638380931E+03  0.00000000000E+00 0.  1.
         -3    1    6    6    0  502  0.26346673984E+03  0.54014558400E+01  0.20972255955E+03  0.33678992074E+03  0.00000000000E+00 0.  1.
<mgrwt>
<rscale>  0 0.16700440E+04</rscale>
<asrwt>0</asrwt>
<pdfrwt beam="1">  1        2 0.82321242E-01 0.16700440E+04</pdfrwt>
<pdfrwt beam="2">  1       -2 0.20047361E+00 0.16700440E+04</pdfrwt>
<totfact> 0.71561653E+00</totfact>
</mgrwt>
</event>
<event>
12    1  0.1562393E-007  0.1407177E+04  0.7818608E-02  0.8948640E-01
          2   -1    0    0  501    0  0.00000000000E+00  0.00000000000E+00  0.25678085561E+04  0.25678085561E+04  0.00000000000E+00 0. -1.
         -2   -1    0    0    0  501 -0.00000000000E+00 -0.00000000000E+00 -0.19278567574E+03  0.19278567574E+03  0.00000000000E+00 0.  1.
         23    2    1    2    0    0 -0.55405021176E+02  0.38582924908E+03  0.49694818603E+03  0.63963184891E+03  0.10118041673E+03 0.  0.
        254    2    1    2    0    0  0.55405021176E+02 -0.38582924908E+03  0.18780746944E+04  0.21209623830E+04  0.90519773889E+03 0.  0.
        -24    2    4    4    0    0  0.25321889970E+03  0.11426271245E+03  0.12831536380E+04  0.13155412959E+04  0.83605405976E+02 0.  0.
         24    2    4    4    0    0 -0.19781387852E+03 -0.50009196153E+03  0.59492105636E+03  0.80542108705E+03  0.74496735744E+02 0.  0.
         11    1    3    3    0    0 -0.67917851145E+02  0.37557899698E+03  0.45047239517E+03  0.59042171055E+03  0.00000000000E+00 0. -1.
        -11    1    3    3    0    0  0.12512829969E+02  0.10250252098E+02  0.46475790856E+02  0.49210138362E+02  0.00000000000E+00 0.  1.
          4    1    6    6  502    0 -0.19544733521E+02 -0.95895741451E+02  0.75890418662E+02  0.12384403692E+03  0.00000000000E+00 0. -1.
          3    1    5    5  503    0  0.51044196501E+01  0.18699878457E+01  0.15042635849E+03  0.15052455375E+03  0.00000000000E+00 0. -1.
         -4    1    5    5    0  503  0.24811448005E+03  0.11239272460E+03  0.11327272795E+04  0.11650167422E+04  0.00000000000E+00 0.  1.
         -3    1    6    6    0  502 -0.17826914500E+03 -0.40419622008E+03  0.51903063770E+03  0.68157705012E+03  0.00000000000E+00 0.  1.
<mgrwt>
<rscale>  0 0.14071769E+04</rscale>
<asrwt>0</asrwt>
<pdfrwt beam="1">  1        2 0.39504745E+00 0.14071769E+04</pdfrwt>
<pdfrwt beam="2">  1       -2 0.29659337E-01 0.14071769E+04</pdfrwt>
<totfact> 0.32526131E+01</totfact>
</mgrwt>
</event>
<event>
12    1  0.2164437E-007  0.1930894E+04  0.7818608E-02  0.8639630E-01
         -1   -1    0    0    0  501 -0.00000000000E+00  0.00000000000E+00  0.40232752125E+03  0.40232752125E+03  0.00000000000E+00 0.  1.
          1   -1    0    0  501    0  0.00000000000E+00 -0.00000000000E+00 -0.23167379984E+04  0.23167379984E+04  0.00000000000E+00 0. -1.
         23    2    1    2    0    0 -0.22895139740E+03  0.49193358655E+03 -0.12563563828E+04  0.13715512865E+04  0.91127246767E+02 0.  0.
        254    2    1    2    0    0  0.22895139740E+03 -0.49193358655E+03 -0.65805409441E+03  0.13475142331E+04  0.10432363210E+04 0.  0.
        -24    2    4    4    0    0 -0.86723142479E+01  0.84790841375E+02 -0.70713035264E+03  0.71672310259E+03  0.79962330783E+02 0.  0.
         24    2    4    4    0    0  0.23762371165E+03 -0.57672442793E+03  0.49076258228E+02  0.63079113056E+03  0.80080441796E+02 0.  0.
         11    1    3    3    0    0 -0.99880797521E+02  0.18565187283E+03 -0.59766948169E+03  0.63375989219E+03  0.00000000000E+00 0. -1.
        -11    1    3    3    0    0 -0.12907059988E+03  0.30628171373E+03 -0.65868690109E+03  0.73779139435E+03  0.00000000000E+00 0.  1.
          4    1    6    6  502    0  0.17849423853E+03 -0.50378353103E+03  0.50795976861E+02  0.53687826422E+03  0.00000000000E+00 0. -1.
          3    1    5    5  503    0 -0.17935516778E+02  0.98285882589E+02 -0.63022999391E+03  0.63810002563E+03  0.00000000000E+00 0. -1.
         -4    1    5    5    0  503  0.92632025303E+01 -0.13495041214E+02 -0.76900358723E+02  0.78623076958E+02  0.00000000000E+00 0.  1.
         -3    1    6    6    0  502  0.59129473115E+02 -0.72940896902E+02 -0.17197186323E+01  0.93912866338E+02  0.00000000000E+00 0.  1.
<mgrwt>
<rscale>  0 0.19308935E+04</rscale>
<asrwt>0</asrwt>
<pdfrwt beam="1">  1        1 0.35642123E+00 0.19308935E+04</pdfrwt>
<pdfrwt beam="2">  1       -1 0.61896542E-01 0.19308935E+04</pdfrwt>
<totfact> 0.44794266E+00</totfact>
</mgrwt>
</event>
<event>
12    1  0.1562393E-007  0.2294358E+04  0.7818608E-02  0.8480149E-01
         -2   -1    0    0    0  501 -0.00000000000E+00  0.00000000000E+00  0.10549026684E+04  0.10549026684E+04  0.00000000000E+00 0.  1.
          2   -1    0    0  501    0  0.00000000000E+00 -0.00000000000E+00 -0.12475266336E+04  0.12475266336E+04  0.00000000000E+00 0. -1.
         23    2    1    2    0    0  0.15811164682E+03 -0.31322085412E+03  0.78440714446E+03  0.86440172957E+03  0.93750655889E+02 0.  0.
        254    2    1    2    0    0 -0.15811164682E+03  0.31322085412E+03 -0.97703110967E+03  0.14380275725E+04  0.99510145897E+03 0.  0.
        -24    2    4    4    0    0  0.40481012793E+03  0.92672468267E+02 -0.54936624205E+03  0.69314455202E+03  0.78655426085E+02 0.  0.
         24    2    4    4    0    0 -0.56292177475E+03  0.22054838585E+03 -0.42766486763E+03  0.74488302046E+03  0.80193267685E+02 0.  0.
         13    1    3    3    0    0  0.16868159484E+03 -0.29787243118E+03  0.76126305455E+03  0.83468730906E+03  0.00000000000E+00 0.  1.
        -13    1    3    3    0    0 -0.10569948017E+02 -0.15348422943E+02  0.23144089916E+02  0.29714420505E+02  0.00000000000E+00 0. -1.
          4    1    6    6  502    0 -0.99255638019E+01  0.53008296435E+00  0.28477883624E+01  0.10339618141E+02  0.00000000000E+00 0. -1.
          3    1    5    5  503    0  0.20750416255E+03  0.24175804699E+02 -0.22209456181E+03  0.30490726687E+03  0.00000000000E+00 0. -1.
         -4    1    5    5    0  503  0.19730596538E+03  0.68496663568E+02 -0.32727168024E+03  0.38823728515E+03  0.00000000000E+00 0.  1.
         -3    1    6    6    0  502 -0.55299621095E+03  0.22001830289E+03 -0.43051265599E+03  0.73454340232E+03  0.00000000000E+00 0.  1.
<mgrwt>
<rscale>  0 0.22943576E+04</rscale>
<asrwt>0</asrwt>
<pdfrwt beam="1">  1        2 0.19192717E+00 0.22943576E+04</pdfrwt>
<pdfrwt beam="2">  1       -2 0.16229272E+00 0.22943576E+04</pdfrwt>
<totfact> 0.39004683E+00</totfact>
</mgrwt>
</event>
<event>
12    1  0.1562393E-007  0.1115293E+04  0.7818608E-02  0.9190413E-01
         -1   -1    0    0    0  501 -0.00000000000E+00  0.00000000000E+00  0.15506714332E+03  0.15506714332E+03  0.00000000000E+00 0.  1.
          1   -1    0    0  501    0  0.00000000000E+00 -0.00000000000E+00 -0.20053861271E+04  0.20053861271E+04  0.00000000000E+00 0. -1.
         23    2    1    2    0    0  0.19789178669E+03  0.59550808270E+02 -0.35788370978E+03  0.42331132275E+03  0.91674796091E+02 0.  0.
        254    2    1    2    0    0 -0.19789178669E+03 -0.59550808270E+02 -0.14924352740E+04  0.17371419477E+04  0.86463381919E+03 0.  0.
        -24    2    4    4    0    0  0.48657298796E+02  0.22107697041E+03 -0.50005017694E+02  0.24497435259E+03  0.79179366369E+02 0.  0.
         24    2    4    4    0    0 -0.24654908548E+03 -0.28062777868E+03 -0.14424302563E+04  0.14921675951E+04  0.80129181907E+02 0.  0.
         13    1    3    3    0    0  0.18599521903E+02  0.10854276491E+00  0.43998183298E-01  0.18599890655E+02  0.00000000000E+00 0.  1.
        -13    1    3    3    0    0  0.17929226478E+03  0.59442265505E+02 -0.35792770797E+03  0.40471143210E+03  0.00000000000E+00 0. -1.
          4    1    6    6  502    0 -0.18633498173E+03 -0.25128928722E+03 -0.11210491143E+04  0.11638806416E+04  0.00000000000E+00 0. -1.
          1    1    5    5  503    0  0.59631909559E+02  0.19434544630E+03 -0.63647644842E+02  0.21301910673E+03  0.00000000000E+00 0. -1.
         -2    1    5    5    0  503 -0.10974610763E+02  0.26731524110E+02  0.13642627148E+02  0.31955245863E+02  0.00000000000E+00 0.  1.
         -3    1    6    6    0  502 -0.60214103751E+02 -0.29338491465E+02 -0.32138114198E+03  0.32828695343E+03  0.00000000000E+00 0.  1.
<mgrwt>
<rscale>  0 0.11152928E+04</rscale>
<asrwt>0</asrwt>
<pdfrwt beam="1">  1        1 0.30852089E+00 0.11152928E+04</pdfrwt>
<pdfrwt beam="2">  1       -1 0.23856488E-01 0.11152928E+04</pdfrwt>
<totfact> 0.44770851E+01</totfact>
</mgrwt>
</event>
<event>
12    1  0.1562393E-007  0.1633921E+04  0.7818608E-02  0.8799976E-01
          2   -1    0    0  501    0  0.00000000000E+00  0.00000000000E+00  0.10162411154E+04  0.10162411154E+04  0.00000000000E+00 0. -1.
         -2   -1    0    0    0  501 -0.00000000000E+00 -0.00000000000E+00 -0.65675791852E+03  0.65675791852E+03  0.00000000000E+00 0.  1.
         23    2    1    2    0    0 -0.28530380649E+03  0.19856828787E+02 -0.37380969649E+03  0.48066168823E+03  0.97516222683E+02 0.  0.
        254    2    1    2    0    0  0.28530380649E+03 -0.19856828787E+02  0.73329289333E+03  0.11923373456E+04  0.89563235915E+03 0.  0.
        -24    2    4    4    0    0  0.13251173621E+03 -0.44813779057E+03  0.42783359966E+03  0.63873101341E+03  0.80925143950E+02 0.  0.
         24    2    4    4    0    0  0.15279207028E+03  0.42828096178E+03  0.30545929367E+03  0.55360633224E+03  0.80028695091E+02 0.  0.
         11    1    3    3    0    0 -0.20725955697E+03 -0.30166159640E+02 -0.25661034102E+03  0.33123313279E+03  0.00000000000E+00 0.  1.
        -11    1    3    3    0    0 -0.78044249527E+02  0.50022988427E+02 -0.11719935547E+03  0.14942855543E+03  0.00000000000E+00 0. -1.
          4    1    6    6  502    0  0.31708710684E+02  0.18112172118E+03  0.93890588446E+02  0.20646055995E+03  0.00000000000E+00 0. -1.
          1    1    5    5  503    0  0.13286615578E+03 -0.33181000674E+03  0.33544571920E+03  0.49017866789E+03  0.00000000000E+00 0. -1.
         -2    1    5    5    0  503 -0.35441956715E+00 -0.11632778382E+03  0.92387880461E+02  0.14855234552E+03  0.00000000000E+00 0.  1.
         -3    1    6    6    0  502  0.12108335960E+03  0.24715924060E+03  0.21156870522E+03  0.34714577229E+03  0.00000000000E+00 0.  1.
<mgrwt>
<rscale>  0 0.16339209E+04</rscale>
<asrwt>0</asrwt>
<pdfrwt beam="1">  1        2 0.15634479E+00 0.16339209E+04</pdfrwt>
<pdfrwt beam="2">  1       -2 0.10103968E+00 0.16339209E+04</pdfrwt>
<totfact> 0.18959253E+01</totfact>
</mgrwt>
</event>
<event>
12    1  0.1960973E-007  0.1972241E+04  0.7818608E-02  0.8619710E-01
         -2   -1    0    0    0  501 -0.00000000000E+00  0.00000000000E+00  0.56241956914E+03  0.56241956914E+03  0.00000000000E+00 0. -1.
          2   -1    0    0  501    0  0.00000000000E+00 -0.00000000000E+00 -0.17290173315E+04  0.17290173315E+04  0.00000000000E+00 0.  1.
         23    2    1    2    0    0 -0.44227039046E+02  0.95232621961E+02 -0.13610005726E+04  0.13680674560E+04  0.90888516618E+02 0.  0.
        254    2    1    2    0    0  0.44227039046E+02 -0.95232621961E+02  0.19440281017E+03  0.92336944465E+03  0.89654525566E+03 0.  0.
        -24    2    4    4    0    0 -0.12264537874E+03 -0.43082812763E+03 -0.66218497877E+02  0.46003900242E+03  0.81217176772E+02 0.  0.
         24    2    4    4    0    0  0.16687241779E+03  0.33559550567E+03  0.26062130804E+03  0.46333044223E+03  0.79252036195E+02 0.  0.
         11    1    3    3    0    0 -0.34624318680E+02  0.11323215952E+03 -0.11754093650E+04  0.11813583456E+04  0.00000000000E+00 0.  1.
        -11    1    3    3    0    0 -0.96027203658E+01 -0.17999537559E+02 -0.18559120758E+03  0.18670911044E+03  0.00000000000E+00 0. -1.
          4    1    6    6  502    0  0.15130241425E+03  0.22915859862E+03  0.20135852070E+03  0.34051628116E+03  0.00000000000E+00 0. -1.
          3    1    5    5  503    0 -0.12858096084E+03 -0.41112223517E+03 -0.49638965224E+02  0.43361109604E+03  0.00000000000E+00 0. -1.
         -4    1    5    5    0  503  0.59355821032E+01 -0.19705892465E+02 -0.16579532653E+02  0.26427906382E+02  0.00000000000E+00 0.  1.
         -3    1    6    6    0  502  0.15570003533E+02  0.10643690706E+03  0.59262787343E+02  0.12281416106E+03  0.00000000000E+00 0.  1.
<mgrwt>
<rscale>  0 0.19722405E+04</rscale>
<asrwt>0</asrwt>
<pdfrwt beam="1">  1        2 0.26600266E+00 0.19722405E+04</pdfrwt>
<pdfrwt beam="2">  1       -2 0.86526090E-01 0.19722405E+04</pdfrwt>
<totfact> 0.10178674E+01</totfact>
</mgrwt>
</event>
<event>
12    1  0.1562393E-007  0.2507201E+04  0.7818608E-02  0.8400425E-01
         -1   -1    0    0    0  501 -0.00000000000E+00  0.00000000000E+00  0.11681215091E+04  0.11681215091E+04  0.00000000000E+00 0.  1.
          1   -1    0    0  501    0  0.00000000000E+00 -0.00000000000E+00 -0.13453340060E+04  0.13453340060E+04  0.00000000000E+00 0. -1.
         23    2    1    2    0    0 -0.10816318974E+04 -0.36755912105E+02  0.64934719561E+02  0.10862870654E+04  0.67264493772E+02 0.  0.
        254    2    1    2    0    0  0.10816318974E+04  0.36755912105E+02 -0.24214721645E+03  0.14271684498E+04  0.89827387319E+03 0.  0.
        -24    2    4    4    0    0  0.11433258783E+04  0.13686168804E+03 -0.39339124100E+03  0.12195702605E+04  0.81668636346E+02 0.  0.
         24    2    4    4    0    0 -0.61693980938E+02 -0.10010577593E+03  0.15124402455E+03  0.20759818932E+03  0.79968366168E+02 0.  0.
         11    1    3    3    0    0 -0.51686617762E+03  0.37493436000E+01  0.57019980446E+02  0.52001536643E+03  0.00000000000E+00 0. -1.
        -11    1    3    3    0    0 -0.56476571973E+03 -0.40505255705E+02  0.79147391150E+01  0.56627169894E+03  0.00000000000E+00 0.  1.
          4    1    6    6  502    0  0.11484816449E+02 -0.41192224924E+02  0.22794413819E+02  0.48459113740E+02  0.00000000000E+00 0. -1.
          3    1    5    5  503    0  0.26686398424E+03  0.35914485278E+02 -0.56189610282E+02  0.27507000680E+03  0.00000000000E+00 0. -1.
         -4    1    5    5    0  503  0.87646189405E+03  0.10094720276E+03 -0.33720163072E+03  0.94450025369E+03  0.00000000000E+00 0.  1.
         -3    1    6    6    0  502 -0.73178797386E+02 -0.58913551008E+02  0.12844961073E+03  0.15913907558E+03  0.00000000000E+00 0.  1.
<mgrwt>
<rscale>  0 0.25072005E+04</rscale>
<asrwt>0</asrwt>
<pdfrwt beam="1">  1        1 0.20697446E+00 0.25072005E+04</pdfrwt>
<pdfrwt beam="2">  1       -1 0.17971100E+00 0.25072005E+04</pdfrwt>
<totfact> 0.15590944E+00</totfact>
</mgrwt>
</event>
<event>
12    1  0.1562393E-007  0.2077916E+04  0.7818608E-02  0.8571035E-01
         -1   -1    0    0    0  501 -0.00000000000E+00  0.00000000000E+00  0.86654690332E+03  0.86654690332E+03  0.00000000000E+00 0. -1.
          1   -1    0    0  501    0  0.00000000000E+00 -0.00000000000E+00 -0.12456721204E+04  0.12456721204E+04  0.00000000000E+00 0.  1.
         23    2    1    2    0    0  0.12039815952E+03  0.14751009315E+03 -0.97762121206E+03  0.99997665308E+03  0.89191524540E+02 0.  0.
        254    2    1    2    0    0 -0.12039815952E+03 -0.14751009315E+03  0.59849599498E+03  0.11122423706E+04  0.91794917649E+03 0.  0.
        -24    2    4    4    0    0 -0.19306947717E+03  0.35865182654E+03  0.20725291223E+03  0.46372404489E+03  0.78608297794E+02 0.  0.
         24    2    4    4    0    0  0.72671317646E+02 -0.50616191969E+03  0.39124308275E+03  0.64851832574E+03  0.77613527641E+02 0.  0.
         11    1    3    3    0    0  0.34840967605E+02 -0.49136895719E+01 -0.14533557801E+03  0.14953416869E+03  0.00000000000E+00 0. -1.
        -11    1    3    3    0    0  0.85557191919E+02  0.15242378272E+03 -0.83228563405E+03  0.85044248440E+03  0.00000000000E+00 0.  1.
          2    1    6    6  502    0  0.69542133836E+02 -0.30406856863E+03  0.20185928967E+03  0.37153865967E+03  0.00000000000E+00 0. -1.
          3    1    5    5  503    0 -0.17528581918E+03  0.25399990797E+03  0.15788586156E+03  0.34665403061E+03  0.00000000000E+00 0. -1.
         -4    1    5    5    0  503 -0.17783657991E+02  0.10465191857E+03  0.49367050672E+02  0.11707001428E+03  0.00000000000E+00 0.  1.
         -1    1    6    6    0  502  0.31291838103E+01 -0.20209335106E+03  0.18938379308E+03  0.27697966607E+03  0.00000000000E+00 0.  1.
<mgrwt>
<rscale>  0 0.20779156E+04</rscale>
<asrwt>0</asrwt>
<pdfrwt beam="1">  1        1 0.19164186E+00 0.20779156E+04</pdfrwt>
<pdfrwt beam="2">  1       -1 0.13331491E+00 0.20779156E+04</pdfrwt>
<totfact> 0.43389109E+00</totfact>
</mgrwt>
</event>
<event>
12    1  0.1562393E-007  0.2666919E+04  0.7818608E-02  0.8345819E-01
         -1   -1    0    0    0  501 -0.00000000000E+00  0.00000000000E+00  0.94298217983E+03  0.94298217983E+03  0.00000000000E+00 0.  1.
          1   -1    0    0  501    0  0.00000000000E+00 -0.00000000000E+00 -0.18856282471E+04  0.18856282471E+04  0.00000000000E+00 0. -1.
         23    2    1    2    0    0 -0.66413270903E+02  0.93920803061E+02  0.82843411879E+03  0.84148479730E+03  0.92529644587E+02 0.  0.
        254    2    1    2    0    0  0.66413270903E+02 -0.93920803061E+02 -0.17710801861E+04  0.19871256296E+04  0.89370655288E+03 0.  0.
        -24    2    4    4    0    0 -0.22878235892E+03  0.30649755739E+03 -0.89214362425E+03  0.97395131177E+03  0.79867333595E+02 0.  0.
         24    2    4    4    0    0  0.29519562983E+03 -0.40041836045E+03 -0.87893656183E+03  0.10131743179E+04  0.80730387192E+02 0.  0.
         11    1    3    3    0    0 -0.44288440524E+02  0.10909606306E+03  0.73111275210E+03  0.74053310070E+03  0.00000000000E+00 0.  1.
        -11    1    3    3    0    0 -0.22124830379E+02 -0.15175259996E+02  0.97321366683E+02  0.10095169661E+03  0.00000000000E+00 0. -1.
          2    1    6    6  502    0  0.11892461062E+03 -0.98982619044E+02 -0.26285888183E+03  0.30501707107E+03  0.00000000000E+00 0. -1.
          3    1    5    5  503    0 -0.10734544705E+03  0.80595714360E+02 -0.31004042195E+03  0.33785170921E+03  0.00000000000E+00 0. -1.
         -4    1    5    5    0  503 -0.12143691187E+03  0.22590184303E+03 -0.58210320230E+03  0.63609960256E+03  0.00000000000E+00 0.  1.
         -1    1    6    6    0  502  0.17627101921E+03 -0.30143574141E+03 -0.61607768000E+03  0.70815724681E+03  0.00000000000E+00 0.  1.
<mgrwt>
<rscale>  0 0.26669187E+04</rscale>
<asrwt>0</asrwt>
<pdfrwt beam="1">  1        1 0.29009665E+00 0.26669187E+04</pdfrwt>
<pdfrwt beam="2">  1       -1 0.14507418E+00 0.26669187E+04</pdfrwt>
<totfact> 0.11904378E+00</totfact>
</mgrwt>
</event>
<event>
12    1  0.1562393E-007  0.1394477E+04  0.7818608E-02  0.8957826E-01
         -1   -1    0    0    0  501 -0.00000000000E+00  0.00000000000E+00  0.36852174597E+03  0.36852174597E+03  0.00000000000E+00 0.  1.
          1   -1    0    0  501    0  0.00000000000E+00 -0.00000000000E+00 -0.13191655298E+04  0.13191655298E+04  0.00000000000E+00 0. -1.
         23    2    1    2    0    0  0.31304496481E+03 -0.23680167727E+03 -0.36286535490E+03  0.54245631408E+03  0.92278938791E+02 0.  0.
        254    2    1    2    0    0 -0.31304496481E+03  0.23680167727E+03 -0.58777842889E+03  0.11452309617E+04  0.90110947710E+03 0.  0.
        -24    2    4    4    0    0  0.14371361695E+03 -0.29986535805E+02 -0.58661041957E+03  0.61023891205E+03  0.82017982173E+02 0.  0.
         24    2    4    4    0    0 -0.45675858176E+03  0.26678821307E+03 -0.11680093132E+01  0.53499204961E+03  0.80067323259E+02 0.  0.
         11    1    3    3    0    0  0.18036042697E+03 -0.17863435950E+03 -0.19103148345E+03  0.31769977287E+03  0.00000000000E+00 0. -1.
        -11    1    3    3    0    0  0.13268453784E+03 -0.58167317766E+02 -0.17183387145E+03  0.22475654121E+03  0.00000000000E+00 0.  1.
          4    1    6    6  502    0 -0.35560963553E+02  0.94388165370E+01  0.18136479523E+02  0.41019571864E+02  0.00000000000E+00 0. -1.
          3    1    5    5  503    0 -0.40092550356E+01  0.24892349937E+01 -0.29451878029E+00  0.47283356592E+01  0.00000000000E+00 0. -1.
         -4    1    5    5    0  503  0.14772287199E+03 -0.32475770799E+02 -0.58631590079E+03  0.60551057639E+03  0.00000000000E+00 0.  1.
         -3    1    6    6    0  502 -0.42119761821E+03  0.25734939654E+03 -0.19304488837E+02  0.49397247774E+03  0.00000000000E+00 0.  1.
<mgrwt>
<rscale>  0 0.13944765E+04</rscale>
<asrwt>0</asrwt>
<pdfrwt beam="1">  1        1 0.20294854E+00 0.13944765E+04</pdfrwt>
<pdfrwt beam="2">  1       -1 0.56695653E-01 0.13944765E+04</pdfrwt>
<totfact> 0.26921652E+01</totfact>
</mgrwt>
</event>
<event>
12    1  0.1562393E-007  0.2338998E+04  0.7818608E-02  0.8462702E-01
          1   -1    0    0  501    0  0.00000000000E+00  0.00000000000E+00  0.16757885069E+04  0.16757885069E+04  0.00000000000E+00 0. -1.
         -1   -1    0    0    0  501 -0.00000000000E+00 -0.00000000000E+00 -0.81616942338E+03  0.81616942338E+03  0.00000000000E+00 0.  1.
         23    2    1    2    0    0  0.77022553212E+03  0.62758915250E+03  0.46052639455E+03  0.10988115829E+04  0.90481048178E+02 0.  0.
        254    2    1    2    0    0 -0.77022553212E+03 -0.62758915250E+03  0.39909268901E+03  0.13931463474E+04  0.89132836604E+03 0.  0.
        -24    2    4    4    0    0 -0.51009003361E+03 -0.80285309641E+03  0.11349651782E+03  0.96165789749E+03  0.84495653431E+02 0.  0.
         24    2    4    4    0    0 -0.26013549851E+03  0.17526394391E+03  0.28559617120E+03  0.43148844988E+03  0.78925165557E+02 0.  0.
         13    1    3    3    0    0  0.70592115024E+03  0.60399395876E+03  0.42488775147E+03  0.10215982449E+04  0.00000000000E+00 0. -1.
        -13    1    3    3    0    0  0.64304381877E+02  0.23595193740E+02  0.35638643072E+02  0.77213338072E+02  0.00000000000E+00 0.  1.
          2    1    6    6  502    0 -0.23776185538E+03  0.13674797058E+03  0.21719855742E+03  0.34986557515E+03  0.00000000000E+00 0. -1.
          3    1    5    5  503    0 -0.30817519942E+03 -0.47638925257E+03  0.10910108103E+03  0.57777306911E+03  0.00000000000E+00 0. -1.
         -4    1    5    5    0  503 -0.20191483419E+03 -0.32646384383E+03  0.43954367871E+01  0.38388482838E+03  0.00000000000E+00 0.  1.
         -1    1    6    6    0  502 -0.22373643130E+02  0.38515973331E+02  0.68397613780E+02  0.81622874731E+02  0.00000000000E+00 0.  1.
<mgrwt>
<rscale>  0 0.23389975E+04</rscale>
<asrwt>0</asrwt>
<pdfrwt beam="1">  1        1 0.25781362E+00 0.23389975E+04</pdfrwt>
<pdfrwt beam="2">  1       -1 0.12556453E+00 0.23389975E+04</pdfrwt>
<totfact> 0.24680054E+00</totfact>
</mgrwt>
</event>
<event>
12    1  0.1562393E-007  0.2140085E+04  0.7818608E-02  0.8543789E-01
         -2   -1    0    0    0  501 -0.00000000000E+00  0.00000000000E+00  0.38529064326E+03  0.38529064326E+03  0.00000000000E+00 0.  1.
          2   -1    0    0  501    0  0.00000000000E+00 -0.00000000000E+00 -0.29717576964E+04  0.29717576964E+04  0.00000000000E+00 0. -1.
         23    2    1    2    0    0  0.22880144304E+03  0.23178978145E+03 -0.23472393097E+04  0.23714709461E+04  0.90914619419E+02 0.  0.
        254    2    1    2    0    0 -0.22880144304E+03 -0.23178978145E+03 -0.23922774343E+03  0.98557739357E+03  0.89891950828E+03 0.  0.
        -24    2    4    4    0    0  0.24002109880E+02 -0.97316958932E+02 -0.54458695624E+03  0.55910191646E+03  0.77287180703E+02 0.  0.
         24    2    4    4    0    0 -0.25280355292E+03 -0.13447282252E+03  0.30535921281E+03  0.42647547711E+03  0.81513847683E+02 0.  0.
         13    1    3    3    0    0  0.35180000084E+02  0.94386153681E+01 -0.14146669409E+03  0.14608061269E+03  0.00000000000E+00 0.  1.
        -13    1    3    3    0    0  0.19362144295E+03  0.22235116608E+03 -0.22057726156E+04  0.22253903334E+04  0.00000000000E+00 0. -1.
          4    1    6    6  502    0 -0.65543622477E+02 -0.74812352718E+02  0.12484207040E+03  0.15961953861E+03  0.00000000000E+00 0. -1.
          1    1    5    5  503    0 -0.38209691640E+01 -0.23990823342E+02 -0.32541447326E+03  0.32631999451E+03  0.00000000000E+00 0. -1.
         -2    1    5    5    0  503  0.27823079044E+02 -0.73326135590E+02 -0.21917248298E+03  0.23278192194E+03  0.00000000000E+00 0.  1.
         -3    1    6    6    0  502 -0.18725993044E+03 -0.59660469803E+02  0.18051714242E+03  0.26685593850E+03  0.00000000000E+00 0.  1.
<mgrwt>
<rscale>  0 0.21400845E+04</rscale>
<asrwt>0</asrwt>
<pdfrwt beam="1">  1        2 0.45719348E+00 0.21400845E+04</pdfrwt>
<pdfrwt beam="2">  1       -2 0.59275485E-01 0.21400845E+04</pdfrwt>
<totfact> 0.44328415E+00</totfact>
</mgrwt>
</event>
<event>
12    1  0.1562393E-007  0.1682182E+04  0.7818608E-02  0.8771592E-01
         -1   -1    0    0    0  501 -0.00000000000E+00  0.00000000000E+00  0.36281376021E+03  0.36281376021E+03  0.00000000000E+00 0.  1.
          1   -1    0    0  501    0  0.00000000000E+00 -0.00000000000E+00 -0.19498555029E+04  0.19498555029E+04  0.00000000000E+00 0. -1.
         23    2    1    2    0    0 -0.43659483134E+03 -0.18541174632E+03 -0.10566176572E+04  0.11617186836E+04  0.90315357916E+02 0.  0.
        254    2    1    2    0    0  0.43659483134E+03  0.18541174632E+03 -0.53042408552E+03  0.11509505796E+04  0.90462421129E+03 0.  0.
        -24    2    4    4    0    0  0.32201978260E+03 -0.10370550220E+03 -0.70503210290E+03  0.78601595914E+03  0.79367816735E+02 0.  0.
         24    2    4    4    0    0  0.11457504874E+03  0.28911724852E+03  0.17460801738E+03  0.36493462042E+03  0.77285783047E+02 0.  0.
         11    1    3    3    0    0 -0.32350971335E+03 -0.17224583092E+03 -0.85362274536E+03  0.92897736910E+03  0.00000000000E+00 0. -1.
        -11    1    3    3    0    0 -0.11308511799E+03 -0.13165915394E+02 -0.20299491182E+03  0.23274131447E+03  0.00000000000E+00 0.  1.
          4    1    6    6  502    0  0.52818458267E+01  0.10190613323E+03  0.39041699028E+02  0.10925663435E+03  0.00000000000E+00 0. -1.
          3    1    5    5  503    0  0.36013516561E+02 -0.40821030973E+02 -0.12094154982E+03  0.13262800767E+03  0.00000000000E+00 0. -1.
         -4    1    5    5    0  503  0.28600626604E+03 -0.62884471227E+02 -0.58409055308E+03  0.65338795147E+03  0.00000000000E+00 0.  1.
         -3    1    6    6    0  502  0.10929320291E+03  0.18721111528E+03  0.13556631835E+03  0.25567798607E+03  0.00000000000E+00 0.  1.
<mgrwt>
<rscale>  0 0.16821824E+04</rscale>
<asrwt>0</asrwt>
<pdfrwt beam="1">  1        1 0.29997776E+00 0.16821824E+04</pdfrwt>
<pdfrwt beam="2">  1       -1 0.55817503E-01 0.16821824E+04</pdfrwt>
<totfact> 0.99739663E+00</totfact>
</mgrwt>
</event>
<event>
12    1  0.1562393E-007  0.2462286E+04  0.7818608E-02  0.8416546E-01
          2   -1    0    0  501    0  0.00000000000E+00  0.00000000000E+00  0.81511737156E+03  0.81511737156E+03  0.00000000000E+00 0. -1.
         -2   -1    0    0    0  501 -0.00000000000E+00 -0.00000000000E+00 -0.18595035732E+04  0.18595035732E+04  0.00000000000E+00 0.  1.
         23    2    1    2    0    0 -0.68196685424E+03  0.65408331400E+02  0.42289374976E+03  0.81003294765E+03  0.89203209511E+02 0.  0.
        254    2    1    2    0    0  0.68196685424E+03 -0.65408331400E+02 -0.14672799514E+04  0.18645879971E+04  0.92434890765E+03 0.  0.
        -24    2    4    4    0    0  0.47207485704E+03 -0.21554743096E+02 -0.11459739675E+03  0.49276735444E+03  0.79798650697E+02 0.  0.
         24    2    4    4    0    0  0.20989199719E+03 -0.43853588305E+02 -0.13526825546E+04  0.13718206427E+04  0.78511109439E+02 0.  0.
         11    1    3    3    0    0 -0.51012347339E+03  0.27398043051E+02  0.35151436039E+03  0.62011205151E+03  0.00000000000E+00 0. -1.
        -11    1    3    3    0    0 -0.17184338085E+03  0.38010288349E+02  0.71379389370E+02  0.18992089614E+03  0.00000000000E+00 0.  1.
          4    1    6    6  502    0  0.12698492961E+03  0.96789228124E+00 -0.93837216478E+03  0.94692577787E+03  0.00000000000E+00 0. -1.
          3    1    5    5  503    0  0.33193389291E+03  0.20005237269E+02 -0.68711920225E+02  0.33956096178E+03  0.00000000000E+00 0. -1.
         -4    1    5    5    0  503  0.14014096413E+03 -0.41559980364E+02 -0.45885476522E+02  0.15320639266E+03  0.00000000000E+00 0.  1.
         -3    1    6    6    0  502  0.82907067583E+02 -0.44821480586E+02 -0.41431038987E+03  0.42489486480E+03  0.00000000000E+00 0.  1.
<mgrwt>
<rscale>  0 0.24622865E+04</rscale>
<asrwt>0</asrwt>
<pdfrwt beam="1">  1        2 0.12540267E+00 0.24622865E+04</pdfrwt>
<pdfrwt beam="2">  1       -2 0.28607747E+00 0.24622865E+04</pdfrwt>
<totfact> 0.11621791E+00</totfact>
</mgrwt>
</event>
<event>
12    1  0.1562393E-007  0.1543323E+04  0.7818608E-02  0.8856144E-01
          2   -1    0    0  501    0  0.00000000000E+00  0.00000000000E+00  0.82359379321E+03  0.82359379321E+03  0.00000000000E+00 0. -1.
         -2   -1    0    0    0  501 -0.00000000000E+00 -0.00000000000E+00 -0.72300385910E+03  0.72300385910E+03  0.00000000000E+00 0.  1.
         23    2    1    2    0    0  0.47104213473E+03 -0.16627593769E+03  0.86979482747E+02  0.51469208757E+03  0.88397592974E+02 0.  0.
        254    2    1    2    0    0 -0.47104213473E+03  0.16627593769E+03  0.13610451359E+02  0.10319055647E+04  0.90283745492E+03 0.  0.
        -24    2    4    4    0    0  0.25294173823E+03 -0.54679948842E+02  0.69447800338E+01  0.27071363822E+03  0.79172117601E+02 0.  0.
         24    2    4    4    0    0 -0.72398387297E+03  0.22095588653E+03  0.66656713254E+01  0.76119192652E+03  0.79966028471E+02 0.  0.
         11    1    3    3    0    0  0.31945036963E+03 -0.76511467656E+02  0.31521344257E+02  0.32999414917E+03  0.00000000000E+00 0. -1.
        -11    1    3    3    0    0  0.15159176510E+03 -0.89764470033E+02  0.55458138490E+02  0.18469793841E+03  0.00000000000E+00 0.  1.
          2    1    6    6  502    0 -0.20063164665E+03  0.91353606327E+02  0.23994831873E+02  0.22175276996E+03  0.00000000000E+00 0. -1.
          3    1    5    5  503    0  0.34452821594E+02 -0.16074156422E+02  0.28901583428E+02  0.47756433547E+02  0.00000000000E+00 0. -1.
         -4    1    5    5    0  503  0.21848891664E+03 -0.38605792420E+02 -0.21956803394E+02  0.22295720468E+03  0.00000000000E+00 0.  1.
         -1    1    6    6    0  502 -0.52335222631E+03  0.12960228020E+03 -0.17329160547E+02  0.53943915656E+03  0.00000000000E+00 0.  1.
<mgrwt>
<rscale>  0 0.15433230E+04</rscale>
<asrwt>0</asrwt>
<pdfrwt beam="1">  1        2 0.12670674E+00 0.15433230E+04</pdfrwt>
<pdfrwt beam="2">  1       -2 0.11123136E+00 0.15433230E+04</pdfrwt>
<totfact> 0.20405420E+01</totfact>
</mgrwt>
</event>
<event>
12    1  0.1562393E-007  0.1693076E+04  0.7818608E-02  0.8765323E-01
          1   -1    0    0  501    0  0.00000000000E+00  0.00000000000E+00  0.86592654923E+03  0.86592654923E+03  0.00000000000E+00 0. -1.
         -1   -1    0    0    0  501 -0.00000000000E+00 -0.00000000000E+00 -0.82758325287E+03  0.82758325287E+03  0.00000000000E+00 0.  1.
         23    2    1    2    0    0 -0.14197270818E+03  0.17317272247E+03  0.57126522282E+03  0.62032307180E+03  0.91168618118E+02 0.  0.
        254    2    1    2    0    0  0.14197270818E+03 -0.17317272247E+03 -0.53292192646E+03  0.10731867303E+04  0.90420071704E+03 0.  0.
        -24    2    4    4    0    0  0.99409509862E+02 -0.53255691321E+03 -0.22720997165E+03  0.59292506244E+03  0.80228685611E+02 0.  0.
         24    2    4    4    0    0  0.42563198317E+02  0.35938419074E+03 -0.30571195481E+03  0.48026166785E+03  0.78885029540E+02 0.  0.
         11    1    3    3    0    0 -0.12677278872E+02 -0.43301655066E+01  0.76257707725E+01  0.15414801743E+02  0.00000000000E+00 0.  1.
        -11    1    3    3    0    0 -0.12929542931E+03  0.17750288798E+03  0.56363945205E+03  0.60490827006E+03  0.00000000000E+00 0. -1.
          4    1    6    6  502    0  0.25422398138E+02  0.34964978573E+03 -0.28674069482E+03  0.45290340808E+03  0.00000000000E+00 0. -1.
          3    1    5    5  503    0  0.73922895777E+02 -0.49404403014E+03 -0.19333732726E+03  0.53565233160E+03  0.00000000000E+00 0. -1.
         -4    1    5    5    0  503  0.25486614085E+02 -0.38512883072E+02 -0.33872644396E+02  0.57272730845E+02  0.00000000000E+00 0.  1.
         -3    1    6    6    0  502  0.17140800179E+02  0.97344050090E+01 -0.18971259993E+02  0.27358259765E+02  0.00000000000E+00 0.  1.
<mgrwt>
<rscale>  0 0.16930757E+04</rscale>
<asrwt>0</asrwt>
<pdfrwt beam="1">  1        1 0.13321947E+00 0.16930757E+04</pdfrwt>
<pdfrwt beam="2">  1       -1 0.12732050E+00 0.16930757E+04</pdfrwt>
<totfact> 0.98845818E+00</totfact>
</mgrwt>
</event>
<event>
12    1  0.1562393E-007  0.2053649E+04  0.7818608E-02  0.8581941E-01
          1   -1    0    0  501    0  0.00000000000E+00  0.00000000000E+00  0.21132578156E+04  0.21132578156E+04  0.00000000000E+00 0. -1.
         -1   -1    0    0    0  501 -0.00000000000E+00 -0.00000000000E+00 -0.49893045654E+03  0.49893045654E+03  0.00000000000E+00 0.  1.
         23    2    1    2    0    0 -0.40395675024E+03  0.36955473033E+03 -0.13323678290E+03  0.57070817715E+03  0.90576091571E+02 0.  0.
        254    2    1    2    0    0  0.40395675024E+03 -0.36955473033E+03  0.17475641420E+04  0.20414800950E+04  0.90216893831E+03 0.  0.
        -24    2    4    4    0    0  0.30140306656E+03 -0.26617109320E+03  0.15195890869E+03  0.43735812610E+03  0.80621096194E+02 0.  0.
         24    2    4    4    0    0  0.10255368369E+03 -0.10338363714E+03  0.15956052333E+04  0.16041219689E+04  0.77754718205E+02 0.  0.
         13    1    3    3    0    0 -0.30920651835E+01  0.27234492917E+02 -0.20241268487E+01  0.27484096511E+02  0.00000000000E+00 0. -1.
        -13    1    3    3    0    0 -0.40086468506E+03  0.34232023742E+03 -0.13121265605E+03  0.54322408064E+03  0.00000000000E+00 0.  1.
          4    1    6    6  502    0  0.30574985587E+02 -0.72709423123E+02  0.10467864233E+04  0.10497539264E+04  0.00000000000E+00 0. -1.
          1    1    5    5  503    0  0.26641935460E+03 -0.24266349429E+03  0.10741839801E+03  0.37603664209E+03  0.00000000000E+00 0. -1.
         -2    1    5    5    0  503  0.34983711959E+02 -0.23507598906E+02  0.44540510686E+02  0.61321484008E+02  0.00000000000E+00 0.  1.
         -3    1    6    6    0  502  0.71978698102E+02 -0.30674214012E+02  0.54881881002E+03  0.55436804256E+03  0.00000000000E+00 0.  1.
<mgrwt>
<rscale>  0 0.20536491E+04</rscale>
<asrwt>0</asrwt>
<pdfrwt beam="1">  1        1 0.32511658E+00 0.20536491E+04</pdfrwt>
<pdfrwt beam="2">  1       -1 0.76758533E-01 0.20536491E+04</pdfrwt>
<totfact> 0.39246452E+00</totfact>
</mgrwt>
</event>
<event>
12    1  0.1562393E-007  0.3572841E+04  0.7818608E-02  0.8096741E-01
          1   -1    0    0  501    0  0.00000000000E+00  0.00000000000E+00  0.11940290979E+04  0.11940290979E+04  0.00000000000E+00 0. -1.
         -1   -1    0    0    0  501 -0.00000000000E+00 -0.00000000000E+00 -0.26727141928E+04  0.26727141928E+04  0.00000000000E+00 0.  1.
         23    2    1    2    0    0  0.45115614373E+03 -0.11742170645E+04 -0.18687721598E+04  0.22547083234E+04  0.95250500592E+02 0.  0.
        254    2    1    2    0    0 -0.45115614373E+03  0.11742170645E+04  0.39008706483E+03  0.16120349673E+04  0.92960273080E+03 0.  0.
        -24    2    4    4    0    0 -0.67256933069E+02 -0.14827516368E+03  0.21208949439E+02  0.18410814521E+03  0.83288476911E+02 0.  0.
         24    2    4    4    0    0 -0.38389921066E+03  0.13224922282E+04  0.36887811539E+03  0.14279268221E+04  0.80868088403E+02 0.  0.
         11    1    3    3    0    0 -0.18142857299E+01 -0.14687788790E+02 -0.38130618099E+02  0.40901916934E+02  0.00000000000E+00 0. -1.
        -11    1    3    3    0    0  0.45297042946E+03 -0.11595292757E+04 -0.18306415417E+04  0.22138064065E+04  0.00000000000E+00 0.  1.
          4    1    6    6  502    0 -0.31298788529E+03  0.96730664654E+03  0.29013666214E+03  0.10572714162E+04  0.00000000000E+00 0. -1.
          3    1    5    5  503    0 -0.12833418745E+02 -0.11821828404E+03  0.26102656650E+02  0.12174402656E+03  0.00000000000E+00 0. -1.
         -4    1    5    5    0  503 -0.54423514324E+02 -0.30056879641E+02 -0.48937072112E+01  0.62364118654E+02  0.00000000000E+00 0.  1.
         -3    1    6    6    0  502 -0.70911325370E+02  0.35518558162E+03  0.78741453249E+02  0.37065540589E+03  0.00000000000E+00 0.  1.
<mgrwt>
<rscale>  0 0.35728412E+04</rscale>
<asrwt>0</asrwt>
<pdfrwt beam="1">  1        1 0.18369678E+00 0.35728412E+04</pdfrwt>
<pdfrwt beam="2">  1       -1 0.41118680E+00 0.35728412E+04</pdfrwt>
<totfact> 0.52431743E-02</totfact>
</mgrwt>
</event>
<event>
12    1  0.1562393E-007  0.2186368E+04  0.7818608E-02  0.8524124E-01
         -2   -1    0    0    0  501 -0.00000000000E+00  0.00000000000E+00  0.15765054474E+04  0.15765054474E+04  0.00000000000E+00 0.  1.
          2   -1    0    0  501    0  0.00000000000E+00 -0.00000000000E+00 -0.75803785422E+03  0.75803785422E+03  0.00000000000E+00 0. -1.
         23    2    1    2    0    0  0.11617746564E+03  0.68315591575E+03  0.96571656222E+03  0.11920579747E+04  0.90523631064E+02 0.  0.
        254    2    1    2    0    0 -0.11617746564E+03 -0.68315591575E+03 -0.14724896900E+03  0.11424853270E+04  0.89632095518E+03 0.  0.
        -24    2    4    4    0    0 -0.49828241260E+03 -0.43363990856E+03 -0.38080723773E+02  0.66660133415E+03  0.81106498942E+02 0.  0.
         24    2    4    4    0    0  0.38210494696E+03 -0.24951600719E+03 -0.10916824523E+03  0.47588399280E+03  0.79280770069E+02 0.  0.
         11    1    3    3    0    0  0.13169768212E+03  0.61365487889E+03  0.86526197973E+03  0.10689223000E+04  0.00000000000E+00 0.  1.
        -11    1    3    3    0    0 -0.15520216486E+02  0.69501036854E+02  0.10045458249E+03  0.12313567471E+03  0.00000000000E+00 0. -1.
          2    1    6    6  502    0  0.13133769386E+03 -0.10312859410E+03 -0.76522755787E+02  0.18368676845E+03  0.00000000000E+00 0. -1.
          3    1    5    5  503    0 -0.86282750331E+02 -0.75768128868E+02  0.24147414301E+02  0.11733976297E+03  0.00000000000E+00 0. -1.
         -4    1    5    5    0  503 -0.41199966227E+03 -0.35787177969E+03 -0.62228138073E+02  0.54926157118E+03  0.00000000000E+00 0.  1.
         -1    1    6    6    0  502  0.25076725310E+03 -0.14638741309E+03 -0.32645489440E+02  0.29219722435E+03  0.00000000000E+00 0.  1.
<mgrwt>
<rscale>  0 0.21863676E+04</rscale>
<asrwt>0</asrwt>
<pdfrwt beam="1">  1        2 0.11662121E+00 0.21863676E+04</pdfrwt>
<pdfrwt beam="2">  1       -2 0.24253930E+00 0.21863676E+04</pdfrwt>
<totfact> 0.24171105E+00</totfact>
</mgrwt>
</event>
<event>
12    1  0.1562393E-007  0.1572854E+04  0.7818608E-02  0.8837400E-01
         -1   -1    0    0    0  501 -0.00000000000E+00  0.00000000000E+00  0.10300509880E+04  0.10300509880E+04  0.00000000000E+00 0.  1.
          1   -1    0    0  501    0  0.00000000000E+00 -0.00000000000E+00 -0.60042429885E+03  0.60042429885E+03  0.00000000000E+00 0. -1.
         23    2    1    2    0    0 -0.21782707478E+03  0.11076404214E+03  0.62760694961E+03  0.68009891392E+03  0.94481437247E+02 0.  0.
        254    2    1    2    0    0  0.21782707478E+03 -0.11076404214E+03 -0.19798026050E+03  0.95037637289E+03  0.89682872337E+03 0.  0.
        -24    2    4    4    0    0  0.25651493354E+03  0.33123535329E+03 -0.25488746424E+03  0.49688972241E+03  0.80093735120E+02 0.  0.
         24    2    4    4    0    0 -0.38687858767E+02 -0.44199939543E+03  0.56907203749E+02  0.45348665048E+03  0.74508364257E+02 0.  0.
         13    1    3    3    0    0 -0.18200849132E+03  0.11828420959E+03  0.46140026750E+03  0.50991023916E+03  0.00000000000E+00 0.  1.
        -13    1    3    3    0    0 -0.35818583455E+02 -0.75201674557E+01  0.16620668211E+03  0.17018867476E+03  0.00000000000E+00 0. -1.
          2    1    6    6  502    0  0.50392264642E+01 -0.18270221640E+02  0.17315310066E+02  0.25671282882E+02  0.00000000000E+00 0. -1.
          1    1    5    5  503    0  0.58600192018E+02  0.61337237643E+02 -0.17643626065E+02  0.86646042997E+02  0.00000000000E+00 0. -1.
         -2    1    5    5    0  503  0.19791474153E+03  0.26989811565E+03 -0.23724383818E+03  0.41024367942E+03  0.00000000000E+00 0.  1.
         -1    1    6    6    0  502 -0.43727085231E+02 -0.42372917379E+03  0.39591893683E+02  0.42781536759E+03  0.00000000000E+00 0.  1.
<mgrwt>
<rscale>  0 0.15728543E+04</rscale>
<asrwt>0</asrwt>
<pdfrwt beam="1">  1        1 0.92372969E-01 0.15728543E+04</pdfrwt>
<pdfrwt beam="2">  1       -1 0.15846938E+00 0.15728543E+04</pdfrwt>
<totfact> 0.98763252E+00</totfact>
</mgrwt>
</event>
<event>
12    1  0.1562393E-007  0.1465987E+04  0.7818608E-02  0.8907392E-01
         -2   -1    0    0    0  501 -0.00000000000E+00  0.00000000000E+00  0.19745089891E+03  0.19745089891E+03  0.00000000000E+00 0. -1.
          2   -1    0    0  501    0  0.00000000000E+00 -0.00000000000E+00 -0.27210782690E+04  0.27210782690E+04  0.00000000000E+00 0.  1.
         23    2    1    2    0    0 -0.57874444888E+01  0.40293690824E+03 -0.11586433582E+04  0.12299482420E+04  0.89031455217E+02 0.  0.
        254    2    1    2    0    0  0.57874444888E+01 -0.40293690824E+03 -0.13649840119E+04  0.16885809259E+04  0.90869826898E+03 0.  0.
        -24    2    4    4    0    0 -0.37067158925E+03 -0.42100423001E+03 -0.10407066030E+04  0.11848868547E+04  0.79023009990E+02 0.  0.
         24    2    4    4    0    0  0.37645903374E+03  0.18067321768E+02 -0.32427740889E+03  0.50369407121E+03  0.80647673588E+02 0.  0.
         13    1    3    3    0    0 -0.87066890279E+01  0.25838305983E+03 -0.60892291647E+03  0.66153210825E+03  0.00000000000E+00 0.  1.
        -13    1    3    3    0    0  0.29192445391E+01  0.14455384841E+03 -0.54972044174E+03  0.56841613378E+03  0.00000000000E+00 0. -1.
          4    1    6    6  502    0  0.17476140741E+03  0.11981079966E+01 -0.20247890274E+03  0.26747091624E+03  0.00000000000E+00 0. -1.
          1    1    5    5  503    0 -0.16168668933E+03 -0.12719136993E+03 -0.39307019874E+03  0.44364897298E+03  0.00000000000E+00 0. -1.
         -2    1    5    5    0  503 -0.20898489992E+03 -0.29381286008E+03 -0.64763640425E+03  0.74123788169E+03  0.00000000000E+00 0.  1.
         -3    1    6    6    0  502  0.20169762634E+03  0.16869213772E+02 -0.12179850615E+03  0.23622315497E+03  0.00000000000E+00 0.  1.
<mgrwt>
<rscale>  0 0.14659868E+04</rscale>
<asrwt>0</asrwt>
<pdfrwt beam="1">  1        2 0.41862741E+00 0.14659868E+04</pdfrwt>
<pdfrwt beam="2">  1       -2 0.30377062E-01 0.14659868E+04</pdfrwt>
<totfact> 0.25155716E+01</totfact>
</mgrwt>
</event>
<event>
12    1  0.1562393E-007  0.1508835E+04  0.7818608E-02  0.8878599E-01
          1   -1    0    0  501    0  0.00000000000E+00  0.00000000000E+00  0.18963606184E+04  0.18963606184E+04  0.00000000000E+00 0. -1.
         -1   -1    0    0    0  501 -0.00000000000E+00 -0.00000000000E+00 -0.30012515460E+03  0.30012515460E+03  0.00000000000E+00 0.  1.
         23    2    1    2    0    0  0.16489425104E+02 -0.39211381035E+03  0.89427202550E+03  0.98003145220E+03  0.81939308674E+02 0.  0.
        254    2    1    2    0    0 -0.16489425104E+02  0.39211381035E+03  0.70196343832E+03  0.12164543208E+04  0.91267919035E+03 0.  0.
        -24    2    4    4    0    0  0.11221070517E+03  0.29752470782E+03  0.89315070793E+03  0.95222257595E+03  0.88867614739E+02 0.  0.
         24    2    4    4    0    0 -0.12870013028E+03  0.94589102533E+02 -0.19118726961E+03  0.26423174488E+03  0.88062597559E+02 0.  0.
         11    1    3    3    0    0  0.53206589076E+01 -0.38652871437E+03  0.87939465322E+03  0.96060799109E+03  0.00000000000E+00 0.  1.
        -11    1    3    3    0    0  0.11168766196E+02 -0.55850959790E+01  0.14877372286E+02  0.19423461112E+02  0.00000000000E+00 0. -1.
          4    1    6    6  502    0 -0.52195551781E+02  0.91660558418E+02 -0.10266027330E+03  0.14719091449E+03  0.00000000000E+00 0. -1.
          3    1    5    5  503    0  0.91131154236E+02  0.15362365679E+03  0.58133229500E+03  0.60815487534E+03  0.00000000000E+00 0. -1.
         -4    1    5    5    0  503  0.21079550938E+02  0.14390105102E+03  0.31181841293E+03  0.34406770060E+03  0.00000000000E+00 0.  1.
         -3    1    6    6    0  502 -0.76504578497E+02  0.29285441156E+01 -0.88526996312E+02  0.11704083039E+03  0.00000000000E+00 0.  1.
<mgrwt>
<rscale>  0 0.15088347E+04</rscale>
<asrwt>0</asrwt>
<pdfrwt beam="1">  1        1 0.29174778E+00 0.15088347E+04</pdfrwt>
<pdfrwt beam="2">  1       -1 0.46173102E-01 0.15088347E+04</pdfrwt>
<totfact> 0.15812857E+01</totfact>
</mgrwt>
</event>
<event>
12    1  0.1562393E-007  0.1197946E+04  0.7818608E-02  0.9114657E-01
         -1   -1    0    0    0  501 -0.00000000000E+00  0.00000000000E+00  0.71936118327E+03  0.71936118327E+03  0.00000000000E+00 0.  1.
          1   -1    0    0  501    0  0.00000000000E+00 -0.00000000000E+00 -0.49873199652E+03  0.49873199652E+03  0.00000000000E+00 0. -1.
         23    2    1    2    0    0 -0.18029817565E+03  0.11280703392E+03  0.16882716962E+03  0.28752984330E+03  0.94540671349E+02 0.  0.
        254    2    1    2    0    0  0.18029817565E+03 -0.11280703392E+03  0.51802017123E+02  0.93056333649E+03  0.90445111266E+03 0.  0.
        -24    2    4    4    0    0  0.21994816431E+03 -0.26053032321E+03  0.40628953699E+03  0.53617531411E+03  0.78482707065E+02 0.  0.
         24    2    4    4    0    0 -0.39649988654E+02  0.14772328929E+03 -0.35448751986E+03  0.39438802238E+03  0.80537063858E+02 0.  0.
         11    1    3    3    0    0 -0.16376725703E+03  0.59617145228E+02  0.10789681948E+03  0.20497717467E+03  0.00000000000E+00 0. -1.
        -11    1    3    3    0    0 -0.16530918619E+02  0.53189888691E+02  0.60930350143E+02  0.82552668630E+02  0.00000000000E+00 0.  1.
          2    1    6    6  502    0 -0.32697619179E+02  0.38270534603E+02 -0.50849955008E+02  0.71550583807E+02  0.00000000000E+00 0. -1.
          3    1    5    5  503    0  0.74486394199E+02 -0.48595711720E+02  0.71669249706E+02  0.11422017104E+03  0.00000000000E+00 0. -1.
         -4    1    5    5    0  503  0.14546177011E+03 -0.21193461149E+03  0.33462028728E+03  0.42195514308E+03  0.00000000000E+00 0.  1.
         -1    1    6    6    0  502 -0.69523694748E+01  0.10945275469E+03 -0.30363756486E+03  0.32283743857E+03  0.00000000000E+00 0.  1.
<mgrwt>
<rscale>  0 0.11979456E+04</rscale>
<asrwt>0</asrwt>
<pdfrwt beam="1">  1        1 0.76727999E-01 0.11979456E+04</pdfrwt>
<pdfrwt beam="2">  1       -1 0.11067095E+00 0.11979456E+04</pdfrwt>
<totfact> 0.33136449E+01</totfact>
</mgrwt>
</event>
<event>
12    1  0.1970834E-007  0.2114885E+04  0.7818608E-02  0.8554714E-01
         -2   -1    0    0    0  501 -0.00000000000E+00  0.00000000000E+00  0.79140129858E+03  0.79140129858E+03  0.00000000000E+00 0.  1.
          2   -1    0    0  501    0  0.00000000000E+00 -0.00000000000E+00 -0.14129178979E+04  0.14129178979E+04  0.00000000000E+00 0. -1.
         23    2    1    2    0    0 -0.87292038061E+02  0.84126809488E+03 -0.43628448806E+03  0.95611568359E+03  0.91984447122E+02 0.  0.
        254    2    1    2    0    0  0.87292038061E+02 -0.84126809488E+03 -0.18523211123E+03  0.12482035129E+04  0.89908240285E+03 0.  0.
        -24    2    4    4    0    0  0.11357282945E+03  0.17083835936E+03 -0.40231373537E+02  0.22220952405E+03  0.75325802650E+02 0.  0.
         24    2    4    4    0    0 -0.26280791386E+02 -0.10121064542E+04 -0.14500073769E+03  0.10259939888E+04  0.81168321586E+02 0.  0.
         13    1    3    3    0    0  0.53869796535E+01  0.17256858898E+02  0.20279781585E+01  0.18191520668E+02  0.00000000000E+00 0. -1.
        -13    1    3    3    0    0 -0.92679017714E+02  0.82401123598E+03 -0.43831246622E+03  0.93792416292E+03  0.00000000000E+00 0.  1.
          2    1    6    6  502    0 -0.17472666581E+02 -0.99929384286E+03 -0.13795079597E+03  0.10089221479E+04  0.00000000000E+00 0. -1.
          1    1    5    5  503    0  0.55291651316E+02  0.13495487548E+03 -0.47499763993E+02  0.15338256974E+03  0.00000000000E+00 0. -1.
         -2    1    5    5    0  503  0.58281178130E+02  0.35883483879E+02  0.72683904555E+01  0.68826954309E+02  0.00000000000E+00 0.  1.
         -1    1    6    6    0  502 -0.88081248050E+01 -0.12812611377E+02 -0.70499417255E+01  0.17071840885E+02  0.00000000000E+00 0.  1.
<mgrwt>
<rscale>  0 0.21148854E+04</rscale>
<asrwt>0</asrwt>
<pdfrwt beam="1">  1        2 0.21737198E+00 0.21148854E+04</pdfrwt>
<pdfrwt beam="2">  1       -2 0.12175405E+00 0.21148854E+04</pdfrwt>
<totfact> 0.67073391E+00</totfact>
</mgrwt>
</event>
<event>
12    1  0.1562393E-007  0.2689087E+04  0.7818608E-02  0.8338554E-01
         -1   -1    0    0    0  501 -0.00000000000E+00  0.00000000000E+00  0.15219039863E+04  0.15219039863E+04  0.00000000000E+00 0. -1.
          1   -1    0    0  501    0  0.00000000000E+00 -0.00000000000E+00 -0.11878526683E+04  0.11878526683E+04  0.00000000000E+00 0.  1.
         23    2    1    2    0    0  0.37017584207E+03  0.64832668514E+03 -0.78962536309E+03  0.10904906406E+04  0.91126168443E+02 0.  0.
        254    2    1    2    0    0 -0.37017584207E+03 -0.64832668514E+03  0.11236766811E+04  0.16192660140E+04  0.89555317865E+03 0.  0.
        -24    2    4    4    0    0 -0.44081957767E+03 -0.60827140107E+03  0.34176041125E+03  0.82914004366E+03  0.79731022079E+02 0.  0.
         24    2    4    4    0    0  0.70643735605E+02 -0.40055284064E+02  0.78191626982E+03  0.79012597034E+03  0.79442009245E+02 0.  0.
         11    1    3    3    0    0  0.10180210179E+02  0.66912022313E+02 -0.83898335303E+02  0.10779511156E+03  0.00000000000E+00 0. -1.
        -11    1    3    3    0    0  0.35999563189E+03  0.58141466282E+03 -0.70572702779E+03  0.98269552908E+03  0.00000000000E+00 0.  1.
          2    1    6    6  502    0  0.11488094125E+02 -0.38148520814E+02  0.52370612385E+03  0.52521937332E+03  0.00000000000E+00 0. -1.
          3    1    5    5  503    0 -0.41602530990E+03 -0.55343426744E+03  0.33314769105E+03  0.76834492964E+03  0.00000000000E+00 0. -1.
         -4    1    5    5    0  503 -0.24794267770E+02 -0.54837133634E+02  0.86127202046E+01  0.60795114021E+02  0.00000000000E+00 0.  1.
         -1    1    6    6    0  502  0.59155641481E+02 -0.19067632505E+01  0.25821014596E+03  0.26490659702E+03  0.00000000000E+00 0.  1.
<mgrwt>
<rscale>  0 0.26890874E+04</rscale>
<asrwt>0</asrwt>
<pdfrwt beam="1">  1        1 0.18274656E+00 0.26890874E+04</pdfrwt>
<pdfrwt beam="2">  1       -1 0.23413908E+00 0.26890874E+04</pdfrwt>
<totfact> 0.84473271E-01</totfact>
</mgrwt>
</event>
<event>
12    1  0.1562393E-007  0.1490318E+04  0.7818608E-02  0.8890917E-01
         -2   -1    0    0    0  501 -0.00000000000E+00  0.00000000000E+00  0.27526197592E+03  0.27526197592E+03  0.00000000000E+00 0. -1.
          2   -1    0    0  501    0  0.00000000000E+00 -0.00000000000E+00 -0.20172117219E+04  0.20172117219E+04  0.00000000000E+00 0.  1.
         23    2    1    2    0    0 -0.36022089397E+03  0.28079208539E+03 -0.41292263147E+03  0.62233025409E+03  0.90479599396E+02 0.  0.
        254    2    1    2    0    0  0.36022089397E+03 -0.28079208539E+03 -0.13290271145E+04  0.16701434437E+04  0.90247590760E+03 0.  0.
        -24    2    4    4    0    0  0.90670041733E+02  0.65042958708E+02 -0.11988202853E+04  0.12066797388E+04  0.80338488831E+02 0.  0.
         24    2    4    4    0    0  0.26955085224E+03 -0.34583504410E+03 -0.13020682924E+03  0.46346370488E+03  0.74734514727E+02 0.  0.
         11    1    3    3    0    0 -0.32151999958E+01  0.56980426422E+01  0.45671351880E+01  0.79789676520E+01  0.00000000000E+00 0.  1.
        -11    1    3    3    0    0 -0.35700569398E+03  0.27509404275E+03 -0.41748976665E+03  0.61435128644E+03  0.00000000000E+00 0. -1.
          4    1    6    6  502    0  0.17937062378E+03 -0.18525765126E+03 -0.50379172036E+02  0.26273994558E+03  0.00000000000E+00 0. -1.
          1    1    5    5  503    0  0.11671485779E+02 -0.18522115583E+02 -0.15353991459E+03  0.15509286805E+03  0.00000000000E+00 0. -1.
         -2    1    5    5    0  503  0.78998555954E+02  0.83565074291E+02 -0.10452803707E+04  0.10515868708E+04  0.00000000000E+00 0.  1.
         -3    1    6    6    0  502  0.90180228462E+02 -0.16057739284E+03 -0.79827657201E+02  0.20072375931E+03  0.00000000000E+00 0.  1.
<mgrwt>
<rscale>  0 0.14903177E+04</rscale>
<asrwt>0</asrwt>
<pdfrwt beam="1">  1        2 0.31034026E+00 0.14903177E+04</pdfrwt>
<pdfrwt beam="2">  1       -2 0.42347998E-01 0.14903177E+04</pdfrwt>
<totfact> 0.33413963E+01</totfact>
</mgrwt>
</event>
<event>
12    1  0.1562393E-007  0.1774865E+04  0.7818608E-02  0.8719782E-01
          1   -1    0    0  501    0  0.00000000000E+00  0.00000000000E+00  0.86106546918E+03  0.86106546918E+03  0.00000000000E+00 0. -1.
         -1   -1    0    0    0  501 -0.00000000000E+00 -0.00000000000E+00 -0.91460648530E+03  0.91460648530E+03  0.00000000000E+00 0.  1.
         23    2    1    2    0    0 -0.21885095381E+03  0.58492822389E+03 -0.22123518956E+03  0.66879687170E+03  0.91145375151E+02 0.  0.
        254    2    1    2    0    0  0.21885095381E+03 -0.58492822389E+03  0.16769417345E+03  0.11068750828E+04  0.89833977202E+03 0.  0.
        -24    2    4    4    0    0  0.49229910796E+03 -0.37454639522E+03 -0.13765801999E+03  0.63973290449E+03  0.87550241274E+02 0.  0.
         24    2    4    4    0    0 -0.27344815415E+03 -0.21038182867E+03  0.30535219344E+03  0.46714217829E+03  0.77119685299E+02 0.  0.
         11    1    3    3    0    0 -0.12495415937E+03  0.41030834998E+03 -0.11594011503E+03  0.44430686950E+03  0.00000000000E+00 0. -1.
        -11    1    3    3    0    0 -0.93896794431E+02  0.17461987391E+03 -0.10529507454E+03  0.22449000221E+03  0.00000000000E+00 0.  1.
          2    1    6    6  502    0 -0.88548876000E+02 -0.95049496763E+02  0.15574503389E+03  0.20280982683E+03  0.00000000000E+00 0. -1.
          1    1    5    5  503    0  0.27751507005E+03 -0.22281074208E+03 -0.12226259011E+03  0.37630756281E+03  0.00000000000E+00 0. -1.
         -2    1    5    5    0  503  0.21478403791E+03 -0.15173565315E+03 -0.15395429879E+02  0.26342534168E+03  0.00000000000E+00 0.  1.
         -1    1    6    6    0  502 -0.18489927815E+03 -0.11533233190E+03  0.14960715954E+03  0.26433235146E+03  0.00000000000E+00 0.  1.
<mgrwt>
<rscale>  0 0.17748646E+04</rscale>
<asrwt>0</asrwt>
<pdfrwt beam="1">  1        1 0.13247161E+00 0.17748646E+04</pdfrwt>
<pdfrwt beam="2">  1       -1 0.14070869E+00 0.17748646E+04</pdfrwt>
<totfact> 0.76686425E+00</totfact>
</mgrwt>
</event>
<event>
12    1  0.1562393E-007  0.1747914E+04  0.7818608E-02  0.8734500E-01
          1   -1    0    0  501    0  0.00000000000E+00  0.00000000000E+00  0.13330600265E+04  0.13330600265E+04  0.00000000000E+00 0. -1.
         -1   -1    0    0    0  501 -0.00000000000E+00 -0.00000000000E+00 -0.57296777551E+03  0.57296777551E+03  0.00000000000E+00 0.  1.
         23    2    1    2    0    0 -0.33300667690E+03  0.51439266769E+03  0.13019614851E+03  0.63304304316E+03  0.91099912007E+02 0.  0.
        254    2    1    2    0    0  0.33300667690E+03 -0.51439266769E+03  0.62989610248E+03  0.12729847589E+04  0.92099285172E+03 0.  0.
        -24    2    4    4    0    0  0.28507374253E+03 -0.77087099454E+03  0.53666467214E+03  0.98482309462E+03  0.79739754691E+02 0.  0.
         24    2    4    4    0    0  0.47932934376E+02  0.25647832685E+03  0.93231430342E+02  0.28816166423E+03  0.79160260150E+02 0.  0.
         13    1    3    3    0    0 -0.62741175538E+01  0.31656464303E+02  0.24746825216E+02  0.40668189553E+02  0.00000000000E+00 0. -1.
        -13    1    3    3    0    0 -0.32673255935E+03  0.48273620339E+03  0.10544932330E+03  0.59237485361E+03  0.00000000000E+00 0.  1.
          4    1    6    6  502    0  0.61244604453E+02  0.15834634227E+03  0.81853840783E+02  0.18847948678E+03  0.00000000000E+00 0. -1.
          1    1    5    5  503    0  0.19375782857E+03 -0.59470642132E+03  0.43501410215E+03  0.76187603504E+03  0.00000000000E+00 0. -1.
         -2    1    5    5    0  503  0.91315913955E+02 -0.17616457322E+03  0.10165056999E+03  0.22294705958E+03  0.00000000000E+00 0.  1.
         -3    1    6    6    0  502 -0.13311670077E+02  0.98131984575E+02  0.11377589559E+02  0.99682177449E+02  0.00000000000E+00 0.  1.
<mgrwt>
<rscale>  0 0.17479135E+04</rscale>
<asrwt>0</asrwt>
<pdfrwt beam="1">  1        1 0.20508616E+00 0.17479135E+04</pdfrwt>
<pdfrwt beam="2">  1       -1 0.88148889E-01 0.17479135E+04</pdfrwt>
<totfact> 0.10268548E+01</totfact>
</mgrwt>
</event>
<event>
12    1  0.1562393E-007  0.2632933E+04  0.7818608E-02  0.8357100E-01
          1   -1    0    0  501    0  0.00000000000E+00  0.00000000000E+00  0.15814980822E+04  0.15814980822E+04  0.00000000000E+00 0. -1.
         -1   -1    0    0    0  501 -0.00000000000E+00 -0.00000000000E+00 -0.10958494873E+04  0.10958494873E+04  0.00000000000E+00 0.  1.
         23    2    1    2    0    0 -0.11783319471E+03  0.66104238421E+03 -0.73428017203E+03  0.99890191992E+03  0.88181512197E+02 0.  0.
        254    2    1    2    0    0  0.11783319471E+03 -0.66104238421E+03  0.12199287669E+04  0.16784456496E+04  0.93706558301E+03 0.  0.
        -24    2    4    4    0    0 -0.39710698335E+03 -0.24019884192E+03  0.38775104826E+03  0.61011317601E+03  0.80608760261E+02 0.  0.
         24    2    4    4    0    0  0.51494017806E+03 -0.42084354229E+03  0.83217771863E+03  0.10683324736E+04  0.80881670752E+02 0.  0.
         11    1    3    3    0    0  0.32194505128E+01  0.79074691906E+02 -0.55639343298E+02  0.96741450703E+02  0.00000000000E+00 0. -1.
        -11    1    3    3    0    0 -0.12105264523E+03  0.58196769230E+03 -0.67864082873E+03  0.90216046922E+03  0.00000000000E+00 0.  1.
          4    1    6    6  502    0  0.36470385193E+03 -0.32430196461E+03  0.56024681034E+03  0.74300548609E+03  0.00000000000E+00 0. -1.
          1    1    5    5  503    0 -0.29329330857E+03 -0.14628747181E+03  0.30371964266E+03  0.44684069935E+03  0.00000000000E+00 0. -1.
         -2    1    5    5    0  503 -0.10381367478E+03 -0.93911370104E+02  0.84031405594E+02  0.16327247665E+03  0.00000000000E+00 0.  1.
         -3    1    6    6    0  502  0.15023632613E+03 -0.96541577684E+02  0.27193090829E+03  0.32532698750E+03  0.00000000000E+00 0.  1.
<mgrwt>
<rscale>  0 0.26329329E+04</rscale>
<asrwt>0</asrwt>
<pdfrwt beam="1">  1        1 0.24330740E+00 0.26329329E+04</pdfrwt>
<pdfrwt beam="2">  1       -1 0.16859223E+00 0.26329329E+04</pdfrwt>
<totfact> 0.12718195E+00</totfact>
</mgrwt>
</event>
<event>
12    1  0.1562393E-007  0.2539203E+04  0.7818608E-02  0.8389151E-01
          2   -1    0    0  501    0  0.00000000000E+00  0.00000000000E+00  0.27021428196E+04  0.27021428196E+04  0.00000000000E+00 0. -1.
         -2   -1    0    0    0  501 -0.00000000000E+00 -0.00000000000E+00 -0.59652202988E+03  0.59652202988E+03  0.00000000000E+00 0.  1.
         23    2    1    2    0    0 -0.47870570848E+01 -0.11797425349E+03  0.23568932237E+04  0.23616022741E+04  0.90987871364E+02 0.  0.
        254    2    1    2    0    0  0.47870570848E+01  0.11797425349E+03 -0.25127243394E+03  0.93706257541E+03  0.89499027579E+03 0.  0.
        -24    2    4    4    0    0  0.11403112905E+03 -0.15014494057E+03  0.26797498800E+03  0.33714463422E+03  0.79431156467E+02 0.  0.
         24    2    4    4    0    0 -0.10924407197E+03  0.26811919406E+03 -0.51924742194E+03  0.59991794119E+03  0.80383340822E+02 0.  0.
         13    1    3    3    0    0  0.18749932601E+02 -0.12038355245E+03  0.17427852933E+04  0.17470387340E+04  0.00000000000E+00 0. -1.
        -13    1    3    3    0    0 -0.23536989686E+02  0.24092989580E+01  0.61410793041E+03  0.61456354008E+03  0.00000000000E+00 0.  1.
          4    1    6    6  502    0 -0.59121914274E+02  0.52830567066E+02 -0.14523463316E+03  0.16546772566E+03  0.00000000000E+00 0. -1.
          3    1    5    5  503    0  0.35005106452E+02 -0.41823473913E+01  0.73144998101E+02  0.81197538477E+02  0.00000000000E+00 0. -1.
         -4    1    5    5    0  503  0.79026022602E+02 -0.14596259318E+03  0.19482998990E+03  0.25594709574E+03  0.00000000000E+00 0.  1.
         -3    1    6    6    0  502 -0.50122157695E+02  0.21528862699E+03 -0.37401278878E+03  0.43445021553E+03  0.00000000000E+00 0.  1.
<mgrwt>
<rscale>  0 0.25392028E+04</rscale>
<asrwt>0</asrwt>
<pdfrwt beam="1">  1        2 0.41571427E+00 0.25392028E+04</pdfrwt>
<pdfrwt beam="2">  1       -2 0.91772621E-01 0.25392028E+04</pdfrwt>
<totfact> 0.23773547E+00</totfact>
</mgrwt>
</event>
<event>
12    1  0.1562393E-007  0.1263978E+04  0.7818608E-02  0.9058629E-01
          2   -1    0    0  501    0  0.00000000000E+00  0.00000000000E+00  0.27501353890E+04  0.27501353890E+04  0.00000000000E+00 0. -1.
         -2   -1    0    0    0  501 -0.00000000000E+00 -0.00000000000E+00 -0.14523294934E+03  0.14523294934E+03  0.00000000000E+00 0.  1.
         23    2    1    2    0    0 -0.15144206528E+03 -0.12112341188E+03  0.11566589848E+04  0.11763481752E+04  0.91265778199E+02 0.  0.
        254    2    1    2    0    0  0.15144206528E+03  0.12112341188E+03  0.14482434549E+04  0.17190201631E+04  0.90554714759E+03 0.  0.
        -24    2    4    4    0    0 -0.24376581741E+03  0.33077304980E+03  0.98331963129E+03  0.10687092000E+04  0.79932925948E+02 0.  0.
         24    2    4    4    0    0  0.39520788269E+03 -0.20964963792E+03  0.46492382360E+03  0.65031096312E+03  0.81289272259E+02 0.  0.
         11    1    3    3    0    0 -0.45131385345E+02  0.10712945541E+01  0.14685187687E+03  0.15363418681E+03  0.00000000000E+00 0.  1.
        -11    1    3    3    0    0 -0.10631067994E+03 -0.12219470644E+03  0.10098071079E+04  0.10227139884E+04  0.00000000000E+00 0. -1.
          2    1    6    6  502    0  0.28061980290E+03 -0.10594498917E+03  0.31583270637E+03  0.43557101938E+03  0.00000000000E+00 0. -1.
          3    1    5    5  503    0 -0.23430169534E+03  0.29962903584E+03  0.84580540261E+03  0.92739507366E+03  0.00000000000E+00 0. -1.
         -4    1    5    5    0  503 -0.94641220730E+01  0.31144013960E+02  0.13751422868E+03  0.14131412633E+03  0.00000000000E+00 0.  1.
         -1    1    6    6    0  502  0.11458807980E+03 -0.10370464874E+03  0.14909111723E+03  0.21473994374E+03  0.00000000000E+00 0.  1.
<mgrwt>
<rscale>  0 0.12639783E+04</rscale>
<asrwt>0</asrwt>
<pdfrwt beam="1">  1        2 0.42309771E+00 0.12639783E+04</pdfrwt>
<pdfrwt beam="2">  1       -2 0.22343533E-01 0.12639783E+04</pdfrwt>
<totfact> 0.43131307E+01</totfact>
</mgrwt>
</event>
<event>
12    1  0.1562393E-007  0.1865601E+04  0.7818608E-02  0.8672171E-01
         -2   -1    0    0    0  501 -0.00000000000E+00  0.00000000000E+00  0.38973483307E+03  0.38973483307E+03  0.00000000000E+00 0.  1.
          2   -1    0    0  501    0  0.00000000000E+00 -0.00000000000E+00 -0.22325865115E+04  0.22325865115E+04  0.00000000000E+00 0. -1.
         23    2    1    2    0    0 -0.57204335851E+03 -0.31210250141E+03 -0.30584796727E+03  0.72524546423E+03  0.88297388967E+02 0.  0.
        254    2    1    2    0    0  0.57204335851E+03  0.31210250141E+03 -0.15370037112E+04  0.18970758804E+04  0.90104101588E+03 0.  0.
        -24    2    4    4    0    0  0.60960659161E+03 -0.84432715725E+02 -0.12626747659E+04  0.14069408676E+04  0.79912205337E+02 0.  0.
         24    2    4    4    0    0 -0.37563233106E+02  0.39653521713E+03 -0.27432894533E+03  0.49013501278E+03  0.79528520643E+02 0.  0.
         13    1    3    3    0    0 -0.46352399619E+03 -0.26538411656E+03 -0.21317811023E+03  0.57508967218E+03  0.00000000000E+00 0.  1.
        -13    1    3    3    0    0 -0.10851936231E+03 -0.46718384845E+02 -0.92669857045E+02  0.15015579204E+03  0.00000000000E+00 0. -1.
          2    1    6    6  502    0 -0.87874021045E+01  0.20994495254E+03 -0.19026476612E+03  0.28346919191E+03  0.00000000000E+00 0. -1.
          1    1    5    5  503    0  0.41196174424E+03 -0.94604551969E+02 -0.85871846663E+03  0.95711018430E+03  0.00000000000E+00 0. -1.
         -2    1    5    5    0  503  0.19764484738E+03  0.10171836244E+02 -0.40395629922E+03  0.44983068329E+03  0.00000000000E+00 0.  1.
         -1    1    6    6    0  502 -0.28775831002E+02  0.18659026459E+03 -0.84064179214E+02  0.20666582087E+03  0.00000000000E+00 0.  1.
<mgrwt>
<rscale>  0 0.18656010E+04</rscale>
<asrwt>0</asrwt>
<pdfrwt beam="1">  1        2 0.34347485E+00 0.18656010E+04</pdfrwt>
<pdfrwt beam="2">  1       -2 0.59959205E-01 0.18656010E+04</pdfrwt>
<totfact> 0.12060097E+01</totfact>
</mgrwt>
</event>
<event>
12    1  0.1562393E-007  0.2443160E+04  0.7818608E-02  0.8423520E-01
         -1   -1    0    0    0  501 -0.00000000000E+00  0.00000000000E+00  0.70787083122E+03  0.70787083122E+03  0.00000000000E+00 0.  1.
          1   -1    0    0  501    0  0.00000000000E+00 -0.00000000000E+00 -0.21080926308E+04  0.21080926308E+04  0.00000000000E+00 0. -1.
         23    2    1    2    0    0  0.19831988988E+03 -0.20767972922E+03  0.56077310458E+03  0.63679445208E+03  0.92623165194E+02 0.  0.
        254    2    1    2    0    0 -0.19831988988E+03  0.20767972922E+03 -0.19609949041E+04  0.21791690099E+04  0.90598836142E+03 0.  0.
        -24    2    4    4    0    0 -0.49878855117E+03 -0.93813680773E+02 -0.11579835798E+04  0.12666439890E+04  0.76615914667E+02 0.  0.
         24    2    4    4    0    0  0.30046866128E+03  0.30149340999E+03 -0.80301132440E+03  0.91252502093E+03  0.81823187646E+02 0.  0.
         11    1    3    3    0    0  0.68396992383E+02 -0.16163459014E+02  0.12742616756E+03  0.14552262419E+03  0.00000000000E+00 0. -1.
        -11    1    3    3    0    0  0.12992289750E+03 -0.19151627021E+03  0.43334693702E+03  0.49127182789E+03  0.00000000000E+00 0.  1.
          4    1    6    6  502    0  0.27273036688E+03  0.25877926141E+03 -0.64575510042E+03  0.74722701294E+03  0.00000000000E+00 0. -1.
          1    1    5    5  503    0 -0.37678315356E+03 -0.98892558888E+02 -0.92273015493E+03  0.10015868519E+04  0.00000000000E+00 0. -1.
         -2    1    5    5    0  503 -0.12200539760E+03  0.50788781144E+01 -0.23525342482E+03  0.26505713712E+03  0.00000000000E+00 0.  1.
         -3    1    6    6    0  502  0.27738294397E+02  0.42714148590E+02 -0.15725622398E+03  0.16529800799E+03  0.00000000000E+00 0.  1.
<mgrwt>
<rscale>  0 0.24431597E+04</rscale>
<asrwt>0</asrwt>
<pdfrwt beam="1">  1        1 0.32432194E+00 0.24431597E+04</pdfrwt>
<pdfrwt beam="2">  1       -1 0.10890321E+00 0.24431597E+04</pdfrwt>
<totfact> 0.17552307E+00</totfact>
</mgrwt>
</event>
<event>
12    1  0.1562393E-007  0.2098425E+04  0.7818608E-02  0.8561938E-01
          1   -1    0    0  501    0  0.00000000000E+00  0.00000000000E+00  0.84552461448E+03  0.84552461448E+03  0.00000000000E+00 0. -1.
         -1   -1    0    0    0  501 -0.00000000000E+00 -0.00000000000E+00 -0.13019687873E+04  0.13019687873E+04  0.00000000000E+00 0.  1.
         23    2    1    2    0    0  0.31808489499E+03 -0.57287982456E+03  0.37051758988E+03  0.75810030653E+03  0.89796973998E+02 0.  0.
        254    2    1    2    0    0 -0.31808489499E+03  0.57287982456E+03 -0.82696176273E+03  0.13893930953E+04  0.90397904974E+03 0.  0.
        -24    2    4    4    0    0 -0.46388452730E+03  0.48790470277E+03 -0.15944618218E+03  0.69636612775E+03  0.79138140157E+02 0.  0.
         24    2    4    4    0    0  0.14579963231E+03  0.84975121792E+02 -0.66751558055E+03  0.69302696752E+03  0.78936831234E+02 0.  0.
         13    1    3    3    0    0  0.25377362437E+03 -0.51802509987E+03  0.32155511764E+03  0.66041558900E+03  0.00000000000E+00 0. -1.
        -13    1    3    3    0    0  0.64311270622E+02 -0.54854724691E+02  0.48962472238E+02  0.97684717524E+02  0.00000000000E+00 0.  1.
          4    1    6    6  502    0  0.25863644565E+02  0.54985551903E+02 -0.26889785256E+03  0.27567806249E+03  0.00000000000E+00 0. -1.
          3    1    5    5  503    0 -0.19016571526E+03  0.24848475642E+03 -0.95346992397E+02  0.32710659179E+03  0.00000000000E+00 0. -1.
         -4    1    5    5    0  503 -0.27371881203E+03  0.23941994634E+03 -0.64099189781E+02  0.36925953596E+03  0.00000000000E+00 0.  1.
         -3    1    6    6    0  502  0.11993598774E+03  0.29989569889E+02 -0.39861772799E+03  0.41734890502E+03  0.00000000000E+00 0.  1.
<mgrwt>
<rscale>  0 0.20984248E+04</rscale>
<asrwt>0</asrwt>
<pdfrwt beam="1">  1        1 0.13008071E+00 0.20984248E+04</pdfrwt>
<pdfrwt beam="2">  1       -1 0.20030289E+00 0.20984248E+04</pdfrwt>
<totfact> 0.27831508E+00</totfact>
</mgrwt>
</event>
<event>
12    1  0.1562393E-007  0.1122806E+04  0.7818608E-02  0.9183244E-01
         -2   -1    0    0    0  501 -0.00000000000E+00  0.00000000000E+00  0.44355980619E+03  0.44355980619E+03  0.00000000000E+00 0.  1.
          2   -1    0    0  501    0  0.00000000000E+00 -0.00000000000E+00 -0.71055443448E+03  0.71055443448E+03  0.00000000000E+00 0. -1.
         23    2    1    2    0    0 -0.75852823699E+02 -0.64456975131E+02 -0.20604702880E+03  0.24592943829E+03  0.90097491823E+02 0.  0.
        254    2    1    2    0    0  0.75852823699E+02  0.64456975131E+02 -0.60947599484E+02  0.90818480239E+03  0.90065346993E+03 0.  0.
        -24    2    4    4    0    0 -0.29984696335E+02  0.15404513044E+03 -0.45223261544E+03  0.48572544113E+03  0.82376461850E+02 0.  0.
         24    2    4    4    0    0  0.10583752003E+03 -0.89588155310E+02  0.39128501595E+03  0.42245936126E+03  0.78360257710E+02 0.  0.
         11    1    3    3    0    0 -0.20100624075E+02 -0.54104844685E+02 -0.16801181980E+03  0.17764948888E+03  0.00000000000E+00 0. -1.
        -11    1    3    3    0    0 -0.55752199624E+02 -0.10352130446E+02 -0.38035209006E+02  0.68279949413E+02  0.00000000000E+00 0.  1.
          2    1    6    6  502    0  0.10623588994E+03 -0.95590959784E+02  0.39115233813E+03  0.41644188974E+03  0.00000000000E+00 0. -1.
          1    1    5    5  503    0 -0.10697591590E+02  0.10887252406E+03 -0.19271350517E+03  0.22159909755E+03  0.00000000000E+00 0. -1.
         -2    1    5    5    0  503 -0.19287104745E+02  0.45172606379E+02 -0.25951911026E+03  0.26412634357E+03  0.00000000000E+00 0.  1.
         -1    1    6    6    0  502 -0.39836990365E+00  0.60028044739E+01  0.13267782320E+00  0.60174715235E+01  0.00000000000E+00 0.  1.
<mgrwt>
<rscale>  0 0.11228061E+04</rscale>
<asrwt>0</asrwt>
<pdfrwt beam="1">  1        2 0.10931606E+00 0.11228061E+04</pdfrwt>
<pdfrwt beam="2">  1       -2 0.68239972E-01 0.11228061E+04</pdfrwt>
<totfact> 0.78369684E+01</totfact>
</mgrwt>
</event>
<event>
12    1  0.1562393E-007  0.1867475E+04  0.7818608E-02  0.8671218E-01
          2   -1    0    0  501    0  0.00000000000E+00  0.00000000000E+00  0.56118447797E+03  0.56118447797E+03  0.00000000000E+00 0. -1.
         -2   -1    0    0    0  501 -0.00000000000E+00 -0.00000000000E+00 -0.15536168716E+04  0.15536168716E+04  0.00000000000E+00 0.  1.
         23    2    1    2    0    0 -0.12869826847E+03 -0.31191724661E+03  0.33114945744E+03  0.48139177781E+03  0.90677822736E+02 0.  0.
        254    2    1    2    0    0  0.12869826847E+03  0.31191724661E+03 -0.13235818511E+04  0.16334095718E+04  0.89571329098E+03 0.  0.
        -24    2    4    4    0    0 -0.28645301918E+03 -0.14233587430E+03 -0.54822680338E+03  0.64028169601E+03  0.84221072135E+02 0.  0.
         24    2    4    4    0    0  0.41515128765E+03  0.45425312091E+03 -0.77535504770E+03  0.99312787577E+03  0.80193753799E+02 0.  0.
         13    1    3    3    0    0 -0.11077599214E+03 -0.27216017672E+03  0.23655145353E+03  0.37722549277E+03  0.00000000000E+00 0. -1.
        -13    1    3    3    0    0 -0.17922276331E+02 -0.39757069894E+02  0.94598003908E+02  0.10416628504E+03  0.00000000000E+00 0.  1.
          4    1    6    6  502    0  0.21693275149E+03  0.29491974259E+03 -0.44650966207E+03  0.57741523322E+03  0.00000000000E+00 0. -1.
          3    1    5    5  503    0 -0.10831795373E+03 -0.10897361952E+02 -0.19799424817E+03  0.22594967118E+03  0.00000000000E+00 0. -1.
         -4    1    5    5    0  503 -0.17813506544E+03 -0.13143851235E+03 -0.35023255520E+03  0.41433202482E+03  0.00000000000E+00 0.  1.
         -3    1    6    6    0  502  0.19821853616E+03  0.15933337833E+03 -0.32884538563E+03  0.41571264255E+03  0.00000000000E+00 0.  1.
<mgrwt>
<rscale>  0 0.18674750E+04</rscale>
<asrwt>0</asrwt>
<pdfrwt beam="1">  1        2 0.86336074E-01 0.18674750E+04</pdfrwt>
<pdfrwt beam="2">  1       -2 0.23901798E+00 0.18674750E+04</pdfrwt>
<totfact> 0.37899669E+00</totfact>
</mgrwt>
</event>
<event>
12    1  0.1562393E-007  0.1373720E+04  0.7818608E-02  0.8973064E-01
          1   -1    0    0  501    0  0.00000000000E+00  0.00000000000E+00  0.16879014361E+04  0.16879014361E+04  0.00000000000E+00 0. -1.
         -1   -1    0    0    0  501 -0.00000000000E+00 -0.00000000000E+00 -0.27950492697E+03  0.27950492697E+03  0.00000000000E+00 0.  1.
         23    2    1    2    0    0  0.16572509170E+03  0.85700908652E+02  0.88751009516E+03  0.91233788361E+03  0.99382056160E+02 0.  0.
        254    2    1    2    0    0 -0.16572509170E+03 -0.85700908652E+02  0.52088641397E+03  0.10550684795E+04  0.89835259688E+03 0.  0.
        -24    2    4    4    0    0 -0.23146365029E+03  0.37308806276E+03  0.23781315211E+03  0.50565942384E+03  0.79788680991E+02 0.  0.
         24    2    4    4    0    0  0.65738558590E+02 -0.45878897142E+03  0.28307326186E+03  0.54940905562E+03  0.83132186534E+02 0.  0.
         11    1    3    3    0    0  0.14640884395E+03  0.75119436582E+02  0.54948172514E+03  0.57359275240E+03  0.00000000000E+00 0. -1.
        -11    1    3    3    0    0  0.19316247749E+02  0.10581472070E+02  0.33802837002E+03  0.33874513121E+03  0.00000000000E+00 0.  1.
          4    1    6    6  502    0  0.83898495851E+02 -0.32217780791E+03  0.20617092598E+03  0.39159155792E+03  0.00000000000E+00 0. -1.
          1    1    5    5  503    0 -0.14868369505E+03  0.18072009636E+03  0.15366262169E+03  0.27996213263E+03  0.00000000000E+00 0. -1.
         -2    1    5    5    0  503 -0.82779955247E+02  0.19236796640E+03  0.84150530421E+02  0.22569729121E+03  0.00000000000E+00 0.  1.
         -3    1    6    6    0  502 -0.18159937261E+02 -0.13661116351E+03  0.76902335878E+02  0.15781749770E+03  0.00000000000E+00 0.  1.
<mgrwt>
<rscale>  0 0.13737202E+04</rscale>
<asrwt>0</asrwt>
<pdfrwt beam="1">  1        1 0.25967714E+00 0.13737202E+04</pdfrwt>
<pdfrwt beam="2">  1       -1 0.43000759E-01 0.13737202E+04</pdfrwt>
<totfact> 0.25300323E+01</totfact>
</mgrwt>
</event>
<event>
12    1  0.1562393E-007  0.1663201E+04  0.7818608E-02  0.8782635E-01
         -2   -1    0    0    0  501 -0.00000000000E+00  0.00000000000E+00  0.22744673307E+03  0.22744673307E+03  0.00000000000E+00 0.  1.
          2   -1    0    0  501    0  0.00000000000E+00 -0.00000000000E+00 -0.30405344973E+04  0.30405344973E+04  0.00000000000E+00 0. -1.
         23    2    1    2    0    0  0.52702834922E+02 -0.21921804331E+03 -0.20653630842E+04  0.20796151739E+04  0.90776994652E+02 0.  0.
        254    2    1    2    0    0 -0.52702834922E+02  0.21921804331E+03 -0.74772468002E+03  0.11883660564E+04  0.89570505616E+03 0.  0.
        -24    2    4    4    0    0 -0.38441716423E+03 -0.13013081226E+02 -0.65736072611E+03  0.76595402550E+03  0.81342169385E+02 0.  0.
         24    2    4    4    0    0  0.33171432930E+03  0.23223112454E+03 -0.90363953916E+02  0.42241203093E+03  0.79376244761E+02 0.  0.
         11    1    3    3    0    0 -0.25920896198E+02 -0.46244649656E+02 -0.46529504942E+03  0.46830539555E+03  0.00000000000E+00 0.  1.
        -11    1    3    3    0    0  0.78623731121E+02 -0.17297339366E+03 -0.16000680348E+04  0.16113097784E+04  0.00000000000E+00 0. -1.
          4    1    6    6  502    0  0.63869514462E+02  0.25540897920E+02 -0.42144951589E+02  0.80671242018E+02  0.00000000000E+00 0. -1.
          1    1    5    5  503    0 -0.19600575486E+03 -0.29708887134E+02 -0.27092870549E+03  0.33571302830E+03  0.00000000000E+00 0. -1.
         -2    1    5    5    0  503 -0.18841140937E+03  0.16695805907E+02 -0.38643202062E+03  0.43024099721E+03  0.00000000000E+00 0.  1.
         -3    1    6    6    0  502  0.26784481484E+03  0.20669022662E+03 -0.48219002327E+02  0.34174078891E+03  0.00000000000E+00 0.  1.
<mgrwt>
<rscale>  0 0.16632013E+04</rscale>
<asrwt>0</asrwt>
<pdfrwt beam="1">  1        2 0.46777451E+00 0.16632013E+04</pdfrwt>
<pdfrwt beam="2">  1       -2 0.34991807E-01 0.16632013E+04</pdfrwt>
<totfact> 0.12075031E+01</totfact>
</mgrwt>
</event>
<event>
12    1  0.1562393E-007  0.1714060E+04  0.7818608E-02  0.8753386E-01
          2   -1    0    0  501    0  0.00000000000E+00  0.00000000000E+00  0.34939498895E+04  0.34939498895E+04  0.00000000000E+00 0. -1.
         -2   -1    0    0    0  501 -0.00000000000E+00 -0.00000000000E+00 -0.21022067077E+03  0.21022067077E+03  0.00000000000E+00 0.  1.
         23    2    1    2    0    0 -0.14914892125E+03 -0.22306286390E+03  0.23933783138E+04  0.24100658814E+04  0.90307019641E+02 0.  0.
        254    2    1    2    0    0  0.14914892125E+03  0.22306286390E+03  0.89035090493E+03  0.12941046789E+04  0.89998874659E+03 0.  0.
        -24    2    4    4    0    0 -0.11450712751E+03  0.30347768055E+03  0.94460016787E+03  0.10018981332E+04  0.79497216323E+02 0.  0.
         24    2    4    4    0    0  0.26365604876E+03 -0.80414816650E+02 -0.54249262935E+02  0.29220654563E+03  0.80378031803E+02 0.  0.
         11    1    3    3    0    0 -0.10472450974E+03 -0.99341440919E+02  0.15217212233E+04  0.15285520685E+04  0.00000000000E+00 0.  1.
        -11    1    3    3    0    0 -0.44424411513E+02 -0.12372142298E+03  0.87165709055E+03  0.88151381291E+03  0.00000000000E+00 0. -1.
          4    1    6    6  502    0  0.43926194057E+02 -0.47037957493E+02 -0.49142093115E+01  0.64546335470E+02  0.00000000000E+00 0. -1.
          1    1    5    5  503    0 -0.30320081332E+02  0.42592006549E+02  0.86487073307E+02  0.10106136850E+03  0.00000000000E+00 0. -1.
         -2    1    5    5    0  503 -0.84187046176E+02  0.26088567400E+03  0.85811309456E+03  0.90083676473E+03  0.00000000000E+00 0.  1.
         -3    1    6    6    0  502  0.21972985470E+03 -0.33376859157E+02 -0.49335053623E+02  0.22766021016E+03  0.00000000000E+00 0.  1.
<mgrwt>
<rscale>  0 0.17140601E+04</rscale>
<asrwt>0</asrwt>
<pdfrwt beam="1">  1        2 0.53753071E+00 0.17140601E+04</pdfrwt>
<pdfrwt beam="2">  1       -2 0.32341644E-01 0.17140601E+04</pdfrwt>
<totfact> 0.70148120E+00</totfact>
</mgrwt>
</event>
<event>
12    1  0.1562393E-007  0.1811198E+04  0.7818608E-02  0.8700367E-01
         -1   -1    0    0    0  501 -0.00000000000E+00  0.00000000000E+00  0.27004445932E+03  0.27004445932E+03  0.00000000000E+00 0.  1.
          1   -1    0    0  501    0  0.00000000000E+00 -0.00000000000E+00 -0.30369421664E+04  0.30369421664E+04  0.00000000000E+00 0. -1.
         23    2    1    2    0    0 -0.46955527815E+03  0.29904272380E+03 -0.17472228497E+04  0.18360011116E+04  0.90574197341E+02 0.  0.
        254    2    1    2    0    0  0.46955527815E+03 -0.29904272380E+03 -0.10196748573E+04  0.14709855141E+04  0.90230419379E+03 0.  0.
        -24    2    4    4    0    0 -0.17761971775E+03 -0.11278947001E+03  0.23093204946E+02  0.22710621049E+03  0.82302527608E+02 0.  0.
         24    2    4    4    0    0  0.64717499590E+03 -0.18625325379E+03 -0.10427680622E+04  0.12438793036E+04  0.79653878828E+02 0.  0.
         11    1    3    3    0    0 -0.46619282606E+03  0.28684584087E+03 -0.16613146187E+04  0.17491662442E+04  0.00000000000E+00 0. -1.
        -11    1    3    3    0    0 -0.33624520938E+01  0.12196882932E+02 -0.85908231065E+02  0.86834867432E+02  0.00000000000E+00 0.  1.
          2    1    6    6  502    0  0.13487959640E+03 -0.65513668304E+02 -0.19452785764E+03  0.24561277177E+03  0.00000000000E+00 0. -1.
          3    1    5    5  503    0 -0.11162274703E+03 -0.95448802852E+02 -0.17182964327E+02  0.14786942173E+03  0.00000000000E+00 0. -1.
         -4    1    5    5    0  503 -0.65996970719E+02 -0.17340667160E+02  0.40276169273E+02  0.79236788760E+02  0.00000000000E+00 0.  1.
         -1    1    6    6    0  502  0.51229539950E+03 -0.12073958548E+03 -0.84824020459E+03  0.99826653181E+03  0.00000000000E+00 0.  1.
<mgrwt>
<rscale>  0 0.18111978E+04</rscale>
<asrwt>0</asrwt>
<pdfrwt beam="1">  1        1 0.46722190E+00 0.18111978E+04</pdfrwt>
<pdfrwt beam="2">  1       -1 0.41545299E-01 0.18111978E+04</pdfrwt>
<totfact> 0.30176541E+00</totfact>
</mgrwt>
</event>
<event>
12    1  0.1562393E-007  0.4832495E+04  0.7818608E-02  0.7854879E-01
         -1   -1    0    0    0  501 -0.00000000000E+00  0.00000000000E+00  0.18798814786E+04  0.18798814786E+04  0.00000000000E+00 0.  1.
          1   -1    0    0  501    0  0.00000000000E+00 -0.00000000000E+00 -0.31056484058E+04  0.31056484058E+04  0.00000000000E+00 0. -1.
         23    2    1    2    0    0  0.31121956911E+03 -0.15569533974E+04 -0.23520175520E+04  0.28392111826E+04  0.90399515306E+02 0.  0.
        254    2    1    2    0    0 -0.31121956911E+03  0.15569533974E+04  0.11262506248E+04  0.21463187018E+04  0.90403650260E+03 0.  0.
        -24    2    4    4    0    0 -0.43468170570E+03  0.28450518622E+03  0.47987711684E+03  0.71144665221E+03  0.77349243151E+02 0.  0.
         24    2    4    4    0    0  0.12346213659E+03  0.12724482112E+04  0.64637350795E+03  0.14348720496E+04  0.81803041854E+02 0.  0.
         13    1    3    3    0    0  0.15486525945E+03 -0.64136596532E+03 -0.10416603286E+04  0.12330408712E+04  0.00000000000E+00 0.  1.
        -13    1    3    3    0    0  0.15635430966E+03 -0.91558743208E+03 -0.13103572235E+04  0.16061703113E+04  0.00000000000E+00 0. -1.
          4    1    6    6  502    0  0.54883166682E+02  0.26462517549E+03  0.15495015513E+03  0.31152559456E+03  0.00000000000E+00 0. -1.
          3    1    5    5  503    0 -0.13128629747E+03  0.46086989571E+02  0.13660248490E+03  0.19498805449E+03  0.00000000000E+00 0. -1.
         -4    1    5    5    0  503 -0.30339540822E+03  0.23841819665E+03  0.34327463194E+03  0.51645859772E+03  0.00000000000E+00 0.  1.
         -3    1    6    6    0  502  0.68578969906E+02  0.10078230357E+04  0.49142335283E+03  0.11233464550E+04  0.00000000000E+00 0.  1.
<mgrwt>
<rscale>  0 0.48324946E+04</rscale>
<asrwt>0</asrwt>
<pdfrwt beam="1">  1        1 0.47779206E+00 0.48324946E+04</pdfrwt>
<pdfrwt beam="2">  1       -1 0.28921254E+00 0.48324946E+04</pdfrwt>
<totfact> 0.14181544E-02</totfact>
</mgrwt>
</event>
<event>
12    1  0.1562393E-007  0.2403288E+04  0.7818608E-02  0.8438274E-01
         -1   -1    0    0    0  501 -0.00000000000E+00  0.00000000000E+00  0.69320305283E+03  0.69320305283E+03  0.00000000000E+00 0.  1.
          1   -1    0    0  501    0  0.00000000000E+00 -0.00000000000E+00 -0.20830083392E+04  0.20830083392E+04  0.00000000000E+00 0. -1.
         23    2    1    2    0    0  0.99756126939E+03 -0.25632657291E+03 -0.62838996817E+03  0.12100303159E+04  0.92019645988E+02 0.  0.
        254    2    1    2    0    0 -0.99756126939E+03  0.25632657291E+03 -0.76141531817E+03  0.15661810761E+04  0.90129799628E+03 0.  0.
        -24    2    4    4    0    0 -0.57197908076E+03  0.14814466799E+02 -0.88350807437E+03  0.10555989359E+04  0.79517662870E+02 0.  0.
         24    2    4    4    0    0 -0.42558218862E+03  0.24151210611E+03  0.12209275620E+03  0.51058214017E+03  0.79618993218E+02 0.  0.
         13    1    3    3    0    0  0.11832892615E+03 -0.31917130135E+02 -0.11167562874E+03  0.16580676710E+03  0.00000000000E+00 0. -1.
        -13    1    3    3    0    0  0.87923234323E+03 -0.22440944277E+03 -0.51671433943E+03  0.10442235488E+04  0.00000000000E+00 0.  1.
          4    1    6    6  502    0 -0.28619782891E+03  0.14087818289E+03  0.11303701643E+03  0.33842757980E+03  0.00000000000E+00 0. -1.
          3    1    5    5  503    0 -0.32686716290E+03  0.22238731177E+02 -0.43687619707E+03  0.54607464225E+03  0.00000000000E+00 0. -1.
         -4    1    5    5    0  503 -0.24511191787E+03 -0.74242643774E+01 -0.44663187730E+03  0.50952429363E+03  0.00000000000E+00 0.  1.
         -3    1    6    6    0  502 -0.13938435971E+03  0.10063392322E+03  0.90557397679E+01  0.17215456037E+03  0.00000000000E+00 0.  1.
<mgrwt>
<rscale>  0 0.24032875E+04</rscale>
<asrwt>0</asrwt>
<pdfrwt beam="1">  1        1 0.32046282E+00 0.24032875E+04</pdfrwt>
<pdfrwt beam="2">  1       -1 0.10664662E+00 0.24032875E+04</pdfrwt>
<totfact> 0.19243585E+00</totfact>
</mgrwt>
</event>
<event>
12    1  0.1562393E-007  0.1340364E+04  0.7818608E-02  0.8998155E-01
          2   -1    0    0  501    0  0.00000000000E+00  0.00000000000E+00  0.21416975471E+04  0.21416975471E+04  0.00000000000E+00 0. -1.
         -2   -1    0    0    0  501 -0.00000000000E+00 -0.00000000000E+00 -0.20971401860E+03  0.20971401860E+03  0.00000000000E+00 0.  1.
         23    2    1    2    0    0 -0.17601774876E+03  0.60620460468E+02  0.11083511728E+04  0.11275265818E+04  0.90646468021E+02 0.  0.
        254    2    1    2    0    0  0.17601774876E+03 -0.60620460468E+02  0.82363235572E+03  0.12238849840E+04  0.88592725916E+03 0.  0.
        -24    2    4    4    0    0  0.53005667560E+03 -0.70585192556E+02  0.46030224460E+03  0.71000727060E+03  0.79308380168E+02 0.  0.
         24    2    4    4    0    0 -0.35403892684E+03  0.99647320875E+01  0.36333011112E+03  0.51387771338E+03  0.81355252229E+02 0.  0.
         11    1    3    3    0    0 -0.18378536762E+03  0.45939175045E+02  0.10451197687E+04  0.10621500836E+04  0.00000000000E+00 0. -1.
        -11    1    3    3    0    0  0.77676188612E+01  0.14681285424E+02  0.63231404137E+02  0.65376498175E+02  0.00000000000E+00 0.  1.
          2    1    6    6  502    0 -0.27160134639E+03 -0.41434353300E+01  0.31980252225E+03  0.41959279386E+03  0.00000000000E+00 0. -1.
          1    1    5    5  503    0  0.44907220117E+03 -0.88029023255E+02  0.38418559826E+03  0.59750608760E+03  0.00000000000E+00 0. -1.
         -2    1    5    5    0  503  0.80984474425E+02  0.17443830699E+02  0.76116646338E+02  0.11250118300E+03  0.00000000000E+00 0.  1.
         -1    1    6    6    0  502 -0.82437580446E+02  0.14108167417E+02  0.43527588867E+02  0.94284919527E+02  0.00000000000E+00 0.  1.
<mgrwt>
<rscale>  0 0.13403641E+04</rscale>
<asrwt>0</asrwt>
<pdfrwt beam="1">  1        2 0.32949192E+00 0.13403641E+04</pdfrwt>
<pdfrwt beam="2">  1       -2 0.32263697E-01 0.13403641E+04</pdfrwt>
<totfact> 0.48754307E+01</totfact>
</mgrwt>
</event>
<event>
12    1  0.1562393E-007  0.1207600E+04  0.7818608E-02  0.9106230E-01
         -2   -1    0    0    0  501 -0.00000000000E+00  0.00000000000E+00  0.14291015600E+03  0.14291015600E+03  0.00000000000E+00 0.  1.
          2   -1    0    0  501    0  0.00000000000E+00 -0.00000000000E+00 -0.25510740927E+04  0.25510740927E+04  0.00000000000E+00 0. -1.
         23    2    1    2    0    0 -0.20457876133E+03  0.13894857024E+03 -0.40257584032E+03  0.48136870164E+03  0.92137641297E+02 0.  0.
        254    2    1    2    0    0  0.20457876133E+03 -0.13894857024E+03 -0.20055880963E+04  0.22126155470E+04  0.90117965577E+03 0.  0.
        -24    2    4    4    0    0  0.34956472142E+03 -0.44310115646E+03 -0.10337636149E+04  0.11807943160E+04  0.84106335890E+02 0.  0.
         24    2    4    4    0    0 -0.14498596009E+03  0.30415258622E+03 -0.97182448140E+03  0.10318212311E+04  0.81746595466E+02 0.  0.
         11    1    3    3    0    0 -0.46510913746E+02  0.63650086737E+02 -0.19173151577E+03  0.20730550591E+03  0.00000000000E+00 0. -1.
        -11    1    3    3    0    0 -0.15806784759E+03  0.75298483504E+02 -0.21084432455E+03  0.27406319573E+03  0.00000000000E+00 0.  1.
          2    1    6    6  502    0 -0.67808880554E+02  0.10098463594E+03 -0.25057114228E+03  0.27853516532E+03  0.00000000000E+00 0. -1.
          3    1    5    5  503    0  0.11299722333E+03 -0.12105763470E+03 -0.38101895665E+03  0.41545007970E+03  0.00000000000E+00 0. -1.
         -4    1    5    5    0  503  0.23656749810E+03 -0.32204352176E+03 -0.65274465829E+03  0.76534423627E+03  0.00000000000E+00 0.  1.
         -1    1    6    6    0  502 -0.77177079537E+02  0.20316795028E+03 -0.72125333913E+03  0.75328606573E+03  0.00000000000E+00 0.  1.
<mgrwt>
<rscale>  0 0.12075999E+04</rscale>
<asrwt>0</asrwt>
<pdfrwt beam="1">  1        2 0.39247297E+00 0.12075999E+04</pdfrwt>
<pdfrwt beam="2">  1       -2 0.21986176E-01 0.12075999E+04</pdfrwt>
<totfact> 0.58357263E+01</totfact>
</mgrwt>
</event>
<event>
12    1  0.1562393E-007  0.1373670E+04  0.7818608E-02  0.8973101E-01
         -1   -1    0    0    0  501 -0.00000000000E+00  0.00000000000E+00  0.16946133519E+03  0.16946133519E+03  0.00000000000E+00 0.  1.
          1   -1    0    0  501    0  0.00000000000E+00 -0.00000000000E+00 -0.27837758005E+04  0.27837758005E+04  0.00000000000E+00 0. -1.
         23    2    1    2    0    0 -0.13180409512E+03 -0.37491112682E+03 -0.89037323951E+03  0.97931063209E+03  0.91400962682E+02 0.  0.
        254    2    1    2    0    0  0.13180409512E+03  0.37491112682E+03 -0.17239412258E+04  0.19739265036E+04  0.87548947403E+03 0.  0.
        -24    2    4    4    0    0  0.11593466791E+03  0.13374875813E+03  0.34945911266E+02  0.19666039485E+03  0.78259291229E+02 0.  0.
         24    2    4    4    0    0  0.15869427212E+02  0.24116236869E+03 -0.17588871371E+04  0.17772661088E+04  0.81115557134E+02 0.  0.
         11    1    3    3    0    0 -0.13773850323E+03 -0.29691244101E+03 -0.67493849115E+03  0.75011389784E+03  0.00000000000E+00 0. -1.
        -11    1    3    3    0    0  0.59344081139E+01 -0.77998685809E+02 -0.21543474836E+03  0.22919673424E+03  0.00000000000E+00 0.  1.
          4    1    6    6  502    0  0.22237111846E+02  0.16677222816E+03 -0.93621452252E+03  0.95121243547E+03  0.00000000000E+00 0. -1.
          1    1    5    5  503    0  0.64284442970E+02  0.26400310465E+02 -0.81638670248E+01  0.69972242535E+02  0.00000000000E+00 0. -1.
         -2    1    5    5    0  503  0.51650224937E+02  0.10734844767E+03  0.43109778290E+02  0.12668815231E+03  0.00000000000E+00 0.  1.
         -3    1    6    6    0  502 -0.63676846343E+01  0.74390140530E+02 -0.82267261459E+03  0.82605367332E+03  0.00000000000E+00 0.  1.
<mgrwt>
<rscale>  0 0.13736701E+04</rscale>
<asrwt>0</asrwt>
<pdfrwt beam="1">  1        1 0.42827319E+00 0.13736701E+04</pdfrwt>
<pdfrwt beam="2">  1       -1 0.26070975E-01 0.13736701E+04</pdfrwt>
<totfact> 0.10964682E+01</totfact>
</mgrwt>
</event>
<event>
12    1  0.1562393E-007  0.5764668E+04  0.7818608E-02  0.7720285E-01
          2   -1    0    0  501    0  0.00000000000E+00  0.00000000000E+00  0.30360621082E+04  0.30360621082E+04  0.00000000000E+00 0. -1.
         -2   -1    0    0    0  501 -0.00000000000E+00 -0.00000000000E+00 -0.27363893835E+04  0.27363893835E+04  0.00000000000E+00 0.  1.
         23    2    1    2    0    0  0.24985051660E+04  0.12708168510E+04  0.37816015717E+03  0.28298997977E+04  0.88454662148E+02 0.  0.
        254    2    1    2    0    0 -0.24985051660E+04 -0.12708168510E+04 -0.78487432429E+02  0.29425516941E+04  0.89159781412E+03 0.  0.
        -24    2    4    4    0    0 -0.21036099483E+04 -0.78881146767E+03  0.19637820849E+03  0.22566752383E+04  0.81365744513E+02 0.  0.
         24    2    4    4    0    0 -0.39489521764E+03 -0.48200538335E+03 -0.27486564092E+03  0.68587645575E+03  0.81264810923E+02 0.  0.
         11    1    3    3    0    0  0.54621594500E+03  0.30177763288E+03  0.54000706952E+02  0.62636864116E+03  0.00000000000E+00 0. -1.
        -11    1    3    3    0    0  0.19522892210E+04  0.96903921814E+03  0.32415945022E+03  0.22035311565E+04  0.00000000000E+00 0.  1.
          2    1    6    6  502    0 -0.15181714674E+03 -0.21983309593E+03 -0.80968489513E+02  0.27916112266E+03  0.00000000000E+00 0. -1.
          3    1    5    5  503    0 -0.65677698753E+02 -0.34963631996E+02 -0.43580023134E+01  0.74531925106E+02  0.00000000000E+00 0. -1.
         -4    1    5    5    0  503 -0.20379322496E+04 -0.75384783568E+03  0.20073621080E+03  0.21821433132E+04  0.00000000000E+00 0.  1.
         -1    1    6    6    0  502 -0.24307807091E+03 -0.26217228742E+03 -0.19389715140E+03  0.40671533309E+03  0.00000000000E+00 0.  1.
<mgrwt>
<rscale>  0 0.57646676E+04</rscale>
<asrwt>0</asrwt>
<pdfrwt beam="1">  1        2 0.46708648E+00 0.57646676E+04</pdfrwt>
<pdfrwt beam="2">  1       -2 0.42098298E+00 0.57646676E+04</pdfrwt>
<totfact> 0.61283948E-03</totfact>
</mgrwt>
</event>
<event>
12    1  0.1562393E-007  0.3980791E+04  0.7818608E-02  0.8008433E-01
          2   -1    0    0  501    0  0.00000000000E+00  0.00000000000E+00  0.15867181106E+04  0.15867181106E+04  0.00000000000E+00 0. -1.
         -2   -1    0    0    0  501 -0.00000000000E+00 -0.00000000000E+00 -0.24967727594E+04  0.24967727594E+04  0.00000000000E+00 0.  1.
         23    2    1    2    0    0 -0.14983215478E+04 -0.16704245660E+03 -0.15631044919E+04  0.21734994604E+04  0.89070808746E+02 0.  0.
        254    2    1    2    0    0  0.14983215478E+04  0.16704245660E+03  0.65304984312E+03  0.19099914096E+04  0.97402384169E+03 0.  0.
        -24    2    4    4    0    0  0.12966491621E+04 -0.24860080618E+03  0.52940822643E+03  0.14250489985E+04  0.85966083845E+02 0.  0.
         24    2    4    4    0    0  0.20167238575E+03  0.41564326277E+03  0.12364161669E+03  0.48494241111E+03  0.80316994782E+02 0.  0.
         11    1    3    3    0    0 -0.14614034282E+04 -0.17010034951E+03 -0.15056706501E+04  0.21051551524E+04  0.00000000000E+00 0.  1.
        -11    1    3    3    0    0 -0.36918119594E+02  0.30578929117E+01 -0.57433841787E+02  0.68344308072E+02  0.00000000000E+00 0. -1.
          4    1    6    6  502    0  0.12741028175E+03  0.33674748538E+03  0.85313338855E+02  0.37001434376E+03  0.00000000000E+00 0. -1.
          3    1    5    5  503    0  0.18244288347E+03 -0.64848848401E+01  0.62774072208E+02  0.19304932945E+03  0.00000000000E+00 0. -1.
         -4    1    5    5    0  503  0.11142062786E+04 -0.24211592133E+03  0.46663415422E+03  0.12319996690E+04  0.00000000000E+00 0.  1.
         -3    1    6    6    0  502  0.74262104008E+02  0.78895777395E+02  0.38328277837E+02  0.11492806735E+03  0.00000000000E+00 0.  1.
<mgrwt>
<rscale>  0 0.39807912E+04</rscale>
<asrwt>0</asrwt>
<pdfrwt beam="1">  1        2 0.24411048E+00 0.39807912E+04</pdfrwt>
<pdfrwt beam="2">  1       -2 0.38411889E+00 0.39807912E+04</pdfrwt>
<totfact> 0.84368245E-02</totfact>
</mgrwt>
</event>
<event>
12    1  0.1562393E-007  0.1953175E+04  0.7818608E-02  0.8628831E-01
         -2   -1    0    0    0  501 -0.00000000000E+00  0.00000000000E+00  0.74442867711E+03  0.74442867711E+03  0.00000000000E+00 0. -1.
          2   -1    0    0  501    0  0.00000000000E+00 -0.00000000000E+00 -0.12811479149E+04  0.12811479149E+04  0.00000000000E+00 0.  1.
         23    2    1    2    0    0  0.82829161441E+02 -0.35965431293E+03  0.48691316894E+03  0.61823576581E+03  0.94441162874E+02 0.  0.
        254    2    1    2    0    0 -0.82829161441E+02  0.35965431293E+03 -0.10236324067E+04  0.14073408262E+04  0.89250938493E+03 0.  0.
        -24    2    4    4    0    0  0.72550033948E+02 -0.84064288091E+02 -0.90525095618E+03  0.91572480556E+03  0.82111594075E+02 0.  0.
         24    2    4    4    0    0 -0.15537919539E+03  0.44371860102E+03 -0.11838145052E+03  0.49161602062E+03  0.81506151019E+02 0.  0.
         11    1    3    3    0    0  0.12074667677E+02 -0.33836888912E+02  0.10647951656E+03  0.11237713334E+03  0.00000000000E+00 0.  1.
        -11    1    3    3    0    0  0.70754493764E+02 -0.32581742402E+03  0.38043365238E+03  0.50585863247E+03  0.00000000000E+00 0. -1.
          4    1    6    6  502    0 -0.77714254613E+02  0.11800673878E+03 -0.49834265868E+02  0.14982840125E+03  0.00000000000E+00 0. -1.
          3    1    5    5  503    0  0.25826824591E+02  0.14072418222E+02 -0.19218982974E+03  0.19442733470E+03  0.00000000000E+00 0. -1.
         -4    1    5    5    0  503  0.46723209357E+02 -0.98136706313E+02 -0.71306112644E+03  0.72129747085E+03  0.00000000000E+00 0.  1.
         -3    1    6    6    0  502 -0.77664940775E+02  0.32571186224E+03 -0.68547184649E+02  0.34178761937E+03  0.00000000000E+00 0.  1.
<mgrwt>
<rscale>  0 0.19531751E+04</rscale>
<asrwt>0</asrwt>
<pdfrwt beam="1">  1        2 0.19709968E+00 0.19531751E+04</pdfrwt>
<pdfrwt beam="2">  1       -2 0.11452749E+00 0.19531751E+04</pdfrwt>
<totfact> 0.94202922E+00</totfact>
</mgrwt>
</event>
<event>
12    1  0.1562393E-007  0.1126070E+04  0.7818608E-02  0.9180148E-01
         -2   -1    0    0    0  501 -0.00000000000E+00  0.00000000000E+00  0.19086319804E+03  0.19086319804E+03  0.00000000000E+00 0. -1.
          2   -1    0    0  501    0  0.00000000000E+00 -0.00000000000E+00 -0.16609207882E+04  0.16609207882E+04  0.00000000000E+00 0.  1.
         23    2    1    2    0    0 -0.18275774972E+03 -0.43950288335E+02 -0.20761337663E+03  0.29149378616E+03  0.80828771399E+02 0.  0.
        254    2    1    2    0    0  0.18275774972E+03  0.43950288335E+02 -0.12624442135E+04  0.15602902000E+04  0.89744531489E+03 0.  0.
        -24    2    4    4    0    0  0.14197526585E+03 -0.11840816039E+03 -0.13431204974E+04  0.13586729159E+04  0.88554804360E+02 0.  0.
         24    2    4    4    0    0  0.40782483868E+02  0.16235844872E+03  0.80676283882E+02  0.20161728413E+03  0.78213743153E+02 0.  0.
         13    1    3    3    0    0  0.65031266928E+01  0.30336901909E+01 -0.18524282123E+02  0.19865622596E+02  0.00000000000E+00 0.  1.
        -13    1    3    3    0    0 -0.18926087642E+03 -0.46983978526E+02 -0.18908909450E+03  0.27162816356E+03  0.00000000000E+00 0. -1.
          4    1    6    6  502    0  0.49836433162E+02  0.16141737054E+03  0.60429554866E+02  0.17941841791E+03  0.00000000000E+00 0. -1.
          1    1    5    5  503    0  0.10022768208E+03 -0.11847812790E+03 -0.87155857072E+03  0.88526662495E+03  0.00000000000E+00 0. -1.
         -2    1    5    5    0  503  0.41747583771E+02  0.69967514964E-01 -0.47156192665E+03  0.47340629096E+03  0.00000000000E+00 0.  1.
         -3    1    6    6    0  502 -0.90539492938E+01  0.94107818351E+00  0.20246729016E+02  0.22198866228E+02  0.00000000000E+00 0.  1.
<mgrwt>
<rscale>  0 0.11260704E+04</rscale>
<asrwt>0</asrwt>
<pdfrwt beam="1">  1        2 0.25552628E+00 0.11260704E+04</pdfrwt>
<pdfrwt beam="2">  1       -2 0.29363568E-01 0.11260704E+04</pdfrwt>
<totfact> 0.10906778E+02</totfact>
</mgrwt>
</event>
<event>
12    1  0.1562393E-007  0.1622891E+04  0.7818608E-02  0.8806607E-01
          2   -1    0    0  501    0  0.00000000000E+00  0.00000000000E+00  0.14580283440E+04  0.14580283440E+04  0.00000000000E+00 0.  1.
         -2   -1    0    0    0  501 -0.00000000000E+00 -0.00000000000E+00 -0.45159890659E+03  0.45159890659E+03  0.00000000000E+00 0. -1.
         23    2    1    2    0    0  0.41703460720E+03  0.20459443541E+03  0.70854524518E+03  0.85181836490E+03  0.88212333090E+02 0.  0.
        254    2    1    2    0    0 -0.41703460720E+03 -0.20459443541E+03  0.29788419223E+03  0.10578088857E+04  0.90246767258E+03 0.  0.
        -24    2    4    4    0    0 -0.26150180184E+03 -0.33055132741E+03 -0.23051820659E+03  0.48728295791E+03  0.81600643889E+02 0.  0.
         24    2    4    4    0    0 -0.15553280536E+03  0.12595689199E+03  0.52840239882E+03  0.57052592778E+03  0.78962947067E+02 0.  0.
         11    1    3    3    0    0  0.29188866589E+03  0.16306303438E+03  0.56802183637E+03  0.65911861835E+03  0.00000000000E+00 0. -1.
        -11    1    3    3    0    0  0.12514594131E+03  0.41531401036E+02  0.14052340881E+03  0.19269974655E+03  0.00000000000E+00 0.  1.
          2    1    6    6  502    0 -0.12092824896E+03  0.12212033208E+03  0.36475860641E+03  0.40321936691E+03  0.00000000000E+00 0. -1.
          1    1    5    5  503    0 -0.12335364837E+03 -0.20821001228E+03 -0.15796800717E+03  0.28900073195E+03  0.00000000000E+00 0. -1.
         -2    1    5    5    0  503 -0.13814815347E+03 -0.12234131513E+03 -0.72550199413E+02  0.19828222596E+03  0.00000000000E+00 0.  1.
         -1    1    6    6    0  502 -0.34604556399E+02  0.38365599159E+01  0.16364379241E+03  0.16730656087E+03  0.00000000000E+00 0.  1.
<mgrwt>
<rscale>  0 0.16228913E+04</rscale>
<asrwt>0</asrwt>
<pdfrwt beam="1">  1        2 0.22431205E+00 0.16228913E+04</pdfrwt>
<pdfrwt beam="2">  1       -2 0.69476756E-01 0.16228913E+04</pdfrwt>
<totfact> 0.24252749E+01</totfact>
</mgrwt>
</event>
<event>
12    1  0.1562393E-007  0.1307789E+04  0.7818608E-02  0.9023411E-01
          2   -1    0    0  501    0  0.00000000000E+00  0.00000000000E+00  0.15263292586E+04  0.15263292586E+04  0.00000000000E+00 0.  1.
         -2   -1    0    0    0  501 -0.00000000000E+00 -0.00000000000E+00 -0.28013465478E+03  0.28013465478E+03  0.00000000000E+00 0. -1.
         23    2    1    2    0    0 -0.72998222993E+02  0.33542588282E+03  0.42751253255E+03  0.55574727020E+03  0.90822901409E+02 0.  0.
        254    2    1    2    0    0  0.72998222993E+02 -0.33542588282E+03  0.81868207125E+03  0.12507166432E+04  0.88102924144E+03 0.  0.
        -24    2    4    4    0    0  0.21425626720E+03 -0.49638208040E+03  0.86013197824E+03  0.10191146488E+04  0.80415978789E+02 0.  0.
         24    2    4    4    0    0 -0.14125804421E+03  0.16095619758E+03 -0.41449906990E+02  0.23160199436E+03  0.77850217771E+02 0.  0.
         13    1    3    3    0    0 -0.15050242784E+02  0.17881304831E+03  0.16013630499E+03  0.24050832050E+03  0.00000000000E+00 0. -1.
        -13    1    3    3    0    0 -0.57947980209E+02  0.15661283451E+03  0.26737622756E+03  0.31523894970E+03  0.00000000000E+00 0.  1.
          4    1    6    6  502    0 -0.68982304867E+02  0.24314923656E+02 -0.17135599286E+02  0.75122584221E+02  0.00000000000E+00 0. -1.
          3    1    5    5  503    0  0.18015636632E+03 -0.44698589244E+03  0.71704490119E+03  0.86394796990E+03  0.00000000000E+00 0. -1.
         -4    1    5    5    0  503  0.34099900885E+02 -0.49396187957E+02  0.14308707705E+03  0.15516667891E+03  0.00000000000E+00 0.  1.
         -3    1    6    6    0  502 -0.72275739343E+02  0.13664127392E+03 -0.24314307704E+02  0.15647941014E+03  0.00000000000E+00 0.  1.
<mgrwt>
<rscale>  0 0.13077885E+04</rscale>
<asrwt>0</asrwt>
<pdfrwt beam="1">  1        2 0.23481988E+00 0.13077885E+04</pdfrwt>
<pdfrwt beam="2">  1       -2 0.43097640E-01 0.13077885E+04</pdfrwt>
<totfact> 0.61321618E+01</totfact>
</mgrwt>
</event>
<event>
12    1  0.1562393E-007  0.1575104E+04  0.7818608E-02  0.8835990E-01
          1   -1    0    0  501    0  0.00000000000E+00  0.00000000000E+00  0.95727362592E+03  0.95727362592E+03  0.00000000000E+00 0. -1.
         -1   -1    0    0    0  501 -0.00000000000E+00 -0.00000000000E+00 -0.64792132097E+03  0.64792132097E+03  0.00000000000E+00 0.  1.
         23    2    1    2    0    0 -0.47345364299E+03 -0.12973769965E+03  0.29675374322E+03  0.58065961355E+03  0.90069861340E+02 0.  0.
        254    2    1    2    0    0  0.47345364299E+03  0.12973769965E+03  0.12598561737E+02  0.10245353333E+04  0.89917946080E+03 0.  0.
        -24    2    4    4    0    0  0.16289027415E+03  0.31213503908E+03 -0.35277576427E+03  0.50523334046E+03  0.82755449530E+02 0.  0.
         24    2    4    4    0    0  0.31056336884E+03 -0.18239733943E+03  0.36537432600E+03  0.51930199288E+03  0.80360227755E+02 0.  0.
         11    1    3    3    0    0 -0.34193820544E+03 -0.58787037369E+02  0.23454521929E+03  0.41879483281E+03  0.00000000000E+00 0. -1.
        -11    1    3    3    0    0 -0.13151543756E+03 -0.70950662280E+02  0.62208523926E+02  0.16186478074E+03  0.00000000000E+00 0.  1.
          2    1    6    6  502    0  0.48834334722E+01 -0.23212505784E+02  0.16458497032E+02  0.28871274163E+02  0.00000000000E+00 0. -1.
          3    1    5    5  503    0  0.53709225347E+02  0.49752533311E+02 -0.43264048480E+02  0.85039833896E+02  0.00000000000E+00 0. -1.
         -4    1    5    5    0  503  0.10918104881E+03  0.26238250577E+03 -0.30951171579E+03  0.42019350657E+03  0.00000000000E+00 0.  1.
         -1    1    6    6    0  502  0.30567993537E+03 -0.15918483365E+03  0.34891582897E+03  0.49043071871E+03  0.00000000000E+00 0.  1.
<mgrwt>
<rscale>  0 0.15751038E+04</rscale>
<asrwt>0</asrwt>
<pdfrwt beam="1">  1        1 0.14727287E+00 0.15751038E+04</pdfrwt>
<pdfrwt beam="2">  1       -1 0.99680203E-01 0.15751038E+04</pdfrwt>
<totfact> 0.15101657E+01</totfact>
</mgrwt>
</event>
<event>
12    1  0.1562393E-007  0.2251991E+04  0.7818608E-02  0.8497094E-01
          2   -1    0    0  501    0  0.00000000000E+00  0.00000000000E+00  0.87291734254E+03  0.87291734254E+03  0.00000000000E+00 0. -1.
         -2   -1    0    0    0  501 -0.00000000000E+00 -0.00000000000E+00 -0.14524471021E+04  0.14524471021E+04  0.00000000000E+00 0.  1.
         23    2    1    2    0    0  0.45242403727E+03  0.29536145105E+03 -0.10544300285E+04  0.11889930847E+04  0.99779627527E+02 0.  0.
        254    2    1    2    0    0 -0.45242403727E+03 -0.29536145105E+03  0.47490026896E+03  0.11363713600E+04  0.87970660224E+03 0.  0.
        -24    2    4    4    0    0 -0.19396430669E+03  0.11483769335E+03  0.58511434577E+03  0.63204157539E+03  0.79422335137E+02 0.  0.
         24    2    4    4    0    0 -0.25845973058E+03 -0.41019914440E+03 -0.11021407681E+03  0.50432978458E+03  0.84478509001E+02 0.  0.
         11    1    3    3    0    0  0.60952153764E+02  0.38151259105E+01 -0.12911113236E+03  0.14282648471E+03  0.00000000000E+00 0. -1.
        -11    1    3    3    0    0  0.39147188350E+03  0.29154632514E+03 -0.92531889617E+03  0.10461666000E+04  0.00000000000E+00 0.  1.
          2    1    6    6  502    0 -0.71681898989E+02 -0.12928827934E+03  0.48447521468E+01  0.14790951775E+03  0.00000000000E+00 0. -1.
          3    1    5    5  503    0 -0.12662387458E+03  0.10522665148E+03  0.34160835552E+03  0.37921303031E+03  0.00000000000E+00 0. -1.
         -4    1    5    5    0  503 -0.67340432107E+02  0.96110418716E+01  0.24350599025E+03  0.25282854508E+03  0.00000000000E+00 0.  1.
         -1    1    6    6    0  502 -0.18677783159E+03 -0.28091086506E+03 -0.11505882895E+03  0.35642026682E+03  0.00000000000E+00 0.  1.
<mgrwt>
<rscale>  0 0.22519914E+04</rscale>
<asrwt>0</asrwt>
<pdfrwt beam="1">  1        2 0.13429498E+00 0.22519914E+04</pdfrwt>
<pdfrwt beam="2">  1       -2 0.22345340E+00 0.22519914E+04</pdfrwt>
<totfact> 0.26166793E+00</totfact>
</mgrwt>
</event>
<event>
12    1  0.1562393E-007  0.1736331E+04  0.7818608E-02  0.8740910E-01
          1   -1    0    0  501    0  0.00000000000E+00  0.00000000000E+00  0.20631729447E+04  0.20631729447E+04  0.00000000000E+00 0. -1.
         -1   -1    0    0    0  501 -0.00000000000E+00 -0.00000000000E+00 -0.36531675633E+03  0.36531675633E+03  0.00000000000E+00 0.  1.
         23    2    1    2    0    0  0.33605676659E+03  0.40984752164E+03  0.11160725458E+04  0.12389660354E+04  0.92248404338E+02 0.  0.
        254    2    1    2    0    0 -0.33605676659E+03 -0.40984752164E+03  0.58178364262E+03  0.11895236656E+04  0.89195583014E+03 0.  0.
        -24    2    4    4    0    0 -0.16195093045E+03  0.14786627682E+03  0.55173827400E+03  0.59907061652E+03  0.79862011523E+02 0.  0.
         24    2    4    4    0    0 -0.17410583614E+03 -0.55771379846E+03  0.30045368619E+02  0.59045304912E+03  0.79840815772E+02 0.  0.
         11    1    3    3    0    0  0.18752473704E+02  0.51019208453E+02  0.71597074155E+02  0.89893024917E+02  0.00000000000E+00 0. -1.
        -11    1    3    3    0    0  0.31730429289E+03  0.35882831319E+03  0.10444754716E+04  0.11490730105E+04  0.00000000000E+00 0.  1.
          2    1    6    6  502    0 -0.54410959607E+02 -0.80937685293E+02  0.14817736542E+02  0.98645966680E+02  0.00000000000E+00 0. -1.
          1    1    5    5  503    0 -0.17219874555E+02  0.48957204089E+02  0.75701328473E+02  0.91782476783E+02  0.00000000000E+00 0. -1.
         -2    1    5    5    0  503 -0.14473105589E+03  0.98909072731E+02  0.47603694553E+03  0.50728813973E+03  0.00000000000E+00 0.  1.
         -3    1    6    6    0  502 -0.11969487654E+03 -0.47677611317E+03  0.15227632077E+02  0.49180708244E+03  0.00000000000E+00 0.  1.
<mgrwt>
<rscale>  0 0.17363314E+04</rscale>
<asrwt>0</asrwt>
<pdfrwt beam="1">  1        1 0.31741121E+00 0.17363314E+04</pdfrwt>
<pdfrwt beam="2">  1       -1 0.56202579E-01 0.17363314E+04</pdfrwt>
<totfact> 0.82066448E+00</totfact>
</mgrwt>
</event>
<event>
12    1  0.1562393E-007  0.1086064E+04  0.7818608E-02  0.9218882E-01
         -1   -1    0    0    0  501 -0.00000000000E+00  0.00000000000E+00  0.45689476709E+03  0.45689476709E+03  0.00000000000E+00 0.  1.
          1   -1    0    0  501    0  0.00000000000E+00 -0.00000000000E+00 -0.64540901313E+03  0.64540901313E+03  0.00000000000E+00 0. -1.
         23    2    1    2    0    0 -0.10513129683E+03 -0.18031135833E+02  0.74640101355E+02  0.15944994901E+03  0.92062099025E+02 0.  0.
        254    2    1    2    0    0  0.10513129683E+03  0.18031135833E+02 -0.26315434740E+03  0.94285383120E+03  0.89908032179E+03 0.  0.
        -24    2    4    4    0    0 -0.27742480951E+03 -0.21852438932E+03 -0.32036352825E+03  0.48363543625E+03  0.80950671996E+02 0.  0.
         24    2    4    4    0    0  0.38255610635E+03  0.23655552515E+03  0.57209180857E+02  0.45921839496E+03  0.72807643205E+02 0.  0.
         13    1    3    3    0    0 -0.41196757592E+02 -0.37112688095E+02 -0.48608706942E+01  0.55661050275E+02  0.00000000000E+00 0. -1.
        -13    1    3    3    0    0 -0.63934539241E+02  0.19081552262E+02  0.79500972050E+02  0.10378889874E+03  0.00000000000E+00 0.  1.
          2    1    6    6  502    0  0.35989878350E+03  0.19961204232E+03  0.59462449126E+02  0.41582193865E+03  0.00000000000E+00 0. -1.
          1    1    5    5  503    0 -0.10315888075E+03 -0.13136278087E+03 -0.13604694845E+03  0.21542216009E+03  0.00000000000E+00 0. -1.
         -2    1    5    5    0  503 -0.17426592876E+03 -0.87161608449E+02 -0.18431657981E+03  0.26821327616E+03  0.00000000000E+00 0.  1.
         -1    1    6    6    0  502  0.22657322844E+02  0.36943482830E+02 -0.22532682696E+01  0.43396456306E+02  0.00000000000E+00 0.  1.
<mgrwt>
<rscale>  0 0.10860645E+04</rscale>
<asrwt>0</asrwt>
<pdfrwt beam="1">  1        1 0.99293694E-01 0.10860645E+04</pdfrwt>
<pdfrwt beam="2">  1       -1 0.70291503E-01 0.10860645E+04</pdfrwt>
<totfact> 0.62822520E+01</totfact>
</mgrwt>
</event>
<event>
12    1  0.1562393E-007  0.4528552E+04  0.7818608E-02  0.7905657E-01
         -2   -1    0    0    0  501 -0.00000000000E+00  0.00000000000E+00  0.20759140832E+04  0.20759140832E+04  0.00000000000E+00 0. -1.
          2   -1    0    0  501    0  0.00000000000E+00 -0.00000000000E+00 -0.24697295588E+04  0.24697295588E+04  0.00000000000E+00 0.  1.
         23    2    1    2    0    0 -0.19782579691E+04 -0.68900832669E+03 -0.75426079088E+03  0.22282695254E+04  0.89658632225E+02 0.  0.
        254    2    1    2    0    0  0.19782579691E+04  0.68900832669E+03  0.36044531531E+03  0.23173741166E+04  0.92307361795E+03 0.  0.
        -24    2    4    4    0    0  0.89357326672E+03  0.20710444337E+03 -0.28492576198E+03  0.96375893991E+03  0.79266455343E+02 0.  0.
         24    2    4    4    0    0  0.10846847024E+04  0.48190388332E+03  0.64537107730E+03  0.13536151767E+04  0.83653826577E+02 0.  0.
         11    1    3    3    0    0 -0.11256759641E+04 -0.43055068266E+03 -0.46060246964E+03  0.12902228108E+04  0.00000000000E+00 0. -1.
        -11    1    3    3    0    0 -0.85258200499E+03 -0.25845764403E+03 -0.29365832124E+03  0.93804671452E+03  0.00000000000E+00 0.  1.
          2    1    6    6  502    0  0.85325803047E+03  0.34543659752E+03  0.51829571111E+03  0.10564119242E+04  0.00000000000E+00 0. -1.
          3    1    5    5  503    0  0.45052718620E+03  0.64012325105E+02 -0.13602460354E+03  0.47494738239E+03  0.00000000000E+00 0. -1.
         -4    1    5    5    0  503  0.44304608052E+03  0.14309211826E+03 -0.14890115844E+03  0.48881155751E+03  0.00000000000E+00 0.  1.
         -1    1    6    6    0  502  0.23142667194E+03  0.13646728580E+03  0.12707536618E+03  0.29720325245E+03  0.00000000000E+00 0.  1.
<mgrwt>
<rscale>  0 0.45285523E+04</rscale>
<asrwt>0</asrwt>
<pdfrwt beam="1">  1        2 0.37995840E+00 0.45285523E+04</pdfrwt>
<pdfrwt beam="2">  1       -2 0.31937140E+00 0.45285523E+04</pdfrwt>
<totfact> 0.66196523E-02</totfact>
</mgrwt>
</event>
<event>
12    1  0.1562393E-007  0.2192373E+04  0.7818608E-02  0.8521610E-01
         -2   -1    0    0    0  501 -0.00000000000E+00  0.00000000000E+00  0.51560458113E+03  0.51560458113E+03  0.00000000000E+00 0. -1.
          2   -1    0    0  501    0  0.00000000000E+00 -0.00000000000E+00 -0.23305152213E+04  0.23305152213E+04  0.00000000000E+00 0.  1.
         23    2    1    2    0    0  0.23264711117E+03 -0.72070984036E+03 -0.14090847058E+04  0.16023341058E+04  0.91692562627E+02 0.  0.
        254    2    1    2    0    0 -0.23264711117E+03  0.72070984036E+03 -0.40582593438E+03  0.12437856967E+04  0.89931130201E+03 0.  0.
        -24    2    4    4    0    0  0.25192603738E+03 -0.17422777147E+02 -0.20550822335E+03  0.33483912981E+03  0.78187796433E+02 0.  0.
         24    2    4    4    0    0 -0.48457314855E+03  0.73813261751E+03 -0.20031771103E+03  0.90894656688E+03  0.80036109070E+02 0.  0.
         13    1    3    3    0    0  0.23792332654E+03 -0.71218900171E+03 -0.14006852346E+04  0.15892576285E+04  0.00000000000E+00 0.  1.
        -13    1    3    3    0    0 -0.52762153706E+01 -0.85208386488E+01 -0.83994712030E+01  0.13076477217E+02  0.00000000000E+00 0. -1.
          2    1    6    6  502    0 -0.34046435180E+03  0.57118911141E+03 -0.16987213642E+03  0.68631590290E+03  0.00000000000E+00 0. -1.
          1    1    5    5  503    0  0.24391100186E+03 -0.31677754471E+01 -0.17496139150E+03  0.30019010667E+03  0.00000000000E+00 0. -1.
         -4    1    5    5    0  503  0.80150355206E+01 -0.14255001700E+02 -0.30546831853E+02  0.34649023133E+02  0.00000000000E+00 0.  1.
         -1    1    6    6    0  502 -0.14410879675E+03  0.16694350610E+03 -0.30445574610E+02  0.22263066397E+03  0.00000000000E+00 0.  1.
<mgrwt>
<rscale>  0 0.21923725E+04</rscale>
<asrwt>0</asrwt>
<pdfrwt beam="1">  1        2 0.35854080E+00 0.21923725E+04</pdfrwt>
<pdfrwt beam="2">  1       -2 0.79323782E-01 0.21923725E+04</pdfrwt>
<totfact> 0.56130676E+00</totfact>
</mgrwt>
</event>
<event>
12    1  0.1562393E-007  0.2063674E+04  0.7818608E-02  0.8577416E-01
          2   -1    0    0  501    0  0.00000000000E+00  0.00000000000E+00  0.28269103286E+04  0.28269103286E+04  0.00000000000E+00 0. -1.
         -2   -1    0    0    0  501 -0.00000000000E+00 -0.00000000000E+00 -0.37662589179E+03  0.37662589179E+03  0.00000000000E+00 0.  1.
         23    2    1    2    0    0 -0.76882139354E+03 -0.25501777585E+03  0.12838516944E+04  0.15208899002E+04  0.93330135512E+02 0.  0.
        254    2    1    2    0    0  0.76882139354E+03  0.25501777585E+03  0.11664327424E+04  0.16826463202E+04  0.90255908124E+03 0.  0.
        -24    2    4    4    0    0  0.75732314107E+03  0.45693985862E+03  0.58880556766E+03  0.10657141412E+04  0.81989388847E+02 0.  0.
         24    2    4    4    0    0  0.11498252467E+02 -0.20192208276E+03  0.57762717479E+03  0.61693217901E+03  0.77765179350E+02 0.  0.
         13    1    3    3    0    0 -0.52911016455E+03 -0.16007381797E+03  0.94919409239E+03  0.10984309803E+04  0.00000000000E+00 0. -1.
        -13    1    3    3    0    0 -0.23971122899E+03 -0.94943957880E+02  0.33465760202E+03  0.42245891993E+03  0.00000000000E+00 0.  1.
          4    1    6    6  502    0  0.43134176728E+02 -0.14540630669E+03  0.41801151566E+03  0.44467648741E+03  0.00000000000E+00 0. -1.
          1    1    5    5  503    0  0.64855317017E+03  0.37530575574E+03  0.52850991285E+03  0.91695057272E+03  0.00000000000E+00 0. -1.
         -2    1    5    5    0  503  0.10876997090E+03  0.81634102878E+02  0.60295654804E+02  0.14876356849E+03  0.00000000000E+00 0.  1.
         -3    1    6    6    0  502 -0.31635924261E+02 -0.56515776076E+02  0.15961565913E+03  0.17225569160E+03  0.00000000000E+00 0.  1.
<mgrwt>
<rscale>  0 0.20636740E+04</rscale>
<asrwt>0</asrwt>
<pdfrwt beam="1">  1        2 0.43490927E+00 0.20636740E+04</pdfrwt>
<pdfrwt beam="2">  1       -2 0.57942447E-01 0.20636740E+04</pdfrwt>
<totfact> 0.57459839E+00</totfact>
</mgrwt>
</event>
<event>
12    1  0.1562393E-007  0.1267573E+04  0.7818608E-02  0.9055683E-01
         -1   -1    0    0    0  501 -0.00000000000E+00  0.00000000000E+00  0.21838673809E+03  0.21838673809E+03  0.00000000000E+00 0.  1.
          1   -1    0    0  501    0  0.00000000000E+00 -0.00000000000E+00 -0.18393312537E+04  0.18393312537E+04  0.00000000000E+00 0. -1.
         23    2    1    2    0    0  0.15107528084E+03 -0.91395602293E+02 -0.21452656754E+01  0.20322840368E+03  0.10059962872E+03 0.  0.
        254    2    1    2    0    0 -0.15107528084E+03  0.91395602293E+02 -0.16187992499E+04  0.18544895881E+04  0.88738025908E+03 0.  0.
        -24    2    4    4    0    0 -0.54160361401E+02  0.44148943543E+02 -0.16962911940E+04  0.16996030481E+04  0.79776138311E+02 0.  0.
         24    2    4    4    0    0 -0.96914919442E+02  0.47246658751E+02  0.77491944104E+02  0.15488653999E+03  0.79750175519E+02 0.  0.
         11    1    3    3    0    0  0.51304192383E+02  0.18507421109E+02  0.38171386381E+01  0.54673717082E+02  0.00000000000E+00 0. -1.
        -11    1    3    3    0    0  0.99771088459E+02 -0.10990302340E+03 -0.59624043135E+01  0.14855468660E+03  0.00000000000E+00 0.  1.
          4    1    6    6  502    0 -0.10197471075E+03  0.21369180037E+02  0.75051311710E+02  0.12840631946E+03  0.00000000000E+00 0. -1.
          1    1    5    5  503    0 -0.74492890320E+02  0.34336163193E+02 -0.14330113102E+04  0.14353569515E+04  0.00000000000E+00 0. -1.
         -2    1    5    5    0  503  0.20332528919E+02  0.98127803503E+01 -0.26327988376E+03  0.26424609663E+03  0.00000000000E+00 0.  1.
         -3    1    6    6    0  502  0.50597913105E+01  0.25877478714E+02  0.24406323943E+01  0.26480220527E+02  0.00000000000E+00 0.  1.
<mgrwt>
<rscale>  0 0.12675734E+04</rscale>
<asrwt>0</asrwt>
<pdfrwt beam="1">  1        1 0.28297403E+00 0.12675734E+04</pdfrwt>
<pdfrwt beam="2">  1       -1 0.33597961E-01 0.12675734E+04</pdfrwt>
<totfact> 0.31521670E+01</totfact>
</mgrwt>
</event>
<event>
12    1  0.1562393E-007  0.2260123E+04  0.7818608E-02  0.8493812E-01
          1   -1    0    0  501    0  0.00000000000E+00  0.00000000000E+00  0.22138427711E+04  0.22138427711E+04  0.00000000000E+00 0. -1.
         -1   -1    0    0    0  501 -0.00000000000E+00 -0.00000000000E+00 -0.57684285837E+03  0.57684285837E+03  0.00000000000E+00 0.  1.
         23    2    1    2    0    0  0.84313604552E+03  0.16662589387E+03  0.11890947493E+04  0.14701285510E+04  0.93215095089E+02 0.  0.
        254    2    1    2    0    0 -0.84313604552E+03 -0.16662589387E+03  0.44790516339E+03  0.13205570784E+04  0.89700021305E+03 0.  0.
        -24    2    4    4    0    0 -0.80488368374E+03 -0.48895467084E+02  0.67190258547E+03  0.10521050699E+04  0.72411896067E+02 0.  0.
         24    2    4    4    0    0 -0.38252361777E+02 -0.11773042678E+03 -0.22399742208E+03  0.26845200852E+03  0.81042823288E+02 0.  0.
         13    1    3    3    0    0  0.50669572751E+03  0.11627997946E+03  0.79018731903E+03  0.94586341141E+03  0.00000000000E+00 0. -1.
        -13    1    3    3    0    0  0.33644031801E+03  0.50345914412E+02  0.39890743026E+03  0.52426513960E+03  0.00000000000E+00 0.  1.
          2    1    6    6  502    0 -0.59525352166E+02 -0.10922404551E+03 -0.19766549023E+03  0.23354829414E+03  0.00000000000E+00 0. -1.
          1    1    5    5  503    0 -0.77377959698E+03 -0.50414146642E+02  0.62567239690E+03  0.99636459147E+03  0.00000000000E+00 0. -1.
         -2    1    5    5    0  503 -0.31104086762E+02  0.15186795586E+01  0.46230188566E+02  0.55740478431E+02  0.00000000000E+00 0.  1.
         -1    1    6    6    0  502  0.21272990389E+02 -0.85063812780E+01 -0.26331931850E+02  0.34903714379E+02  0.00000000000E+00 0.  1.
<mgrwt>
<rscale>  0 0.22601234E+04</rscale>
<asrwt>0</asrwt>
<pdfrwt beam="1">  1        1 0.34059119E+00 0.22601234E+04</pdfrwt>
<pdfrwt beam="2">  1       -1 0.88745056E-01 0.22601234E+04</pdfrwt>
<totfact> 0.24084415E+00</totfact>
</mgrwt>
</event>
<event>
12    1  0.1576472E-007  0.1666790E+04  0.7818608E-02  0.8780535E-01
          2   -1    0    0  501    0  0.00000000000E+00  0.00000000000E+00  0.20987155358E+04  0.20987155358E+04  0.00000000000E+00 0. -1.
         -2   -1    0    0    0  501 -0.00000000000E+00 -0.00000000000E+00 -0.33093922155E+03  0.33093922155E+03  0.00000000000E+00 0.  1.
         23    2    1    2    0    0 -0.15042023209E+03  0.56887954224E+03  0.58508051624E+03  0.83504431407E+03  0.93432415011E+02 0.  0.
        254    2    1    2    0    0  0.15042023209E+03 -0.56887954224E+03  0.11826957980E+04  0.15946104433E+04  0.89317575839E+03 0.  0.
        -24    2    4    4    0    0  0.46847320874E+03 -0.14044921008E+03  0.36695177085E+03  0.61659999337E+03  0.79679494052E+02 0.  0.
         24    2    4    4    0    0 -0.31805297665E+03 -0.42843033216E+03  0.81574402712E+03  0.97801044988E+03  0.79723753140E+02 0.  0.
         13    1    3    3    0    0 -0.94826265469E+02  0.31268149599E+03  0.26091130544E+03  0.41813448537E+03  0.00000000000E+00 0. -1.
        -13    1    3    3    0    0 -0.55593966617E+02  0.25619804625E+03  0.32416921081E+03  0.41690982870E+03  0.00000000000E+00 0.  1.
          4    1    6    6  502    0 -0.24834167216E+03 -0.37820562538E+03  0.66114494502E+03  0.80114026208E+03  0.00000000000E+00 0. -1.
          3    1    5    5  503    0  0.44760699934E+03 -0.13508149738E+03  0.36804579987E+03  0.59502667805E+03  0.00000000000E+00 0. -1.
         -4    1    5    5    0  503  0.20866209404E+02 -0.53677126948E+01 -0.10940290135E+01  0.21573315321E+02  0.00000000000E+00 0.  1.
         -3    1    6    6    0  502 -0.69711304497E+02 -0.50224706783E+02  0.15459908211E+03  0.17687018780E+03  0.00000000000E+00 0.  1.
<mgrwt>
<rscale>  0 0.16667901E+04</rscale>
<asrwt>0</asrwt>
<pdfrwt beam="1">  1        2 0.32287931E+00 0.16667901E+04</pdfrwt>
<pdfrwt beam="2">  1       -2 0.50913727E-01 0.16667901E+04</pdfrwt>
<totfact> 0.20482033E+01</totfact>
</mgrwt>
</event>
<event>
12    1  0.1562393E-007  0.2337486E+04  0.7818608E-02  0.8463286E-01
         -2   -1    0    0    0  501 -0.00000000000E+00  0.00000000000E+00  0.14540712335E+04  0.14540712335E+04  0.00000000000E+00 0. -1.
          2   -1    0    0  501    0  0.00000000000E+00 -0.00000000000E+00 -0.93940357732E+03  0.93940357732E+03  0.00000000000E+00 0.  1.
         23    2    1    2    0    0 -0.48974613214E+03  0.51165460054E+03  0.93167681936E+03  0.11738049698E+04  0.90303417528E+02 0.  0.
        254    2    1    2    0    0  0.48974613214E+03 -0.51165460054E+03 -0.41700916322E+03  0.12196698410E+04  0.90114159517E+03 0.  0.
        -24    2    4    4    0    0  0.35075679934E+03  0.77426283810E+02 -0.48153862138E+03  0.60591502918E+03  0.78920320590E+02 0.  0.
         24    2    4    4    0    0  0.13898933280E+03 -0.58908088435E+03  0.64529458153E+02  0.61375481178E+03  0.78718454489E+02 0.  0.
         13    1    3    3    0    0 -0.94109367050E+02  0.96904487927E+02  0.12370521376E+03  0.18316667999E+03  0.00000000000E+00 0.  1.
        -13    1    3    3    0    0 -0.39563676509E+03  0.41475011261E+03  0.80797160559E+03  0.99063828982E+03  0.00000000000E+00 0. -1.
          4    1    6    6  502    0  0.51436806272E+00 -0.17514698286E+02  0.15875201753E+02  0.23644264870E+02  0.00000000000E+00 0. -1.
          3    1    5    5  503    0  0.16992043515E+03  0.35172115350E+02 -0.29784526339E+03  0.34470542918E+03  0.00000000000E+00 0. -1.
         -4    1    5    5    0  503  0.18083636419E+03  0.42254168460E+02 -0.18369335798E+03  0.26120960000E+03  0.00000000000E+00 0.  1.
         -3    1    6    6    0  502  0.13847496474E+03 -0.57156618606E+03  0.48654256400E+02  0.59011054691E+03  0.00000000000E+00 0.  1.
<mgrwt>
<rscale>  0 0.23374856E+04</rscale>
<asrwt>0</asrwt>
<pdfrwt beam="1">  1        2 0.14452363E+00 0.23374856E+04</pdfrwt>
<pdfrwt beam="2">  1       -2 0.22370327E+00 0.23374856E+04</pdfrwt>
<totfact> 0.23348648E+00</totfact>
</mgrwt>
</event>
<event>
12    1  0.1562393E-007  0.1342456E+04  0.7818608E-02  0.8996559E-01
          2   -1    0    0  501    0  0.00000000000E+00  0.00000000000E+00  0.22361710764E+03  0.22361710764E+03  0.00000000000E+00 0.  1.
         -2   -1    0    0    0  501 -0.00000000000E+00 -0.00000000000E+00 -0.20148141109E+04  0.20148141109E+04  0.00000000000E+00 0. -1.
         23    2    1    2    0    0 -0.13010183185E+03 -0.18725955387E+03 -0.33189162842E+02  0.24897239775E+03  0.94303272173E+02 0.  0.
        254    2    1    2    0    0  0.13010183185E+03  0.18725955387E+03 -0.17580078404E+04  0.19894588208E+04  0.90297408905E+03 0.  0.
        -24    2    4    4    0    0  0.45980432150E+03  0.31946579558E+03 -0.11317000506E+04  0.12649504798E+04  0.76657049456E+02 0.  0.
         24    2    4    4    0    0 -0.32970248965E+03 -0.13220624171E+03 -0.62630778980E+03  0.72450834097E+03  0.80428020817E+02 0.  0.
         13    1    3    3    0    0  0.10380233431E+02 -0.43851411643E+02 -0.14566930647E+02  0.47359170365E+02  0.00000000000E+00 0. -1.
        -13    1    3    3    0    0 -0.14048206528E+03 -0.14340814223E+03 -0.18622232195E+02  0.20161322738E+03  0.00000000000E+00 0.  1.
          2    1    6    6  502    0 -0.27326929369E+03 -0.12026584867E+03 -0.45921509124E+03  0.54773942824E+03  0.00000000000E+00 0. -1.
          3    1    5    5  503    0  0.39998812800E+03  0.30633920699E+03 -0.10034461863E+04  0.11228261046E+04  0.00000000000E+00 0. -1.
         -4    1    5    5    0  503  0.59816193509E+02  0.13126588593E+02 -0.12825386429E+03  0.14212437525E+03  0.00000000000E+00 0.  1.
         -1    1    6    6    0  502 -0.56433195962E+02 -0.11940393044E+02 -0.16709269856E+03  0.17676891272E+03  0.00000000000E+00 0.  1.
<mgrwt>
<rscale>  0 0.13424558E+04</rscale>
<asrwt>0</asrwt>
<pdfrwt beam="1">  1        2 0.34402630E-01 0.13424558E+04</pdfrwt>
<pdfrwt beam="2">  1       -2 0.30997142E+00 0.13424558E+04</pdfrwt>
<totfact> 0.41429342E+00</totfact>
</mgrwt>
</event>
<event>
12    1  0.1562393E-007  0.1460232E+04  0.7818608E-02  0.8911338E-01
          2   -1    0    0  501    0  0.00000000000E+00  0.00000000000E+00  0.25540723296E+04  0.25540723296E+04  0.00000000000E+00 0. -1.
         -2   -1    0    0    0  501 -0.00000000000E+00 -0.00000000000E+00 -0.20871336981E+03  0.20871336981E+03  0.00000000000E+00 0.  1.
         23    2    1    2    0    0 -0.17372052324E+03  0.36341641784E+03  0.54680463458E+03  0.68522940925E+03  0.91069873998E+02 0.  0.
        254    2    1    2    0    0  0.17372052324E+03 -0.36341641784E+03  0.17985543252E+04  0.20775562902E+04  0.95874509914E+03 0.  0.
        -24    2    4    4    0    0  0.31404104251E+03 -0.17498102638E+03  0.12983575783E+03  0.39042899615E+03  0.79607418318E+02 0.  0.
         24    2    4    4    0    0 -0.14032051927E+03 -0.18843539146E+03  0.16687185674E+04  0.16871272940E+04  0.81111677319E+02 0.  0.
         11    1    3    3    0    0 -0.18146930619E+03  0.35027539228E+03  0.50560370634E+03  0.64129483655E+03  0.00000000000E+00 0. -1.
        -11    1    3    3    0    0  0.77487829476E+01  0.13141025558E+02  0.41200928246E+02  0.43934572698E+02  0.00000000000E+00 0.  1.
          4    1    6    6  502    0 -0.81905049748E+02 -0.13008838763E+03  0.81073796621E+03  0.82518329820E+03  0.00000000000E+00 0. -1.
          1    1    5    5  503    0  0.58944140752E+02 -0.71980077406E+02  0.36053344467E+02  0.99776685251E+02  0.00000000000E+00 0. -1.
         -2    1    5    5    0  503  0.25509690176E+03 -0.10300094897E+03  0.93782413363E+02  0.29065231090E+03  0.00000000000E+00 0.  1.
         -3    1    6    6    0  502 -0.58415469518E+02 -0.58347003831E+02  0.85798060118E+03  0.86194399582E+03  0.00000000000E+00 0.  1.
<mgrwt>
<rscale>  0 0.14602315E+04</rscale>
<asrwt>0</asrwt>
<pdfrwt beam="1">  1        2 0.39293418E+00 0.14602315E+04</pdfrwt>
<pdfrwt beam="2">  1       -2 0.32109751E-01 0.14602315E+04</pdfrwt>
<totfact> 0.28418435E+01</totfact>
</mgrwt>
</event>
<event>
12    1  0.1562393E-007  0.2060960E+04  0.7818608E-02  0.8578639E-01
         -4   -1    0    0    0  501 -0.00000000000E+00  0.00000000000E+00  0.20111220552E+04  0.20111220552E+04  0.00000000000E+00 0.  1.
          4   -1    0    0  501    0  0.00000000000E+00 -0.00000000000E+00 -0.52800805308E+03  0.52800805308E+03  0.00000000000E+00 0. -1.
         23    2    1    2    0    0  0.66724929419E+03 -0.76243134930E+02 -0.22380922505E-01  0.67600233748E+03  0.77100736432E+02 0.  0.
        254    2    1    2    0    0 -0.66724929419E+03  0.76243134930E+02  0.14831363831E+04  0.18631277708E+04  0.90582389205E+03 0.  0.
        -24    2    4    4    0    0 -0.81376602807E+03 -0.16397740433E+03  0.11417941740E+04  0.14138983785E+04  0.79441496860E+02 0.  0.
         24    2    4    4    0    0  0.14651673389E+03  0.24022053926E+03  0.34134220913E+03  0.44922939235E+03  0.78227120803E+02 0.  0.
         13    1    3    3    0    0  0.61952655487E+03 -0.57714135483E+02 -0.15871731952E+02  0.62241142783E+03  0.00000000000E+00 0. -1.
        -13    1    3    3    0    0  0.47722739320E+02 -0.18528999447E+02  0.15849351030E+02  0.53590909647E+02  0.00000000000E+00 0.  1.
          2    1    6    6  502    0  0.62086515313E+02  0.17212277619E+03  0.22804532631E+03  0.29237930214E+03  0.00000000000E+00 0. -1.
          1    1    5    5  503    0 -0.10332936129E+02 -0.12682135667E+02  0.21937746107E+02  0.27365504533E+02  0.00000000000E+00 0. -1.
         -2    1    5    5    0  503 -0.80343309195E+03 -0.15129526866E+03  0.11198564278E+04  0.13865328739E+04  0.00000000000E+00 0.  1.
         -1    1    6    6    0  502  0.84430218573E+02  0.68097763063E+02  0.11329688282E+03  0.15685009021E+03  0.00000000000E+00 0.  1.
<mgrwt>
<rscale>  0 0.20609596E+04</rscale>
<asrwt>0</asrwt>
<pdfrwt beam="1">  1        4 0.81232009E-01 0.20609596E+04</pdfrwt>
<pdfrwt beam="2">  1       -4 0.30940339E+00 0.20609596E+04</pdfrwt>
<totfact> 0.66933621E-02</totfact>
</mgrwt>
</event>
<event>
12    1  0.1562393E-007  0.1304114E+04  0.7818608E-02  0.9026309E-01
          2   -1    0    0  501    0  0.00000000000E+00  0.00000000000E+00  0.13731030130E+04  0.13731030130E+04  0.00000000000E+00 0. -1.
         -2   -1    0    0    0  501 -0.00000000000E+00 -0.00000000000E+00 -0.30964767140E+03  0.30964767140E+03  0.00000000000E+00 0.  1.
         23    2    1    2    0    0 -0.27655692258E+02  0.17149447309E+03  0.65824894257E+03  0.68682223596E+03  0.90873108223E+02 0.  0.
        254    2    1    2    0    0  0.27655692258E+02 -0.17149447309E+03  0.40520639907E+03  0.99592844848E+03  0.89303194625E+03 0.  0.
        -24    2    4    4    0    0  0.10187591077E+03 -0.92680688286E+02  0.67661358993E+03  0.69514584028E+03  0.80332919748E+02 0.  0.
         24    2    4    4    0    0 -0.74220218513E+02 -0.78813784805E+02 -0.27140719087E+03  0.30078260820E+03  0.71330642996E+02 0.  0.
         11    1    3    3    0    0 -0.11696555301E+02 -0.90168161978E+01  0.54247899760E+02  0.56222299923E+02  0.00000000000E+00 0.  1.
        -11    1    3    3    0    0 -0.15959136958E+02  0.18051128929E+03  0.60400104281E+03  0.63059993604E+03  0.00000000000E+00 0. -1.
          2    1    6    6  502    0 -0.49866002183E+02 -0.11287891334E+02 -0.16243953616E+03  0.17029573562E+03  0.00000000000E+00 0. -1.
          1    1    5    5  503    0  0.63189103154E+01  0.50384954262E+01  0.44469700599E+01  0.92244569731E+01  0.00000000000E+00 0. -1.
         -2    1    5    5    0  503  0.95557000456E+02 -0.97719183712E+02  0.67216661987E+03  0.68592138330E+03  0.00000000000E+00 0.  1.
         -1    1    6    6    0  502 -0.24354216330E+02 -0.67525893471E+02 -0.10896765471E+03  0.13048687258E+03  0.00000000000E+00 0.  1.
<mgrwt>
<rscale>  0 0.13041137E+04</rscale>
<asrwt>0</asrwt>
<pdfrwt beam="1">  1        2 0.21124661E+00 0.13041137E+04</pdfrwt>
<pdfrwt beam="2">  1       -2 0.47638104E-01 0.13041137E+04</pdfrwt>
<totfact> 0.61332983E+01</totfact>
</mgrwt>
</event>
<event>
12    1  0.1562393E-007  0.1605803E+04  0.7818608E-02  0.8816991E-01
         -1   -1    0    0    0  501 -0.00000000000E+00  0.00000000000E+00  0.25085478969E+03  0.25085478969E+03  0.00000000000E+00 0.  1.
          1   -1    0    0  501    0  0.00000000000E+00 -0.00000000000E+00 -0.25698158428E+04  0.25698158428E+04  0.00000000000E+00 0. -1.
         23    2    1    2    0    0  0.22915523363E+03  0.47868828920E+03 -0.69960094782E+03  0.88280837136E+03  0.90854471760E+02 0.  0.
        254    2    1    2    0    0 -0.22915523363E+03 -0.47868828920E+03 -0.16193601053E+04  0.19378622612E+04  0.92267458684E+03 0.  0.
        -24    2    4    4    0    0 -0.96881630079E+02 -0.63854945063E+03 -0.15816587606E+04  0.17103509315E+04  0.80773899448E+02 0.  0.
         24    2    4    4    0    0 -0.13227360355E+03  0.15986116143E+03 -0.37701344692E+02  0.22751132961E+03  0.85370466669E+02 0.  0.
         13    1    3    3    0    0  0.16488484361E+03  0.27438115537E+03 -0.36451659920E+03  0.48512305776E+03  0.00000000000E+00 0.  1.
        -13    1    3    3    0    0  0.64270390021E+02  0.20430713383E+03 -0.33508434862E+03  0.39768531361E+03  0.00000000000E+00 0. -1.
          4    1    6    6  502    0 -0.13694804007E+03  0.11719948976E+03 -0.21045447329E+02  0.18147560975E+03  0.00000000000E+00 0. -1.
          1    1    5    5  503    0 -0.61904975218E+02 -0.40653463505E+03 -0.90157746139E+03  0.99093115520E+03  0.00000000000E+00 0. -1.
         -2    1    5    5    0  503 -0.34976654861E+02 -0.23201481557E+03 -0.68008129923E+03  0.71941977634E+03  0.00000000000E+00 0.  1.
         -3    1    6    6    0  502  0.46744365203E+01  0.42661671669E+02 -0.16655897363E+02  0.46035719864E+02  0.00000000000E+00 0.  1.
<mgrwt>
<rscale>  0 0.16058027E+04</rscale>
<asrwt>0</asrwt>
<pdfrwt beam="1">  1        1 0.39535628E+00 0.16058027E+04</pdfrwt>
<pdfrwt beam="2">  1       -1 0.38593045E-01 0.16058027E+04</pdfrwt>
<totfact> 0.75719920E+00</totfact>
</mgrwt>
</event>
<event>
12    1  0.1562393E-007  0.1225180E+04  0.7818608E-02  0.9091097E-01
         -2   -1    0    0    0  501 -0.00000000000E+00  0.00000000000E+00  0.36964333205E+03  0.36964333205E+03  0.00000000000E+00 0.  1.
          2   -1    0    0  501    0  0.00000000000E+00 -0.00000000000E+00 -0.10152131716E+04  0.10152131716E+04  0.00000000000E+00 0. -1.
         23    2    1    2    0    0  0.18190742400E+03 -0.19318037765E+03 -0.87428132281E+02  0.29432504475E+03  0.92599052049E+02 0.  0.
        254    2    1    2    0    0 -0.18190742400E+03  0.19318037765E+03 -0.55814170725E+03  0.10905314589E+04  0.89851417807E+03 0.  0.
        -24    2    4    4    0    0 -0.37844862145E+03 -0.16500579533E+03 -0.52553477513E+03  0.67298656269E+03  0.79207588837E+02 0.  0.
         24    2    4    4    0    0  0.19654119745E+03  0.35818617298E+03 -0.32606932122E+02  0.41754489618E+03  0.79716695172E+02 0.  0.
         11    1    3    3    0    0  0.14594995902E+03 -0.11748723553E+03 -0.95208489676E+02  0.21016492942E+03  0.00000000000E+00 0. -1.
        -11    1    3    3    0    0  0.35957464973E+02 -0.75693142127E+02  0.77803573957E+01  0.84160115336E+02  0.00000000000E+00 0.  1.
          2    1    6    6  502    0  0.18503878574E+02  0.43886665910E+01 -0.82468353273E+01  0.20728343147E+02  0.00000000000E+00 0. -1.
          1    1    5    5  503    0 -0.21350778069E+03 -0.12493262469E+03 -0.26972945867E+03  0.36598868015E+03  0.00000000000E+00 0. -1.
         -4    1    5    5    0  503 -0.16494084076E+03 -0.40073170638E+02 -0.25580531645E+03  0.30699788254E+03  0.00000000000E+00 0.  1.
         -1    1    6    6    0  502  0.17803731888E+03  0.35379750639E+03 -0.24360096794E+02  0.39681655303E+03  0.00000000000E+00 0.  1.
<mgrwt>
<rscale>  0 0.12251804E+04</rscale>
<asrwt>0</asrwt>
<pdfrwt beam="1">  1        2 0.15618664E+00 0.12251804E+04</pdfrwt>
<pdfrwt beam="2">  1       -2 0.56868206E-01 0.12251804E+04</pdfrwt>
<totfact> 0.70350696E+01</totfact>
</mgrwt>
</event>
<event>
12    1  0.1562393E-007  0.1160949E+04  0.7818608E-02  0.9147742E-01
          1   -1    0    0  501    0  0.00000000000E+00  0.00000000000E+00  0.58892084334E+03  0.58892084334E+03  0.00000000000E+00 0. -1.
         -1   -1    0    0    0  501 -0.00000000000E+00 -0.00000000000E+00 -0.57214926073E+03  0.57214926073E+03  0.00000000000E+00 0.  1.
         23    2    1    2    0    0  0.66902016685E+02 -0.80391158507E+02  0.19931659937E+03  0.24248007094E+03  0.90171280451E+02 0.  0.
        254    2    1    2    0    0 -0.66902016685E+02  0.80391158507E+02 -0.18254501675E+03  0.91859003313E+03  0.89417355565E+03 0.  0.
        -24    2    4    4    0    0 -0.35436509922E+03 -0.22800310793E+03 -0.23058669581E+03  0.48679214581E+03  0.78970425882E+02 0.  0.
         24    2    4    4    0    0  0.28746308253E+03  0.30839426644E+03  0.48041679056E+02  0.43179788732E+03  0.79996032256E+02 0.  0.
         11    1    3    3    0    0  0.68821834719E+01  0.19732875635E+02  0.23620163204E+02  0.31538277378E+02  0.00000000000E+00 0.  1.
        -11    1    3    3    0    0  0.60019833213E+02 -0.10012403414E+03  0.17569643616E+03  0.21094179357E+03  0.00000000000E+00 0. -1.
          4    1    6    6  502    0  0.10556733857E+03  0.14824023910E+03 -0.11120260116E+02  0.18232742977E+03  0.00000000000E+00 0. -1.
          1    1    5    5  503    0 -0.16722995796E+03 -0.11525590613E+03 -0.67022851470E+02  0.21387343303E+03  0.00000000000E+00 0. -1.
         -2    1    5    5    0  503 -0.18713514126E+03 -0.11274720180E+03 -0.16356384434E+03  0.27291871277E+03  0.00000000000E+00 0.  1.
         -1    1    6    6    0  502  0.18189574396E+03  0.16015402734E+03  0.59161939172E+02  0.24947045755E+03  0.00000000000E+00 0.  1.
<mgrwt>
<rscale>  0 0.11609490E+04</rscale>
<asrwt>0</asrwt>
<pdfrwt beam="1">  1        1 0.90603206E-01 0.11609490E+04</pdfrwt>
<pdfrwt beam="2">  1       -1 0.88022964E-01 0.11609490E+04</pdfrwt>
<totfact> 0.44317590E+01</totfact>
</mgrwt>
</event>
<event>
12    1  0.1562393E-007  0.2227396E+04  0.7818608E-02  0.8507111E-01
         -1   -1    0    0    0  501 -0.00000000000E+00  0.00000000000E+00  0.10615549539E+04  0.10615549539E+04  0.00000000000E+00 0.  1.
          1   -1    0    0  501    0  0.00000000000E+00 -0.00000000000E+00 -0.11684022698E+04  0.11684022698E+04  0.00000000000E+00 0. -1.
         23    2    1    2    0    0  0.73914760197E+03  0.45814046104E+03 -0.21324895080E+03  0.90034143370E+03  0.94380732488E+02 0.  0.
        254    2    1    2    0    0 -0.73914760197E+03 -0.45814046104E+03  0.10640163490E+03  0.13296157900E+04  0.10001624776E+04 0.  0.
        -24    2    4    4    0    0 -0.53609555649E+03  0.35506637183E+02  0.43677178431E+03  0.69707585073E+03  0.80535601650E+02 0.  0.
         24    2    4    4    0    0 -0.20305204549E+03 -0.49364709822E+03 -0.33037014941E+03  0.63253993925E+03  0.77747979856E+02 0.  0.
         11    1    3    3    0    0  0.17110225738E+03  0.11778302814E+03 -0.11321497565E+02  0.20803124887E+03  0.00000000000E+00 0.  1.
        -11    1    3    3    0    0  0.56804534460E+03  0.34035743290E+03 -0.20192745324E+03  0.69231018483E+03  0.00000000000E+00 0. -1.
          2    1    6    6  502    0 -0.19112332133E+03 -0.41673945183E+03 -0.30509561603E+03  0.55071156660E+03  0.00000000000E+00 0. -1.
          3    1    5    5  503    0 -0.48807280527E+03  0.28144325376E+02  0.42325517940E+03  0.64664682260E+03  0.00000000000E+00 0. -1.
         -2    1    5    5    0  503 -0.48022751218E+02  0.73623118076E+01  0.13516604913E+02  0.50429028129E+02  0.00000000000E+00 0.  1.
         -1    1    6    6    0  502 -0.11928724151E+02 -0.76907646388E+02 -0.25274533383E+02  0.81828372650E+02  0.00000000000E+00 0.  1.
<mgrwt>
<rscale>  0 0.22273960E+04</rscale>
<asrwt>0</asrwt>
<pdfrwt beam="1">  1        1 0.17975420E+00 0.22273960E+04</pdfrwt>
<pdfrwt beam="2">  1       -1 0.16331615E+00 0.22273960E+04</pdfrwt>
<totfact> 0.28288959E+00</totfact>
</mgrwt>
</event>
<event>
12    1  0.1562393E-007  0.2094581E+04  0.7818608E-02  0.8563634E-01
         -2   -1    0    0    0  501 -0.00000000000E+00  0.00000000000E+00  0.32122846305E+03  0.32122846305E+03  0.00000000000E+00 0.  1.
          2   -1    0    0  501    0  0.00000000000E+00 -0.00000000000E+00 -0.34144460737E+04  0.34144460737E+04  0.00000000000E+00 0. -1.
         23    2    1    2    0    0  0.80373120897E+01 -0.23837868859E+03  0.19520156519E+03  0.32070677260E+03  0.88657686533E+02 0.  0.
        254    2    1    2    0    0 -0.80373120897E+01  0.23837868859E+03 -0.32884191759E+04  0.34149677642E+04  0.88961517332E+03 0.  0.
        -24    2    4    4    0    0 -0.16393664013E+03 -0.27217590598E+03 -0.72521432013E+03  0.79554625687E+03  0.77479616175E+02 0.  0.
         24    2    4    4    0    0  0.15589932804E+03  0.51055459458E+03 -0.25632048557E+04  0.26194215073E+04  0.79870557481E+02 0.  0.
         13    1    3    3    0    0 -0.30988882402E+02 -0.50236504436E+02  0.69090680932E+02  0.90871004187E+02  0.00000000000E+00 0. -1.
        -13    1    3    3    0    0  0.39026194491E+02 -0.18814218416E+03  0.12611088426E+03  0.22983576842E+03  0.00000000000E+00 0.  1.
          2    1    6    6  502    0  0.13879656018E+03  0.33431878739E+03 -0.16565948176E+04  0.16956827316E+04  0.00000000000E+00 0. -1.
          3    1    5    5  503    0 -0.10795137623E+03 -0.20780553134E+03 -0.44811916872E+03  0.50561588964E+03  0.00000000000E+00 0. -1.
         -4    1    5    5    0  503 -0.55985263895E+02 -0.64370374648E+02 -0.27709515140E+03  0.28993036722E+03  0.00000000000E+00 0.  1.
         -1    1    6    6    0  502  0.17102767858E+02  0.17623580719E+03 -0.90661003815E+03  0.92373877568E+03  0.00000000000E+00 0.  1.
<mgrwt>
<rscale>  0 0.20945809E+04</rscale>
<asrwt>0</asrwt>
<pdfrwt beam="1">  1        2 0.52529941E+00 0.20945809E+04</pdfrwt>
<pdfrwt beam="2">  1       -2 0.49419762E-01 0.20945809E+04</pdfrwt>
<totfact> 0.33432353E+00</totfact>
</mgrwt>
</event>
<event>
12    1  0.1562393E-007  0.2158740E+04  0.7818608E-02  0.8535800E-01
         -1   -1    0    0    0  501 -0.00000000000E+00  0.00000000000E+00  0.74703332555E+03  0.74703332555E+03  0.00000000000E+00 0.  1.
          1   -1    0    0  501    0  0.00000000000E+00 -0.00000000000E+00 -0.15595555531E+04  0.15595555531E+04  0.00000000000E+00 0. -1.
         23    2    1    2    0    0 -0.51279033848E+03  0.10212350503E+03  0.43110574904E+03  0.68406635146E+03  0.93335228210E+02 0.  0.
        254    2    1    2    0    0  0.51279033848E+03 -0.10212350503E+03 -0.12436279766E+04  0.16225225272E+04  0.90143533633E+03 0.  0.
        -24    2    4    4    0    0 -0.23405663683E+03 -0.11342255599E+03 -0.20505772044E+03  0.34076005484E+03  0.80134641759E+02 0.  0.
         24    2    4    4    0    0  0.74684697531E+03  0.11299050956E+02 -0.10385702562E+04  0.12817624724E+04  0.79867299244E+02 0.  0.
         11    1    3    3    0    0 -0.49769994086E+03  0.11243203737E+03  0.42699322725E+03  0.66533405916E+03  0.00000000000E+00 0.  1.
        -11    1    3    3    0    0 -0.15090397620E+02 -0.10308532342E+02  0.41125217922E+01  0.18732292302E+02  0.00000000000E+00 0. -1.
          2    1    6    6  502    0  0.50901295300E+03  0.40171804357E+02 -0.73743340938E+03  0.89694815539E+03  0.00000000000E+00 0. -1.
          3    1    5    5  503    0 -0.14902191968E+03 -0.80423212349E+02 -0.83555972373E+02  0.18883068117E+03  0.00000000000E+00 0. -1.
         -4    1    5    5    0  503 -0.85034717150E+02 -0.32999343638E+02 -0.12150174807E+03  0.15192937367E+03  0.00000000000E+00 0.  1.
         -3    1    6    6    0  502  0.23783402231E+03 -0.28872753401E+02 -0.30113684679E+03  0.38481431698E+03  0.00000000000E+00 0.  1.
<mgrwt>
<rscale>  0 0.21587403E+04</rscale>
<asrwt>0</asrwt>
<pdfrwt beam="1">  1        1 0.23993163E+00 0.21587403E+04</pdfrwt>
<pdfrwt beam="2">  1       -1 0.11492820E+00 0.21587403E+04</pdfrwt>
<totfact> 0.37422052E+00</totfact>
</mgrwt>
</event>
<event>
12    1  0.1562393E-007  0.1500002E+04  0.7818608E-02  0.8884452E-01
         -1   -1    0    0    0  501 -0.00000000000E+00  0.00000000000E+00  0.16112278178E+04  0.16112278178E+04  0.00000000000E+00 0.  1.
          1   -1    0    0  501    0  0.00000000000E+00 -0.00000000000E+00 -0.34911344654E+03  0.34911344654E+03  0.00000000000E+00 0. -1.
         23    2    1    2    0    0  0.21474266402E+03 -0.69655027339E+02 -0.13657174477E+03  0.28314644124E+03  0.10273184088E+03 0.  0.
        254    2    1    2    0    0 -0.21474266402E+03  0.69655027339E+02  0.13986861160E+04  0.16771948231E+04  0.89760424959E+03 0.  0.
        -24    2    4    4    0    0 -0.72052938378E+02  0.33411794288E+03  0.13456814082E+03  0.37594223577E+03  0.79984713724E+02 0.  0.
         24    2    4    4    0    0 -0.14268972564E+03 -0.26446291554E+03  0.12641179752E+04  0.13012525873E+04  0.70448912454E+02 0.  0.
         13    1    3    3    0    0  0.19198328304E+03 -0.24745066741E+02 -0.12802557202E+03  0.23207853495E+03  0.00000000000E+00 0. -1.
        -13    1    3    3    0    0  0.22759380979E+02 -0.44909960599E+02 -0.85461727569E+01  0.51067906285E+02  0.00000000000E+00 0.  1.
          2    1    6    6  502    0 -0.95775055438E+02 -0.23356937351E+03  0.10412551055E+04  0.10714194829E+04  0.00000000000E+00 0. -1.
          3    1    5    5  503    0 -0.26094263891E+02  0.17078393026E+03  0.10918932902E+03  0.20437801010E+03  0.00000000000E+00 0. -1.
         -4    1    5    5    0  503 -0.45958674487E+02  0.16333401263E+03  0.25378811796E+02  0.17156422567E+03  0.00000000000E+00 0.  1.
         -3    1    6    6    0  502 -0.46914670203E+02 -0.30893542031E+02  0.22286286969E+03  0.22983310446E+03  0.00000000000E+00 0.  1.
<mgrwt>
<rscale>  0 0.15000017E+04</rscale>
<asrwt>0</asrwt>
<pdfrwt beam="1">  1        1 0.53709762E-01 0.15000017E+04</pdfrwt>
<pdfrwt beam="2">  1       -1 0.24788120E+00 0.15000017E+04</pdfrwt>
<totfact> 0.50064290E+00</totfact>
</mgrwt>
</event>
<event>
12    1  0.1562393E-007  0.1768472E+04  0.7818608E-02  0.8723248E-01
         -1   -1    0    0    0  501 -0.00000000000E+00  0.00000000000E+00  0.44472673398E+03  0.44472673398E+03  0.00000000000E+00 0.  1.
          1   -1    0    0  501    0  0.00000000000E+00 -0.00000000000E+00 -0.17580982074E+04  0.17580982074E+04  0.00000000000E+00 0. -1.
         23    2    1    2    0    0 -0.16399558680E+00 -0.12145387086E+03 -0.12894062179E+04  0.12982458269E+04  0.90126370635E+02 0.  0.
        254    2    1    2    0    0  0.16399558680E+00  0.12145387086E+03 -0.23965255544E+02  0.90457911449E+03  0.89606806174E+03 0.  0.
        -24    2    4    4    0    0  0.19497775347E+03  0.45687830057E+03  0.34745979200E+02  0.50424018028E+03  0.79352192507E+02 0.  0.
         24    2    4    4    0    0 -0.19481375788E+03 -0.33542442971E+03 -0.58711234744E+02  0.40033893422E+03  0.79764057423E+02 0.  0.
         11    1    3    3    0    0 -0.17933919177E+02 -0.27096582259E+02 -0.10401476288E+03  0.10897211168E+03  0.00000000000E+00 0.  1.
        -11    1    3    3    0    0  0.17769923590E+02 -0.94357288600E+02 -0.11853914550E+04  0.11892737152E+04  0.00000000000E+00 0. -1.
          2    1    6    6  502    0 -0.24435253056E+02 -0.11290984887E+03 -0.23409356947E+02  0.11787159775E+03  0.00000000000E+00 0. -1.
          3    1    5    5  503    0  0.56162802207E+02  0.22731652092E+03  0.28690394605E+02  0.23590294568E+03  0.00000000000E+00 0. -1.
         -4    1    5    5    0  503  0.13881495126E+03  0.22956177965E+03  0.60555845953E+01  0.26833723460E+03  0.00000000000E+00 0.  1.
         -1    1    6    6    0  502 -0.17037850482E+03 -0.22251458084E+03 -0.35301877797E+02  0.28246733647E+03  0.00000000000E+00 0.  1.
<mgrwt>
<rscale>  0 0.17684720E+04</rscale>
<asrwt>0</asrwt>
<pdfrwt beam="1">  1        1 0.27047665E+00 0.17684720E+04</pdfrwt>
<pdfrwt beam="2">  1       -1 0.68419497E-01 0.17684720E+04</pdfrwt>
<totfact> 0.88996490E+00</totfact>
</mgrwt>
</event>
<event>
12    1  0.1562393E-007  0.3185204E+04  0.7818608E-02  0.8192736E-01
          2   -1    0    0  501    0  0.00000000000E+00  0.00000000000E+00  0.10065883263E+04  0.10065883263E+04  0.00000000000E+00 0. -1.
         -2   -1    0    0    0  501 -0.00000000000E+00 -0.00000000000E+00 -0.25197805276E+04  0.25197805276E+04  0.00000000000E+00 0.  1.
         23    2    1    2    0    0 -0.15320323632E+03  0.13045388595E+04  0.57469238992E+02  0.13185382204E+04  0.99736942859E+02 0.  0.
        254    2    1    2    0    0  0.15320323632E+03 -0.13045388595E+04 -0.15706614403E+04  0.22078306334E+04  0.82598176638E+03 0.  0.
        -24    2    4    4    0    0  0.35028939364E+03 -0.69203088946E+03 -0.41711193923E+03  0.88444509868E+03  0.81555818174E+02 0.  0.
         24    2    4    4    0    0 -0.19708615732E+03 -0.61250797002E+03 -0.11535495010E+04  0.13233855347E+04  0.81632441140E+02 0.  0.
         13    1    3    3    0    0 -0.13329722947E+03  0.85029043769E+03  0.71476351103E+02  0.86363814678E+03  0.00000000000E+00 0. -1.
        -13    1    3    3    0    0 -0.19906006853E+02  0.45424842179E+03 -0.14007112111E+02  0.45490007364E+03  0.00000000000E+00 0.  1.
          2    1    6    6  502    0 -0.19745476007E+03 -0.59132072948E+03 -0.11362214455E+04  0.12960122533E+04  0.00000000000E+00 0. -1.
          1    1    5    5  503    0  0.22111391064E+03 -0.38459450048E+03 -0.27505314464E+03  0.52197559680E+03  0.00000000000E+00 0. -1.
         -2    1    5    5    0  503  0.12917548300E+03 -0.30743638898E+03 -0.14205879459E+03  0.36246950189E+03  0.00000000000E+00 0.  1.
         -1    1    6    6    0  502  0.36860274797E+00 -0.21187240541E+02 -0.17328055532E+02  0.27373281466E+02  0.00000000000E+00 0.  1.
<mgrwt>
<rscale>  0 0.31852043E+04</rscale>
<asrwt>0</asrwt>
<pdfrwt beam="1">  1        2 0.15485974E+00 0.31852043E+04</pdfrwt>
<pdfrwt beam="2">  1       -2 0.38765854E+00 0.31852043E+04</pdfrwt>
<totfact> 0.18770708E-01</totfact>
</mgrwt>
</event>
<event>
12    1  0.1562393E-007  0.1504180E+04  0.7818608E-02  0.8881678E-01
          1   -1    0    0  501    0  0.00000000000E+00  0.00000000000E+00  0.80835118486E+03  0.80835118486E+03  0.00000000000E+00 0. -1.
         -1   -1    0    0    0  501 -0.00000000000E+00 -0.00000000000E+00 -0.69974420701E+03  0.69974420701E+03  0.00000000000E+00 0.  1.
         23    2    1    2    0    0  0.13235650230E+03  0.47115592984E+03  0.13612626939E+03  0.51625592002E+03  0.92106784855E+02 0.  0.
        254    2    1    2    0    0 -0.13235650230E+03 -0.47115592984E+03 -0.27519291535E+02  0.99183947185E+03  0.86225406499E+03 0.  0.
        -24    2    4    4    0    0 -0.40439303851E+03 -0.24819265307E+03 -0.27524178856E+03  0.55432917773E+03  0.79934175921E+02 0.  0.
         24    2    4    4    0    0  0.27203653620E+03 -0.22296327677E+03  0.24772249703E+03  0.43751029412E+03  0.79575889003E+02 0.  0.
         11    1    3    3    0    0  0.10851097115E+03  0.35831073769E+03  0.14288484447E+03  0.40072096824E+03  0.00000000000E+00 0. -1.
        -11    1    3    3    0    0  0.23845531154E+02  0.11284519215E+03 -0.67585750850E+01  0.11553495179E+03  0.00000000000E+00 0.  1.
          2    1    6    6  502    0  0.17695040571E+02 -0.17212912797E+02 -0.36362599550E+01  0.24952378929E+02  0.00000000000E+00 0. -1.
          3    1    5    5  503    0 -0.25540869000E+03 -0.11401882077E+03 -0.14289556212E+03  0.31409080230E+03  0.00000000000E+00 0. -1.
         -4    1    5    5    0  503 -0.14898434851E+03 -0.13417383230E+03 -0.13234622644E+03  0.24023837543E+03  0.00000000000E+00 0.  1.
         -1    1    6    6    0  502  0.25434149563E+03 -0.20575036398E+03  0.25135875698E+03  0.41255791519E+03  0.00000000000E+00 0.  1.
<mgrwt>
<rscale>  0 0.15041796E+04</rscale>
<asrwt>0</asrwt>
<pdfrwt beam="1">  1        1 0.12436172E+00 0.15041796E+04</pdfrwt>
<pdfrwt beam="2">  1       -1 0.10765296E+00 0.15041796E+04</pdfrwt>
<totfact> 0.16889879E+01</totfact>
</mgrwt>
</event>
<event>
12    1  0.1562393E-007  0.1916193E+04  0.7818608E-02  0.8646838E-01
          2   -1    0    0  501    0  0.00000000000E+00  0.00000000000E+00  0.51665457004E+03  0.51665457004E+03  0.00000000000E+00 0. -1.
         -2   -1    0    0    0  501 -0.00000000000E+00 -0.00000000000E+00 -0.17767172615E+04  0.17767172615E+04  0.00000000000E+00 0.  1.
         23    2    1    2    0    0 -0.14543667487E+03 -0.45439052738E+03  0.21506110585E+03  0.53121171687E+03  0.91170341185E+02 0.  0.
        254    2    1    2    0    0  0.14543667487E+03  0.45439052738E+03 -0.14751237973E+04  0.17621601147E+04  0.83761296228E+03 0.  0.
        -24    2    4    4    0    0 -0.12068779713E+03 -0.18194109783E+03 -0.18606566979E+03  0.29799765365E+03  0.80709730809E+02 0.  0.
         24    2    4    4    0    0  0.26612447201E+03  0.63633162522E+03 -0.12890581275E+04  0.14641624610E+04  0.79753898353E+02 0.  0.
         13    1    3    3    0    0 -0.14123554577E+03 -0.45794844927E+03  0.20843965220E+03  0.52260056466E+03  0.00000000000E+00 0. -1.
        -13    1    3    3    0    0 -0.42011291043E+01  0.35579218815E+01  0.66214536528E+01  0.86111522075E+01  0.00000000000E+00 0.  1.
          4    1    6    6  502    0  0.22959748904E+03  0.58192152427E+03 -0.12036350064E+04  0.13564972894E+04  0.00000000000E+00 0. -1.
          1    1    5    5  503    0 -0.12135544485E+03 -0.17069397786E+03 -0.14328962620E+03  0.25376267466E+03  0.00000000000E+00 0. -1.
         -2    1    5    5    0  503  0.66764771724E+00 -0.11247119975E+02 -0.42776043590E+02  0.44234978992E+02  0.00000000000E+00 0.  1.
         -3    1    6    6    0  502  0.36526982963E+02  0.54410100950E+02 -0.85423121085E+02  0.10766517165E+03  0.00000000000E+00 0.  1.
<mgrwt>
<rscale>  0 0.19161932E+04</rscale>
<asrwt>0</asrwt>
<pdfrwt beam="1">  1        2 0.79485318E-01 0.19161932E+04</pdfrwt>
<pdfrwt beam="2">  1       -2 0.27334112E+00 0.19161932E+04</pdfrwt>
<totfact> 0.25645829E+00</totfact>
</mgrwt>
</event>
<event>
12    1  0.1562393E-007  0.1477275E+04  0.7818608E-02  0.8899707E-01
         -2   -1    0    0    0  501 -0.00000000000E+00  0.00000000000E+00  0.39532122194E+03  0.39532122194E+03  0.00000000000E+00 0.  1.
          2   -1    0    0  501    0  0.00000000000E+00 -0.00000000000E+00 -0.13801062956E+04  0.13801062956E+04  0.00000000000E+00 0. -1.
         23    2    1    2    0    0 -0.20619081235E+03 -0.37426828066E+03 -0.23176586400E+03  0.49514982005E+03  0.94162261965E+02 0.  0.
        254    2    1    2    0    0  0.20619081235E+03  0.37426828066E+03 -0.75301920971E+03  0.12802776975E+04  0.94312335121E+03 0.  0.
        -24    2    4    4    0    0  0.18459306221E+03  0.29498075699E+03 -0.97080395920E+03  0.10345953392E+04  0.82697901933E+02 0.  0.
         24    2    4    4    0    0  0.21597750134E+02  0.79287523664E+02  0.21778474949E+03  0.24568235838E+03  0.78591665508E+02 0.  0.
         11    1    3    3    0    0 -0.88659549634E+02 -0.19140714209E+03 -0.16482176967E+03  0.26770025316E+03  0.00000000000E+00 0.  1.
        -11    1    3    3    0    0 -0.11753126271E+03 -0.18286113857E+03 -0.66944094326E+02  0.22744956689E+03  0.00000000000E+00 0. -1.
          2    1    6    6  502    0 -0.26933619189E+02  0.36924352832E+02  0.12171834252E+03  0.13001608585E+03  0.00000000000E+00 0. -1.
          3    1    5    5  503    0  0.19324392702E+03  0.28453025751E+03 -0.93939253629E+03  0.10003794380E+04  0.00000000000E+00 0. -1.
         -4    1    5    5    0  503 -0.86508648055E+01  0.10450499487E+02 -0.31411422914E+02  0.34215901141E+02  0.00000000000E+00 0.  1.
         -1    1    6    6    0  502  0.48531369323E+02  0.42363170832E+02  0.96066406970E+02  0.11566627252E+03  0.00000000000E+00 0.  1.
<mgrwt>
<rscale>  0 0.14772749E+04</rscale>
<asrwt>0</asrwt>
<pdfrwt beam="1">  1        2 0.21232405E+00 0.14772749E+04</pdfrwt>
<pdfrwt beam="2">  1       -2 0.60818648E-01 0.14772749E+04</pdfrwt>
<totfact> 0.36180771E+01</totfact>
</mgrwt>
</event>
<event>
12    1  0.1562393E-007  0.1449961E+04  0.7818608E-02  0.8918427E-01
          2   -1    0    0  501    0  0.00000000000E+00  0.00000000000E+00  0.69535145917E+03  0.69535145917E+03  0.00000000000E+00 0. -1.
         -2   -1    0    0    0  501 -0.00000000000E+00 -0.00000000000E+00 -0.75587233639E+03  0.75587233639E+03  0.00000000000E+00 0.  1.
         23    2    1    2    0    0 -0.38752099286E+03  0.20142322334E+03 -0.91494217653E+02  0.45528594624E+03  0.90389524702E+02 0.  0.
        254    2    1    2    0    0  0.38752099286E+03 -0.20142322334E+03  0.30973340429E+02  0.99593784932E+03  0.89453284852E+03 0.  0.
        -24    2    4    4    0    0  0.32553569683E+02  0.28569380314E+03  0.20701469724E+03  0.36284383590E+03  0.78229663978E+02 0.  0.
         24    2    4    4    0    0  0.35496742317E+03 -0.48711702647E+03 -0.17604135682E+03  0.63309401342E+03  0.80824510662E+02 0.  0.
         13    1    3    3    0    0 -0.94046746162E+02  0.77388259672E+01 -0.18291931725E+02  0.96121145735E+02  0.00000000000E+00 0. -1.
        -13    1    3    3    0    0 -0.29347424669E+03  0.19368439737E+03 -0.73202285928E+02  0.35916480051E+03  0.00000000000E+00 0.  1.
          2    1    6    6  502    0  0.68850603148E+02 -0.76879511387E+02 -0.10524521531E+01  0.10320839346E+03  0.00000000000E+00 0. -1.
          1    1    5    5  503    0 -0.11367333819E+02  0.20535985526E+03  0.13105478048E+03  0.24387956437E+03  0.00000000000E+00 0. -1.
         -2    1    5    5    0  503  0.43920903503E+02  0.80333947874E+02  0.75959916762E+02  0.11896427153E+03  0.00000000000E+00 0.  1.
         -1    1    6    6    0  502  0.28611682003E+03 -0.41023751509E+03 -0.17498890466E+03  0.52988561996E+03  0.00000000000E+00 0.  1.
<mgrwt>
<rscale>  0 0.14499613E+04</rscale>
<asrwt>0</asrwt>
<pdfrwt beam="1">  1        2 0.10697715E+00 0.14499613E+04</pdfrwt>
<pdfrwt beam="2">  1       -2 0.11628805E+00 0.14499613E+04</pdfrwt>
<totfact> 0.22991603E+01</totfact>
</mgrwt>
</event>
<event>
12    1  0.1562393E-007  0.1107001E+04  0.7818608E-02  0.9198395E-01
          2   -1    0    0  501    0  0.00000000000E+00  0.00000000000E+00  0.94222164230E+03  0.94222164230E+03  0.00000000000E+00 0.  1.
         -2   -1    0    0    0  501 -0.00000000000E+00 -0.00000000000E+00 -0.32514953509E+03  0.32514953509E+03  0.00000000000E+00 0. -1.
         23    2    1    2    0    0 -0.16497993959E+03  0.37765539359E+02  0.12641836021E+03  0.22983961018E+03  0.90554006985E+02 0.  0.
        254    2    1    2    0    0  0.16497993959E+03 -0.37765539359E+02  0.49065374700E+03  0.10375315672E+04  0.89837967313E+03 0.  0.
        -24    2    4    4    0    0 -0.31835815564E+02 -0.12286481995E+03  0.70654153628E+03  0.72296862669E+03  0.85868559758E+02 0.  0.
         24    2    4    4    0    0  0.19681575515E+03  0.85099280587E+02 -0.21588778929E+03  0.31456294052E+03  0.79774538249E+02 0.  0.
         11    1    3    3    0    0 -0.89766180264E+02  0.23539328783E+02  0.14024769785E+02  0.93855001392E+02  0.00000000000E+00 0. -1.
        -11    1    3    3    0    0 -0.75213759324E+02  0.14226210576E+02  0.11239359043E+03  0.13598460879E+03  0.00000000000E+00 0.  1.
          2    1    6    6  502    0  0.14666174128E+03  0.51601618247E+02 -0.19781556682E+03  0.25160165309E+03  0.00000000000E+00 0. -1.
          1    1    5    5  503    0  0.18047901418E+02 -0.76465923282E+02  0.48060023655E+03  0.48697982662E+03  0.00000000000E+00 0. -1.
         -2    1    5    5    0  503 -0.49883716981E+02 -0.46398896664E+02  0.22594129974E+03  0.23598880007E+03  0.00000000000E+00 0.  1.
         -1    1    6    6    0  502  0.50154013871E+02  0.33497662340E+02 -0.18072222461E+02  0.62961287426E+02  0.00000000000E+00 0.  1.
<mgrwt>
<rscale>  0 0.11070012E+04</rscale>
<asrwt>0</asrwt>
<pdfrwt beam="1">  1        2 0.14495717E+00 0.11070012E+04</pdfrwt>
<pdfrwt beam="2">  1       -2 0.50023006E-01 0.11070012E+04</pdfrwt>
<totfact> 0.10306821E+02</totfact>
</mgrwt>
</event>
<event>
12    1  0.1562393E-007  0.1520912E+04  0.7818608E-02  0.8870664E-01
          2   -1    0    0  501    0  0.00000000000E+00  0.00000000000E+00  0.12791581444E+04  0.12791581444E+04  0.00000000000E+00 0. -1.
         -2   -1    0    0    0  501 -0.00000000000E+00 -0.00000000000E+00 -0.45208909831E+03  0.45208909831E+03  0.00000000000E+00 0.  1.
         23    2    1    2    0    0 -0.37371947979E+03 -0.23620612349E+02  0.62514624396E+03  0.73484441265E+03  0.94679995550E+02 0.  0.
        254    2    1    2    0    0  0.37371947979E+03  0.23620612349E+02  0.20192280217E+03  0.99640283011E+03  0.90101143107E+03 0.  0.
        -24    2    4    4    0    0 -0.94870583127E+02  0.13857629212E+02 -0.28744036672E+03  0.31347300448E+03  0.80317486835E+02 0.  0.
         24    2    4    4    0    0  0.46859006292E+03  0.97629831364E+01  0.48936316888E+03  0.68292982563E+03  0.85116818366E+02 0.  0.
         13    1    3    3    0    0 -0.73833441057E+02 -0.38180264174E+02  0.10108707259E+03  0.13087286134E+03  0.00000000000E+00 0.  1.
        -13    1    3    3    0    0 -0.29988603873E+03  0.14559651826E+02  0.52405917138E+03  0.60397155131E+03  0.00000000000E+00 0. -1.
          4    1    6    6  502    0  0.42926178010E+03 -0.10764179488E+02  0.42040603263E+03  0.60093491801E+03  0.00000000000E+00 0. -1.
          1    1    5    5  503    0 -0.97094563877E+02  0.33166300700E+02 -0.21133839343E+03  0.23492823239E+03  0.00000000000E+00 0. -1.
         -2    1    5    5    0  503  0.22239807500E+01 -0.19308671488E+02 -0.76101973287E+02  0.78544772094E+02  0.00000000000E+00 0.  1.
         -3    1    6    6    0  502  0.39328282819E+02  0.20527162625E+02  0.68957136253E+02  0.81994907617E+02  0.00000000000E+00 0.  1.
<mgrwt>
<rscale>  0 0.15209122E+04</rscale>
<asrwt>0</asrwt>
<pdfrwt beam="1">  1        2 0.19679356E+00 0.15209122E+04</pdfrwt>
<pdfrwt beam="2">  1       -2 0.69552170E-01 0.15209122E+04</pdfrwt>
<totfact> 0.30921178E+01</totfact>
</mgrwt>
</event>
<event>
12    1  0.1562393E-007  0.1637506E+04  0.7818608E-02  0.8797832E-01
          2   -1    0    0  501    0  0.00000000000E+00  0.00000000000E+00  0.42016618657E+04  0.42016618657E+04  0.00000000000E+00 0. -1.
         -2   -1    0    0    0  501 -0.00000000000E+00 -0.00000000000E+00 -0.15954558807E+03  0.15954558807E+03  0.00000000000E+00 0.  1.
         23    2    1    2    0    0  0.51956499922E+03  0.22940858023E+03  0.15067479438E+04  0.16127531899E+04  0.90041102970E+02 0.  0.
        254    2    1    2    0    0 -0.51956499922E+03 -0.22940858023E+03  0.25353683339E+04  0.27484542639E+04  0.89628799359E+03 0.  0.
        -24    2    4    4    0    0 -0.63514301379E+03 -0.42504857039E+03  0.14991905639E+04  0.16846120374E+04  0.79198703592E+02 0.  0.
         24    2    4    4    0    0  0.11557801457E+03  0.19563999016E+03  0.10361777700E+04  0.10638422265E+04  0.80390476287E+02 0.  0.
         11    1    3    3    0    0  0.11953041828E+03  0.72953930780E+02  0.28179209229E+03  0.31466900100E+03  0.00000000000E+00 0.  1.
        -11    1    3    3    0    0  0.40003458094E+03  0.15645464945E+03  0.12249558515E+04  0.12980841889E+04  0.00000000000E+00 0. -1.
          2    1    6    6  502    0 -0.83360653354E+01  0.44691744577E+02  0.21624011884E+03  0.22096748859E+03  0.00000000000E+00 0. -1.
          1    1    5    5  503    0 -0.26755906396E+03 -0.21911349390E+03  0.72226730767E+03  0.80079250723E+03  0.00000000000E+00 0. -1.
         -2    1    5    5    0  503 -0.36758394984E+03 -0.20593507649E+03  0.77692325620E+03  0.88381953018E+03  0.00000000000E+00 0.  1.
         -1    1    6    6    0  502  0.12391407991E+03  0.15094824558E+03  0.81993765118E+03  0.84287473794E+03  0.00000000000E+00 0.  1.
<mgrwt>
<rscale>  0 0.16375062E+04</rscale>
<asrwt>0</asrwt>
<pdfrwt beam="1">  1        2 0.64640943E+00 0.16375062E+04</pdfrwt>
<pdfrwt beam="2">  1       -2 0.24545478E-01 0.16375062E+04</pdfrwt>
<totfact> 0.33625968E+00</totfact>
</mgrwt>
</event>
<event>
12    1  0.1562393E-007  0.2325740E+04  0.7818608E-02  0.8467841E-01
         -2   -1    0    0    0  501 -0.00000000000E+00  0.00000000000E+00  0.12548917185E+04  0.12548917185E+04  0.00000000000E+00 0.  1.
          2   -1    0    0  501    0  0.00000000000E+00 -0.00000000000E+00 -0.10775962505E+04  0.10775962505E+04  0.00000000000E+00 0. -1.
         23    2    1    2    0    0  0.47333661511E+03 -0.37102863259E+03 -0.70789991442E+03  0.93290979197E+03  0.86536661085E+02 0.  0.
        254    2    1    2    0    0 -0.47333661511E+03  0.37102863259E+03  0.88519538246E+03  0.13995781770E+04  0.90196364170E+03 0.  0.
        -24    2    4    4    0    0  0.16016640634E+03  0.10338720467E+01 -0.70622602463E+02  0.19179067704E+03  0.78369415021E+02 0.  0.
         24    2    4    4    0    0 -0.63350302144E+03  0.36999476055E+03  0.95581798492E+03  0.12077874999E+04  0.83309205434E+02 0.  0.
         13    1    3    3    0    0  0.36764570527E+03 -0.28402255612E+03 -0.48718540937E+03  0.67318778962E+03  0.00000000000E+00 0. -1.
        -13    1    3    3    0    0  0.10569090984E+03 -0.87006076468E+02 -0.22071450505E+03  0.25972200235E+03  0.00000000000E+00 0.  1.
          4    1    6    6  502    0 -0.49433130906E+03  0.31789433814E+03  0.79726618959E+03  0.99048151441E+03  0.00000000000E+00 0. -1.
          1    1    5    5  503    0  0.13483160747E+03  0.31123345942E+02 -0.48307307293E+02  0.14656677991E+03  0.00000000000E+00 0. -1.
         -2    1    5    5    0  503  0.25334798863E+02 -0.30089473895E+02 -0.22315295171E+02  0.45223897126E+02  0.00000000000E+00 0.  1.
         -3    1    6    6    0  502 -0.13917171239E+03  0.52100422407E+02  0.15855179533E+03  0.21730598553E+03  0.00000000000E+00 0.  1.
<mgrwt>
<rscale>  0 0.23257400E+04</rscale>
<asrwt>0</asrwt>
<pdfrwt beam="1">  1        2 0.16578404E+00 0.23257400E+04</pdfrwt>
<pdfrwt beam="2">  1       -2 0.19306026E+00 0.23257400E+04</pdfrwt>
<totfact> 0.30086514E+00</totfact>
</mgrwt>
</event>
<event>
12    1  0.1562393E-007  0.1419459E+04  0.7818608E-02  0.8939852E-01
          2   -1    0    0  501    0  0.00000000000E+00  0.00000000000E+00  0.14335862436E+04  0.14335862436E+04  0.00000000000E+00 0. -1.
         -2   -1    0    0    0  501 -0.00000000000E+00 -0.00000000000E+00 -0.35136765949E+03  0.35136765949E+03  0.00000000000E+00 0.  1.
         23    2    1    2    0    0  0.37712342639E+02 -0.26302766521E+03  0.73369655730E+03  0.78559213793E+03  0.90766709363E+02 0.  0.
        254    2    1    2    0    0 -0.37712342639E+02  0.26302766521E+03  0.34852202680E+03  0.99936176517E+03  0.89813727295E+03 0.  0.
        -24    2    4    4    0    0  0.93690160244E+02  0.50573323099E+03  0.45690407215E+03  0.69278088149E+03  0.81486634263E+02 0.  0.
         24    2    4    4    0    0 -0.13140250288E+03 -0.24270556578E+03 -0.10838204535E+03  0.30658088367E+03  0.77926638925E+02 0.  0.
         11    1    3    3    0    0  0.49866611434E+02 -0.22229072537E+03  0.52009962322E+03  0.56780583265E+03  0.00000000000E+00 0. -1.
        -11    1    3    3    0    0 -0.12154268795E+02 -0.40736939843E+02  0.21359693408E+03  0.21778630528E+03  0.00000000000E+00 0.  1.
          4    1    6    6  502    0 -0.95453299986E+01 -0.39720431438E+02  0.97400594687E+01  0.41996365996E+02  0.00000000000E+00 0. -1.
          1    1    5    5  503    0  0.38684441572E+02  0.59960724737E+02  0.70077991030E+02  0.10001349588E+03  0.00000000000E+00 0. -1.
         -2    1    5    5    0  503  0.55005718672E+02  0.44577250625E+03  0.38682608112E+03  0.59276738562E+03  0.00000000000E+00 0.  1.
         -1    1    6    6    0  502 -0.12185717288E+03 -0.20298513434E+03 -0.11812210481E+03  0.26458451768E+03  0.00000000000E+00 0.  1.
<mgrwt>
<rscale>  0 0.14194588E+04</rscale>
<asrwt>0</asrwt>
<pdfrwt beam="1">  1        2 0.22055173E+00 0.14194588E+04</pdfrwt>
<pdfrwt beam="2">  1       -2 0.54056564E-01 0.14194588E+04</pdfrwt>
<totfact> 0.43359479E+01</totfact>
</mgrwt>
</event>
<event>
12    1  0.1562393E-007  0.3162734E+04  0.7818608E-02  0.8198729E-01
         -2   -1    0    0    0  501 -0.00000000000E+00  0.00000000000E+00  0.98622768001E+03  0.98622768001E+03  0.00000000000E+00 0.  1.
          2   -1    0    0  501    0  0.00000000000E+00 -0.00000000000E+00 -0.25356428706E+04  0.25356428706E+04  0.00000000000E+00 0. -1.
         23    2    1    2    0    0 -0.94344315316E+03  0.94637729159E+03 -0.13434970972E+04  0.18970742426E+04  0.90505636590E+02 0.  0.
        254    2    1    2    0    0  0.94344315316E+03 -0.94637729159E+03 -0.20591809335E+03  0.16247963080E+04  0.90102487211E+03 0.  0.
        -24    2    4    4    0    0  0.67643696185E+03 -0.97673125934E+03  0.11745679378E+03  0.11967312391E+04  0.82453889154E+02 0.  0.
         24    2    4    4    0    0  0.26700619131E+03  0.30353967752E+02 -0.32337488713E+03  0.42806506896E+03  0.80341247716E+02 0.  0.
         13    1    3    3    0    0 -0.55396330459E+03  0.59277182581E+03 -0.86507476998E+03  0.11860051172E+04  0.00000000000E+00 0. -1.
        -13    1    3    3    0    0 -0.38947984857E+03  0.35360546578E+03 -0.47842232723E+03  0.71106912537E+03  0.00000000000E+00 0.  1.
          2    1    6    6  502    0  0.82487296223E+02  0.16708773031E+02 -0.16198732972E+03  0.18254652044E+03  0.00000000000E+00 0. -1.
          1    1    5    5  503    0  0.26862462953E+03 -0.32266158927E+03  0.28217555972E+02  0.42079201899E+03  0.00000000000E+00 0. -1.
         -2    1    5    5    0  503  0.40781233233E+03 -0.65406967007E+03  0.89239237805E+02  0.77593922009E+03  0.00000000000E+00 0.  1.
         -1    1    6    6    0  502  0.18451889509E+03  0.13645194721E+02 -0.16138755741E+03  0.24551854852E+03  0.00000000000E+00 0.  1.
<mgrwt>
<rscale>  0 0.31627337E+04</rscale>
<asrwt>0</asrwt>
<pdfrwt beam="1">  1        2 0.39009890E+00 0.31627337E+04</pdfrwt>
<pdfrwt beam="2">  1       -2 0.15172734E+00 0.31627337E+04</pdfrwt>
<totfact> 0.81455639E-01</totfact>
</mgrwt>
</event>
<event>
12    1  0.1562393E-007  0.2459732E+04  0.7818608E-02  0.8417473E-01
          2   -1    0    0  501    0  0.00000000000E+00  0.00000000000E+00  0.87969407848E+03  0.87969407848E+03  0.00000000000E+00 0. -1.
         -2   -1    0    0    0  501 -0.00000000000E+00 -0.00000000000E+00 -0.17194283006E+04  0.17194283006E+04  0.00000000000E+00 0.  1.
         23    2    1    2    0    0 -0.38171741604E+03 -0.66857564964E+03 -0.11123951535E+04  0.13569497740E+04  0.10577394128E+03 0.  0.
        254    2    1    2    0    0  0.38171741604E+03  0.66857564964E+03  0.27266093135E+03  0.12421726051E+04  0.93592051604E+03 0.  0.
        -24    2    4    4    0    0 -0.13936778927E+03  0.55572343107E+03  0.38076403606E+03  0.69222730232E+03  0.77106902384E+02 0.  0.
         24    2    4    4    0    0  0.52108520531E+03  0.11285221857E+03 -0.10810310471E+03  0.54994530277E+03  0.80548993538E+02 0.  0.
         11    1    3    3    0    0 -0.18550804670E+03 -0.31856425374E+03 -0.62517483763E+03  0.72576855592E+03  0.00000000000E+00 0. -1.
        -11    1    3    3    0    0 -0.19620936934E+03 -0.35001139589E+03 -0.48722031587E+03  0.63118121809E+03  0.00000000000E+00 0.  1.
          4    1    6    6  502    0  0.38346547563E+03  0.10391879779E+03 -0.50516871128E+02  0.40049574505E+03  0.00000000000E+00 0. -1.
          1    1    5    5  503    0 -0.12210846612E+03  0.33521244678E+03  0.24274499829E+03  0.43151245193E+03  0.00000000000E+00 0. -1.
         -2    1    5    5    0  503 -0.17259323148E+02  0.22051098429E+03  0.13801903777E+03  0.26071485039E+03  0.00000000000E+00 0.  1.
         -3    1    6    6    0  502  0.13761972968E+03  0.89334207710E+01 -0.57586233577E+02  0.14944955772E+03  0.00000000000E+00 0.  1.
<mgrwt>
<rscale>  0 0.24597324E+04</rscale>
<asrwt>0</asrwt>
<pdfrwt beam="1">  1        2 0.13533755E+00 0.24597324E+04</pdfrwt>
<pdfrwt beam="2">  1       -2 0.26452743E+00 0.24597324E+04</pdfrwt>
<totfact> 0.14178750E+00</totfact>
</mgrwt>
</event>
<event>
12    1  0.1562393E-007  0.1975424E+04  0.7818608E-02  0.8618198E-01
         -1   -1    0    0    0  501 -0.00000000000E+00  0.00000000000E+00  0.59116815905E+03  0.59116815905E+03  0.00000000000E+00 0.  1.
          1   -1    0    0  501    0  0.00000000000E+00 -0.00000000000E+00 -0.16502501007E+04  0.16502501007E+04  0.00000000000E+00 0. -1.
         23    2    1    2    0    0 -0.23547358362E+03 -0.46772614180E+03 -0.10546636604E+04  0.11813357402E+04  0.94990222082E+02 0.  0.
        254    2    1    2    0    0  0.23547358362E+03  0.46772614180E+03 -0.44182812521E+01  0.10600825195E+04  0.92170487396E+03 0.  0.
        -24    2    4    4    0    0  0.45397019027E+03  0.28056293738E+03  0.31361177267E+03  0.62390293564E+03  0.78089907557E+02 0.  0.
         24    2    4    4    0    0 -0.21849660665E+03  0.18716320442E+03 -0.31803005392E+03  0.43617958388E+03  0.79615840030E+02 0.  0.
         13    1    3    3    0    0 -0.22617721590E+01 -0.57391326624E+02 -0.15660738698E+03  0.16680753473E+03  0.00000000000E+00 0.  1.
        -13    1    3    3    0    0 -0.23321181146E+03 -0.41033481518E+03 -0.89805627343E+03  0.10145282055E+04  0.00000000000E+00 0. -1.
          2    1    6    6  502    0 -0.10445030667E+03  0.12034931860E+03 -0.12645870149E+03  0.20343457974E+03  0.00000000000E+00 0. -1.
          3    1    5    5  503    0  0.13941068275E+03  0.46547869643E+02  0.76056040711E+02  0.16548886356E+03  0.00000000000E+00 0. -1.
         -4    1    5    5    0  503  0.31455950752E+03  0.23401506773E+03  0.23755573196E+03  0.45841407208E+03  0.00000000000E+00 0.  1.
         -1    1    6    6    0  502 -0.11404629998E+03  0.66813885825E+02 -0.19157135243E+03  0.23274500414E+03  0.00000000000E+00 0.  1.
<mgrwt>
<rscale>  0 0.19754243E+04</rscale>
<asrwt>0</asrwt>
<pdfrwt beam="1">  1        1 0.25388463E+00 0.19754243E+04</pdfrwt>
<pdfrwt beam="2">  1       -1 0.90948948E-01 0.19754243E+04</pdfrwt>
<totfact> 0.56544901E+00</totfact>
</mgrwt>
</event>
<event>
12    1  0.1562393E-007  0.1626416E+04  0.7818608E-02  0.8804482E-01
          1   -1    0    0  501    0  0.00000000000E+00  0.00000000000E+00  0.74122284088E+03  0.74122284088E+03  0.00000000000E+00 0. -1.
         -1   -1    0    0    0  501 -0.00000000000E+00 -0.00000000000E+00 -0.89218464967E+03  0.89218464967E+03  0.00000000000E+00 0.  1.
         23    2    1    2    0    0  0.36119987645E+03 -0.26099073584E+03  0.30442359836E+03  0.54720410881E+03  0.90427288611E+02 0.  0.
        254    2    1    2    0    0 -0.36119987645E+03  0.26099073584E+03 -0.45538540715E+03  0.10862033817E+04  0.87970472463E+03 0.  0.
        -24    2    4    4    0    0  0.12723120420E+03  0.36926457939E+03  0.11006840584E+02  0.39721193025E+03  0.71498657865E+02 0.  0.
         24    2    4    4    0    0 -0.48843108065E+03 -0.10827384355E+03 -0.46639224773E+03  0.68899145150E+03  0.83062300430E+02 0.  0.
         13    1    3    3    0    0  0.30750605978E+02 -0.26681185444E+01  0.43128452732E+02  0.53035667806E+02  0.00000000000E+00 0.  1.
        -13    1    3    3    0    0  0.33044927047E+03 -0.25832261729E+03  0.26129514563E+03  0.49416844101E+03  0.00000000000E+00 0. -1.
          2    1    6    6  502    0 -0.88526683847E+02 -0.49716847981E+02 -0.73642745806E+02  0.12542724081E+03  0.00000000000E+00 0. -1.
          3    1    5    5  503    0  0.13088082124E+03  0.36351547700E+03  0.25671272703E+01  0.38636754720E+03  0.00000000000E+00 0. -1.
         -2    1    5    5    0  503 -0.36496170385E+01  0.57491023855E+01  0.84397133136E+01  0.10844383043E+02  0.00000000000E+00 0.  1.
         -1    1    6    6    0  502 -0.39990439680E+03 -0.58556995569E+02 -0.39274950193E+03  0.56356421069E+03  0.00000000000E+00 0.  1.
<mgrwt>
<rscale>  0 0.16264165E+04</rscale>
<asrwt>0</asrwt>
<pdfrwt beam="1">  1        1 0.11403428E+00 0.16264165E+04</pdfrwt>
<pdfrwt beam="2">  1       -1 0.13725918E+00 0.16264165E+04</pdfrwt>
<totfact> 0.10543201E+01</totfact>
</mgrwt>
</event>
<event>
12    1  0.1562393E-007  0.1857612E+04  0.7818608E-02  0.8676248E-01
         -1   -1    0    0    0  501 -0.00000000000E+00  0.00000000000E+00  0.11363984231E+04  0.11363984231E+04  0.00000000000E+00 0.  1.
          1   -1    0    0  501    0  0.00000000000E+00 -0.00000000000E+00 -0.75913602300E+03  0.75913602300E+03  0.00000000000E+00 0. -1.
         23    2    1    2    0    0 -0.69706701352E+03 -0.87180848864E+02  0.23215298057E+03  0.74548123522E+03  0.91347380578E+02 0.  0.
        254    2    1    2    0    0  0.69706701352E+03  0.87180848864E+02  0.14510941951E+03  0.11500532108E+04  0.89892309038E+03 0.  0.
        -24    2    4    4    0    0  0.45687618755E+02  0.30584986321E+02  0.42389814627E+03  0.43492579364E+03  0.80299487322E+02 0.  0.
         24    2    4    4    0    0  0.65137939476E+03  0.56595862542E+02 -0.27878872676E+03  0.71512741721E+03  0.78650245367E+02 0.  0.
         11    1    3    3    0    0 -0.24390849394E+03 -0.36464491829E+01  0.11686258325E+03  0.27048385049E+03  0.00000000000E+00 0. -1.
        -11    1    3    3    0    0 -0.45315851957E+03 -0.83534399681E+02  0.11529039732E+03  0.47499738473E+03  0.00000000000E+00 0.  1.
          2    1    6    6  502    0  0.44869108152E+03  0.14925182993E+02 -0.22038395305E+03  0.50011552114E+03  0.00000000000E+00 0. -1.
          1    1    5    5  503    0  0.44400595663E+02  0.14217083212E+01  0.37752463703E+03  0.38012930131E+03  0.00000000000E+00 0. -1.
         -2    1    5    5    0  503  0.12870230926E+01  0.29163278000E+02  0.46373509240E+02  0.54796492328E+02  0.00000000000E+00 0.  1.
         -1    1    6    6    0  502  0.20268831324E+03  0.41670679550E+02 -0.58404773716E+02  0.21501189607E+03  0.00000000000E+00 0.  1.
<mgrwt>
<rscale>  0 0.18576124E+04</rscale>
<asrwt>0</asrwt>
<pdfrwt beam="1">  1        1 0.11679016E+00 0.18576124E+04</pdfrwt>
<pdfrwt beam="2">  1       -1 0.17483053E+00 0.18576124E+04</pdfrwt>
<totfact> 0.51183721E+00</totfact>
</mgrwt>
</event>
<event>
12    1  0.1942160E-007  0.2467583E+04  0.7818608E-02  0.8414626E-01
         -2   -1    0    0    0  501 -0.00000000000E+00  0.00000000000E+00  0.94484580351E+03  0.94484580351E+03  0.00000000000E+00 0.  1.
          2   -1    0    0  501    0  0.00000000000E+00 -0.00000000000E+00 -0.16111010248E+04  0.16111010248E+04  0.00000000000E+00 0. -1.
         23    2    1    2    0    0  0.32864758044E+03 -0.77941862073E+03 -0.91898595778E+03  0.12524401173E+04  0.92565859589E+02 0.  0.
        254    2    1    2    0    0 -0.32864758044E+03  0.77941862073E+03  0.25273073648E+03  0.13035067110E+04  0.95903821719E+03 0.  0.
        -24    2    4    4    0    0  0.33192271062E+03  0.24483961040E+03  0.13886482584E+03  0.44239882121E+03  0.79461666903E+02 0.  0.
         24    2    4    4    0    0 -0.66057029106E+03  0.53457901033E+03  0.11386591064E+03  0.86110788981E+03  0.80084483883E+02 0.  0.
         13    1    3    3    0    0  0.32620958396E+03 -0.70936343789E+03 -0.84701333807E+03  0.11519725581E+04  0.00000000000E+00 0. -1.
        -13    1    3    3    0    0  0.24379964791E+01 -0.70055182847E+02 -0.71972619711E+02  0.10046755924E+03  0.00000000000E+00 0.  1.
          4    1    6    6  502    0 -0.49169019849E+03  0.35269490912E+03  0.71410766499E+02  0.60930488902E+03  0.00000000000E+00 0. -1.
          1    1    5    5  503    0  0.22597355918E+03  0.21005257209E+03  0.10275613318E+03  0.32518449440E+03  0.00000000000E+00 0. -1.
         -2    1    5    5    0  503  0.10594915143E+03  0.34787038312E+02  0.36108692660E+02  0.11721432681E+03  0.00000000000E+00 0.  1.
         -3    1    6    6    0  502 -0.16888009257E+03  0.18188410122E+03  0.42455144139E+02  0.25180300079E+03  0.00000000000E+00 0.  1.
<mgrwt>
<rscale>  0 0.24675835E+04</rscale>
<asrwt>0</asrwt>
<pdfrwt beam="1">  1        2 0.24786170E+00 0.24675835E+04</pdfrwt>
<pdfrwt beam="2">  1       -2 0.14536089E+00 0.24675835E+04</pdfrwt>
<totfact> 0.32009567E+00</totfact>
</mgrwt>
</event>
<event>
12    1  0.1562393E-007  0.1536885E+04  0.7818608E-02  0.8860289E-01
          2   -1    0    0  501    0  0.00000000000E+00  0.00000000000E+00  0.45305859406E+03  0.45305859406E+03  0.00000000000E+00 0. -1.
         -2   -1    0    0    0  501 -0.00000000000E+00 -0.00000000000E+00 -0.13033716763E+04  0.13033716763E+04  0.00000000000E+00 0.  1.
         23    2    1    2    0    0  0.42636505004E+03  0.12272836966E+02  0.17528344140E+02  0.43479420852E+03  0.82468069551E+02 0.  0.
        254    2    1    2    0    0 -0.42636505004E+03 -0.12272836966E+02 -0.86784142634E+03  0.13216360618E+04  0.90090807530E+03 0.  0.
        -24    2    4    4    0    0  0.51948667292E+02  0.13265538190E+03 -0.79303019351E+03  0.80939784900E+03  0.77018671564E+02 0.  0.
         24    2    4    4    0    0 -0.47831371733E+03 -0.14492821887E+03 -0.74811232827E+02  0.51223821279E+03  0.83684319156E+02 0.  0.
         11    1    3    3    0    0  0.21629169311E+03  0.40702367762E+01  0.50092057860E+02  0.22205377186E+03  0.00000000000E+00 0. -1.
        -11    1    3    3    0    0  0.21007335693E+03  0.82026001899E+01 -0.32563713720E+02  0.21274043667E+03  0.00000000000E+00 0.  1.
          2    1    6    6  502    0 -0.30922537791E+03 -0.58718298122E+02 -0.23498675961E+02  0.31562693271E+03  0.00000000000E+00 0. -1.
          1    1    5    5  503    0  0.16687322043E+02  0.67289744985E+02 -0.57282714113E+03  0.57700720110E+03  0.00000000000E+00 0. -1.
         -2    1    5    5    0  503  0.35261345249E+02  0.65365636917E+02 -0.22020305237E+03  0.23239064790E+03  0.00000000000E+00 0.  1.
         -1    1    6    6    0  502 -0.16908833942E+03 -0.86209920745E+02 -0.51312556866E+02  0.19661128008E+03  0.00000000000E+00 0.  1.
<mgrwt>
<rscale>  0 0.15368848E+04</rscale>
<asrwt>0</asrwt>
<pdfrwt beam="1">  1        2 0.69701322E-01 0.15368848E+04</pdfrwt>
<pdfrwt beam="2">  1       -2 0.20051872E+00 0.15368848E+04</pdfrwt>
<totfact> 0.87656398E+00</totfact>
</mgrwt>
</event>
<event>
12    1  0.1562393E-007  0.1991855E+04  0.7818608E-02  0.8610438E-01
          2   -1    0    0  501    0  0.00000000000E+00  0.00000000000E+00  0.21065443102E+04  0.21065443102E+04  0.00000000000E+00 0. -1.
         -2   -1    0    0    0  501 -0.00000000000E+00 -0.00000000000E+00 -0.47085232721E+03  0.47085232721E+03  0.00000000000E+00 0.  1.
         23    2    1    2    0    0  0.43344696779E+03 -0.11488447527E+02  0.15050979691E+04  0.15689723926E+04  0.91357615382E+02 0.  0.
        254    2    1    2    0    0 -0.43344696779E+03  0.11488447527E+02  0.13059401392E+03  0.10084242448E+04  0.90103074462E+03 0.  0.
        -24    2    4    4    0    0 -0.53755301152E+03 -0.22577216374E+03 -0.16159871333E+03  0.60994982869E+03  0.77384360519E+02 0.  0.
         24    2    4    4    0    0  0.10410604373E+03  0.23726061127E+03  0.29219272725E+03  0.39847441613E+03  0.79212400840E+02 0.  0.
         11    1    3    3    0    0  0.41317856631E+02 -0.42738278479E+01  0.71452484841E+02  0.82649189174E+02  0.00000000000E+00 0.  1.
        -11    1    3    3    0    0  0.39212911116E+03 -0.72146196788E+01  0.14336454842E+04  0.14863232034E+04  0.00000000000E+00 0. -1.
          4    1    6    6  502    0  0.72755434027E+02  0.70715728697E+02  0.10831805224E+03  0.14841451380E+03  0.00000000000E+00 0. -1.
          3    1    5    5  503    0 -0.23723851298E+03 -0.63501161508E+02 -0.86980280597E+02  0.26053805627E+03  0.00000000000E+00 0. -1.
         -4    1    5    5    0  503 -0.30031449854E+03 -0.16227100224E+03 -0.74618432736E+02  0.34941177242E+03  0.00000000000E+00 0.  1.
         -3    1    6    6    0  502  0.31350609698E+02  0.16654488257E+03  0.18387467501E+03  0.25005990232E+03  0.00000000000E+00 0.  1.
<mgrwt>
<rscale>  0 0.19918547E+04</rscale>
<asrwt>0</asrwt>
<pdfrwt beam="1">  1        2 0.32408373E+00 0.19918547E+04</pdfrwt>
<pdfrwt beam="2">  1       -2 0.72438821E-01 0.19918547E+04</pdfrwt>
<totfact> 0.93398997E+00</totfact>
</mgrwt>
</event>
<event>
12    1  0.1562393E-007  0.1402623E+04  0.7818608E-02  0.8951922E-01
         -3   -1    0    0    0  501 -0.00000000000E+00  0.00000000000E+00  0.27595605800E+04  0.27595605800E+04  0.00000000000E+00 0.  1.
          3   -1    0    0  501    0  0.00000000000E+00 -0.00000000000E+00 -0.17823057969E+03  0.17823057969E+03  0.00000000000E+00 0. -1.
         23    2    1    2    0    0 -0.23493425018E+02 -0.12272393176E+01 -0.83244462363E+02  0.12497245881E+03  0.90194389027E+02 0.  0.
        254    2    1    2    0    0  0.23493425018E+02  0.12272393176E+01  0.26645744627E+04  0.28128187009E+04  0.90079882870E+03 0.  0.
        -24    2    4    4    0    0 -0.48926759807E+02  0.41268260996E+03  0.17972335293E+04  0.18467811599E+04  0.88608854829E+02 0.  0.
         24    2    4    4    0    0  0.72420184825E+02 -0.41145537064E+03  0.86734093340E+03  0.96603754106E+03  0.80050176704E+02 0.  0.
         13    1    3    3    0    0 -0.50003221129E+02  0.20378683078E+02 -0.30225446905E+02  0.61880453197E+02  0.00000000000E+00 0. -1.
        -13    1    3    3    0    0  0.26509796111E+02 -0.21605922395E+02 -0.53019015458E+02  0.63092005615E+02  0.00000000000E+00 0.  1.
          2    1    6    6  502    0  0.30969412443E+02 -0.32637831947E+03  0.71687724269E+03  0.78828604771E+03  0.00000000000E+00 0. -1.
          3    1    5    5  503    0 -0.17488222810E+02  0.34028621862E+03  0.13314613161E+04  0.13743688678E+04  0.00000000000E+00 0. -1.
         -4    1    5    5    0  503 -0.31438536997E+02  0.72396391334E+02  0.46577221320E+03  0.47241229204E+03  0.00000000000E+00 0.  1.
         -1    1    6    6    0  502  0.41450772382E+02 -0.85077051165E+02  0.15046369071E+03  0.17775149335E+03  0.00000000000E+00 0.  1.
<mgrwt>
<rscale>  0 0.14026234E+04</rscale>
<asrwt>0</asrwt>
<pdfrwt beam="1">  1        3 0.27420091E-01 0.14026234E+04</pdfrwt>
<pdfrwt beam="2">  1       -3 0.42454775E+00 0.14026234E+04</pdfrwt>
<totfact> 0.25777858E-01</totfact>
</mgrwt>
</event>
<event>
12    1  0.1562393E-007  0.2823961E+04  0.7818608E-02  0.8295868E-01
          1   -1    0    0  501    0  0.00000000000E+00  0.00000000000E+00  0.24070426376E+04  0.24070426376E+04  0.00000000000E+00 0. -1.
         -1   -1    0    0    0  501 -0.00000000000E+00 -0.00000000000E+00 -0.82827341331E+03  0.82827341331E+03  0.00000000000E+00 0.  1.
         23    2    1    2    0    0  0.87326267971E+03 -0.87406077526E+03  0.39909901183E+03  0.13015003883E+04  0.89740140300E+02 0.  0.
        254    2    1    2    0    0 -0.87326267971E+03  0.87406077526E+03  0.11796702124E+04  0.19338156626E+04  0.90633948401E+03 0.  0.
        -24    2    4    4    0    0 -0.98801785770E+03  0.89615364933E+03  0.87378349409E+03  0.15965998181E+04  0.79766750090E+02 0.  0.
         24    2    4    4    0    0  0.11475517800E+03 -0.22092874071E+02  0.30588671834E+03  0.33721584447E+03  0.80566713619E+02 0.  0.
         13    1    3    3    0    0  0.85029394564E+03 -0.86168145039E+03  0.37884903343E+03  0.12684720360E+04  0.00000000000E+00 0.  1.
        -13    1    3    3    0    0  0.22968734070E+02 -0.12379324863E+02  0.20249978399E+02  0.33028352275E+02  0.00000000000E+00 0. -1.
          2    1    6    6  502    0  0.72501674260E+02 -0.23185268995E+02  0.93026921800E+02  0.12020007341E+03  0.00000000000E+00 0. -1.
          3    1    5    5  503    0 -0.23652707254E+03  0.21788282458E+03  0.25214448775E+03  0.40865000183E+03  0.00000000000E+00 0. -1.
         -4    1    5    5    0  503 -0.75149078516E+03  0.67827082475E+03  0.62163900633E+03  0.11879498163E+04  0.00000000000E+00 0.  1.
         -1    1    6    6    0  502  0.42253503736E+02  0.10923949237E+01  0.21285979654E+03  0.21701577106E+03  0.00000000000E+00 0.  1.
<mgrwt>
<rscale>  0 0.28239613E+04</rscale>
<asrwt>0</asrwt>
<pdfrwt beam="1">  1        1 0.37031425E+00 0.28239613E+04</pdfrwt>
<pdfrwt beam="2">  1       -1 0.12742668E+00 0.28239613E+04</pdfrwt>
<totfact> 0.72364552E-01</totfact>
</mgrwt>
</event>
<event>
12    1  0.1562393E-007  0.3318977E+04  0.7818608E-02  0.8158083E-01
         -2   -1    0    0    0  501 -0.00000000000E+00  0.00000000000E+00  0.85989176359E+03  0.85989176359E+03  0.00000000000E+00 0.  1.
          2   -1    0    0  501    0  0.00000000000E+00 -0.00000000000E+00 -0.32026149029E+04  0.32026149029E+04  0.00000000000E+00 0. -1.
         23    2    1    2    0    0  0.12881685371E+03 -0.14267563080E+04 -0.38209475182E+03  0.14855991272E+04  0.93707112873E+02 0.  0.
        254    2    1    2    0    0 -0.12881685371E+03  0.14267563080E+04 -0.19606283875E+04  0.25769075393E+04  0.86264792834E+03 0.  0.
        -24    2    4    4    0    0  0.18630786597E+03  0.12766833688E+04 -0.16920909485E+04  0.21293561477E+04  0.79716877742E+02 0.  0.
         24    2    4    4    0    0 -0.31512471968E+03  0.15007293918E+03 -0.26853743905E+03  0.44755139169E+03  0.79777290037E+02 0.  0.
         13    1    3    3    0    0 -0.62598019501E+01 -0.30462827450E+02  0.19714569230E+01  0.31161765340E+02  0.00000000000E+00 0. -1.
        -13    1    3    3    0    0  0.13507665566E+03 -0.13962934806E+04 -0.38406620875E+03  0.14544373618E+04  0.00000000000E+00 0.  1.
          2    1    6    6  502    0 -0.61419279319E+02  0.27496844555E+01 -0.70739840969E+02  0.93723069396E+02  0.00000000000E+00 0. -1.
          3    1    5    5  503    0  0.48679755093E+02  0.33619729872E+03 -0.50490208831E+03  0.60854289989E+03  0.00000000000E+00 0. -1.
         -4    1    5    5    0  503  0.13762811088E+03  0.94048607010E+03 -0.11871888601E+04  0.15208132478E+04  0.00000000000E+00 0.  1.
         -1    1    6    6    0  502 -0.25370544036E+03  0.14732325473E+03 -0.19779759808E+03  0.35382832229E+03  0.00000000000E+00 0.  1.
<mgrwt>
<rscale>  0 0.33189771E+04</rscale>
<asrwt>0</asrwt>
<pdfrwt beam="1">  1        2 0.49271000E+00 0.33189771E+04</pdfrwt>
<pdfrwt beam="2">  1       -2 0.13229104E+00 0.33189771E+04</pdfrwt>
<totfact> 0.44705397E-01</totfact>
</mgrwt>
</event>
<event>
12    1  0.1562393E-007  0.1594833E+04  0.7818608E-02  0.8823729E-01
         -2   -1    0    0    0  501 -0.00000000000E+00  0.00000000000E+00  0.26861129459E+03  0.26861129459E+03  0.00000000000E+00 0.  1.
          2   -1    0    0  501    0  0.00000000000E+00 -0.00000000000E+00 -0.23672599625E+04  0.23672599625E+04  0.00000000000E+00 0. -1.
         23    2    1    2    0    0 -0.17286426349E+03  0.77762164921E+02 -0.15380110608E+04  0.15522614842E+04  0.90048233802E+02 0.  0.
        254    2    1    2    0    0  0.17286426349E+03 -0.77762164921E+02 -0.56063760717E+03  0.10836097729E+04  0.90772606303E+03 0.  0.
        -24    2    4    4    0    0  0.33751047624E+03 -0.38320508124E+03 -0.14656086929E+03  0.53787064312E+03  0.84055246468E+02 0.  0.
         24    2    4    4    0    0 -0.16464621275E+03  0.30544291632E+03 -0.41407673789E+03  0.54573912980E+03  0.77252200168E+02 0.  0.
         11    1    3    3    0    0 -0.10108243197E+03  0.88589594572E+02 -0.87065686735E+03  0.88097057555E+03  0.00000000000E+00 0.  1.
        -11    1    3    3    0    0 -0.71781831515E+02 -0.10827429650E+02 -0.66735419343E+03  0.67129090867E+03  0.00000000000E+00 0. -1.
          2    1    6    6  502    0 -0.94666182260E+02  0.10272601528E+03 -0.18678645628E+03  0.23324557987E+03  0.00000000000E+00 0. -1.
          1    1    5    5  503    0  0.15202008548E+01 -0.25498802522E+02  0.51065216374E+00  0.25549182107E+02  0.00000000000E+00 0. -1.
         -2    1    5    5    0  503  0.33599027538E+03 -0.35770627872E+03 -0.14707152145E+03  0.51232146101E+03  0.00000000000E+00 0.  1.
         -1    1    6    6    0  502 -0.69980030490E+02  0.20271690104E+03 -0.22729028161E+03  0.31249354993E+03  0.00000000000E+00 0.  1.
<mgrwt>
<rscale>  0 0.15948326E+04</rscale>
<asrwt>0</asrwt>
<pdfrwt beam="1">  1        2 0.36419381E+00 0.15948326E+04</pdfrwt>
<pdfrwt beam="2">  1       -2 0.41324818E-01 0.15948326E+04</pdfrwt>
<totfact> 0.22121326E+01</totfact>
</mgrwt>
</event>
<event>
12    1  0.1562393E-007  0.3538409E+04  0.7818608E-02  0.8104747E-01
          1   -1    0    0  501    0  0.00000000000E+00  0.00000000000E+00  0.17816251026E+04  0.17816251026E+04  0.00000000000E+00 0. -1.
         -1   -1    0    0    0  501 -0.00000000000E+00 -0.00000000000E+00 -0.17568707295E+04  0.17568707295E+04  0.00000000000E+00 0.  1.
         23    2    1    2    0    0 -0.54471269496E+03  0.13839340869E+04 -0.70860303572E+03  0.16498330289E+04  0.88573607391E+02 0.  0.
        254    2    1    2    0    0  0.54471269496E+03 -0.13839340869E+04  0.73335740881E+03  0.18886628033E+04  0.90401804091E+03 0.  0.
        -24    2    4    4    0    0 -0.11412141864E+03 -0.47055581999E+03 -0.80655383883E+02  0.49674856102E+03  0.76206062756E+02 0.  0.
         24    2    4    4    0    0  0.65883411360E+03 -0.91337826694E+03  0.81401279269E+03  0.13919142422E+04  0.80536844372E+02 0.  0.
         11    1    3    3    0    0 -0.10209954327E+03  0.22632929592E+03 -0.15305709525E+03  0.29167746113E+03  0.00000000000E+00 0. -1.
        -11    1    3    3    0    0 -0.44261315168E+03  0.11576047910E+04 -0.55554594048E+03  0.13581555678E+04  0.00000000000E+00 0.  1.
          2    1    6    6  502    0  0.41421174423E+03 -0.61297967818E+03  0.57182476774E+03  0.93503958201E+03  0.00000000000E+00 0. -1.
          3    1    5    5  503    0 -0.10289474118E+03 -0.44408217827E+03 -0.93363977562E+02  0.46530972601E+03  0.00000000000E+00 0. -1.
         -4    1    5    5    0  503 -0.11226677459E+02 -0.26473641727E+02  0.12708593679E+02  0.31438835003E+02  0.00000000000E+00 0.  1.
         -1    1    6    6    0  502  0.24462236937E+03 -0.30039858876E+03  0.24218802495E+03  0.45687466023E+03  0.00000000000E+00 0.  1.
<mgrwt>
<rscale>  0 0.35384092E+04</rscale>
<asrwt>0</asrwt>
<pdfrwt beam="1">  1        1 0.27409617E+00 0.35384092E+04</pdfrwt>
<pdfrwt beam="2">  1       -1 0.27028781E+00 0.35384092E+04</pdfrwt>
<totfact> 0.17542834E-01</totfact>
</mgrwt>
</event>
<event>
12    1  0.1562393E-007  0.1448101E+04  0.7818608E-02  0.8919718E-01
          2   -1    0    0  501    0  0.00000000000E+00  0.00000000000E+00  0.11282953176E+04  0.11282953176E+04  0.00000000000E+00 0. -1.
         -2   -1    0    0    0  501 -0.00000000000E+00 -0.00000000000E+00 -0.46463811457E+03  0.46463811457E+03  0.00000000000E+00 0.  1.
         23    2    1    2    0    0  0.24247894167E+03  0.36625378221E+03  0.25718588144E+03  0.51698537180E+03  0.90506502020E+02 0.  0.
        254    2    1    2    0    0 -0.24247894167E+03 -0.36625378221E+03  0.40647132164E+03  0.10759480604E+04  0.89415178984E+03 0.  0.
        -24    2    4    4    0    0  0.27082574794E+03  0.58704527128E+02 -0.56609650735E+01  0.28837120603E+03  0.79580768335E+02 0.  0.
         24    2    4    4    0    0 -0.51330468961E+03 -0.42495830933E+03  0.41213228671E+03  0.78757685439E+03  0.79705776264E+02 0.  0.
         11    1    3    3    0    0  0.23703283003E+03  0.36871628722E+03  0.24207648800E+03  0.50073674622E+03  0.00000000000E+00 0.  1.
        -11    1    3    3    0    0  0.54461116363E+01 -0.24625050166E+01  0.15109393441E+02  0.16248625574E+02  0.00000000000E+00 0. -1.
          2    1    6    6  502    0 -0.36753609815E+03 -0.26801385443E+03  0.30853174666E+03  0.54964174541E+03  0.00000000000E+00 0. -1.
          3    1    5    5  503    0  0.25436345861E+03  0.56787721733E+02  0.15977756668E+02  0.26111473173E+03  0.00000000000E+00 0. -1.
         -4    1    5    5    0  503  0.16462289330E+02  0.19168053946E+01 -0.21638721741E+02  0.27256474304E+02  0.00000000000E+00 0.  1.
         -1    1    6    6    0  502 -0.14576859147E+03 -0.15694445491E+03  0.10360054005E+03  0.23793510898E+03  0.00000000000E+00 0.  1.
<mgrwt>
<rscale>  0 0.14481008E+04</rscale>
<asrwt>0</asrwt>
<pdfrwt beam="1">  1        2 0.17358389E+00 0.14481008E+04</pdfrwt>
<pdfrwt beam="2">  1       -2 0.71482787E-01 0.14481008E+04</pdfrwt>
<totfact> 0.36048480E+01</totfact>
</mgrwt>
</event>
<event>
12    1  0.1562393E-007  0.1518636E+04  0.7818608E-02  0.8872154E-01
         -2   -1    0    0    0  501 -0.00000000000E+00  0.00000000000E+00  0.30731901153E+03  0.30731901153E+03  0.00000000000E+00 0.  1.
          2   -1    0    0  501    0  0.00000000000E+00 -0.00000000000E+00 -0.18761085079E+04  0.18761085079E+04  0.00000000000E+00 0. -1.
         23    2    1    2    0    0  0.41538880816E+03  0.36381341141E+02 -0.14002844449E+03  0.44904653984E+03  0.90351346178E+02 0.  0.
        254    2    1    2    0    0 -0.41538880816E+03 -0.36381341141E+02 -0.14287610519E+04  0.17343809796E+04  0.89041999925E+03 0.  0.
        -24    2    4    4    0    0 -0.14502204840E+03 -0.39838300091E+03 -0.10633336948E+04  0.11477886397E+04  0.83664837151E+02 0.  0.
         24    2    4    4    0    0 -0.27036675976E+03  0.36200165977E+03 -0.36542735715E+03  0.58659233995E+03  0.80062684669E+02 0.  0.
         13    1    3    3    0    0  0.14839478217E+03  0.42420878478E+02 -0.17865142971E+02  0.15536957758E+03  0.00000000000E+00 0. -1.
        -13    1    3    3    0    0  0.26699402599E+03 -0.60395373369E+01 -0.12216330152E+03  0.29367696226E+03  0.00000000000E+00 0.  1.
          2    1    6    6  502    0 -0.73971030774E+02  0.16432299315E+03 -0.14265025340E+03  0.22983223070E+03  0.00000000000E+00 0. -1.
          1    1    5    5  503    0 -0.69548132937E+02 -0.98036671909E+02 -0.35231899255E+03  0.37225905543E+03  0.00000000000E+00 0. -1.
         -2    1    5    5    0  503 -0.75473915458E+02 -0.30034632900E+03 -0.71101470223E+03  0.77552958425E+03  0.00000000000E+00 0.  1.
         -1    1    6    6    0  502 -0.19639572899E+03  0.19767866662E+03 -0.22277710375E+03  0.35676010926E+03  0.00000000000E+00 0.  1.
<mgrwt>
<rscale>  0 0.15186360E+04</rscale>
<asrwt>0</asrwt>
<pdfrwt beam="1">  1        2 0.28863208E+00 0.15186360E+04</pdfrwt>
<pdfrwt beam="2">  1       -2 0.47279848E-01 0.15186360E+04</pdfrwt>
<totfact> 0.32029057E+01</totfact>
</mgrwt>
</event>
<event>
12    1  0.1562393E-007  0.1155652E+04  0.7818608E-02  0.9152586E-01
         -1   -1    0    0    0  501 -0.00000000000E+00  0.00000000000E+00  0.18916256504E+03  0.18916256504E+03  0.00000000000E+00 0.  1.
          1   -1    0    0  501    0  0.00000000000E+00 -0.00000000000E+00 -0.17650564151E+04  0.17650564151E+04  0.00000000000E+00 0. -1.
         23    2    1    2    0    0  0.57484243048E+02 -0.64732202533E+02  0.73622319965E+01  0.12804231102E+03  0.94052829345E+02 0.  0.
        254    2    1    2    0    0 -0.57484243048E+02  0.64732202533E+02 -0.15832560821E+04  0.18261766691E+04  0.90593968298E+03 0.  0.
        -24    2    4    4    0    0  0.30993882106E+03  0.27976561327E+03 -0.10901342433E+04  0.11700717955E+04  0.79652162766E+02 0.  0.
         24    2    4    4    0    0 -0.36742306411E+03 -0.21503341073E+03 -0.49312183871E+03  0.65610487357E+03  0.77880559471E+02 0.  0.
         11    1    3    3    0    0  0.17702644470E+02  0.21614084034E+02 -0.13002529235E+02  0.30815872799E+02  0.00000000000E+00 0. -1.
        -11    1    3    3    0    0  0.39781598578E+02 -0.86346286566E+02  0.20364761231E+02  0.97226438221E+02  0.00000000000E+00 0.  1.
          4    1    6    6  502    0 -0.13761230051E+03 -0.12502947285E+03 -0.21687133046E+03  0.28566184259E+03  0.00000000000E+00 0. -1.
          3    1    5    5  503    0  0.19214727612E+03  0.17092463117E+03 -0.56036516117E+03  0.61655893401E+03  0.00000000000E+00 0. -1.
         -4    1    5    5    0  503  0.11779154494E+03  0.10884098210E+03 -0.52976908218E+03  0.55351286153E+03  0.00000000000E+00 0.  1.
         -3    1    6    6    0  502 -0.22981076359E+03 -0.90003937880E+02 -0.27625050825E+03  0.37044303098E+03  0.00000000000E+00 0.  1.
<mgrwt>
<rscale>  0 0.11556515E+04</rscale>
<asrwt>0</asrwt>
<pdfrwt beam="1">  1        1 0.27154715E+00 0.11556515E+04</pdfrwt>
<pdfrwt beam="2">  1       -1 0.29101932E-01 0.11556515E+04</pdfrwt>
<totfact> 0.46016652E+01</totfact>
</mgrwt>
</event>
<event>
12    1  0.1562393E-007  0.1841924E+04  0.7818608E-02  0.8684317E-01
         -2   -1    0    0    0  501 -0.00000000000E+00  0.00000000000E+00  0.63774677043E+03  0.63774677043E+03  0.00000000000E+00 0.  1.
          2   -1    0    0  501    0  0.00000000000E+00 -0.00000000000E+00 -0.13299488173E+04  0.13299488173E+04  0.00000000000E+00 0. -1.
         23    2    1    2    0    0  0.64914034994E+03  0.24365131955E+03 -0.38405279624E+03  0.79748859693E+03  0.87990638690E+02 0.  0.
        254    2    1    2    0    0 -0.64914034994E+03 -0.24365131955E+03 -0.30814925060E+03  0.11702069908E+04  0.89088679479E+03 0.  0.
        -24    2    4    4    0    0 -0.74448631155E+03 -0.44364446775E+03 -0.33563813446E+03  0.93284945881E+03  0.80466599538E+02 0.  0.
         24    2    4    4    0    0  0.95345961612E+02  0.19999314820E+03  0.27488883862E+02  0.23735753195E+03  0.80590616781E+02 0.  0.
         11    1    3    3    0    0  0.20029128238E+03  0.54420504255E+02 -0.15598232801E+03  0.25963180801E+03  0.00000000000E+00 0.  1.
        -11    1    3    3    0    0  0.44884906756E+03  0.18923081529E+03 -0.22807046823E+03  0.53785678892E+03  0.00000000000E+00 0. -1.
          4    1    6    6  502    0  0.88826183398E+02  0.19261672789E+03  0.45403112525E+02  0.21691642940E+03  0.00000000000E+00 0. -1.
          3    1    5    5  503    0 -0.28408566266E+03 -0.12543248612E+03 -0.12847972381E+03  0.33607292621E+03  0.00000000000E+00 0. -1.
         -4    1    5    5    0  503 -0.46040064889E+03 -0.31821198163E+03 -0.20715841065E+03  0.59677653260E+03  0.00000000000E+00 0.  1.
         -3    1    6    6    0  502  0.65197782138E+01  0.73764203179E+01 -0.17914228663E+02  0.20441102545E+02  0.00000000000E+00 0.  1.
<mgrwt>
<rscale>  0 0.18419235E+04</rscale>
<asrwt>0</asrwt>
<pdfrwt beam="1">  1        2 0.20460751E+00 0.18419235E+04</pdfrwt>
<pdfrwt beam="2">  1       -2 0.98114888E-01 0.18419235E+04</pdfrwt>
<totfact> 0.12912381E+01</totfact>
</mgrwt>
</event>
<event>
12    1  0.1562393E-007  0.1734623E+04  0.7818608E-02  0.8741860E-01
          1   -1    0    0  501    0  0.00000000000E+00  0.00000000000E+00  0.12370781518E+04  0.12370781518E+04  0.00000000000E+00 0. -1.
         -1   -1    0    0    0  501 -0.00000000000E+00 -0.00000000000E+00 -0.60806904221E+03  0.60806904221E+03  0.00000000000E+00 0.  1.
         23    2    1    2    0    0 -0.62228035855E+03 -0.63827681149E+02  0.29640577445E+03  0.69791670025E+03  0.89019772213E+02 0.  0.
        254    2    1    2    0    0  0.62228035855E+03  0.63827681149E+02  0.33260333511E+03  0.11472304937E+04  0.90233364655E+03 0.  0.
        -24    2    4    4    0    0 -0.43204302929E+01 -0.28650679770E+03 -0.89235266287E+02  0.31071116322E+03  0.80459200539E+02 0.  0.
         24    2    4    4    0    0  0.62660078885E+03  0.35033447885E+03  0.42183860140E+03  0.83651933051E+03  0.80336722802E+02 0.  0.
         11    1    3    3    0    0 -0.62409865428E+03 -0.61879362783E+02  0.29845706668E+03  0.69455367429E+03  0.00000000000E+00 0.  1.
        -11    1    3    3    0    0  0.18182957264E+01 -0.19483183666E+01 -0.20512922371E+01  0.33630259661E+01  0.00000000000E+00 0. -1.
          2    1    6    6  502    0  0.47770912493E+02  0.51015847603E+02  0.53192570831E+02  0.87830099503E+02  0.00000000000E+00 0. -1.
          1    1    5    5  503    0  0.61492323653E+01 -0.10573203291E+03 -0.73572558890E+02  0.12895734668E+03  0.00000000000E+00 0. -1.
         -2    1    5    5    0  503 -0.10469662658E+02 -0.18077476479E+03 -0.15662707397E+02  0.18175381654E+03  0.00000000000E+00 0.  1.
         -1    1    6    6    0  502  0.57882987635E+03  0.29931863125E+03  0.36864603056E+03  0.74868923101E+03  0.00000000000E+00 0.  1.
<mgrwt>
<rscale>  0 0.17346226E+04</rscale>
<asrwt>0</asrwt>
<pdfrwt beam="1">  1        1 0.19031972E+00 0.17346226E+04</pdfrwt>
<pdfrwt beam="2">  1       -1 0.93549084E-01 0.17346226E+04</pdfrwt>
<totfact> 0.10560843E+01</totfact>
</mgrwt>
</event>
<event>
12    1  0.1562393E-007  0.3364262E+04  0.7818608E-02  0.8146734E-01
         -1   -1    0    0    0  501 -0.00000000000E+00  0.00000000000E+00  0.15238020149E+04  0.15238020149E+04  0.00000000000E+00 0.  1.
          1   -1    0    0  501    0  0.00000000000E+00 -0.00000000000E+00 -0.18569107496E+04  0.18569107496E+04  0.00000000000E+00 0. -1.
         23    2    1    2    0    0  0.99036126788E+03  0.97554208440E+03 -0.87644998785E+03  0.16458830264E+04  0.90931600060E+02 0.  0.
        254    2    1    2    0    0 -0.99036126788E+03 -0.97554208440E+03  0.54334125315E+03  0.17348297381E+04  0.88426054057E+03 0.  0.
        -24    2    4    4    0    0 -0.11315909228E+04 -0.93241604828E+03  0.55141368596E+03  0.15685248536E+04  0.79469865937E+02 0.  0.
         24    2    4    4    0    0  0.14122965488E+03 -0.43126036121E+02 -0.80724328126E+01  0.16630488459E+03  0.76068916502E+02 0.  0.
         13    1    3    3    0    0  0.20494145693E+03  0.21452806034E+03 -0.23078642997E+03  0.37587985541E+03  0.00000000000E+00 0.  1.
        -13    1    3    3    0    0  0.78541981095E+03  0.76101402406E+03 -0.64566355789E+03  0.12700031710E+04  0.00000000000E+00 0. -1.
          2    1    6    6  502    0  0.32131479425E+01 -0.67114052614E+01  0.19549134080E+02  0.20917359384E+02  0.00000000000E+00 0. -1.
          1    1    5    5  503    0 -0.71786353100E+02 -0.66689736944E+02  0.17137180285E+02  0.99471023184E+02  0.00000000000E+00 0. -1.
         -2    1    5    5    0  503 -0.10598045697E+04 -0.86572631134E+03  0.53427650568E+03  0.14690538304E+04  0.00000000000E+00 0.  1.
         -1    1    6    6    0  502  0.13801650694E+03 -0.36414630859E+02 -0.27621566893E+02  0.14538752520E+03  0.00000000000E+00 0.  1.
<mgrwt>
<rscale>  0 0.33642618E+04</rscale>
<asrwt>0</asrwt>
<pdfrwt beam="1">  1        1 0.28567858E+00 0.33642618E+04</pdfrwt>
<pdfrwt beam="2">  1       -1 0.23443108E+00 0.33642618E+04</pdfrwt>
<totfact> 0.27133557E-01</totfact>
</mgrwt>
</event>
<event>
12    1  0.1562393E-007  0.6422681E+04  0.7818608E-02  0.7640095E-01
         -1   -1    0    0    0  501 -0.00000000000E+00  0.00000000000E+00  0.26126842866E+04  0.26126842866E+04  0.00000000000E+00 0.  1.
          1   -1    0    0  501    0  0.00000000000E+00 -0.00000000000E+00 -0.39471691464E+04  0.39471691464E+04  0.00000000000E+00 0. -1.
         23    2    1    2    0    0 -0.27273162393E+03  0.29264389238E+04  0.49753439598E+03  0.29825548257E+04  0.98313273974E+02 0.  0.
        254    2    1    2    0    0  0.27273162393E+03 -0.29264389238E+04 -0.18320192558E+04  0.35772986073E+04  0.89573626644E+03 0.  0.
        -24    2    4    4    0    0  0.37873979060E+03 -0.26897875103E+04 -0.13752559017E+04  0.30456739506E+04  0.80002114898E+02 0.  0.
         24    2    4    4    0    0 -0.10600816667E+03 -0.23665141346E+03 -0.45676335411E+03  0.53162465675E+03  0.82160763848E+02 0.  0.
         11    1    3    3    0    0 -0.75302770405E+02  0.12352191462E+04  0.18101880644E+03  0.12506816760E+04  0.00000000000E+00 0. -1.
        -11    1    3    3    0    0 -0.19742885352E+03  0.16912197776E+04  0.31651558954E+03  0.17318731497E+04  0.00000000000E+00 0.  1.
          4    1    6    6  502    0 -0.31110972270E+01 -0.82917786623E+02 -0.18635259017E+03  0.20399099521E+03  0.00000000000E+00 0. -1.
          1    1    5    5  503    0  0.26227640433E+03 -0.20915023340E+04 -0.10558186513E+04  0.23575249627E+04  0.00000000000E+00 0. -1.
         -2    1    5    5    0  503  0.11646338627E+03 -0.59828517630E+03 -0.31943725045E+03  0.68814898787E+03  0.00000000000E+00 0.  1.
         -3    1    6    6    0  502 -0.10289706944E+03 -0.15373362684E+03 -0.27041076395E+03  0.32763366155E+03  0.00000000000E+00 0.  1.
<mgrwt>
<rscale>  0 0.64226807E+04</rscale>
<asrwt>0</asrwt>
<pdfrwt beam="1">  1        1 0.60725679E+00 0.64226807E+04</pdfrwt>
<pdfrwt beam="2">  1       -1 0.40195143E+00 0.64226807E+04</pdfrwt>
<totfact> 0.47792244E-04</totfact>
</mgrwt>
</event>
<event>
12    1  0.1562393E-007  0.2396226E+04  0.7818608E-02  0.8440918E-01
          2   -1    0    0  501    0  0.00000000000E+00  0.00000000000E+00  0.16798650177E+04  0.16798650177E+04  0.00000000000E+00 0. -1.
         -2   -1    0    0    0  501 -0.00000000000E+00 -0.00000000000E+00 -0.85451757280E+03  0.85451757280E+03  0.00000000000E+00 0.  1.
         23    2    1    2    0    0 -0.53623528054E+03 -0.43493883852E+03  0.11658257789E+04  0.13582461744E+04  0.94672351356E+02 0.  0.
        254    2    1    2    0    0  0.53623528054E+03  0.43493883852E+03 -0.34047833400E+03  0.11761364161E+04  0.88918575340E+03 0.  0.
        -24    2    4    4    0    0  0.69086452019E+03  0.57445952045E+03 -0.25155833618E+03  0.93624177386E+03  0.77262777054E+02 0.  0.
         24    2    4    4    0    0 -0.15462923965E+03 -0.13952068193E+03 -0.88919997825E+02  0.23989464226E+03  0.79160917975E+02 0.  0.
         13    1    3    3    0    0 -0.80819245308E+01 -0.51402002432E+01  0.51156351065E+02  0.52045282370E+02  0.00000000000E+00 0.  1.
        -13    1    3    3    0    0 -0.52815335601E+03 -0.42979863828E+03  0.11146694278E+04  0.13062008920E+04  0.00000000000E+00 0. -1.
          2    1    6    6  502    0 -0.72728584774E+02 -0.71205880245E+02 -0.85922528795E+02  0.13320062079E+03  0.00000000000E+00 0. -1.
          3    1    5    5  503    0  0.43345181636E+03  0.34019540245E+03 -0.11841481138E+03  0.56359156888E+03  0.00000000000E+00 0. -1.
         -4    1    5    5    0  503  0.25741270382E+03  0.23426411800E+03 -0.13314352480E+03  0.37265020498E+03  0.00000000000E+00 0.  1.
         -1    1    6    6    0  502 -0.81900654871E+02 -0.68314801683E+02 -0.29974690297E+01  0.10669402147E+03  0.00000000000E+00 0.  1.
<mgrwt>
<rscale>  0 0.23962255E+04</rscale>
<asrwt>0</asrwt>
<pdfrwt beam="1">  1        2 0.25844077E+00 0.23962255E+04</pdfrwt>
<pdfrwt beam="2">  1       -2 0.13146424E+00 0.23962255E+04</pdfrwt>
<totfact> 0.38217375E+00</totfact>
</mgrwt>
</event>
<event>
12    1  0.1562393E-007  0.1391365E+04  0.7818608E-02  0.8960092E-01
         -1   -1    0    0    0  501 -0.00000000000E+00  0.00000000000E+00  0.13603314354E+04  0.13603314354E+04  0.00000000000E+00 0.  1.
          1   -1    0    0  501    0  0.00000000000E+00 -0.00000000000E+00 -0.35577687300E+03  0.35577687300E+03  0.00000000000E+00 0. -1.
         23    2    1    2    0    0 -0.35627027300E+03 -0.45321814593E+02  0.93837374992E+02  0.38152813205E+03  0.88179863329E+02 0.  0.
        254    2    1    2    0    0  0.35627027300E+03  0.45321814593E+02  0.91071718742E+03  0.13345801764E+04  0.90703686661E+03 0.  0.
        -24    2    4    4    0    0  0.98392207780E+02  0.44362800813E+03  0.27400779308E+03  0.53650450519E+03  0.79183188086E+02 0.  0.
         24    2    4    4    0    0  0.25787806522E+03 -0.39830619354E+03  0.63670939435E+03  0.79807567118E+03  0.79856144077E+02 0.  0.
         11    1    3    3    0    0 -0.19937212801E+03 -0.62234480876E+02  0.28765511158E+02  0.21083128484E+03  0.00000000000E+00 0. -1.
        -11    1    3    3    0    0 -0.15689814499E+03  0.16912666283E+02  0.65071863834E+02  0.17069684720E+03  0.00000000000E+00 0.  1.
          4    1    6    6  502    0  0.17767008187E+03 -0.33388411650E+03  0.49445563046E+03  0.62252038660E+03  0.00000000000E+00 0. -1.
          3    1    5    5  503    0  0.84509219832E+02  0.29995318879E+03  0.22384324853E+03  0.38369196449E+03  0.00000000000E+00 0. -1.
         -4    1    5    5    0  503  0.13882987947E+02  0.14367481933E+03  0.50164544552E+02  0.15281254070E+03  0.00000000000E+00 0.  1.
         -3    1    6    6    0  502  0.80207983350E+02 -0.64422077040E+02  0.14225376388E+03  0.17555528457E+03  0.00000000000E+00 0.  1.
<mgrwt>
<rscale>  0 0.13913655E+04</rscale>
<asrwt>0</asrwt>
<pdfrwt beam="1">  1        1 0.54734904E-01 0.13913655E+04</pdfrwt>
<pdfrwt beam="2">  1       -1 0.20928176E+00 0.13913655E+04</pdfrwt>
<totfact> 0.88913712E+00</totfact>
</mgrwt>
</event>
<event>
12    1  0.1562393E-007  0.1122434E+04  0.7818608E-02  0.9183598E-01
          1   -1    0    0  501    0  0.00000000000E+00  0.00000000000E+00  0.10159769823E+04  0.10159769823E+04  0.00000000000E+00 0. -1.
         -1   -1    0    0    0  501 -0.00000000000E+00 -0.00000000000E+00 -0.31001127855E+03  0.31001127855E+03  0.00000000000E+00 0.  1.
         23    2    1    2    0    0  0.13460674596E+03  0.31988992023E+02 -0.10378304007E+02  0.16579602888E+03  0.90765314561E+02 0.  0.
        254    2    1    2    0    0 -0.13460674596E+03 -0.31988992023E+02  0.71634400775E+03  0.11601922320E+04  0.90208370234E+03 0.  0.
        -24    2    4    4    0    0 -0.22642372601E+03 -0.16324614326E+03  0.87466640455E+03  0.92162336232E+03  0.80195359769E+02 0.  0.
         24    2    4    4    0    0  0.91816980042E+02  0.13125715124E+03 -0.15832239680E+03  0.23856886966E+03  0.78678629028E+02 0.  0.
         13    1    3    3    0    0  0.14614021640E+03  0.39339018994E+02 -0.60969455081E+01  0.15146515774E+03  0.00000000000E+00 0.  1.
        -13    1    3    3    0    0 -0.11533470439E+02 -0.73500269712E+01 -0.42813584991E+01  0.14330871133E+02  0.00000000000E+00 0. -1.
          4    1    6    6  502    0  0.11142533167E+02  0.83308613180E+02 -0.84297902974E+02  0.11904040289E+03  0.00000000000E+00 0. -1.
          3    1    5    5  503    0 -0.14182952856E+03 -0.87125262579E+02  0.63274159099E+03  0.65426932339E+03  0.00000000000E+00 0. -1.
         -4    1    5    5    0  503 -0.84594197445E+02 -0.76120880682E+02  0.24192481356E+03  0.26735403893E+03  0.00000000000E+00 0.  1.
         -3    1    6    6    0  502  0.80674446875E+02  0.47948538058E+02 -0.74024493827E+02  0.11952846676E+03  0.00000000000E+00 0.  1.
<mgrwt>
<rscale>  0 0.11224336E+04</rscale>
<asrwt>0</asrwt>
<pdfrwt beam="1">  1        1 0.15630415E+00 0.11224336E+04</pdfrwt>
<pdfrwt beam="2">  1       -1 0.47694043E-01 0.11224336E+04</pdfrwt>
<totfact> 0.64199957E+01</totfact>
</mgrwt>
</event>
<event>
12    1  0.1562393E-007  0.2255093E+04  0.7818608E-02  0.8495841E-01
         -2   -1    0    0    0  501 -0.00000000000E+00  0.00000000000E+00  0.13539201915E+04  0.13539201915E+04  0.00000000000E+00 0.  1.
          2   -1    0    0  501    0  0.00000000000E+00 -0.00000000000E+00 -0.93902192419E+03  0.93902192419E+03  0.00000000000E+00 0. -1.
         23    2    1    2    0    0 -0.70376892748E+03 -0.54724609519E+03 -0.11976462322E+03  0.90425856994E+03  0.92579718904E+02 0.  0.
        254    2    1    2    0    0  0.70376892748E+03  0.54724609519E+03  0.53466289058E+03  0.13886835458E+04  0.92076522080E+03 0.  0.
        -24    2    4    4    0    0  0.49251016049E+03  0.78901202857E+03  0.49333409843E+03  0.10559157310E+04  0.80456564617E+02 0.  0.
         24    2    4    4    0    0  0.21125876699E+03 -0.24176593338E+03  0.41328792145E+02  0.33276781485E+03  0.77105877617E+02 0.  0.
         11    1    3    3    0    0 -0.31600117258E+03 -0.29814468534E+03 -0.37242057544E+02  0.43604353603E+03  0.00000000000E+00 0.  1.
        -11    1    3    3    0    0 -0.38776775490E+03 -0.24910140984E+03 -0.82522565681E+02  0.46821503391E+03  0.00000000000E+00 0. -1.
          4    1    6    6  502    0  0.17482227288E+03 -0.22653088184E+03  0.17581855265E+02  0.28668482547E+03  0.00000000000E+00 0. -1.
          3    1    5    5  503    0  0.43657913632E+03  0.72302644838E+03  0.46884813010E+03  0.96601612638E+03  0.00000000000E+00 0. -1.
         -4    1    5    5    0  503  0.55931024172E+02  0.65985580192E+02  0.24485968331E+02  0.89899604579E+02  0.00000000000E+00 0.  1.
         -3    1    6    6    0  502  0.36436494105E+02 -0.15235051544E+02  0.23746936880E+02  0.46082989372E+02  0.00000000000E+00 0.  1.
<mgrwt>
<rscale>  0 0.22550927E+04</rscale>
<asrwt>0</asrwt>
<pdfrwt beam="1">  1        2 0.14446491E+00 0.22550927E+04</pdfrwt>
<pdfrwt beam="2">  1       -2 0.20829541E+00 0.22550927E+04</pdfrwt>
<totfact> 0.29494543E+00</totfact>
</mgrwt>
</event>
<event>
12    1  0.1562393E-007  0.3935098E+04  0.7818608E-02  0.8017769E-01
         -2   -1    0    0    0  501 -0.00000000000E+00  0.00000000000E+00  0.21437166008E+04  0.21437166008E+04  0.00000000000E+00 0. -1.
          2   -1    0    0  501    0  0.00000000000E+00 -0.00000000000E+00 -0.18058590224E+04  0.18058590224E+04  0.00000000000E+00 0.  1.
         23    2    1    2    0    0  0.14501584300E+03  0.99894874338E+03 -0.14082167037E+04  0.17349876317E+04  0.90441201804E+02 0.  0.
        254    2    1    2    0    0 -0.14501584300E+03 -0.99894874338E+03  0.17460742821E+04  0.22145879915E+04  0.91471109481E+03 0.  0.
        -24    2    4    4    0    0  0.30810643224E+03 -0.73138320432E+02  0.46422878944E+03  0.56773646689E+03  0.80855051679E+02 0.  0.
         24    2    4    4    0    0 -0.45312227524E+03 -0.92581042294E+03  0.12818454927E+04  0.16468515247E+04  0.80915644921E+02 0.  0.
         11    1    3    3    0    0  0.40714480025E+02  0.30006167600E+03 -0.49550970419E+03  0.58071037982E+03  0.00000000000E+00 0. -1.
        -11    1    3    3    0    0  0.10430136297E+03  0.69888706738E+03 -0.91270699954E+03  0.11542772519E+04  0.00000000000E+00 0.  1.
          2    1    6    6  502    0 -0.33449989472E+03 -0.59662332326E+03  0.85257911112E+03  0.10930419526E+04  0.00000000000E+00 0. -1.
          1    1    5    5  503    0  0.27909796235E+03 -0.79933248344E+02  0.44790531976E+03  0.53376415415E+03  0.00000000000E+00 0. -1.
         -2    1    5    5    0  503  0.29008469888E+02  0.67949279116E+01  0.16323469682E+02  0.33972312742E+02  0.00000000000E+00 0.  1.
         -1    1    6    6    0  502 -0.11862238052E+03 -0.32918709969E+03  0.42926638156E+03  0.55380957206E+03  0.00000000000E+00 0.  1.
<mgrwt>
<rscale>  0 0.39350985E+04</rscale>
<asrwt>0</asrwt>
<pdfrwt beam="1">  1        2 0.27782447E+00 0.39350985E+04</pdfrwt>
<pdfrwt beam="2">  1       -2 0.32980255E+00 0.39350985E+04</pdfrwt>
<totfact> 0.14136591E-01</totfact>
</mgrwt>
</event>
<event>
12    1  0.1688568E-007  0.2391151E+04  0.7818608E-02  0.8442824E-01
          1   -1    0    0  501    0  0.00000000000E+00  0.00000000000E+00  0.21377871458E+04  0.21377871458E+04  0.00000000000E+00 0. -1.
         -1   -1    0    0    0  501 -0.00000000000E+00 -0.00000000000E+00 -0.66863549690E+03  0.66863549690E+03  0.00000000000E+00 0.  1.
         23    2    1    2    0    0  0.36244185793E+03  0.26417783398E+03 -0.44720830371E+03  0.64004498013E+03  0.92240345492E+02 0.  0.
        254    2    1    2    0    0 -0.36244185793E+03 -0.26417783398E+03  0.19163599526E+04  0.21663776625E+04  0.90531910429E+03 0.  0.
        -24    2    4    4    0    0  0.17175207708E+03  0.21552706767E+03  0.58388122954E+03  0.65081068385E+03  0.81771407729E+02 0.  0.
         24    2    4    4    0    0 -0.53419393501E+03 -0.47970490164E+03  0.13324787230E+04  0.15155669787E+04  0.77225427917E+02 0.  0.
         11    1    3    3    0    0  0.42533264842E+02 -0.38462078586E+00 -0.47526866474E+02  0.63781106828E+02  0.00000000000E+00 0. -1.
        -11    1    3    3    0    0  0.31990859309E+03  0.26456245476E+03 -0.39968143723E+03  0.57626387330E+03  0.00000000000E+00 0.  1.
          4    1    6    6  502    0 -0.45421713202E+03 -0.43202910166E+03  0.11964584531E+04  0.13507313492E+04  0.00000000000E+00 0. -1.
          3    1    5    5  503    0  0.17924399301E+03  0.21300471669E+03  0.57546127234E+03  0.63926136621E+03  0.00000000000E+00 0. -1.
         -4    1    5    5    0  503 -0.74919159266E+01  0.25223509753E+01  0.84199571991E+01  0.11549317639E+02  0.00000000000E+00 0.  1.
         -3    1    6    6    0  502 -0.79976802993E+02 -0.47675799985E+02  0.13602026993E+03  0.16483562950E+03  0.00000000000E+00 0.  1.
<mgrwt>
<rscale>  0 0.23911507E+04</rscale>
<asrwt>0</asrwt>
<pdfrwt beam="1">  1        1 0.32889033E+00 0.23911507E+04</pdfrwt>
<pdfrwt beam="2">  1       -1 0.10286700E+00 0.23911507E+04</pdfrwt>
<totfact> 0.19230933E+00</totfact>
</mgrwt>
</event>
<event>
12    1  0.1562393E-007  0.1917038E+04  0.7818608E-02  0.8646421E-01
          1   -1    0    0  501    0  0.00000000000E+00  0.00000000000E+00  0.21622007004E+04  0.21622007004E+04  0.00000000000E+00 0. -1.
         -1   -1    0    0    0  501 -0.00000000000E+00 -0.00000000000E+00 -0.42491847472E+03  0.42491847472E+03  0.00000000000E+00 0.  1.
         23    2    1    2    0    0  0.19235231665E+03  0.47056914758E+03  0.14002871572E+04  0.14924908304E+04  0.91049546345E+02 0.  0.
        254    2    1    2    0    0 -0.19235231665E+03 -0.47056914758E+03  0.33699506848E+03  0.10946283447E+04  0.90896138558E+03 0.  0.
        -24    2    4    4    0    0 -0.48050818328E+03 -0.40653306147E+03 -0.71783354283E+01  0.63448337020E+03  0.79751954777E+02 0.  0.
         24    2    4    4    0    0  0.28815586662E+03 -0.64036086111E+02  0.34417340390E+03  0.46014497450E+03  0.78381386896E+02 0.  0.
         11    1    3    3    0    0  0.62105433670E+02  0.16341541974E+03  0.36363444070E+03  0.40347452307E+03  0.00000000000E+00 0.  1.
        -11    1    3    3    0    0  0.13024688298E+03  0.30715372784E+03  0.10366527165E+04  0.10890163074E+04  0.00000000000E+00 0. -1.
          4    1    6    6  502    0  0.20649840589E+02 -0.11253072133E+02  0.68422412470E+02  0.72351047519E+02  0.00000000000E+00 0. -1.
          3    1    5    5  503    0 -0.74131090501E+02 -0.60289043430E+02 -0.29899175634E+02  0.10012066740E+03  0.00000000000E+00 0. -1.
         -4    1    5    5    0  503 -0.40637709278E+03 -0.34624401804E+03  0.22720840206E+02  0.53436270280E+03  0.00000000000E+00 0.  1.
         -3    1    6    6    0  502  0.26750602604E+03 -0.52783013978E+02  0.27575099143E+03  0.38779392699E+03  0.00000000000E+00 0.  1.
<mgrwt>
<rscale>  0 0.19170384E+04</rscale>
<asrwt>0</asrwt>
<pdfrwt beam="1">  1        1 0.33264625E+00 0.19170384E+04</pdfrwt>
<pdfrwt beam="2">  1       -1 0.65372074E-01 0.19170384E+04</pdfrwt>
<totfact> 0.51239907E+00</totfact>
</mgrwt>
</event>
<event>
12    1  0.1562393E-007  0.1778574E+04  0.7818608E-02  0.8717777E-01
          1   -1    0    0  501    0  0.00000000000E+00  0.00000000000E+00  0.24866856449E+04  0.24866856449E+04  0.00000000000E+00 0. -1.
         -1   -1    0    0    0  501 -0.00000000000E+00 -0.00000000000E+00 -0.31802641932E+03  0.31802641932E+03  0.00000000000E+00 0.  1.
         23    2    1    2    0    0  0.62380786737E+03  0.16570863517E+03  0.54386223341E+03  0.84738992081E+03  0.75418444745E+02 0.  0.
        254    2    1    2    0    0 -0.62380786737E+03 -0.16570863517E+03  0.16247969922E+04  0.19573221434E+04  0.88008471192E+03 0.  0.
        -24    2    4    4    0    0 -0.56413002147E+02 -0.44060416231E+03  0.76104554901E+03  0.88493118334E+03  0.81230640254E+02 0.  0.
         24    2    4    4    0    0 -0.56739486522E+03  0.27489552714E+03  0.86375144317E+03  0.10723909601E+04  0.80320182820E+02 0.  0.
         13    1    3    3    0    0  0.59757906925E+03  0.14730383756E+03  0.53096869541E+03  0.81285110571E+03  0.00000000000E+00 0.  1.
        -13    1    3    3    0    0  0.26228798121E+02  0.18404797619E+02  0.12893538004E+02  0.34538815101E+02  0.00000000000E+00 0. -1.
          4    1    6    6  502    0 -0.25771201817E+03  0.83944695461E+02  0.34374475142E+03  0.43774724480E+03  0.00000000000E+00 0. -1.
          1    1    5    5  503    0  0.20908899803E+02 -0.11374064756E+03  0.19006799437E+03  0.22248586355E+03  0.00000000000E+00 0. -1.
         -2    1    5    5    0  503 -0.77321901950E+02 -0.32686351476E+03  0.57097755464E+03  0.66244531979E+03  0.00000000000E+00 0.  1.
         -3    1    6    6    0  502 -0.30968284705E+03  0.19095083168E+03  0.52000669176E+03  0.63464371528E+03  0.00000000000E+00 0.  1.
<mgrwt>
<rscale>  0 0.17785744E+04</rscale>
<asrwt>0</asrwt>
<pdfrwt beam="1">  1        1 0.38256701E+00 0.17785744E+04</pdfrwt>
<pdfrwt beam="2">  1       -1 0.48927143E-01 0.17785744E+04</pdfrwt>
<totfact> 0.54785722E+00</totfact>
</mgrwt>
</event>
<event>
12    1  0.1562393E-007  0.1552255E+04  0.7818608E-02  0.8850429E-01
         -1   -1    0    0    0  501 -0.00000000000E+00  0.00000000000E+00  0.53741206041E+03  0.53741206041E+03  0.00000000000E+00 0.  1.
          1   -1    0    0  501    0  0.00000000000E+00 -0.00000000000E+00 -0.11208785716E+04  0.11208785716E+04  0.00000000000E+00 0. -1.
         23    2    1    2    0    0 -0.65192392156E+02  0.19017577028E+03  0.30780248038E+03  0.37830265145E+03  0.89183280764E+02 0.  0.
        254    2    1    2    0    0  0.65192392156E+02 -0.19017577028E+03 -0.89126899161E+03  0.12799879806E+04  0.89643289960E+03 0.  0.
        -24    2    4    4    0    0  0.36877112706E+03 -0.39316300346E+03 -0.52549904123E+03  0.75702853199E+03  0.79835233328E+02 0.  0.
         24    2    4    4    0    0 -0.30357873490E+03  0.20298723318E+03 -0.36576995038E+03  0.52295944861E+03  0.79593110074E+02 0.  0.
         13    1    3    3    0    0 -0.43287369948E+02  0.19090079230E+02  0.71930493936E+02  0.86094270889E+02  0.00000000000E+00 0. -1.
        -13    1    3    3    0    0 -0.21905022208E+02  0.17108569105E+03  0.23587198645E+03  0.29220838056E+03  0.00000000000E+00 0.  1.
          2    1    6    6  502    0 -0.50691259979E+02  0.57685016337E+02 -0.43302172473E+02  0.88160326049E+02  0.00000000000E+00 0. -1.
          3    1    5    5  503    0  0.37434998625E+02 -0.80225446579E+02 -0.99429132233E+02  0.13313021347E+03  0.00000000000E+00 0. -1.
         -4    1    5    5    0  503  0.33133612843E+03 -0.31293755688E+03 -0.42606990899E+03  0.62389831853E+03  0.00000000000E+00 0.  1.
         -1    1    6    6    0  502 -0.25288747492E+03  0.14530221684E+03 -0.32246777791E+03  0.43479912256E+03  0.00000000000E+00 0.  1.
<mgrwt>
<rscale>  0 0.15522547E+04</rscale>
<asrwt>0</asrwt>
<pdfrwt beam="1">  1        1 0.17244286E+00 0.15522547E+04</pdfrwt>
<pdfrwt beam="2">  1       -1 0.82678778E-01 0.15522547E+04</pdfrwt>
<totfact> 0.17125225E+01</totfact>
</mgrwt>
</event>
<event>
12    1  0.1562393E-007  0.2505312E+04  0.7818608E-02  0.8401096E-01
          2   -1    0    0  501    0  0.00000000000E+00  0.00000000000E+00  0.14851304854E+04  0.14851304854E+04  0.00000000000E+00 0. -1.
         -2   -1    0    0    0  501 -0.00000000000E+00 -0.00000000000E+00 -0.10565715355E+04  0.10565715355E+04  0.00000000000E+00 0.  1.
         23    2    1    2    0    0 -0.59138861338E+03  0.95697006460E+03  0.34720413817E+03  0.11808649624E+04  0.91428383521E+02 0.  0.
        254    2    1    2    0    0  0.59138861338E+03 -0.95697006460E+03  0.81354811728E+02  0.13608370585E+04  0.76139785776E+03 0.  0.
        -24    2    4    4    0    0  0.13780216740E+03 -0.54099320400E+03 -0.29423718779E+03  0.63579008585E+03  0.77397845409E+02 0.  0.
         24    2    4    4    0    0  0.45358644598E+03 -0.41597686060E+03  0.37559199952E+03  0.72504697264E+03  0.76461427536E+02 0.  0.
         13    1    3    3    0    0 -0.49372384045E+03  0.76735910559E+03  0.31413752573E+03  0.96503140500E+03  0.00000000000E+00 0. -1.
        -13    1    3    3    0    0 -0.97664772929E+02  0.18961095900E+03  0.33066612445E+02  0.21583355741E+03  0.00000000000E+00 0.  1.
          4    1    6    6  502    0  0.36039034454E+03 -0.34154355538E+03  0.26705699384E+03  0.56378421282E+03  0.00000000000E+00 0. -1.
          1    1    5    5  503    0  0.54837078427E+02 -0.36377282876E+03 -0.18820798369E+03  0.41323119587E+03  0.00000000000E+00 0. -1.
         -2    1    5    5    0  503  0.82965088969E+02 -0.17722037524E+03 -0.10602920410E+03  0.22255888998E+03  0.00000000000E+00 0.  1.
         -3    1    6    6    0  502  0.93196101441E+02 -0.74433305221E+02  0.10853500567E+03  0.16126275982E+03  0.00000000000E+00 0.  1.
<mgrwt>
<rscale>  0 0.25053116E+04</rscale>
<asrwt>0</asrwt>
<pdfrwt beam="1">  1        2 0.22848161E+00 0.25053116E+04</pdfrwt>
<pdfrwt beam="2">  1       -2 0.16254947E+00 0.25053116E+04</pdfrwt>
<totfact> 0.27837848E+00</totfact>
</mgrwt>
</event>
<event>
12    1  0.1562393E-007  0.2591345E+04  0.7818608E-02  0.8371147E-01
          1   -1    0    0  501    0  0.00000000000E+00  0.00000000000E+00  0.31767522803E+04  0.31767522803E+04  0.00000000000E+00 0. -1.
         -1   -1    0    0    0  501 -0.00000000000E+00 -0.00000000000E+00 -0.52845390175E+03  0.52845390175E+03  0.00000000000E+00 0.  1.
         23    2    1    2    0    0  0.50414065847E+03 -0.50504308996E+03  0.24280599688E+04  0.25324125607E+04  0.91716080718E+02 0.  0.
        254    2    1    2    0    0 -0.50414065847E+03  0.50504308996E+03  0.22023840975E+03  0.11727936213E+04  0.90427517648E+03 0.  0.
        -24    2    4    4    0    0 -0.25597692228E+02  0.43251672519E+03 -0.23860086286E+03  0.50106197040E+03  0.80042282624E+02 0.  0.
         24    2    4    4    0    0 -0.47854296624E+03  0.72526364771E+02  0.45883927262E+03  0.67173165090E+03  0.80165382838E+02 0.  0.
         11    1    3    3    0    0  0.37877037279E+03 -0.40989628417E+03  0.19968983518E+04  0.20734234943E+04  0.00000000000E+00 0. -1.
        -11    1    3    3    0    0  0.12537028568E+03 -0.95146805792E+02  0.43116161696E+03  0.45898906645E+03  0.00000000000E+00 0.  1.
          4    1    6    6  502    0 -0.28332884652E+03  0.47682809013E+02  0.21763569375E+03  0.36043609799E+03  0.00000000000E+00 0. -1.
          3    1    5    5  503    0  0.27170481525E+02  0.10891444691E+03 -0.50824795512E+02  0.12322236668E+03  0.00000000000E+00 0. -1.
         -4    1    5    5    0  503 -0.52768173753E+02  0.32360227828E+03 -0.18777606735E+03  0.37783960372E+03  0.00000000000E+00 0.  1.
         -3    1    6    6    0  502 -0.19521411972E+03  0.24843555758E+02  0.24120357887E+03  0.31129555291E+03  0.00000000000E+00 0.  1.
<mgrwt>
<rscale>  0 0.25913449E+04</rscale>
<asrwt>0</asrwt>
<pdfrwt beam="1">  1        1 0.48873111E+00 0.25913449E+04</pdfrwt>
<pdfrwt beam="2">  1       -1 0.81300602E-01 0.25913449E+04</pdfrwt>
<totfact> 0.58770590E-01</totfact>
</mgrwt>
</event>
<event>
12    1  0.1562393E-007  0.1217603E+04  0.7818608E-02  0.9097587E-01
         -1   -1    0    0    0  501 -0.00000000000E+00  0.00000000000E+00  0.51875050345E+03  0.51875050345E+03  0.00000000000E+00 0.  1.
          1   -1    0    0  501    0  0.00000000000E+00 -0.00000000000E+00 -0.71448438720E+03  0.71448438720E+03  0.00000000000E+00 0. -1.
         23    2    1    2    0    0 -0.21331387324E+03 -0.14449402615E+03 -0.10023729137E+03  0.29085363235E+03  0.90371393493E+02 0.  0.
        254    2    1    2    0    0  0.21331387324E+03  0.14449402615E+03 -0.95496592376E+02  0.94238125830E+03  0.90143302842E+03 0.  0.
        -24    2    4    4    0    0  0.33706221624E+03 -0.20231227352E+03  0.21279700035E+03  0.45547362583E+03  0.87363990514E+02 0.  0.
         24    2    4    4    0    0 -0.12374834300E+03  0.34680629966E+03 -0.30829359272E+03  0.48690763247E+03  0.80285997316E+02 0.  0.
         13    1    3    3    0    0 -0.20583568125E+03 -0.13141408681E+03 -0.11484734191E+03  0.26986645185E+03  0.00000000000E+00 0. -1.
        -13    1    3    3    0    0 -0.74781919845E+01 -0.13079939337E+02  0.14610050545E+02  0.20987180500E+02  0.00000000000E+00 0.  1.
          2    1    6    6  502    0 -0.12284983598E+03  0.32218393625E+03 -0.25715602233E+03  0.43014391870E+03  0.00000000000E+00 0. -1.
          1    1    5    5  503    0  0.25167036849E+03 -0.15178458645E+03  0.11336608795E+03  0.31500540464E+03  0.00000000000E+00 0. -1.
         -2    1    5    5    0  503  0.85391847751E+02 -0.50527687073E+02  0.99430912399E+02  0.14046822119E+03  0.00000000000E+00 0.  1.
         -1    1    6    6    0  502 -0.89850701335E+00  0.24622363414E+02 -0.51137570393E+02  0.56763713768E+02  0.00000000000E+00 0.  1.
<mgrwt>
<rscale>  0 0.12176028E+04</rscale>
<asrwt>0</asrwt>
<pdfrwt beam="1">  1        1 0.10992067E+00 0.12176028E+04</pdfrwt>
<pdfrwt beam="2">  1       -1 0.79807770E-01 0.12176028E+04</pdfrwt>
<totfact> 0.40941964E+01</totfact>
</mgrwt>
</event>
<event>
12    1  0.1562393E-007  0.1653893E+04  0.7818608E-02  0.8788107E-01
         -1   -1    0    0    0  501 -0.00000000000E+00  0.00000000000E+00  0.41516793699E+03  0.41516793699E+03  0.00000000000E+00 0.  1.
          1   -1    0    0  501    0  0.00000000000E+00 -0.00000000000E+00 -0.16471424754E+04  0.16471424754E+04  0.00000000000E+00 0. -1.
         23    2    1    2    0    0 -0.26544357960E+03  0.69985884400E+02 -0.10621634950E+04  0.11008460524E+04  0.91172490635E+02 0.  0.
        254    2    1    2    0    0  0.26544357960E+03 -0.69985884400E+02 -0.16981104347E+03  0.96146436003E+03  0.90565976347E+03 0.  0.
        -24    2    4    4    0    0  0.43047161357E+03 -0.38085203465E+03 -0.15198986831E+03  0.59990297320E+03  0.80178393625E+02 0.  0.
         24    2    4    4    0    0 -0.16502803397E+03  0.31086615025E+03 -0.17821175155E+02  0.36156138683E+03  0.80851881835E+02 0.  0.
         13    1    3    3    0    0 -0.18153302541E+03  0.33319228076E+02 -0.84927241302E+03  0.86909610619E+03  0.00000000000E+00 0. -1.
        -13    1    3    3    0    0 -0.83910554194E+02  0.36666656324E+02 -0.21289108195E+03  0.23174994621E+03  0.00000000000E+00 0.  1.
          4    1    6    6  502    0 -0.81720248541E+02  0.75258843479E+02 -0.98773498269E+01  0.11153319947E+03  0.00000000000E+00 0. -1.
          3    1    5    5  503    0  0.19682738601E+02 -0.24082362135E+02 -0.28036528042E+02  0.41873825590E+02  0.00000000000E+00 0. -1.
         -4    1    5    5    0  503  0.41078887497E+03 -0.35676967251E+03 -0.12395334027E+03  0.55802914761E+03  0.00000000000E+00 0.  1.
         -3    1    6    6    0  502 -0.83307785431E+02  0.23560730677E+03 -0.79438253276E+01  0.25002818736E+03  0.00000000000E+00 0.  1.
<mgrwt>
<rscale>  0 0.16538933E+04</rscale>
<asrwt>0</asrwt>
<pdfrwt beam="1">  1        1 0.25340653E+00 0.16538933E+04</pdfrwt>
<pdfrwt beam="2">  1       -1 0.63871991E-01 0.16538933E+04</pdfrwt>
<totfact> 0.12299750E+01</totfact>
</mgrwt>
</event>
<event>
12    1  0.1562393E-007  0.1432985E+04  0.7818608E-02  0.8930283E-01
          2   -1    0    0  501    0  0.00000000000E+00  0.00000000000E+00  0.16412094084E+04  0.16412094084E+04  0.00000000000E+00 0. -1.
         -2   -1    0    0    0  501 -0.00000000000E+00 -0.00000000000E+00 -0.31279448370E+03  0.31279448370E+03  0.00000000000E+00 0.  1.
         23    2    1    2    0    0 -0.20890673719E+03  0.13356313675E+03  0.88134913878E+03  0.92017789559E+03  0.92032161503E+02 0.  0.
        254    2    1    2    0    0  0.20890673719E+03 -0.13356313675E+03  0.44706578593E+03  0.10338259965E+04  0.89858067964E+03 0.  0.
        -24    2    4    4    0    0 -0.26361836761E+02 -0.48042906868E+03  0.13778730816E+03  0.50696072412E+03  0.80726681117E+02 0.  0.
         24    2    4    4    0    0  0.23526857395E+03  0.34686593193E+03  0.30927847777E+03  0.52686527241E+03  0.79161618454E+02 0.  0.
         13    1    3    3    0    0 -0.13877030379E+01 -0.42585340078E+01  0.99497384914E+02  0.99598144744E+02  0.00000000000E+00 0.  1.
        -13    1    3    3    0    0 -0.20751903415E+03  0.13782167075E+03  0.78185175387E+03  0.82057975084E+03  0.00000000000E+00 0. -1.
          4    1    6    6  502    0  0.18637811614E+03  0.20785816866E+03  0.20174276760E+03  0.34444442909E+03  0.00000000000E+00 0. -1.
          3    1    5    5  503    0 -0.72908027484E+01 -0.39576506424E+03  0.83342204540E+02  0.40451089595E+03  0.00000000000E+00 0. -1.
         -4    1    5    5    0  503 -0.19071034012E+02 -0.84664004435E+02  0.54445103624E+02  0.10244982818E+03  0.00000000000E+00 0.  1.
         -3    1    6    6    0  502  0.48890457812E+02  0.13900776327E+03  0.10753571017E+03  0.18242084332E+03  0.00000000000E+00 0.  1.
<mgrwt>
<rscale>  0 0.14329846E+04</rscale>
<asrwt>0</asrwt>
<pdfrwt beam="1">  1        2 0.25249375E+00 0.14329846E+04</pdfrwt>
<pdfrwt beam="2">  1       -2 0.48122229E-01 0.14329846E+04</pdfrwt>
<totfact> 0.42001842E+01</totfact>
</mgrwt>
</event>
<event>
12    1  0.1562393E-007  0.1062585E+04  0.7818608E-02  0.9242446E-01
          1   -1    0    0  501    0  0.00000000000E+00  0.00000000000E+00  0.38744831136E+03  0.38744831136E+03  0.00000000000E+00 0. -1.
         -1   -1    0    0    0  501 -0.00000000000E+00 -0.00000000000E+00 -0.72854078089E+03  0.72854078089E+03  0.00000000000E+00 0.  1.
         23    2    1    2    0    0  0.22539100929E+00 -0.72862129750E+02  0.47804324391E+02  0.13183528000E+03  0.98925966602E+02 0.  0.
        254    2    1    2    0    0 -0.22539100929E+00  0.72862129750E+02 -0.38889679392E+03  0.98415381225E+03  0.90111545825E+03 0.  0.
        -24    2    4    4    0    0 -0.10326144584E+03  0.24591541717E+03  0.20925949135E+03  0.34797290154E+03  0.78474753181E+02 0.  0.
         24    2    4    4    0    0  0.10303605483E+03 -0.17305328742E+03 -0.59815628527E+03  0.63618091071E+03  0.79820678207E+02 0.  0.
         11    1    3    3    0    0 -0.30167785154E+02  0.11246615031E+02  0.46291897568E+01  0.32527081157E+02  0.00000000000E+00 0.  1.
        -11    1    3    3    0    0  0.30393176164E+02 -0.84108744781E+02  0.43175134634E+02  0.99308198839E+02  0.00000000000E+00 0. -1.
          4    1    6    6  502    0  0.92322830668E+02 -0.12801552870E+03 -0.53551004861E+03  0.55828531488E+03  0.00000000000E+00 0. -1.
          1    1    5    5  503    0 -0.10221496084E+03  0.17738714404E+03  0.12707384144E+03  0.24096028359E+03  0.00000000000E+00 0. -1.
         -2    1    5    5    0  503 -0.10464849972E+01  0.68528273130E+02  0.82185649902E+02  0.10701261794E+03  0.00000000000E+00 0.  1.
         -3    1    6    6    0  502  0.10713224162E+02 -0.45037758723E+02 -0.62646236662E+02  0.77895595836E+02  0.00000000000E+00 0.  1.
<mgrwt>
<rscale>  0 0.10625853E+04</rscale>
<asrwt>0</asrwt>
<pdfrwt beam="1">  1        1 0.59607433E-01 0.10625853E+04</pdfrwt>
<pdfrwt beam="2">  1       -1 0.11208320E+00 0.10625853E+04</pdfrwt>
<totfact> 0.45662778E+01</totfact>
</mgrwt>
</event>
<event>
12    1  0.1562393E-007  0.1507611E+04  0.7818608E-02  0.8879407E-01
          2   -1    0    0  501    0  0.00000000000E+00  0.00000000000E+00  0.78164424285E+03  0.78164424285E+03  0.00000000000E+00 0. -1.
         -2   -1    0    0    0  501 -0.00000000000E+00 -0.00000000000E+00 -0.72695848985E+03  0.72695848985E+03  0.00000000000E+00 0.  1.
         23    2    1    2    0    0  0.38082578536E+03  0.22086297762E+03  0.20402574850E+03  0.49254308790E+03  0.84637188683E+02 0.  0.
        254    2    1    2    0    0 -0.38082578536E+03 -0.22086297762E+03 -0.14933999550E+03  0.10160596448E+04  0.90347442348E+03 0.  0.
        -24    2    4    4    0    0  0.18774888186E+03  0.19530534683E+03  0.31640926283E+02  0.28420437517E+03  0.79857106833E+02 0.  0.
         24    2    4    4    0    0 -0.56857466722E+03 -0.41616832445E+03 -0.18098092178E+03  0.73185526964E+03  0.79905038475E+02 0.  0.
         13    1    3    3    0    0  0.34497415177E+03  0.21067565136E+03  0.20881258521E+03  0.45496603303E+03  0.00000000000E+00 0. -1.
        -13    1    3    3    0    0  0.35851633586E+02  0.10187326255E+02 -0.47868367063E+01  0.37577054870E+02  0.00000000000E+00 0.  1.
          4    1    6    6  502    0 -0.26344180482E+03 -0.14512429585E+03 -0.85880037727E+02  0.31279070742E+03  0.00000000000E+00 0. -1.
          1    1    5    5  503    0  0.15905680403E+03  0.16176713901E+03  0.56162441086E+02  0.23371327297E+03  0.00000000000E+00 0. -1.
         -2    1    5    5    0  503  0.28692077835E+02  0.33538207813E+02 -0.24521514803E+02  0.50491102206E+02  0.00000000000E+00 0.  1.
         -3    1    6    6    0  502 -0.30513286240E+03 -0.27104402860E+03 -0.95100884055E+02  0.41906456221E+03  0.00000000000E+00 0.  1.
<mgrwt>
<rscale>  0 0.15076112E+04</rscale>
<asrwt>0</asrwt>
<pdfrwt beam="1">  1        2 0.12025296E+00 0.15076112E+04</pdfrwt>
<pdfrwt beam="2">  1       -2 0.11183977E+00 0.15076112E+04</pdfrwt>
<totfact> 0.21649665E+01</totfact>
</mgrwt>
</event>
<event>
12    1  0.1562393E-007  0.1256828E+04  0.7818608E-02  0.9064520E-01
         -1   -1    0    0    0  501 -0.00000000000E+00  0.00000000000E+00  0.10012320204E+04  0.10012320204E+04  0.00000000000E+00 0.  1.
          1   -1    0    0  501    0  0.00000000000E+00 -0.00000000000E+00 -0.39441802963E+03  0.39441802963E+03  0.00000000000E+00 0. -1.
         23    2    1    2    0    0  0.26710089544E+02  0.16948752854E+03  0.11774777988E+03  0.22761135960E+03  0.92211388332E+02 0.  0.
        254    2    1    2    0    0 -0.26710089544E+02 -0.16948752854E+03  0.48906621089E+03  0.11680386904E+04  0.10467517244E+04 0.  0.
        -24    2    4    4    0    0 -0.32735279500E+03 -0.33671013733E+03  0.62816658034E+03  0.78846588866E+03  0.80942176560E+02 0.  0.
         24    2    4    4    0    0  0.30064270546E+03  0.16722260879E+03 -0.13910036945E+03  0.37957280177E+03  0.79857133848E+02 0.  0.
         11    1    3    3    0    0  0.12004482085E+01  0.12963730105E+03  0.12458778271E+03  0.17980374440E+03  0.00000000000E+00 0.  1.
        -11    1    3    3    0    0  0.25509641335E+02  0.39850227489E+02 -0.68400028354E+01  0.47807615196E+02  0.00000000000E+00 0. -1.
          2    1    6    6  502    0  0.25977951337E+03  0.15652804955E+03 -0.14628279937E+03  0.33672701593E+03  0.00000000000E+00 0. -1.
          1    1    5    5  503    0 -0.19463677878E+03 -0.21520695594E+03  0.44855852005E+03  0.53423052650E+03  0.00000000000E+00 0. -1.
         -2    1    5    5    0  503 -0.13271601622E+03 -0.12150318139E+03  0.17960806029E+03  0.25423536216E+03  0.00000000000E+00 0.  1.
         -1    1    6    6    0  502  0.40863192082E+02  0.10694559241E+02  0.71824299230E+01  0.42845785839E+02  0.00000000000E+00 0.  1.
<mgrwt>
<rscale>  0 0.12568277E+04</rscale>
<asrwt>0</asrwt>
<pdfrwt beam="1">  1        1 0.60679697E-01 0.12568277E+04</pdfrwt>
<pdfrwt beam="2">  1       -1 0.15403569E+00 0.12568277E+04</pdfrwt>
<totfact> 0.19561011E+01</totfact>
</mgrwt>
</event>
<event>
12    1  0.1562393E-007  0.2142942E+04  0.7818608E-02  0.8542559E-01
         -2   -1    0    0    0  501 -0.00000000000E+00  0.00000000000E+00  0.13397785360E+04  0.13397785360E+04  0.00000000000E+00 0.  1.
          2   -1    0    0  501    0  0.00000000000E+00 -0.00000000000E+00 -0.85689553784E+03  0.85689553784E+03  0.00000000000E+00 0. -1.
         23    2    1    2    0    0  0.21621840348E+03  0.42427205553E+03  0.95759432967E+03  0.10733833331E+04  0.91693535841E+02 0.  0.
        254    2    1    2    0    0 -0.21621840348E+03 -0.42427205553E+03 -0.47471133149E+03  0.11232907407E+04  0.89981890671E+03 0.  0.
        -24    2    4    4    0    0  0.20756921725E+03 -0.31967514966E+03 -0.54919261590E+03  0.67332632423E+03  0.80489926526E+02 0.  0.
         24    2    4    4    0    0 -0.42378762073E+03 -0.10459690587E+03  0.74481284409E+02  0.44996441651E+03  0.79900276573E+02 0.  0.
         13    1    3    3    0    0  0.72250833098E+01  0.71776845540E+02  0.19029869388E+03  0.20351341548E+03  0.00000000000E+00 0. -1.
        -13    1    3    3    0    0  0.20899332017E+03  0.35249520999E+03  0.76729563578E+03  0.86986991765E+03  0.00000000000E+00 0.  1.
          4    1    6    6  502    0 -0.13822731974E+03 -0.65815884806E+02  0.48588955770E+02  0.16062194507E+03  0.00000000000E+00 0. -1.
          1    1    5    5  503    0 -0.60697552492E+01 -0.25269141965E+01 -0.52090013273E+01  0.83881415682E+01  0.00000000000E+00 0. -1.
         -2    1    5    5    0  503  0.21363897250E+03 -0.31714823547E+03 -0.54398361457E+03  0.66493818266E+03  0.00000000000E+00 0.  1.
         -3    1    6    6    0  502 -0.28556030099E+03 -0.38781021059E+02  0.25892328640E+02  0.28934247144E+03  0.00000000000E+00 0.  1.
<mgrwt>
<rscale>  0 0.21429421E+04</rscale>
<asrwt>0</asrwt>
<pdfrwt beam="1">  1        2 0.13183008E+00 0.21429421E+04</pdfrwt>
<pdfrwt beam="2">  1       -2 0.20611978E+00 0.21429421E+04</pdfrwt>
<totfact> 0.34954757E+00</totfact>
</mgrwt>
</event>
<event>
12    1  0.1892247E-007  0.1856183E+04  0.7818608E-02  0.8676980E-01
         -3   -1    0    0    0  501 -0.00000000000E+00  0.00000000000E+00  0.93336735785E+03  0.93336735785E+03  0.00000000000E+00 0.  1.
          3   -1    0    0  501    0  0.00000000000E+00 -0.00000000000E+00 -0.92284550455E+03  0.92284550455E+03  0.00000000000E+00 0. -1.
         23    2    1    2    0    0  0.37523584687E+03 -0.30550137299E+03  0.51214321715E+03  0.71047975269E+03  0.91420864354E+02 0.  0.
        254    2    1    2    0    0 -0.37523584687E+03  0.30550137299E+03 -0.50162136385E+03  0.11457331097E+04  0.90936644778E+03 0.  0.
        -24    2    4    4    0    0 -0.17603193018E+03  0.26085405654E+03  0.21970222364E+03  0.39196612488E+03  0.79600858819E+02 0.  0.
         24    2    4    4    0    0 -0.19920391669E+03  0.44647316442E+02 -0.72132358749E+03  0.75376698483E+03  0.78621665306E+02 0.  0.
         13    1    3    3    0    0  0.53196756793E+02 -0.91264336258E+02  0.11140317899E+03  0.15352440293E+03  0.00000000000E+00 0. -1.
        -13    1    3    3    0    0  0.32203909007E+03 -0.21423703673E+03  0.40074003815E+03  0.55695534976E+03  0.00000000000E+00 0.  1.
          2    1    6    6  502    0 -0.12150660616E+02 -0.89935755333E+01 -0.15665353092E+02  0.21769847077E+02  0.00000000000E+00 0. -1.
          1    1    5    5  503    0 -0.27458369154E+02  0.45342997758E+01  0.25313381376E+02  0.37620329448E+02  0.00000000000E+00 0. -1.
         -2    1    5    5    0  503 -0.14857356102E+03  0.25631975677E+03  0.19438884227E+03  0.35434579543E+03  0.00000000000E+00 0.  1.
         -1    1    6    6    0  502 -0.18705325607E+03  0.53640891976E+02 -0.70565823440E+03  0.73199713775E+03  0.00000000000E+00 0.  1.
<mgrwt>
<rscale>  0 0.18561830E+04</rscale>
<asrwt>0</asrwt>
<pdfrwt beam="1">  1        3 0.14197623E+00 0.18561830E+04</pdfrwt>
<pdfrwt beam="2">  1       -3 0.14359498E+00 0.18561830E+04</pdfrwt>
<totfact> 0.33061716E-01</totfact>
</mgrwt>
</event>
<event>
12    1  0.1562393E-007  0.1492605E+04  0.7818608E-02  0.8889385E-01
          1   -1    0    0  501    0  0.00000000000E+00  0.00000000000E+00  0.10335811205E+04  0.10335811205E+04  0.00000000000E+00 0. -1.
         -1   -1    0    0    0  501 -0.00000000000E+00 -0.00000000000E+00 -0.53887162501E+03  0.53887162501E+03  0.00000000000E+00 0.  1.
         23    2    1    2    0    0  0.16610271668E+03  0.28978762892E+03  0.50674977184E+03  0.61381024001E+03  0.91655316908E+02 0.  0.
        254    2    1    2    0    0 -0.16610271668E+03 -0.28978762892E+03 -0.12040276361E+02  0.95864250549E+03  0.89848956740E+03 0.  0.
        -24    2    4    4    0    0  0.33576798266E+03  0.45089988665E+02 -0.30877536209E+02  0.34938661014E+03  0.79651339238E+02 0.  0.
         24    2    4    4    0    0 -0.50187069934E+03 -0.33487761758E+03  0.18837259848E+02  0.60925589536E+03  0.82587444893E+02 0.  0.
         13    1    3    3    0    0  0.61663215737E+02  0.86666980573E+02  0.93381129972E+02  0.14153993476E+03  0.00000000000E+00 0.  1.
        -13    1    3    3    0    0  0.10443950094E+03  0.20312064834E+03  0.41336864187E+03  0.47227030525E+03  0.00000000000E+00 0. -1.
          2    1    6    6  502    0 -0.66596942224E+02 -0.25688097809E+02 -0.19424417403E+02  0.73975259878E+02  0.00000000000E+00 0. -1.
          1    1    5    5  503    0  0.17944280611E+03 -0.12233143631E+02  0.98299253343E+00  0.17986199360E+03  0.00000000000E+00 0. -1.
         -2    1    5    5    0  503  0.15632517655E+03  0.57323132295E+02 -0.31860528742E+02  0.16952461654E+03  0.00000000000E+00 0.  1.
         -1    1    6    6    0  502 -0.43527375712E+03 -0.30918951977E+03  0.38261677251E+02  0.53528063548E+03  0.00000000000E+00 0.  1.
<mgrwt>
<rscale>  0 0.14926052E+04</rscale>
<asrwt>0</asrwt>
<pdfrwt beam="1">  1        1 0.15901248E+00 0.14926052E+04</pdfrwt>
<pdfrwt beam="2">  1       -1 0.82903327E-01 0.14926052E+04</pdfrwt>
<totfact> 0.19933892E+01</totfact>
</mgrwt>
</event>
<event>
12    1  0.1562393E-007  0.1454340E+04  0.7818608E-02  0.8915397E-01
         -2   -1    0    0    0  501 -0.00000000000E+00  0.00000000000E+00  0.21214469088E+03  0.21214469088E+03  0.00000000000E+00 0. -1.
          2   -1    0    0  501    0  0.00000000000E+00 -0.00000000000E+00 -0.24925248813E+04  0.24925248813E+04  0.00000000000E+00 0.  1.
         23    2    1    2    0    0  0.55225017772E+02 -0.15553337182E+03  0.45750066688E+02  0.20335933135E+03  0.10964267740E+03 0.  0.
        254    2    1    2    0    0 -0.55225017772E+02  0.15553337182E+03 -0.23261302571E+04  0.25013102408E+04  0.90467149590E+03 0.  0.
        -24    2    4    4    0    0 -0.26760610352E+03  0.36591056203E+03 -0.64639401717E+03  0.79331594065E+03  0.77597617315E+02 0.  0.
         24    2    4    4    0    0  0.21238108575E+03 -0.21037719020E+03 -0.16797362399E+04  0.17079943002E+04  0.79789760763E+02 0.  0.
         13    1    3    3    0    0  0.67965182168E+02 -0.16218052284E+03  0.57275291314E+02  0.18493849510E+03  0.00000000000E+00 0. -1.
        -13    1    3    3    0    0 -0.12740164396E+02  0.66471510162E+01 -0.11525224627E+02  0.18420836251E+02  0.00000000000E+00 0.  1.
          2    1    6    6  502    0  0.17978896526E+03 -0.14462942779E+03 -0.11244732165E+04  0.11479032007E+04  0.00000000000E+00 0. -1.
          3    1    5    5  503    0 -0.23852448703E+03  0.32380049652E+03 -0.60950296867E+03  0.73022911561E+03  0.00000000000E+00 0. -1.
         -4    1    5    5    0  503 -0.29081616486E+02  0.42110065512E+02 -0.36891048495E+02  0.63086825043E+02  0.00000000000E+00 0.  1.
         -1    1    6    6    0  502  0.32592120490E+02 -0.65747762409E+02 -0.55526302342E+03  0.56009109952E+03  0.00000000000E+00 0.  1.
<mgrwt>
<rscale>  0 0.14543396E+04</rscale>
<asrwt>0</asrwt>
<pdfrwt beam="1">  1        2 0.38346539E+00 0.14543396E+04</pdfrwt>
<pdfrwt beam="2">  1       -2 0.32637643E-01 0.14543396E+04</pdfrwt>
<totfact> 0.29924040E+01</totfact>
</mgrwt>
</event>
<event>
12    1  0.1562393E-007  0.1311047E+04  0.7818608E-02  0.9020850E-01
          1   -1    0    0  501    0  0.00000000000E+00  0.00000000000E+00  0.97530483159E+03  0.97530483159E+03  0.00000000000E+00 0. -1.
         -1   -1    0    0    0  501 -0.00000000000E+00 -0.00000000000E+00 -0.44059164363E+03  0.44059164363E+03  0.00000000000E+00 0.  1.
         23    2    1    2    0    0 -0.25048255069E+03 -0.93747577902E+02  0.28911840283E+03  0.40413831576E+03  0.90599176861E+02 0.  0.
        254    2    1    2    0    0  0.25048255069E+03  0.93747577902E+02  0.24559478512E+03  0.10117581595E+04  0.94435568416E+03 0.  0.
        -24    2    4    4    0    0  0.55781656443E+03 -0.33448342409E+02  0.33742561393E+03  0.65758185891E+03  0.79244842516E+02 0.  0.
         24    2    4    4    0    0 -0.30733401375E+03  0.12719592031E+03 -0.91830828802E+02  0.35417630056E+03  0.79843300335E+02 0.  0.
         13    1    3    3    0    0 -0.54860804245E+02 -0.60171155444E+02  0.60885493855E+02  0.10167260768E+03  0.00000000000E+00 0.  1.
        -13    1    3    3    0    0 -0.19562174644E+03 -0.33576422459E+02  0.22823290898E+03  0.30246570808E+03  0.00000000000E+00 0. -1.
          4    1    6    6  502    0 -0.12893639636E+03  0.75463424021E+02 -0.76376032529E+02  0.16778742806E+03  0.00000000000E+00 0. -1.
          3    1    5    5  503    0  0.11686485498E+03  0.79450162432E+01  0.10549653889E+03  0.15763894611E+03  0.00000000000E+00 0. -1.
         -4    1    5    5    0  503  0.44095170945E+03 -0.41393358652E+02  0.23192907503E+03  0.49994291279E+03  0.00000000000E+00 0.  1.
         -3    1    6    6    0  502 -0.17839761739E+03  0.51732496290E+02 -0.15454796274E+02  0.18638887249E+03  0.00000000000E+00 0.  1.
<mgrwt>
<rscale>  0 0.13110472E+04</rscale>
<asrwt>0</asrwt>
<pdfrwt beam="1">  1        1 0.15004690E+00 0.13110472E+04</pdfrwt>
<pdfrwt beam="2">  1       -1 0.67783330E-01 0.13110472E+04</pdfrwt>
<totfact> 0.34240702E+01</totfact>
</mgrwt>
</event>
<event>
12    1  0.1562393E-007  0.1393766E+04  0.7818608E-02  0.8958343E-01
         -1   -1    0    0    0  501 -0.00000000000E+00  0.00000000000E+00  0.61411252534E+03  0.61411252534E+03  0.00000000000E+00 0.  1.
          1   -1    0    0  501    0  0.00000000000E+00 -0.00000000000E+00 -0.79080936403E+03  0.79080936403E+03  0.00000000000E+00 0. -1.
         23    2    1    2    0    0  0.42760120358E+02  0.37052514957E+03 -0.15793585699E+03  0.42416781502E+03  0.12592571628E+03 0.  0.
        254    2    1    2    0    0 -0.42760120358E+02 -0.37052514957E+03 -0.18760981697E+02  0.98075407435E+03  0.90686783247E+03 0.  0.
        -24    2    4    4    0    0 -0.20377257058E+03 -0.38822034701E+03  0.35224291422E+03  0.56813287336E+03  0.80384033352E+02 0.  0.
         24    2    4    4    0    0  0.16101245023E+03  0.17695197441E+02 -0.37100389592E+03  0.41262120099E+03  0.79838809989E+02 0.  0.
         13    1    3    3    0    0 -0.38864740142E+02  0.18888615297E+03 -0.97330801055E+02  0.21601326729E+03  0.00000000000E+00 0. -1.
        -13    1    3    3    0    0  0.81624860500E+02  0.18163899660E+03 -0.60605055933E+02  0.20815454773E+03  0.00000000000E+00 0.  1.
          4    1    6    6  502    0  0.72576270159E+02  0.35787655023E+00 -0.25837858698E+03  0.26837834725E+03  0.00000000000E+00 0. -1.
          1    1    5    5  503    0 -0.17838134525E+03 -0.30167134609E+03  0.31255185250E+03  0.46958935879E+03  0.00000000000E+00 0. -1.
         -2    1    5    5    0  503 -0.25391225335E+02 -0.86549000915E+02  0.39691061725E+02  0.98543514572E+02  0.00000000000E+00 0.  1.
         -3    1    6    6    0  502  0.88436180066E+02  0.17337320890E+02 -0.11262530894E+03  0.14424285374E+03  0.00000000000E+00 0.  1.
<mgrwt>
<rscale>  0 0.13937660E+04</rscale>
<asrwt>0</asrwt>
<pdfrwt beam="1">  1        1 0.12166298E+00 0.13937660E+04</pdfrwt>
<pdfrwt beam="2">  1       -1 0.94478851E-01 0.13937660E+04</pdfrwt>
<totfact> 0.23829593E+01</totfact>
</mgrwt>
</event>
<event>
12    1  0.1562393E-007  0.2237954E+04  0.7818608E-02  0.8502795E-01
         -1   -1    0    0    0  501 -0.00000000000E+00  0.00000000000E+00  0.99569525097E+03  0.99569525097E+03  0.00000000000E+00 0.  1.
          1   -1    0    0  501    0  0.00000000000E+00 -0.00000000000E+00 -0.12575228385E+04  0.12575228385E+04  0.00000000000E+00 0. -1.
         23    2    1    2    0    0  0.70571944688E+03 -0.28452174191E+03 -0.66577194770E+03  0.10149028375E+04  0.88220881024E+02 0.  0.
        254    2    1    2    0    0 -0.70571944688E+03  0.28452174191E+03  0.40394436013E+03  0.12383152520E+04  0.88952855942E+03 0.  0.
        -24    2    4    4    0    0  0.13378047043E+03 -0.83553777214E+02  0.24859290676E+03  0.30491364284E+03  0.79343861408E+02 0.  0.
         24    2    4    4    0    0 -0.83949991731E+03  0.36807551912E+03  0.15535145337E+03  0.93340160920E+03  0.82854034612E+02 0.  0.
         11    1    3    3    0    0  0.59360797827E+03 -0.24328385359E+03 -0.60075867236E+03  0.87890184190E+03  0.00000000000E+00 0. -1.
        -11    1    3    3    0    0  0.11211146861E+03 -0.41237888319E+02 -0.65013275348E+02  0.13600099558E+03  0.00000000000E+00 0.  1.
          4    1    6    6  502    0 -0.70570295259E+03  0.28194141916E+03  0.10938972607E+03  0.76777192792E+03  0.00000000000E+00 0. -1.
          1    1    5    5  503    0  0.11913064097E+03 -0.97005103197E+02  0.23522498221E+03  0.28094998117E+03  0.00000000000E+00 0. -1.
         -2    1    5    5    0  503  0.14649829461E+02  0.13451325983E+02  0.13367924558E+02  0.23963661676E+02  0.00000000000E+00 0.  1.
         -3    1    6    6    0  502 -0.13379696471E+03  0.86134099959E+02  0.45961727294E+02  0.16562968127E+03  0.00000000000E+00 0.  1.
<mgrwt>
<rscale>  0 0.22379540E+04</rscale>
<asrwt>0</asrwt>
<pdfrwt beam="1">  1        1 0.19346505E+00 0.22379540E+04</pdfrwt>
<pdfrwt beam="2">  1       -1 0.15318388E+00 0.22379540E+04</pdfrwt>
<totfact> 0.29066882E+00</totfact>
</mgrwt>
</event>
<event>
12    1  0.1562393E-007  0.1955722E+04  0.7818608E-02  0.8627606E-01
          2   -1    0    0  501    0  0.00000000000E+00  0.00000000000E+00  0.96764738483E+03  0.96764738483E+03  0.00000000000E+00 0. -1.
         -2   -1    0    0    0  501 -0.00000000000E+00 -0.00000000000E+00 -0.98818268462E+03  0.98818268462E+03  0.00000000000E+00 0.  1.
         23    2    1    2    0    0 -0.11709920316E+03  0.27616228968E+03  0.71351972828E+03  0.77943966593E+03  0.91858350466E+02 0.  0.
        254    2    1    2    0    0  0.11709920316E+03 -0.27616228968E+03 -0.73405502808E+03  0.11763904035E+04  0.86895325746E+03 0.  0.
        -24    2    4    4    0    0  0.37890076748E+03 -0.87908453654E+01 -0.68744002705E+03  0.78896440641E+03  0.79044121999E+02 0.  0.
         24    2    4    4    0    0 -0.26180156432E+03 -0.26737144431E+03 -0.46615001024E+02  0.38742599712E+03  0.88872923944E+02 0.  0.
         11    1    3    3    0    0  0.74139165485E+01  0.49619459583E+01  0.41158635536E+01  0.98248358293E+01  0.00000000000E+00 0.  1.
        -11    1    3    3    0    0 -0.12451311971E+03  0.27120034372E+03  0.70940386473E+03  0.76961483010E+03  0.00000000000E+00 0. -1.
          2    1    6    6  502    0 -0.10044958470E+03 -0.16448649097E+03 -0.33418363447E+02  0.19560856779E+03  0.00000000000E+00 0. -1.
          1    1    5    5  503    0  0.10878123798E+03  0.28007652171E+02 -0.16388253367E+03  0.19868384725E+03  0.00000000000E+00 0. -1.
         -2    1    5    5    0  503  0.27011952949E+03 -0.36798497537E+02 -0.52355749338E+03  0.59028055915E+03  0.00000000000E+00 0.  1.
         -1    1    6    6    0  502 -0.16135197962E+03 -0.10288495334E+03 -0.13196637578E+02  0.19181742933E+03  0.00000000000E+00 0.  1.
<mgrwt>
<rscale>  0 0.19557223E+04</rscale>
<asrwt>0</asrwt>
<pdfrwt beam="1">  1        2 0.14886883E+00 0.19557223E+04</pdfrwt>
<pdfrwt beam="2">  1       -2 0.15202811E+00 0.19557223E+04</pdfrwt>
<totfact> 0.71247091E+00</totfact>
</mgrwt>
</event>
<event>
12    1  0.1562393E-007  0.2166311E+04  0.7818608E-02  0.8532582E-01
          2   -1    0    0  501    0  0.00000000000E+00  0.00000000000E+00  0.89467869195E+03  0.89467869195E+03  0.00000000000E+00 0. -1.
         -2   -1    0    0    0  501 -0.00000000000E+00 -0.00000000000E+00 -0.13113376493E+04  0.13113376493E+04  0.00000000000E+00 0.  1.
         23    2    1    2    0    0 -0.24550612482E+02  0.71699900473E+02  0.72692623374E+03  0.73705649178E+03  0.95325308650E+02 0.  0.
        254    2    1    2    0    0  0.24550612482E+02 -0.71699900473E+02 -0.11435851911E+04  0.14689598495E+04  0.91886470266E+03 0.  0.
        -24    2    4    4    0    0  0.73451300960E+02 -0.41719684623E+03 -0.23156939577E+03  0.48913270675E+03  0.78601002810E+02 0.  0.
         24    2    4    4    0    0 -0.48900688478E+02  0.34549694576E+03 -0.91201579533E+03  0.97982714273E+03  0.80802239051E+02 0.  0.
         11    1    3    3    0    0  0.63637860650E+01  0.63921571358E+02  0.65785554204E+03  0.66098440167E+03  0.00000000000E+00 0. -1.
        -11    1    3    3    0    0 -0.30914398547E+02  0.77783291147E+01  0.69070691706E+02  0.76072090113E+02  0.00000000000E+00 0.  1.
          2    1    6    6  502    0 -0.25553897401E+01 -0.38083672584E+00  0.69718134464E+00  0.26760260019E+01  0.00000000000E+00 0. -1.
          3    1    5    5  503    0  0.48048292653E+02 -0.87937009445E+02 -0.62909418575E+02  0.11831800794E+03  0.00000000000E+00 0. -1.
         -4    1    5    5    0  503  0.25403008307E+02 -0.32925983678E+03 -0.16865997719E+03  0.37081469881E+03  0.00000000000E+00 0.  1.
         -1    1    6    6    0  502 -0.46345298738E+02  0.34587778248E+03 -0.91271297668E+03  0.97715111673E+03  0.00000000000E+00 0.  1.
<mgrwt>
<rscale>  0 0.21663110E+04</rscale>
<asrwt>0</asrwt>
<pdfrwt beam="1">  1        2 0.13764288E+00 0.21663110E+04</pdfrwt>
<pdfrwt beam="2">  1       -2 0.20174425E+00 0.21663110E+04</pdfrwt>
<totfact> 0.35092839E+00</totfact>
</mgrwt>
</event>
<event>
12    1  0.1562393E-007  0.1514839E+04  0.7818608E-02  0.8874644E-01
         -2   -1    0    0    0  501 -0.00000000000E+00  0.00000000000E+00  0.28401418534E+03  0.28401418534E+03  0.00000000000E+00 0.  1.
          2   -1    0    0  501    0  0.00000000000E+00 -0.00000000000E+00 -0.20199150539E+04  0.20199150539E+04  0.00000000000E+00 0. -1.
         23    2    1    2    0    0  0.12479476566E+03 -0.45498854395E+03 -0.72010073444E+03  0.86582003603E+03  0.92254855640E+02 0.  0.
        254    2    1    2    0    0 -0.12479476566E+03  0.45498854395E+03 -0.10158001341E+04  0.14381092032E+04  0.90206422123E+03 0.  0.
        -24    2    4    4    0    0  0.82606931419E+02  0.99708393521E+02  0.14148583494E+03  0.20776288237E+03  0.79884322265E+02 0.  0.
         24    2    4    4    0    0 -0.20740169708E+03  0.35528015042E+03 -0.11572859691E+04  0.12303463208E+04  0.72123545190E+02 0.  0.
         11    1    3    3    0    0  0.17987920342E+02 -0.31695175479E+02 -0.10803228752E+03  0.11401370345E+03  0.00000000000E+00 0.  1.
        -11    1    3    3    0    0  0.10680684532E+03 -0.42329336847E+03 -0.61206844692E+03  0.75180633258E+03  0.00000000000E+00 0. -1.
          2    1    6    6  502    0 -0.88153259377E+02  0.20695911322E+03 -0.69193685577E+03  0.72758482946E+03  0.00000000000E+00 0. -1.
          3    1    5    5  503    0  0.43147379513E+01  0.35758519266E+02  0.84174766252E+02  0.91556976453E+02  0.00000000000E+00 0. -1.
         -4    1    5    5    0  503  0.78292193468E+02  0.63949874255E+02  0.57311068690E+02  0.11620590592E+03  0.00000000000E+00 0.  1.
         -1    1    6    6    0  502 -0.11924843771E+03  0.14832103721E+03 -0.46534911330E+03  0.50276149139E+03  0.00000000000E+00 0.  1.
<mgrwt>
<rscale>  0 0.15148393E+04</rscale>
<asrwt>0</asrwt>
<pdfrwt beam="1">  1        2 0.31075616E+00 0.15148393E+04</pdfrwt>
<pdfrwt beam="2">  1       -2 0.43694490E-01 0.15148393E+04</pdfrwt>
<totfact> 0.31232152E+01</totfact>
</mgrwt>
</event>
<event>
12    1  0.1562393E-007  0.1192645E+04  0.7818608E-02  0.9119318E-01
          1   -1    0    0  501    0  0.00000000000E+00  0.00000000000E+00  0.54578915497E+03  0.54578915497E+03  0.00000000000E+00 0. -1.
         -1   -1    0    0    0  501 -0.00000000000E+00 -0.00000000000E+00 -0.65153499816E+03  0.65153499816E+03  0.00000000000E+00 0.  1.
         23    2    1    2    0    0  0.15811850757E+03  0.51904796068E+01 -0.19999623139E+03  0.27296933133E+03  0.97392811633E+02 0.  0.
        254    2    1    2    0    0 -0.15811850757E+03 -0.51904796068E+01  0.94250388204E+02  0.92435482180E+03  0.90582575443E+03 0.  0.
        -24    2    4    4    0    0  0.34243278949E+03  0.16020677613E+03  0.55107286908E+02  0.38986760568E+03  0.77675674783E+02 0.  0.
         24    2    4    4    0    0 -0.50055129707E+03 -0.16539725574E+03  0.39143101296E+02  0.53448721612E+03  0.78971821634E+02 0.  0.
         11    1    3    3    0    0  0.13872514361E+03 -0.48615150763E+01 -0.20769303788E+03  0.24980932285E+03  0.00000000000E+00 0.  1.
        -11    1    3    3    0    0  0.19393363960E+02  0.10051994683E+02  0.76968064814E+01  0.23160008480E+02  0.00000000000E+00 0. -1.
          4    1    6    6  502    0 -0.37820903681E+03 -0.12470490757E+03 -0.48166102908E+01  0.39826698235E+03  0.00000000000E+00 0. -1.
          3    1    5    5  503    0  0.22563185016E+03  0.67261624966E+02  0.18465346082E+02  0.23616694732E+03  0.00000000000E+00 0. -1.
         -4    1    5    5    0  503  0.11680093933E+03  0.92945151167E+02  0.36641940826E+02  0.15370065836E+03  0.00000000000E+00 0.  1.
         -3    1    6    6    0  502 -0.12234226025E+03 -0.40692348168E+02  0.43959711587E+02  0.13622023376E+03  0.00000000000E+00 0.  1.
<mgrwt>
<rscale>  0 0.11926454E+04</rscale>
<asrwt>0</asrwt>
<pdfrwt beam="1">  1        1 0.83967562E-01 0.11926454E+04</pdfrwt>
<pdfrwt beam="2">  1       -1 0.10023615E+00 0.11926454E+04</pdfrwt>
<totfact> 0.36832161E+01</totfact>
</mgrwt>
</event>
<event>
12    1  0.1562393E-007  0.1785159E+04  0.7818608E-02  0.8714232E-01
         -1   -1    0    0    0  501 -0.00000000000E+00  0.00000000000E+00  0.70593844780E+03  0.70593844780E+03  0.00000000000E+00 0.  1.
          1   -1    0    0  501    0  0.00000000000E+00 -0.00000000000E+00 -0.11285662428E+04  0.11285662428E+04  0.00000000000E+00 0. -1.
         23    2    1    2    0    0 -0.44444933880E+03 -0.55181613572E+01 -0.66576058260E+03  0.80556363284E+03  0.90166226223E+02 0.  0.
        254    2    1    2    0    0  0.44444933880E+03  0.55181613572E+01  0.24313278756E+03  0.10289410578E+04  0.89556712935E+03 0.  0.
        -24    2    4    4    0    0  0.67506810938E+03  0.83168618110E+02  0.12900282042E+02  0.68454563502E+03  0.76173077950E+02 0.  0.
         24    2    4    4    0    0 -0.23061877058E+03 -0.77650456753E+02  0.23023250551E+03  0.34439542278E+03  0.79916142678E+02 0.  0.
         11    1    3    3    0    0 -0.37172007361E+03 -0.11179202847E+02 -0.48903985234E+03  0.61437835645E+03  0.00000000000E+00 0. -1.
        -11    1    3    3    0    0 -0.72729265199E+02  0.56610414893E+01 -0.17672073025E+03  0.19118527639E+03  0.00000000000E+00 0.  1.
          2    1    6    6  502    0 -0.21935278412E+03 -0.61443067593E+02  0.23128574765E+03  0.32462900598E+03  0.00000000000E+00 0. -1.
          3    1    5    5  503    0  0.64349255761E+03  0.90520161568E+02  0.48120093508E+00  0.64982828724E+03  0.00000000000E+00 0. -1.
         -4    1    5    5    0  503  0.31575551772E+02 -0.73515434581E+01  0.12419081107E+02  0.34717347774E+02  0.00000000000E+00 0.  1.
         -1    1    6    6    0  502 -0.11265986455E+02 -0.16207389160E+02 -0.10532421349E+01  0.19766416801E+02  0.00000000000E+00 0.  1.
<mgrwt>
<rscale>  0 0.17851592E+04</rscale>
<asrwt>0</asrwt>
<pdfrwt beam="1">  1        1 0.17362557E+00 0.17851592E+04</pdfrwt>
<pdfrwt beam="2">  1       -1 0.10860592E+00 0.17851592E+04</pdfrwt>
<totfact> 0.89691606E+00</totfact>
</mgrwt>
</event>
<event>
12    1  0.1562393E-007  0.2636268E+04  0.7818608E-02  0.8355985E-01
          2   -1    0    0  501    0  0.00000000000E+00  0.00000000000E+00  0.31382873115E+04  0.31382873115E+04  0.00000000000E+00 0. -1.
         -2   -1    0    0    0  501 -0.00000000000E+00 -0.00000000000E+00 -0.55363875597E+03  0.55363875597E+03  0.00000000000E+00 0.  1.
         23    2    1    2    0    0 -0.36715440764E+02 -0.95141440017E+03  0.20282097159E+03  0.97750040215E+03  0.88505961661E+02 0.  0.
        254    2    1    2    0    0  0.36715440764E+02  0.95141440017E+03  0.23818275840E+04  0.27144256654E+04  0.88795645645E+03 0.  0.
        -24    2    4    4    0    0  0.13069457940E+03  0.36897403313E+03  0.19191993641E+04  0.19604210502E+04  0.81863206504E+02 0.  0.
         24    2    4    4    0    0 -0.93979138634E+02  0.58244036704E+03  0.46262821988E+03  0.75400461520E+03  0.80182480984E+02 0.  0.
         13    1    3    3    0    0 -0.59925654525E+02 -0.82928383791E+03  0.18662230643E+03  0.85213300203E+03  0.00000000000E+00 0.  1.
        -13    1    3    3    0    0  0.23210213760E+02 -0.12213056225E+03  0.16198665157E+02  0.12536740012E+03  0.00000000000E+00 0. -1.
          4    1    6    6  502    0 -0.18053922328E+02  0.88619395610E+02  0.11034520099E+03  0.14267236863E+03  0.00000000000E+00 0. -1.
          1    1    5    5  503    0  0.10576947382E+03  0.17730644829E+03  0.96293635677E+03  0.98482038229E+03  0.00000000000E+00 0. -1.
         -2    1    5    5    0  503  0.24925105575E+02  0.19166758484E+03  0.95626300733E+03  0.97560066788E+03  0.00000000000E+00 0.  1.
         -3    1    6    6    0  502 -0.75925216306E+02  0.49382097143E+03  0.35228301889E+03  0.61133224657E+03  0.00000000000E+00 0.  1.
<mgrwt>
<rscale>  0 0.26362682E+04</rscale>
<asrwt>0</asrwt>
<pdfrwt beam="1">  1        2 0.48281342E+00 0.26362682E+04</pdfrwt>
<pdfrwt beam="2">  1       -2 0.85175195E-01 0.26362682E+04</pdfrwt>
<totfact> 0.15039309E+00</totfact>
</mgrwt>
</event>
<event>
12    1  0.1562393E-007  0.1618134E+04  0.7818608E-02  0.8809485E-01
         -2   -1    0    0    0  501 -0.00000000000E+00  0.00000000000E+00  0.14277015513E+04  0.14277015513E+04  0.00000000000E+00 0.  1.
          2   -1    0    0  501    0  0.00000000000E+00 -0.00000000000E+00 -0.45849163402E+03  0.45849163402E+03  0.00000000000E+00 0. -1.
         23    2    1    2    0    0  0.51163008039E+03 -0.12500805431E+03  0.12178594906E+03  0.54801405505E+03  0.89973520244E+02 0.  0.
        254    2    1    2    0    0 -0.51163008039E+03  0.12500805431E+03  0.84742396819E+03  0.13381791302E+04  0.89174191891E+03 0.  0.
        -24    2    4    4    0    0 -0.71389954582E+03  0.72241246795E+02  0.37076594569E+03  0.81166773273E+03  0.80409965932E+02 0.  0.
         24    2    4    4    0    0  0.20226946543E+03  0.52766807511E+02  0.47665802249E+03  0.52651139750E+03  0.79461365925E+02 0.  0.
         11    1    3    3    0    0  0.23506271226E+03 -0.37221402993E+02  0.96282735219E+02  0.25672996833E+03  0.00000000000E+00 0. -1.
        -11    1    3    3    0    0  0.27656736812E+03 -0.87786651314E+02  0.25503213838E+02  0.29128408672E+03  0.00000000000E+00 0.  1.
          4    1    6    6  502    0  0.18293391860E+03  0.26595556498E+02  0.35092946556E+03  0.39664043162E+03  0.00000000000E+00 0. -1.
          1    1    5    5  503    0 -0.71402527263E+03  0.75716222816E+02  0.36647427805E+03  0.80614417621E+03  0.00000000000E+00 0. -1.
         -2    1    5    5    0  503  0.12572681747E+00 -0.34749760206E+01  0.42916676422E+01  0.55235565288E+01  0.00000000000E+00 0.  1.
         -3    1    6    6    0  502  0.19335546833E+02  0.26171251013E+02  0.12572855693E+03  0.12987096588E+03  0.00000000000E+00 0.  1.
<mgrwt>
<rscale>  0 0.16181338E+04</rscale>
<asrwt>0</asrwt>
<pdfrwt beam="1">  1        2 0.70537175E-01 0.16181338E+04</pdfrwt>
<pdfrwt beam="2">  1       -2 0.21964639E+00 0.16181338E+04</pdfrwt>
<totfact> 0.64715502E+00</totfact>
</mgrwt>
</event>
<event>
12    1  0.1562393E-007  0.1730051E+04  0.7818608E-02  0.8744408E-01
          2   -1    0    0  501    0  0.00000000000E+00  0.00000000000E+00  0.30139826375E+04  0.30139826375E+04  0.00000000000E+00 0. -1.
         -2   -1    0    0    0  501 -0.00000000000E+00 -0.00000000000E+00 -0.24826594345E+03  0.24826594345E+03  0.00000000000E+00 0.  1.
         23    2    1    2    0    0  0.21784637273E+03  0.89002787800E+02 -0.56419348073E+02  0.25812048867E+03  0.89802591773E+02 0.  0.
        254    2    1    2    0    0 -0.21784637273E+03 -0.89002787800E+02  0.28221360421E+04  0.30041280923E+04  0.10024745464E+04 0.  0.
        -24    2    4    4    0    0  0.27213721580E+03 -0.23611710375E+03  0.19916258998E+04  0.20255290609E+04  0.79901818887E+02 0.  0.
         24    2    4    4    0    0 -0.48998358852E+03  0.14711431595E+03  0.83051014228E+03  0.97859903141E+03  0.78628422668E+02 0.  0.
         13    1    3    3    0    0  0.46931446389E+01 -0.14267755430E+02 -0.38126451668E+01  0.15496151612E+02  0.00000000000E+00 0. -1.
        -13    1    3    3    0    0  0.21315322809E+03  0.10327054323E+03 -0.52606702906E+02  0.24262433706E+03  0.00000000000E+00 0.  1.
          2    1    6    6  502    0 -0.51574468374E+02 -0.36566233674E+01  0.11406454225E+03  0.12523584343E+03  0.00000000000E+00 0. -1.
          1    1    5    5  503    0  0.12326132113E+02  0.10137905022E+01  0.27494141968E+02  0.30147788420E+02  0.00000000000E+00 0. -1.
         -2    1    5    5    0  503  0.25981108369E+03 -0.23713089425E+03  0.19641317578E+04  0.19953812724E+04  0.00000000000E+00 0.  1.
         -3    1    6    6    0  502 -0.43840912015E+03  0.15077093932E+03  0.71644560004E+03  0.85336318797E+03  0.00000000000E+00 0.  1.
<mgrwt>
<rscale>  0 0.17300511E+04</rscale>
<asrwt>0</asrwt>
<pdfrwt beam="1">  1        2 0.46368961E+00 0.17300511E+04</pdfrwt>
<pdfrwt beam="2">  1       -2 0.38194763E-01 0.17300511E+04</pdfrwt>
<totfact> 0.10532712E+01</totfact>
</mgrwt>
</event>
<event>
12    1  0.1562393E-007  0.1216613E+04  0.7818608E-02  0.9098438E-01
          1   -1    0    0  501    0  0.00000000000E+00  0.00000000000E+00  0.12618847084E+04  0.12618847084E+04  0.00000000000E+00 0. -1.
         -1   -1    0    0    0  501 -0.00000000000E+00 -0.00000000000E+00 -0.29324147376E+03  0.29324147376E+03  0.00000000000E+00 0.  1.
         23    2    1    2    0    0  0.91248732374E+02  0.23458356023E+03  0.15663266039E+03  0.30958210706E+03  0.89171255571E+02 0.  0.
        254    2    1    2    0    0 -0.91248732374E+02 -0.23458356023E+03  0.81201057422E+03  0.12455440751E+04  0.91030933886E+03 0.  0.
        -24    2    4    4    0    0  0.10073795672E+03  0.17836681631E+03  0.74705283744E+03  0.77875249332E+03  0.80029037481E+02 0.  0.
         24    2    4    4    0    0 -0.19198668909E+03 -0.41295037654E+03  0.64957736781E+02  0.46679158175E+03  0.79296727255E+02 0.  0.
         11    1    3    3    0    0  0.10120367256E+03  0.14777791952E+03  0.95845465224E+02  0.20314243781E+03  0.00000000000E+00 0.  1.
        -11    1    3    3    0    0 -0.99549401813E+01  0.86805640713E+02  0.60787195170E+02  0.10643966925E+03  0.00000000000E+00 0. -1.
          4    1    6    6  502    0 -0.17786989316E+03 -0.38276174079E+03  0.81050932556E+02  0.42978308805E+03  0.00000000000E+00 0. -1.
          1    1    5    5  503    0  0.10812632992E+03  0.15496547929E+03  0.58255904845E+03  0.61243828091E+03  0.00000000000E+00 0. -1.
         -2    1    5    5    0  503 -0.73883731987E+01  0.23401337012E+02  0.16449378900E+03  0.16631421241E+03  0.00000000000E+00 0.  1.
         -3    1    6    6    0  502 -0.14116795930E+02 -0.30188635751E+02 -0.16093195775E+02  0.37008493702E+02  0.00000000000E+00 0.  1.
<mgrwt>
<rscale>  0 0.12166132E+04</rscale>
<asrwt>0</asrwt>
<pdfrwt beam="1">  1        1 0.19413611E+00 0.12166132E+04</pdfrwt>
<pdfrwt beam="2">  1       -1 0.45114073E-01 0.12166132E+04</pdfrwt>
<totfact> 0.46406098E+01</totfact>
</mgrwt>
</event>
<event>
12    1  0.1562393E-007  0.1118504E+04  0.7818608E-02  0.9187342E-01
         -2   -1    0    0    0  501 -0.00000000000E+00  0.00000000000E+00  0.10227564757E+03  0.10227564757E+03  0.00000000000E+00 0.  1.
          2   -1    0    0  501    0  0.00000000000E+00 -0.00000000000E+00 -0.30580396725E+04  0.30580396725E+04  0.00000000000E+00 0. -1.
         23    2    1    2    0    0 -0.13169832739E+03 -0.16412358405E+03 -0.80409298976E+03  0.83602235671E+03  0.89926883953E+02 0.  0.
        254    2    1    2    0    0  0.13169832739E+03  0.16412358405E+03 -0.21516710352E+04  0.23242929633E+04  0.85344509820E+03 0.  0.
        -24    2    4    4    0    0  0.46490662847E+03  0.17855619211E+03 -0.96197945827E+03  0.10861612138E+04  0.79506083899E+02 0.  0.
         24    2    4    4    0    0 -0.33320830108E+03 -0.14432608056E+02 -0.11896915769E+04  0.12381317495E+04  0.79800431942E+02 0.  0.
         13    1    3    3    0    0  0.33076429762E+01 -0.83320960152E+00 -0.11596314990E+03  0.11601330473E+03  0.00000000000E+00 0.  1.
        -13    1    3    3    0    0 -0.13500597037E+03 -0.16329037445E+03 -0.68812983986E+03  0.72000905198E+03  0.00000000000E+00 0. -1.
          4    1    6    6  502    0 -0.30740281955E+03  0.78199449997E+01 -0.10340357395E+04  0.10787898570E+04  0.00000000000E+00 0. -1.
          3    1    5    5  503    0  0.35839360301E+03  0.10216643131E+03 -0.68833765679E+03  0.78274688382E+03  0.00000000000E+00 0. -1.
         -4    1    5    5    0  503  0.10651302546E+03  0.76389760793E+02 -0.27364180148E+03  0.30341433003E+03  0.00000000000E+00 0.  1.
         -3    1    6    6    0  502 -0.25805481525E+02 -0.22252553056E+02 -0.15565583736E+03  0.15934189248E+03  0.00000000000E+00 0.  1.
<mgrwt>
<rscale>  0 0.11185043E+04</rscale>
<asrwt>0</asrwt>
<pdfrwt beam="1">  1        2 0.47046759E+00 0.11185043E+04</pdfrwt>
<pdfrwt beam="2">  1       -2 0.15734717E-01 0.11185043E+04</pdfrwt>
<totfact> 0.52382022E+01</totfact>
</mgrwt>
</event>
<event>
12    1  0.1562393E-007  0.1519852E+04  0.7818608E-02  0.8871358E-01
          1   -1    0    0  501    0  0.00000000000E+00  0.00000000000E+00  0.50120355010E+03  0.50120355010E+03  0.00000000000E+00 0. -1.
         -1   -1    0    0    0  501 -0.00000000000E+00 -0.00000000000E+00 -0.11522009622E+04  0.11522009622E+04  0.00000000000E+00 0.  1.
         23    2    1    2    0    0 -0.43599627928E+03 -0.19976136788E+03 -0.13131185132E+03  0.50625062212E+03  0.95129020031E+02 0.  0.
        254    2    1    2    0    0  0.43599627928E+03  0.19976136788E+03 -0.51968556079E+03  0.11471538902E+04  0.90326718420E+03 0.  0.
        -24    2    4    4    0    0  0.34753881881E+03 -0.32373487460E+03 -0.29266201266E+03  0.56354230868E+03  0.79632784751E+02 0.  0.
         24    2    4    4    0    0  0.88457460476E+02  0.52349624247E+03 -0.22702354813E+03  0.58361158152E+03  0.84792384563E+02 0.  0.
         13    1    3    3    0    0 -0.21475986554E+03 -0.12056974979E+03 -0.11174458694E+03  0.27045464892E+03  0.00000000000E+00 0. -1.
        -13    1    3    3    0    0 -0.22123641375E+03 -0.79191618088E+02 -0.19567264380E+02  0.23579597320E+03  0.00000000000E+00 0.  1.
          4    1    6    6  502    0  0.52700620520E+02  0.17856590358E+03 -0.11659001706E+03  0.21967332429E+03  0.00000000000E+00 0. -1.
          1    1    5    5  503    0  0.85379128128E+02 -0.12543949776E+03 -0.74639035580E+02  0.16910248003E+03  0.00000000000E+00 0. -1.
         -2    1    5    5    0  503  0.26215969068E+03 -0.19829537683E+03 -0.21802297708E+03  0.39443982865E+03  0.00000000000E+00 0.  1.
         -3    1    6    6    0  502  0.35756839956E+02  0.34493033890E+03 -0.11043353107E+03  0.36393825724E+03  0.00000000000E+00 0.  1.
<mgrwt>
<rscale>  0 0.15198516E+04</rscale>
<asrwt>0</asrwt>
<pdfrwt beam="1">  1        1 0.77108240E-01 0.15198516E+04</pdfrwt>
<pdfrwt beam="2">  1       -1 0.17726168E+00 0.15198516E+04</pdfrwt>
<totfact> 0.92908329E+00</totfact>
</mgrwt>
</event>
<event>
12    1  0.1562393E-007  0.1714543E+04  0.7818608E-02  0.8753113E-01
         -2   -1    0    0    0  501 -0.00000000000E+00  0.00000000000E+00  0.28100869913E+03  0.28100869913E+03  0.00000000000E+00 0.  1.
          2   -1    0    0  501    0  0.00000000000E+00 -0.00000000000E+00 -0.26152740265E+04  0.26152740265E+04  0.00000000000E+00 0. -1.
         23    2    1    2    0    0 -0.52850474705E+03 -0.20936338055E+03 -0.14530518520E+04  0.15628294166E+04  0.89027007366E+02 0.  0.
        254    2    1    2    0    0  0.52850474705E+03  0.20936338055E+03 -0.88121347540E+03  0.13334533090E+04  0.82365663076E+03 0.  0.
        -24    2    4    4    0    0 -0.23147663780E+02  0.16827624377E+03  0.92108661650E+02  0.21104543175E+03  0.84873200452E+02 0.  0.
         24    2    4    4    0    0  0.55165241084E+03  0.41087136778E+02 -0.97332213705E+03  0.11224078773E+04  0.80217986449E+02 0.  0.
         13    1    3    3    0    0 -0.47641628457E+03 -0.19280261742E+03 -0.13716846900E+04  0.14648085930E+04  0.00000000000E+00 0.  1.
        -13    1    3    3    0    0 -0.52088462488E+02 -0.16560763127E+02 -0.81367162004E+02  0.98020823564E+02  0.00000000000E+00 0. -1.
          4    1    6    6  502    0  0.53933221081E+03  0.32010142532E+02 -0.96213231642E+03  0.11034502604E+04  0.00000000000E+00 0. -1.
          3    1    5    5  503    0 -0.51727561113E+01  0.67233759384E+02  0.84537729461E+02  0.10813770623E+03  0.00000000000E+00 0. -1.
         -4    1    5    5    0  503 -0.17974907669E+02  0.10104248439E+03  0.75709321886E+01  0.10290772552E+03  0.00000000000E+00 0.  1.
         -3    1    6    6    0  502  0.12320200021E+02  0.90769942458E+01 -0.11189820632E+02  0.18957616909E+02  0.00000000000E+00 0.  1.
<mgrwt>
<rscale>  0 0.17145434E+04</rscale>
<asrwt>0</asrwt>
<pdfrwt beam="1">  1        2 0.40234985E+00 0.17145434E+04</pdfrwt>
<pdfrwt beam="2">  1       -2 0.43232108E-01 0.17145434E+04</pdfrwt>
<totfact> 0.14404207E+01</totfact>
</mgrwt>
</event>
<event>
12    1  0.1562393E-007  0.2607864E+04  0.7818608E-02  0.8365535E-01
         -2   -1    0    0    0  501 -0.00000000000E+00  0.00000000000E+00  0.65424121380E+03  0.65424121380E+03  0.00000000000E+00 0. -1.
          2   -1    0    0  501    0  0.00000000000E+00 -0.00000000000E+00 -0.25987950632E+04  0.25987950632E+04  0.00000000000E+00 0.  1.
         23    2    1    2    0    0  0.66154579922E+03  0.88426133185E+03 -0.49093361974E+03  0.12119973512E+04  0.91437480354E+02 0.  0.
        254    2    1    2    0    0 -0.66154579922E+03 -0.88426133185E+03 -0.14536202297E+04  0.20410389259E+04  0.91283469326E+03 0.  0.
        -24    2    4    4    0    0 -0.33497678686E+03 -0.10122984997E+04 -0.11474645290E+04  0.15687104882E+04  0.84970879053E+02 0.  0.
         24    2    4    4    0    0 -0.32656901236E+03  0.12803716783E+03 -0.30615570070E+03  0.47232843766E+03  0.79511029273E+02 0.  0.
         13    1    3    3    0    0  0.96815700578E+02  0.11286346154E+03 -0.99657200518E+02  0.17900558216E+03  0.00000000000E+00 0.  1.
        -13    1    3    3    0    0  0.56473009864E+03  0.77139787031E+03 -0.39127641922E+03  0.10329917690E+04  0.00000000000E+00 0. -1.
          4    1    6    6  502    0 -0.85120641439E+02  0.56829876734E+02 -0.12822648006E+03  0.16406458691E+03  0.00000000000E+00 0. -1.
          3    1    5    5  503    0  0.80867832728E-01 -0.52836774912E+02 -0.46377674313E+02  0.70303769439E+02  0.00000000000E+00 0. -1.
         -4    1    5    5    0  503 -0.33505765470E+03 -0.95946172476E+03 -0.11010868547E+04  0.14984067188E+04  0.00000000000E+00 0.  1.
         -3    1    6    6    0  502 -0.24144837092E+03  0.71207291093E+02 -0.17792922064E+03  0.30826385075E+03  0.00000000000E+00 0.  1.
<mgrwt>
<rscale>  0 0.26078641E+04</rscale>
<asrwt>0</asrwt>
<pdfrwt beam="1">  1        2 0.39981463E+00 0.26078641E+04</pdfrwt>
<pdfrwt beam="2">  1       -2 0.10065249E+00 0.26078641E+04</pdfrwt>
<totfact> 0.21910763E+00</totfact>
</mgrwt>
</event>
<event>
12    1  0.1562393E-007  0.1701637E+04  0.7818608E-02  0.8760431E-01
          1   -1    0    0  501    0  0.00000000000E+00  0.00000000000E+00  0.12361376431E+04  0.12361376431E+04  0.00000000000E+00 0. -1.
         -1   -1    0    0    0  501 -0.00000000000E+00 -0.00000000000E+00 -0.58560830325E+03  0.58560830325E+03  0.00000000000E+00 0.  1.
         23    2    1    2    0    0  0.47756244323E+03 -0.74906165713E+02 -0.15834168017E+03  0.51681793887E+03  0.91388584733E+02 0.  0.
        254    2    1    2    0    0 -0.47756244323E+03  0.74906165713E+02  0.80887102000E+03  0.13049280075E+04  0.90271144715E+03 0.  0.
        -24    2    4    4    0    0  0.10457181578E+03 -0.21582233011E+03 -0.13911224715E+02  0.25298034823E+03  0.79315771358E+02 0.  0.
         24    2    4    4    0    0 -0.58213425901E+03  0.29072849582E+03  0.82278224471E+03  0.10519476592E+04  0.78866353771E+02 0.  0.
         11    1    3    3    0    0  0.26466543901E+03 -0.35399626910E+02 -0.13448302766E+03  0.29897594037E+03  0.00000000000E+00 0. -1.
        -11    1    3    3    0    0  0.21289700421E+03 -0.39506538803E+02 -0.23858652513E+02  0.21784199850E+03  0.00000000000E+00 0.  1.
          2    1    6    6  502    0 -0.28828992604E+03  0.10386984826E+03  0.41112435750E+03  0.51276043545E+03  0.00000000000E+00 0. -1.
          3    1    5    5  503    0  0.10721687884E+03 -0.14329271915E+03 -0.20348882524E+02  0.18011757129E+03  0.00000000000E+00 0. -1.
         -4    1    5    5    0  503 -0.26450630510E+01 -0.72529610961E+02  0.64376578084E+01  0.72862776936E+02  0.00000000000E+00 0.  1.
         -1    1    6    6    0  502 -0.29384433298E+03  0.18685864756E+03  0.41165788721E+03  0.53918722378E+03  0.00000000000E+00 0.  1.
<mgrwt>
<rscale>  0 0.17016374E+04</rscale>
<asrwt>0</asrwt>
<pdfrwt beam="1">  1        1 0.19017502E+00 0.17016374E+04</pdfrwt>
<pdfrwt beam="2">  1       -1 0.90093585E-01 0.17016374E+04</pdfrwt>
<totfact> 0.11533044E+01</totfact>
</mgrwt>
</event>
<event>
12    1  0.1562393E-007  0.2143303E+04  0.7818608E-02  0.8542404E-01
          1   -1    0    0  501    0  0.00000000000E+00  0.00000000000E+00  0.93976168546E+03  0.93976168546E+03  0.00000000000E+00 0. -1.
         -1   -1    0    0    0  501 -0.00000000000E+00 -0.00000000000E+00 -0.12220508271E+04  0.12220508271E+04  0.00000000000E+00 0.  1.
         23    2    1    2    0    0 -0.32829008981E+03 -0.99658250890E+02 -0.93397953542E+03  0.99795269995E+03  0.76718112144E+02 0.  0.
        254    2    1    2    0    0  0.32829008981E+03  0.99658250890E+02  0.65169039377E+03  0.11638598126E+04  0.90120094543E+03 0.  0.
        -24    2    4    4    0    0 -0.24291821150E+03 -0.12516796033E+03  0.29448767703E+02  0.28609794467E+03  0.79426244091E+02 0.  0.
         24    2    4    4    0    0  0.57120830131E+03  0.22482621122E+03  0.62224162607E+03  0.87776186795E+03  0.80346169001E+02 0.  0.
         11    1    3    3    0    0 -0.12023251968E+03 -0.14979862582E+01 -0.36180227969E+03  0.38125974393E+03  0.00000000000E+00 0.  1.
        -11    1    3    3    0    0 -0.20805757013E+03 -0.98160264631E+02 -0.57217725572E+03  0.61669295602E+03  0.00000000000E+00 0. -1.
          2    1    6    6  502    0  0.14159830130E+03  0.21428549348E+02  0.16012042642E+03  0.21482041946E+03  0.00000000000E+00 0. -1.
          1    1    5    5  503    0 -0.10437320980E+03 -0.82642215621E+02 -0.16300276977E+02  0.13412382994E+03  0.00000000000E+00 0. -1.
         -2    1    5    5    0  503 -0.13854500170E+03 -0.42525744712E+02  0.45749044680E+02  0.15197411473E+03  0.00000000000E+00 0.  1.
         -1    1    6    6    0  502  0.42961000000E+03  0.20339766187E+03  0.46212119965E+03  0.66294144849E+03  0.00000000000E+00 0.  1.
<mgrwt>
<rscale>  0 0.21433026E+04</rscale>
<asrwt>0</asrwt>
<pdfrwt beam="1">  1        1 0.14457872E+00 0.21433026E+04</pdfrwt>
<pdfrwt beam="2">  1       -1 0.18800782E+00 0.21433026E+04</pdfrwt>
<totfact> 0.28243662E+00</totfact>
</mgrwt>
</event>
<event>
12    1  0.1562393E-007  0.1418017E+04  0.7818608E-02  0.8940879E-01
         -2   -1    0    0    0  501 -0.00000000000E+00  0.00000000000E+00  0.84275264708E+03  0.84275264708E+03  0.00000000000E+00 0.  1.
          2   -1    0    0  501    0  0.00000000000E+00 -0.00000000000E+00 -0.59648966338E+03  0.59648966338E+03  0.00000000000E+00 0. -1.
         23    2    1    2    0    0 -0.99146922039E+01 -0.39161446727E+03 -0.38761046218E+02  0.40429887222E+03  0.92168146767E+02 0.  0.
        254    2    1    2    0    0  0.99146922039E+01  0.39161446727E+03  0.28502402992E+03  0.10349434382E+04  0.91455400640E+03 0.  0.
        -24    2    4    4    0    0 -0.17443934269E+03 -0.18922043505E+03  0.32299347161E+03  0.41946847344E+03  0.73454476965E+02 0.  0.
         24    2    4    4    0    0  0.18435403490E+03  0.58083490232E+03 -0.37969441696E+02  0.61547496480E+03  0.77538118760E+02 0.  0.
         13    1    3    3    0    0 -0.21237040050E+01 -0.36772577068E+03 -0.58486878125E+02  0.37235395453E+03  0.00000000000E+00 0. -1.
        -13    1    3    3    0    0 -0.77909881989E+01 -0.23888696590E+02  0.19725831907E+02  0.31944917692E+02  0.00000000000E+00 0.  1.
          4    1    6    6  502    0  0.27027441004E+02  0.13251089539E+03  0.20424127028E+02  0.13677267611E+03  0.00000000000E+00 0. -1.
          1    1    5    5  503    0 -0.34246230709E+02 -0.22957042202E+02  0.18266903656E+02  0.45094455021E+02  0.00000000000E+00 0. -1.
         -4    1    5    5    0  503 -0.14019311198E+03 -0.16626339285E+03  0.30472656796E+03  0.37437401842E+03  0.00000000000E+00 0.  1.
         -3    1    6    6    0  502  0.15732659389E+03  0.44832400692E+03 -0.58393568724E+02  0.47870228869E+03  0.00000000000E+00 0.  1.
<mgrwt>
<rscale>  0 0.14180173E+04</rscale>
<asrwt>0</asrwt>
<pdfrwt beam="1">  1        2 0.91767640E-01 0.14180173E+04</pdfrwt>
<pdfrwt beam="2">  1       -2 0.12965425E+00 0.14180173E+04</pdfrwt>
<totfact> 0.21221027E+01</totfact>
</mgrwt>
</event>
<event>
12    1  0.1562393E-007  0.1909885E+04  0.7818608E-02  0.8649951E-01
          2   -1    0    0  501    0  0.00000000000E+00  0.00000000000E+00  0.11800916699E+04  0.11800916699E+04  0.00000000000E+00 0. -1.
         -2   -1    0    0    0  501 -0.00000000000E+00 -0.00000000000E+00 -0.77274967822E+03  0.77274967822E+03  0.00000000000E+00 0.  1.
         23    2    1    2    0    0 -0.37399925843E+03  0.58428242232E+03  0.44516449886E+03  0.82918746269E+03  0.90105620744E+02 0.  0.
        254    2    1    2    0    0  0.37399925843E+03 -0.58428242232E+03 -0.37822507133E+02  0.11236538855E+04  0.88312293479E+03 0.  0.
        -24    2    4    4    0    0  0.62275232462E+03 -0.42393180792E+03  0.13722132539E+03  0.76981082019E+03  0.78996019832E+02 0.  0.
         24    2    4    4    0    0 -0.24875306618E+03 -0.16035061440E+03 -0.17504383252E+03  0.35384306529E+03  0.83511460748E+02 0.  0.
         13    1    3    3    0    0 -0.25513276292E+03  0.39154558431E+03  0.34852716310E+03  0.58298529547E+03  0.00000000000E+00 0.  1.
        -13    1    3    3    0    0 -0.11886649551E+03  0.19273683801E+03  0.96637335753E+02  0.24620216722E+03  0.00000000000E+00 0. -1.
          2    1    6    6  502    0 -0.25295625369E+03 -0.15009674303E+03 -0.17591448100E+03  0.34272700969E+03  0.00000000000E+00 0. -1.
          1    1    5    5  503    0  0.61255324728E+03 -0.42503566723E+03  0.14116964424E+03  0.75881859995E+03  0.00000000000E+00 0. -1.
         -2    1    5    5    0  503  0.10199077335E+02  0.11038593128E+01 -0.39483188556E+01  0.10992220233E+02  0.00000000000E+00 0.  1.
         -1    1    6    6    0  502  0.42031875018E+01 -0.10253871371E+02  0.87064848175E+00  0.11116055598E+02  0.00000000000E+00 0.  1.
<mgrwt>
<rscale>  0 0.19098853E+04</rscale>
<asrwt>0</asrwt>
<pdfrwt beam="1">  1        2 0.18155257E+00 0.19098853E+04</pdfrwt>
<pdfrwt beam="2">  1       -2 0.11888457E+00 0.19098853E+04</pdfrwt>
<totfact> 0.99034359E+00</totfact>
</mgrwt>
</event>
<event>
12    1  0.1562393E-007  0.2355065E+04  0.7818608E-02  0.8456521E-01
          2   -1    0    0  501    0  0.00000000000E+00  0.00000000000E+00  0.20851842635E+04  0.20851842635E+04  0.00000000000E+00 0. -1.
         -2   -1    0    0    0  501 -0.00000000000E+00 -0.00000000000E+00 -0.66496878951E+03  0.66496878951E+03  0.00000000000E+00 0.  1.
         23    2    1    2    0    0  0.42836210408E+03 -0.58915780071E+03  0.14137651418E+04  0.15929063054E+04  0.89541137087E+02 0.  0.
        254    2    1    2    0    0 -0.42836210408E+03  0.58915780071E+03  0.64503321836E+01  0.11572467476E+04  0.89920933143E+03 0.  0.
        -24    2    4    4    0    0 -0.63337421790E+02 -0.59660760375E+02  0.32391748705E+03  0.34407384172E+03  0.76767407231E+02 0.  0.
         24    2    4    4    0    0 -0.36502468229E+03  0.64881856108E+03 -0.31746715487E+03  0.81317290589E+03  0.79096375195E+02 0.  0.
         11    1    3    3    0    0  0.80368351784E+02 -0.75005979164E+02  0.16415064987E+03  0.19756114176E+03  0.00000000000E+00 0.  1.
        -11    1    3    3    0    0  0.34799375230E+03 -0.51415182154E+03  0.12496144919E+04  0.13953451636E+04  0.00000000000E+00 0. -1.
          2    1    6    6  502    0 -0.87678248765E+02  0.13097585899E+03 -0.35468676124E+02  0.16155549490E+03  0.00000000000E+00 0. -1.
          1    1    5    5  503    0 -0.41894675990E+02 -0.77480950026E+02  0.24073460005E+03  0.25634275717E+03  0.00000000000E+00 0. -1.
         -4    1    5    5    0  503 -0.21442745800E+02  0.17820189651E+02  0.83182887004E+02  0.87731084554E+02  0.00000000000E+00 0.  1.
         -1    1    6    6    0  502 -0.27734643352E+03  0.51784270209E+03 -0.28199847874E+03  0.65161741099E+03  0.00000000000E+00 0.  1.
<mgrwt>
<rscale>  0 0.23550647E+04</rscale>
<asrwt>0</asrwt>
<pdfrwt beam="1">  1        2 0.32079758E+00 0.23550647E+04</pdfrwt>
<pdfrwt beam="2">  1       -2 0.10230289E+00 0.23550647E+04</pdfrwt>
<totfact> 0.42286579E+00</totfact>
</mgrwt>
</event>
<event>
12    1  0.1562393E-007  0.1149035E+04  0.7818608E-02  0.9158674E-01
          2   -1    0    0  501    0  0.00000000000E+00  0.00000000000E+00  0.99233420616E+03  0.99233420616E+03  0.00000000000E+00 0.  1.
         -2   -1    0    0    0  501 -0.00000000000E+00 -0.00000000000E+00 -0.33262027705E+03  0.33262027705E+03  0.00000000000E+00 0. -1.
         23    2    1    2    0    0 -0.21626412240E+03 -0.45798095705E+02  0.24862433187E+03  0.34345181144E+03  0.85307984228E+02 0.  0.
        254    2    1    2    0    0  0.21626412240E+03  0.45798095705E+02  0.41108959724E+03  0.98150267176E+03  0.86341484902E+03 0.  0.
        -24    2    4    4    0    0  0.12389001464E+03  0.27291589610E+03 -0.16415681807E+03  0.35106476716E+03  0.80418827083E+02 0.  0.
         24    2    4    4    0    0  0.92374107765E+02 -0.22711780040E+03  0.57524641530E+03  0.63043790461E+03  0.80175072213E+02 0.  0.
         13    1    3    3    0    0 -0.90828998871E+02 -0.87514611007E-01  0.48731899760E+02  0.10307624726E+03  0.00000000000E+00 0. -1.
        -13    1    3    3    0    0 -0.12543512353E+03 -0.45710581094E+02  0.19989243211E+03  0.24037556418E+03  0.00000000000E+00 0.  1.
          2    1    6    6  502    0 -0.12940003167E+02 -0.50291692721E+02  0.12660604069E+03  0.13684219956E+03  0.00000000000E+00 0. -1.
          1    1    5    5  503    0  0.12923096461E+03  0.20592109655E+03 -0.12866750197E+03  0.27506265883E+03  0.00000000000E+00 0. -1.
         -2    1    5    5    0  503 -0.53409499701E+01  0.66994799552E+02 -0.35489316095E+02  0.76002108330E+02  0.00000000000E+00 0.  1.
         -1    1    6    6    0  502  0.10531411093E+03 -0.17682610767E+03  0.44864037461E+03  0.49359570505E+03  0.00000000000E+00 0.  1.
<mgrwt>
<rscale>  0 0.11490352E+04</rscale>
<asrwt>0</asrwt>
<pdfrwt beam="1">  1        2 0.15266680E+00 0.11490352E+04</pdfrwt>
<pdfrwt beam="2">  1       -2 0.51172351E-01 0.11490352E+04</pdfrwt>
<totfact> 0.91003261E+01</totfact>
</mgrwt>
</event>
<event>
12    1  0.1562393E-007  0.2782760E+04  0.7818608E-02  0.8308641E-01
         -2   -1    0    0    0  501 -0.00000000000E+00  0.00000000000E+00  0.12677134845E+04  0.12677134845E+04  0.00000000000E+00 0.  1.
          2   -1    0    0  501    0  0.00000000000E+00 -0.00000000000E+00 -0.15271099565E+04  0.15271099565E+04  0.00000000000E+00 0. -1.
         23    2    1    2    0    0 -0.72197761443E+02 -0.11912042210E+04 -0.50019360621E+03  0.12972716183E+04  0.92412094273E+02 0.  0.
        254    2    1    2    0    0  0.72197761443E+02  0.11912042210E+04  0.24079713418E+03  0.14975518227E+04  0.87206547278E+03 0.  0.
        -24    2    4    4    0    0  0.54689704616E+02  0.83755775621E+03  0.56088999869E+03  0.10125834971E+04  0.78954348768E+02 0.  0.
         24    2    4    4    0    0  0.17508056827E+02  0.35364646480E+03 -0.32009286450E+03  0.48496832557E+03  0.85804899482E+02 0.  0.
         11    1    3    3    0    0  0.92257025844E+01 -0.13263899497E+02 -0.82085305987E+01  0.18122488588E+02  0.00000000000E+00 0.  1.
        -11    1    3    3    0    0 -0.81423464027E+02 -0.11779403215E+04 -0.49198507561E+03  0.12791491298E+04  0.00000000000E+00 0. -1.
          4    1    6    6  502    0  0.45282493071E+02  0.11359892632E+03 -0.97107217811E+02  0.15615707474E+03  0.00000000000E+00 0. -1.
          1    1    5    5  503    0 -0.14406855173E+02  0.25456998578E+03  0.19277659938E+03  0.31965020319E+03  0.00000000000E+00 0. -1.
         -2    1    5    5    0  503  0.69096559789E+02  0.58298777043E+03  0.36811339931E+03  0.69293329390E+03  0.00000000000E+00 0.  1.
         -3    1    6    6    0  502 -0.27774436244E+02  0.24004753849E+03 -0.22298564669E+03  0.32881125083E+03  0.00000000000E+00 0.  1.
<mgrwt>
<rscale>  0 0.27827597E+04</rscale>
<asrwt>0</asrwt>
<pdfrwt beam="1">  1        2 0.23493999E+00 0.27827597E+04</pdfrwt>
<pdfrwt beam="2">  1       -2 0.19503284E+00 0.27827597E+04</pdfrwt>
<totfact> 0.15319371E+00</totfact>
</mgrwt>
</event>
<event>
12    1  0.1562393E-007  0.1342473E+04  0.7818608E-02  0.8996546E-01
          2   -1    0    0  501    0  0.00000000000E+00  0.00000000000E+00  0.32739568267E+04  0.32739568267E+04  0.00000000000E+00 0. -1.
         -2   -1    0    0    0  501 -0.00000000000E+00 -0.00000000000E+00 -0.13761889869E+03  0.13761889869E+03  0.00000000000E+00 0.  1.
         23    2    1    2    0    0  0.17978205856E+03 -0.23100819667E+03  0.14892726649E+04  0.15206175175E+04  0.93049387113E+02 0.  0.
        254    2    1    2    0    0 -0.17978205856E+03  0.23100819667E+03  0.16470652631E+04  0.18909582079E+04  0.88159661279E+03 0.  0.
        -24    2    4    4    0    0 -0.31932278291E+03  0.50979861422E+03  0.11035077439E+04  0.12592655167E+04  0.78476963782E+02 0.  0.
         24    2    4    4    0    0  0.13954072436E+03 -0.27879041755E+03  0.54355751912E+03  0.63169269119E+03  0.79907251528E+02 0.  0.
         13    1    3    3    0    0  0.15844805470E+03 -0.23085062246E+03  0.14392910133E+04  0.14662729681E+04  0.00000000000E+00 0. -1.
        -13    1    3    3    0    0  0.21334003861E+02 -0.15757420816E+00  0.49981651605E+02  0.54344549382E+02  0.00000000000E+00 0.  1.
          4    1    6    6  502    0  0.13781927062E+03 -0.23214980617E+03  0.41662462475E+03  0.49645116759E+03  0.00000000000E+00 0. -1.
          3    1    5    5  503    0 -0.31207501338E+03  0.45734869245E+03  0.10041958021E+04  0.11467204757E+04  0.00000000000E+00 0. -1.
         -4    1    5    5    0  503 -0.72477695298E+01  0.52449921766E+02  0.99311941871E+02  0.11254504100E+03  0.00000000000E+00 0.  1.
         -3    1    6    6    0  502  0.17214537407E+01 -0.46640611377E+02  0.12693289437E+03  0.13524152360E+03  0.00000000000E+00 0.  1.
<mgrwt>
<rscale>  0 0.13424728E+04</rscale>
<asrwt>0</asrwt>
<pdfrwt beam="1">  1        2 0.50368561E+00 0.13424728E+04</pdfrwt>
<pdfrwt beam="2">  1       -2 0.21172141E-01 0.13424728E+04</pdfrwt>
<totfact> 0.22227085E+01</totfact>
</mgrwt>
</event>
<event>
12    1  0.1562393E-007  0.2103128E+04  0.7818608E-02  0.8559867E-01
          2   -1    0    0  501    0  0.00000000000E+00  0.00000000000E+00  0.10772583349E+04  0.10772583349E+04  0.00000000000E+00 0. -1.
         -2   -1    0    0    0  501 -0.00000000000E+00 -0.00000000000E+00 -0.10264829484E+04  0.10264829484E+04  0.00000000000E+00 0.  1.
         23    2    1    2    0    0 -0.22497644629E+03 -0.14212222582E+03  0.83332122660E+03  0.87894442301E+03  0.85474578599E+02 0.  0.
        254    2    1    2    0    0  0.22497644629E+03  0.14212222582E+03 -0.78254584008E+03  0.12247968602E+04  0.90384524588E+03 0.  0.
        -24    2    4    4    0    0  0.31253158986E+03 -0.12590576184E+02  0.86192100128E+02  0.33424594630E+03  0.80353949629E+02 0.  0.
         24    2    4    4    0    0 -0.87555143575E+02  0.15471280200E+03 -0.86873794021E+03  0.89055091391E+03  0.82300469308E+02 0.  0.
         13    1    3    3    0    0 -0.12365841711E+03 -0.72480967635E+02  0.57881868531E+03  0.59630190781E+03  0.00000000000E+00 0. -1.
        -13    1    3    3    0    0 -0.10131802918E+03 -0.69641258186E+02  0.25450254129E+03  0.28264251520E+03  0.00000000000E+00 0.  1.
          4    1    6    6  502    0 -0.64635849801E+02  0.12772537046E+03 -0.80509430749E+03  0.81772147293E+03  0.00000000000E+00 0. -1.
          3    1    5    5  503    0  0.94268676511E+02 -0.40072138561E+02  0.36290607200E+02  0.10867091529E+03  0.00000000000E+00 0. -1.
         -4    1    5    5    0  503  0.21826291335E+03  0.27481562377E+02  0.49901492928E+02  0.22557503100E+03  0.00000000000E+00 0.  1.
         -3    1    6    6    0  502 -0.22919293775E+02  0.26987431549E+02 -0.63643632715E+02  0.72829440983E+02  0.00000000000E+00 0.  1.
<mgrwt>
<rscale>  0 0.21031284E+04</rscale>
<asrwt>0</asrwt>
<pdfrwt beam="1">  1        2 0.16573205E+00 0.21031284E+04</pdfrwt>
<pdfrwt beam="2">  1       -2 0.15792045E+00 0.21031284E+04</pdfrwt>
<totfact> 0.54118191E+00</totfact>
</mgrwt>
</event>
<event>
12    1  0.1562393E-007  0.1642792E+04  0.7818608E-02  0.8794682E-01
         -1   -1    0    0    0  501 -0.00000000000E+00  0.00000000000E+00  0.51507078268E+03  0.51507078268E+03  0.00000000000E+00 0.  1.
          1   -1    0    0  501    0  0.00000000000E+00 -0.00000000000E+00 -0.13098995906E+04  0.13098995906E+04  0.00000000000E+00 0. -1.
         23    2    1    2    0    0  0.27238952768E+03  0.10685345679E+03 -0.82373481292E+03  0.87869367439E+03  0.89161737198E+02 0.  0.
        254    2    1    2    0    0 -0.27238952768E+03 -0.10685345679E+03  0.28906005021E+02  0.94627669887E+03  0.89943889047E+03 0.  0.
        -24    2    4    4    0    0 -0.27383936782E+03 -0.13863354007E+03 -0.39930355348E+03  0.51011836327E+03  0.81056516813E+02 0.  0.
         24    2    4    4    0    0  0.14498401443E+01  0.31780083285E+02  0.42820955850E+03  0.43615833560E+03  0.76541439706E+02 0.  0.
         13    1    3    3    0    0  0.27526944895E+03  0.94341292785E+02 -0.80502943590E+03  0.85600580705E+03  0.00000000000E+00 0. -1.
        -13    1    3    3    0    0 -0.28799212752E+01  0.12512164005E+02 -0.18705377023E+02  0.22687867335E+02  0.00000000000E+00 0.  1.
          2    1    6    6  502    0 -0.81194475191E+01  0.55389858978E+02  0.25400861214E+03  0.26010447314E+03  0.00000000000E+00 0. -1.
          1    1    5    5  503    0 -0.16827398490E+03 -0.11319068720E+03 -0.30515633908E+03  0.36639958644E+03  0.00000000000E+00 0. -1.
         -2    1    5    5    0  503 -0.10556538292E+03 -0.25442852874E+02 -0.94147214406E+02  0.14371877683E+03  0.00000000000E+00 0.  1.
         -1    1    6    6    0  502  0.95692876634E+01 -0.23609775693E+02  0.17420094636E+03  0.17605386246E+03  0.00000000000E+00 0.  1.
<mgrwt>
<rscale>  0 0.16427915E+04</rscale>
<asrwt>0</asrwt>
<pdfrwt beam="1">  1        1 0.20152301E+00 0.16427915E+04</pdfrwt>
<pdfrwt beam="2">  1       -1 0.79241659E-01 0.16427915E+04</pdfrwt>
<totfact> 0.13545968E+01</totfact>
</mgrwt>
</event>
<event>
12    1  0.1562393E-007  0.1654142E+04  0.7818608E-02  0.8787960E-01
         -2   -1    0    0    0  501 -0.00000000000E+00  0.00000000000E+00  0.50356002160E+03  0.50356002160E+03  0.00000000000E+00 0.  1.
          2   -1    0    0  501    0  0.00000000000E+00 -0.00000000000E+00 -0.13584210407E+04  0.13584210407E+04  0.00000000000E+00 0. -1.
         23    2    1    2    0    0 -0.41977682181E+03  0.27443744867E+03  0.18029188915E+02  0.51059379701E+03  0.94087621585E+02 0.  0.
        254    2    1    2    0    0  0.41977682181E+03 -0.27443744867E+03 -0.87289020799E+03  0.13513872653E+04  0.90154408219E+03 0.  0.
        -24    2    4    4    0    0  0.19421241755E+03 -0.59354840860E+03 -0.48080179849E+03  0.79218508925E+03  0.79803945572E+02 0.  0.
         24    2    4    4    0    0  0.22556440426E+03  0.31911095993E+03 -0.39208840950E+03  0.55920217600E+03  0.79136891285E+02 0.  0.
         13    1    3    3    0    0 -0.77871387980E+02  0.12769847105E+02 -0.76624817639E+01  0.79282631690E+02  0.00000000000E+00 0. -1.
        -13    1    3    3    0    0 -0.34190543383E+03  0.26166760156E+03  0.25691670679E+02  0.43131116532E+03  0.00000000000E+00 0.  1.
          4    1    6    6  502    0  0.12920864458E+03  0.17964900967E+03 -0.27596345393E+03  0.35372937171E+03  0.00000000000E+00 0. -1.
          1    1    5    5  503    0  0.15430465441E+03 -0.39254831156E+03 -0.28728736397E+03  0.51033139505E+03  0.00000000000E+00 0. -1.
         -2    1    5    5    0  503  0.39907763142E+02 -0.20100009704E+03 -0.19351443452E+03  0.28185369420E+03  0.00000000000E+00 0.  1.
         -3    1    6    6    0  502  0.96355759680E+02  0.13946195026E+03 -0.11612495557E+03  0.20547280429E+03  0.00000000000E+00 0.  1.
<mgrwt>
<rscale>  0 0.16541421E+04</rscale>
<asrwt>0</asrwt>
<pdfrwt beam="1">  1        2 0.20898785E+00 0.16541421E+04</pdfrwt>
<pdfrwt beam="2">  1       -2 0.77470773E-01 0.16541421E+04</pdfrwt>
<totfact> 0.21691703E+01</totfact>
</mgrwt>
</event>
<event>
12    1  0.1562393E-007  0.2138328E+04  0.7818608E-02  0.8544545E-01
         -2   -1    0    0    0  501 -0.00000000000E+00  0.00000000000E+00  0.72774704061E+03  0.72774704061E+03  0.00000000000E+00 0.  1.
          2   -1    0    0  501    0  0.00000000000E+00 -0.00000000000E+00 -0.15707534462E+04  0.15707534462E+04  0.00000000000E+00 0. -1.
         23    2    1    2    0    0  0.47091317206E+03 -0.40693545474E+02  0.44649202817E+03  0.65666439927E+03  0.91857616905E+02 0.  0.
        254    2    1    2    0    0 -0.47091317206E+03  0.40693545474E+02 -0.12894984338E+04  0.16418360875E+04  0.89966902102E+03 0.  0.
        -24    2    4    4    0    0 -0.34667795908E+03 -0.39751666763E+03 -0.84921959135E+03  0.10034036105E+04  0.86254176013E+02 0.  0.
         24    2    4    4    0    0 -0.12423521299E+03  0.43821021310E+03 -0.44027884241E+03  0.63843247704E+03  0.79296845123E+02 0.  0.
         11    1    3    3    0    0  0.31212376597E+03 -0.66615357393E+01  0.23898477454E+03  0.39316579684E+03  0.00000000000E+00 0.  1.
        -11    1    3    3    0    0  0.15878940609E+03 -0.34032009735E+02  0.20750725363E+03  0.26349860243E+03  0.00000000000E+00 0. -1.
          4    1    6    6  502    0 -0.84348356401E+02  0.29937243997E+03 -0.34934732529E+03  0.46774144217E+03  0.00000000000E+00 0. -1.
          1    1    5    5  503    0 -0.35016223273E+03 -0.39671502799E+03 -0.83346829193E+03  0.98725163779E+03  0.00000000000E+00 0. -1.
         -2    1    5    5    0  503  0.34842736535E+01 -0.80163963478E+00 -0.15751299421E+02  0.16151972711E+02  0.00000000000E+00 0.  1.
         -3    1    6    6    0  502 -0.39886856587E+02  0.13883777313E+03 -0.90931517129E+02  0.17069103486E+03  0.00000000000E+00 0.  1.
<mgrwt>
<rscale>  0 0.21383275E+04</rscale>
<asrwt>0</asrwt>
<pdfrwt beam="1">  1        2 0.24165437E+00 0.21383275E+04</pdfrwt>
<pdfrwt beam="2">  1       -2 0.11196109E+00 0.21383275E+04</pdfrwt>
<totfact> 0.66974186E+00</totfact>
</mgrwt>
</event>
<event>
12    1  0.1562393E-007  0.1815767E+04  0.7818608E-02  0.8697959E-01
         -2   -1    0    0    0  501 -0.00000000000E+00  0.00000000000E+00  0.37288689173E+03  0.37288689173E+03  0.00000000000E+00 0.  1.
          2   -1    0    0  501    0  0.00000000000E+00 -0.00000000000E+00 -0.22104622360E+04  0.22104622360E+04  0.00000000000E+00 0. -1.
         23    2    1    2    0    0  0.53688646232E+03  0.20329897537E+03 -0.12036674366E+04  0.13366163083E+04  0.90279071117E+02 0.  0.
        254    2    1    2    0    0 -0.53688646232E+03 -0.20329897537E+03 -0.63390790762E+03  0.12467328195E+04  0.90715265583E+03 0.  0.
        -24    2    4    4    0    0 -0.10902003478E+03 -0.34849777150E+03 -0.69033969296E+03  0.78446253570E+03  0.74003469565E+02 0.  0.
         24    2    4    4    0    0 -0.42786642754E+03  0.14519879613E+03  0.56431785340E+02  0.46227028377E+03  0.79730161447E+02 0.  0.
         13    1    3    3    0    0  0.75602780419E+02  0.64411599296E+02 -0.19731018435E+03  0.22089803842E+03  0.00000000000E+00 0.  1.
        -13    1    3    3    0    0  0.46128368190E+03  0.13888737608E+03 -0.10063572523E+04  0.11157182698E+04  0.00000000000E+00 0. -1.
          4    1    6    6  502    0 -0.41874333769E+03  0.13578373048E+03  0.67196131252E+02  0.44530722471E+03  0.00000000000E+00 0. -1.
          1    1    5    5  503    0 -0.43357868738E+02 -0.13116639227E+03 -0.33996852677E+03  0.36696474822E+03  0.00000000000E+00 0. -1.
         -2    1    5    5    0  503 -0.65662166043E+02 -0.21733137923E+03 -0.35037116619E+03  0.41749778747E+03  0.00000000000E+00 0.  1.
         -3    1    6    6    0  502 -0.91230898459E+01  0.94150656550E+01 -0.10764345912E+02  0.16963059056E+02  0.00000000000E+00 0.  1.
<mgrwt>
<rscale>  0 0.18157669E+04</rscale>
<asrwt>0</asrwt>
<pdfrwt beam="1">  1        2 0.34007112E+00 0.18157669E+04</pdfrwt>
<pdfrwt beam="2">  1       -2 0.57367213E-01 0.18157669E+04</pdfrwt>
<totfact> 0.13677917E+01</totfact>
</mgrwt>
</event>
<event>
12    1  0.1562393E-007  0.1773582E+04  0.7818608E-02  0.8720476E-01
          2   -1    0    0  501    0  0.00000000000E+00  0.00000000000E+00  0.16870935429E+04  0.16870935429E+04  0.00000000000E+00 0. -1.
         -2   -1    0    0    0  501 -0.00000000000E+00 -0.00000000000E+00 -0.46612624714E+03  0.46612624714E+03  0.00000000000E+00 0.  1.
         23    2    1    2    0    0 -0.46383874911E+03  0.23945519997E+03 -0.23683055843E+02  0.53026698742E+03  0.90205392513E+02 0.  0.
        254    2    1    2    0    0  0.46383874911E+03 -0.23945519997E+03  0.12446503516E+04  0.16229528026E+04  0.90129691214E+03 0.  0.
        -24    2    4    4    0    0  0.36827290168E+03 -0.37805080642E+03  0.13188586437E+04  0.14227824544E+04  0.79840140777E+02 0.  0.
         24    2    4    4    0    0  0.95565847431E+02  0.13859560645E+03 -0.74208292111E+02  0.20017034823E+03  0.78865229159E+02 0.  0.
         11    1    3    3    0    0 -0.35438908118E+02  0.28998686981E+01 -0.20175616994E+02  0.40882526440E+02  0.00000000000E+00 0. -1.
        -11    1    3    3    0    0 -0.42839984099E+03  0.23655533127E+03 -0.35074388497E+01  0.48938446098E+03  0.00000000000E+00 0.  1.
          2    1    6    6  502    0  0.10139323344E+03  0.12674541888E+03 -0.84904077501E+02  0.18317666710E+03  0.00000000000E+00 0. -1.
          1    1    5    5  503    0  0.17181614005E+03 -0.22005576172E+03  0.76123545105E+03  0.81081732603E+03  0.00000000000E+00 0. -1.
         -2    1    5    5    0  503  0.19645676163E+03 -0.15799504470E+03  0.55762319268E+03  0.61196512838E+03  0.00000000000E+00 0.  1.
         -1    1    6    6    0  502 -0.58273860102E+01  0.11850187572E+02  0.10695785390E+02  0.16993681129E+02  0.00000000000E+00 0.  1.
<mgrwt>
<rscale>  0 0.17735823E+04</rscale>
<asrwt>0</asrwt>
<pdfrwt beam="1">  1        2 0.25955285E+00 0.17735823E+04</pdfrwt>
<pdfrwt beam="2">  1       -2 0.71711731E-01 0.17735823E+04</pdfrwt>
<totfact> 0.16628413E+01</totfact>
</mgrwt>
</event>
<event>
12    1  0.1562393E-007  0.1572628E+04  0.7818608E-02  0.8837543E-01
          2   -1    0    0  501    0  0.00000000000E+00  0.00000000000E+00  0.20471199216E+04  0.20471199216E+04  0.00000000000E+00 0. -1.
         -2   -1    0    0    0  501 -0.00000000000E+00 -0.00000000000E+00 -0.30202888876E+03  0.30202888876E+03  0.00000000000E+00 0.  1.
         23    2    1    2    0    0  0.28103775020E+03  0.13240761216E+03  0.12134639561E+04  0.12559817225E+04  0.92094092031E+02 0.  0.
        254    2    1    2    0    0 -0.28103775020E+03 -0.13240761216E+03  0.53162707683E+03  0.10931670879E+04  0.90325685188E+03 0.  0.
        -24    2    4    4    0    0 -0.39417035357E+03  0.15102001066E+03  0.63090983405E+03  0.76306868046E+03  0.77777124769E+02 0.  0.
         24    2    4    4    0    0  0.11313260337E+03 -0.28342762282E+03 -0.99282757223E+02  0.33009840745E+03  0.77315518477E+02 0.  0.
         13    1    3    3    0    0  0.14084915427E+03  0.63247835097E+02  0.78142869643E+03  0.79653598820E+03  0.00000000000E+00 0. -1.
        -13    1    3    3    0    0  0.14018859593E+03  0.69159777064E+02  0.43203525963E+03  0.45944573429E+03  0.00000000000E+00 0.  1.
          4    1    6    6  502    0  0.10972086077E+03 -0.21740717172E+03 -0.52524758695E+02  0.24912526143E+03  0.00000000000E+00 0. -1.
          1    1    5    5  503    0 -0.38801322073E+03  0.13738042197E+03  0.58905610277E+03  0.71862001921E+03  0.00000000000E+00 0. -1.
         -2    1    5    5    0  503 -0.61571328448E+01  0.13639588691E+02  0.41853731276E+02  0.44448661243E+02  0.00000000000E+00 0.  1.
         -3    1    6    6    0  502  0.34117425959E+01 -0.66020451099E+02 -0.46757998527E+02  0.80973146024E+02  0.00000000000E+00 0.  1.
<mgrwt>
<rscale>  0 0.15726276E+04</rscale>
<asrwt>0</asrwt>
<pdfrwt beam="1">  1        2 0.31494152E+00 0.15726276E+04</pdfrwt>
<pdfrwt beam="2">  1       -2 0.46465984E-01 0.15726276E+04</pdfrwt>
<totfact> 0.26547810E+01</totfact>
</mgrwt>
</event>
<event>
12    1  0.1562393E-007  0.1550280E+04  0.7818608E-02  0.8851689E-01
         -1   -1    0    0    0  501 -0.00000000000E+00  0.00000000000E+00  0.55411721136E+03  0.55411721136E+03  0.00000000000E+00 0.  1.
          1   -1    0    0  501    0  0.00000000000E+00 -0.00000000000E+00 -0.10843226369E+04  0.10843226369E+04  0.00000000000E+00 0. -1.
         23    2    1    2    0    0  0.14971951368E+03  0.34570880304E+03  0.17695156099E+03  0.42612588604E+03  0.91328563636E+02 0.  0.
        254    2    1    2    0    0 -0.14971951368E+03 -0.34570880304E+03 -0.70715698656E+03  0.12123139623E+04  0.90978218831E+03 0.  0.
        -24    2    4    4    0    0 -0.51117204115E+03 -0.33113053199E+03 -0.45147922023E+03  0.76237100206E+03  0.80198339269E+02 0.  0.
         24    2    4    4    0    0  0.36145252747E+03 -0.14578271058E+02 -0.25567776634E+03  0.44994296020E+03  0.78848536050E+02 0.  0.
         11    1    3    3    0    0  0.74936981874E+02  0.92187771532E+02  0.25564872245E+02  0.12152242248E+03  0.00000000000E+00 0. -1.
        -11    1    3    3    0    0  0.74782531804E+02  0.25352103151E+03  0.15138668875E+03  0.30460346356E+03  0.00000000000E+00 0.  1.
          2    1    6    6  502    0  0.33099927133E+03 -0.35899272325E+02 -0.23343661142E+03  0.40662258536E+03  0.00000000000E+00 0. -1.
          1    1    5    5  503    0 -0.46961287683E+03 -0.29139396392E+03 -0.43261491423E+03  0.70185636729E+03  0.00000000000E+00 0. -1.
         -2    1    5    5    0  503 -0.41559164319E+02 -0.39736568063E+02 -0.18864305995E+02  0.60514634767E+02  0.00000000000E+00 0.  1.
         -1    1    6    6    0  502  0.30453256138E+02  0.21321001267E+02 -0.22241154923E+02  0.43320374845E+02  0.00000000000E+00 0.  1.
<mgrwt>
<rscale>  0 0.15502798E+04</rscale>
<asrwt>0</asrwt>
<pdfrwt beam="1">  1        1 0.16681887E+00 0.15502798E+04</pdfrwt>
<pdfrwt beam="2">  1       -1 0.85248803E-01 0.15502798E+04</pdfrwt>
<totfact> 0.17080461E+01</totfact>
</mgrwt>
</event>
<event>
12    1  0.1562393E-007  0.1516276E+04  0.7818608E-02  0.8873701E-01
          2   -1    0    0  501    0  0.00000000000E+00  0.00000000000E+00  0.10582471109E+04  0.10582471109E+04  0.00000000000E+00 0. -1.
         -2   -1    0    0    0  501 -0.00000000000E+00 -0.00000000000E+00 -0.54313672312E+03  0.54313672312E+03  0.00000000000E+00 0.  1.
         23    2    1    2    0    0 -0.49276117452E+02  0.22693097445E+03 -0.28504998929E+03  0.37789826162E+03  0.87337259101E+02 0.  0.
        254    2    1    2    0    0  0.49276117452E+02 -0.22693097445E+03  0.80016037708E+03  0.12234855724E+04  0.89595452670E+03 0.  0.
        -24    2    4    4    0    0 -0.40270136039E+03 -0.22069915129E+03  0.41823578260E+03  0.62631119148E+03  0.80424111344E+02 0.  0.
         24    2    4    4    0    0  0.45197747784E+03 -0.62318231582E+01  0.38192459448E+03  0.59717438092E+03  0.80177111848E+02 0.  0.
         11    1    3    3    0    0 -0.65327134918E+02  0.19021991791E+03 -0.19879122004E+03  0.28278826159E+03  0.00000000000E+00 0. -1.
        -11    1    3    3    0    0  0.16051017466E+02  0.36711056535E+02 -0.86258769253E+02  0.95110000035E+02  0.00000000000E+00 0.  1.
          4    1    6    6  502    0  0.22058189246E+03  0.37002603981E+02  0.18390602525E+03  0.28956344747E+03  0.00000000000E+00 0. -1.
          1    1    5    5  503    0 -0.37942105101E+03 -0.18148924302E+03  0.37845540687E+03  0.56579782101E+03  0.00000000000E+00 0. -1.
         -2    1    5    5    0  503 -0.23280309387E+02 -0.39209908271E+02  0.39780375729E+02  0.60513370464E+02  0.00000000000E+00 0.  1.
         -3    1    6    6    0  502  0.23139558538E+03 -0.43234427139E+02  0.19801856922E+03  0.30761093345E+03  0.00000000000E+00 0.  1.
<mgrwt>
<rscale>  0 0.15162755E+04</rscale>
<asrwt>0</asrwt>
<pdfrwt beam="1">  1        2 0.16280725E+00 0.15162755E+04</pdfrwt>
<pdfrwt beam="2">  1       -2 0.83559496E-01 0.15162755E+04</pdfrwt>
<totfact> 0.27967696E+01</totfact>
</mgrwt>
</event>
<event>
12    1  0.1562393E-007  0.2592179E+04  0.7818608E-02  0.8370863E-01
         -2   -1    0    0    0  501 -0.00000000000E+00  0.00000000000E+00  0.12400245296E+04  0.12400245296E+04  0.00000000000E+00 0.  1.
          2   -1    0    0  501    0  0.00000000000E+00 -0.00000000000E+00 -0.13546892925E+04  0.13546892925E+04  0.00000000000E+00 0. -1.
         23    2    1    2    0    0  0.17779804167E+03  0.67025351645E+03  0.85038197465E+03  0.11012033663E+04  0.92991564912E+02 0.  0.
        254    2    1    2    0    0 -0.17779804167E+03 -0.67025351645E+03 -0.96504673754E+03  0.14935104558E+04  0.90465814313E+03 0.  0.
        -24    2    4    4    0    0 -0.13404483829E+03  0.14979444347E+02 -0.75474482058E+03  0.77109258534E+03  0.82168294078E+02 0.  0.
         24    2    4    4    0    0 -0.43753203386E+02 -0.68523296080E+03 -0.21030191696E+03  0.72241787043E+03  0.78753602296E+02 0.  0.
         13    1    3    3    0    0  0.17645532352E+03  0.67340533839E+03  0.84498546926E+03  0.10948112505E+04  0.00000000000E+00 0.  1.
        -13    1    3    3    0    0  0.13427181586E+01 -0.31518219395E+01  0.53965053859E+01  0.63921157664E+01  0.00000000000E+00 0. -1.
          2    1    6    6  502    0  0.17323067924E+02 -0.15518099466E+03 -0.67276039887E+02  0.17002145549E+03  0.00000000000E+00 0. -1.
          3    1    5    5  503    0 -0.23695165788E+02 -0.30095657443E+02 -0.16013605584E+03  0.16465347205E+03  0.00000000000E+00 0. -1.
         -4    1    5    5    0  503 -0.11034967250E+03  0.45075101790E+02 -0.59460876474E+03  0.60643911329E+03  0.00000000000E+00 0.  1.
         -1    1    6    6    0  502 -0.61076271310E+02 -0.53005196614E+03 -0.14302587707E+03  0.55239641494E+03  0.00000000000E+00 0.  1.
<mgrwt>
<rscale>  0 0.25921790E+04</rscale>
<asrwt>0</asrwt>
<pdfrwt beam="1">  1        2 0.20841374E+00 0.25921790E+04</pdfrwt>
<pdfrwt beam="2">  1       -2 0.19077300E+00 0.25921790E+04</pdfrwt>
<totfact> 0.20832555E+00</totfact>
</mgrwt>
</event>
<event>
12    1  0.1562393E-007  0.1429698E+04  0.7818608E-02  0.8932598E-01
          2   -1    0    0  501    0  0.00000000000E+00  0.00000000000E+00  0.70175463664E+03  0.70175463664E+03  0.00000000000E+00 0. -1.
         -2   -1    0    0    0  501 -0.00000000000E+00 -0.00000000000E+00 -0.72818745579E+03  0.72818745579E+03  0.00000000000E+00 0.  1.
         23    2    1    2    0    0  0.31803428302E+03 -0.19469019671E+03  0.20609285538E+03  0.43537533493E+03  0.89595420418E+02 0.  0.
        254    2    1    2    0    0 -0.31803428302E+03  0.19469019671E+03 -0.23252567454E+03  0.99456675750E+03  0.89221340941E+03 0.  0.
        -24    2    4    4    0    0 -0.11165082598E+03  0.43697968534E+03 -0.41609675263E+03  0.61882662436E+03  0.79954556606E+02 0.  0.
         24    2    4    4    0    0 -0.20638345704E+03 -0.24228948863E+03  0.18357107810E+03  0.37574013314E+03  0.78638281378E+02 0.  0.
         13    1    3    3    0    0  0.12518879770E+03 -0.28525029462E+02  0.58187037329E+02  0.14096681769E+03  0.00000000000E+00 0.  1.
        -13    1    3    3    0    0  0.19284548531E+03 -0.16616516725E+03  0.14790581805E+03  0.29440851724E+03  0.00000000000E+00 0. -1.
          4    1    6    6  502    0 -0.19232723518E+03 -0.23444301873E+03  0.14956626947E+03  0.33811738108E+03  0.00000000000E+00 0. -1.
          3    1    5    5  503    0 -0.12097592533E+03  0.40556452981E+03 -0.36928263945E+03  0.56168267745E+03  0.00000000000E+00 0. -1.
         -4    1    5    5    0  503  0.93250993560E+01  0.31415155528E+02 -0.46814113181E+02  0.57143946904E+02  0.00000000000E+00 0.  1.
         -3    1    6    6    0  502 -0.14056221862E+02 -0.78464698943E+01  0.34004808627E+02  0.37622752061E+02  0.00000000000E+00 0.  1.
<mgrwt>
<rscale>  0 0.14296978E+04</rscale>
<asrwt>0</asrwt>
<pdfrwt beam="1">  1        2 0.10796225E+00 0.14296978E+04</pdfrwt>
<pdfrwt beam="2">  1       -2 0.11202884E+00 0.14296978E+04</pdfrwt>
<totfact> 0.24931719E+01</totfact>
</mgrwt>
</event>
<event>
12    1  0.1562393E-007  0.1981580E+04  0.7818608E-02  0.8615281E-01
          2   -1    0    0  501    0  0.00000000000E+00  0.00000000000E+00  0.11587003602E+04  0.11587003602E+04  0.00000000000E+00 0. -1.
         -2   -1    0    0    0  501 -0.00000000000E+00 -0.00000000000E+00 -0.84721217561E+03  0.84721217561E+03  0.00000000000E+00 0.  1.
         23    2    1    2    0    0  0.49967792922E+03  0.11877975592E+03  0.72635810612E+03  0.89412679427E+03  0.89888611843E+02 0.  0.
        254    2    1    2    0    0 -0.49967792922E+03 -0.11877975592E+03 -0.41486992157E+03  0.11117857415E+04  0.89451876439E+03 0.  0.
        -24    2    4    4    0    0 -0.28443114853E+02 -0.20857158821E+03  0.21816344245E+03  0.31351665271E+03  0.79914239754E+02 0.  0.
         24    2    4    4    0    0 -0.47123481437E+03  0.89791832286E+02 -0.63303336401E+03  0.79826908880E+03  0.79859093214E+02 0.  0.
         11    1    3    3    0    0  0.81315923267E+02 -0.81622132282E+01  0.84855015990E+02  0.11781033418E+03  0.00000000000E+00 0.  1.
        -11    1    3    3    0    0  0.41836200595E+03  0.12694196915E+03  0.64150309013E+03  0.77631646008E+03  0.00000000000E+00 0. -1.
          4    1    6    6  502    0 -0.23404696787E+03  0.82517175952E+02 -0.34713545106E+03  0.42672015288E+03  0.00000000000E+00 0. -1.
          1    1    5    5  503    0 -0.55497168861E+02 -0.15951565278E+03  0.17003508585E+03  0.23966040485E+03  0.00000000000E+00 0. -1.
         -2    1    5    5    0  503  0.27054054007E+02 -0.49055935422E+02  0.48128356597E+02  0.73856247854E+02  0.00000000000E+00 0.  1.
         -3    1    6    6    0  502 -0.23718784650E+03  0.72746563346E+01 -0.28589791296E+03  0.37154893592E+03  0.00000000000E+00 0.  1.
<mgrwt>
<rscale>  0 0.19815802E+04</rscale>
<asrwt>0</asrwt>
<pdfrwt beam="1">  1        2 0.17826159E+00 0.19815802E+04</pdfrwt>
<pdfrwt beam="2">  1       -2 0.13034034E+00 0.19815802E+04</pdfrwt>
<totfact> 0.80523400E+00</totfact>
</mgrwt>
</event>
<event>
12    1  0.1562393E-007  0.1406158E+04  0.7818608E-02  0.8949373E-01
         -2   -1    0    0    0  501 -0.00000000000E+00  0.00000000000E+00  0.22055644029E+03  0.22055644029E+03  0.00000000000E+00 0.  1.
          2   -1    0    0  501    0  0.00000000000E+00 -0.00000000000E+00 -0.22412395260E+04  0.22412395260E+04  0.00000000000E+00 0. -1.
         23    2    1    2    0    0  0.37963926478E+02  0.63254781945E+01  0.10903044851E+03  0.14696543662E+03  0.90718958730E+02 0.  0.
        254    2    1    2    0    0 -0.37963926478E+02 -0.63254781945E+01 -0.21297135342E+04  0.23148305296E+04  0.90624465342E+03 0.  0.
        -24    2    4    4    0    0  0.38219744071E+02 -0.41121539830E+03 -0.63129642923E+03  0.75866209879E+03  0.80462077675E+02 0.  0.
         24    2    4    4    0    0 -0.76183670548E+02  0.40488992011E+03 -0.14984171049E+04  0.15561684308E+04  0.81649039723E+02 0.  0.
         13    1    3    3    0    0  0.71938145799E+01 -0.40006796994E+02  0.30898963735E+02  0.51059188534E+02  0.00000000000E+00 0. -1.
        -13    1    3    3    0    0  0.30770111898E+02  0.46332275188E+02  0.78131484770E+02  0.95906248090E+02  0.00000000000E+00 0.  1.
          4    1    6    6  502    0 -0.50496575022E+02  0.10208306836E+03 -0.48338008024E+03  0.49661570546E+03  0.00000000000E+00 0. -1.
          1    1    5    5  503    0  0.48722755489E+02 -0.17498626128E+03 -0.23265586166E+03  0.29516579833E+03  0.00000000000E+00 0. -1.
         -2    1    5    5    0  503 -0.10503011419E+02 -0.23622913702E+03 -0.39864056757E+03  0.46349630046E+03  0.00000000000E+00 0.  1.
         -3    1    6    6    0  502 -0.25687095526E+02  0.30280685175E+03 -0.10150370247E+04  0.10595527254E+04  0.00000000000E+00 0.  1.
<mgrwt>
<rscale>  0 0.14061576E+04</rscale>
<asrwt>0</asrwt>
<pdfrwt beam="1">  1        2 0.34480608E+00 0.14061576E+04</pdfrwt>
<pdfrwt beam="2">  1       -2 0.33931760E-01 0.14061576E+04</pdfrwt>
<totfact> 0.38773152E+01</totfact>
</mgrwt>
</event>
<event>
12    1  0.1562393E-007  0.3263186E+04  0.7818608E-02  0.8172326E-01
          2   -1    0    0  501    0  0.00000000000E+00  0.00000000000E+00  0.31318040452E+04  0.31318040452E+04  0.00000000000E+00 0. -1.
         -2   -1    0    0    0  501 -0.00000000000E+00 -0.00000000000E+00 -0.85001968261E+03  0.85001968261E+03  0.00000000000E+00 0.  1.
         23    2    1    2    0    0  0.16109460895E+03  0.36734164222E+03  0.28241422661E+04  0.28539092541E+04  0.90150630772E+02 0.  0.
        254    2    1    2    0    0 -0.16109460895E+03 -0.36734164222E+03 -0.54235790350E+03  0.11279144737E+04  0.90396217255E+03 0.  0.
        -24    2    4    4    0    0  0.35633225151E+03 -0.50006372141E+02 -0.14152839483E+03  0.39616418568E+03  0.86269720965E+02 0.  0.
         24    2    4    4    0    0 -0.51742686046E+03 -0.31733527008E+03 -0.40082950867E+03  0.73175028804E+03  0.79761892306E+02 0.  0.
         11    1    3    3    0    0 -0.79590359124E+01  0.18531802823E+02  0.78900885710E+02  0.81437851975E+02  0.00000000000E+00 0.  1.
        -11    1    3    3    0    0  0.16905364486E+03  0.34880983940E+03  0.27452413804E+04  0.27724714021E+04  0.00000000000E+00 0. -1.
          2    1    6    6  502    0 -0.40812792056E+03 -0.26176137501E+03 -0.35467849953E+03  0.60073642725E+03  0.00000000000E+00 0. -1.
          1    1    5    5  503    0  0.32611586209E+03 -0.66144156340E+02 -0.11248725217E+03  0.35125487445E+03  0.00000000000E+00 0. -1.
         -2    1    5    5    0  503  0.30216389417E+02  0.16137784199E+02 -0.29041142661E+02  0.44909311232E+02  0.00000000000E+00 0.  1.
         -1    1    6    6    0  502 -0.10929893990E+03 -0.55573895072E+02 -0.46151009140E+02  0.13101386079E+03  0.00000000000E+00 0.  1.
<mgrwt>
<rscale>  0 0.32631856E+04</rscale>
<asrwt>0</asrwt>
<pdfrwt beam="1">  1        2 0.48181600E+00 0.32631856E+04</pdfrwt>
<pdfrwt beam="2">  1       -2 0.13077226E+00 0.32631856E+04</pdfrwt>
<totfact> 0.51410765E-01</totfact>
</mgrwt>
</event>
<event>
12    1  0.1562393E-007  0.1699483E+04  0.7818608E-02  0.8761659E-01
          1   -1    0    0  501    0  0.00000000000E+00  0.00000000000E+00  0.19569926002E+04  0.19569926002E+04  0.00000000000E+00 0. -1.
         -1   -1    0    0    0  501 -0.00000000000E+00 -0.00000000000E+00 -0.36896428681E+03  0.36896428681E+03  0.00000000000E+00 0.  1.
         23    2    1    2    0    0 -0.29060604400E+03  0.14497472563E+03 -0.12923157936E+03  0.36169913623E+03  0.93037197772E+02 0.  0.
        254    2    1    2    0    0  0.29060604400E+03 -0.14497472563E+03  0.17172598927E+04  0.19642577507E+04  0.89658096587E+03 0.  0.
        -24    2    4    4    0    0  0.44758102547E+03 -0.18961758048E+03  0.40047929127E+03  0.63496326247E+03  0.80691268248E+02 0.  0.
         24    2    4    4    0    0 -0.15697498147E+03  0.44642854852E+02  0.13167806015E+04  0.13292944883E+04  0.80489470784E+02 0.  0.
         11    1    3    3    0    0 -0.11708685030E+03  0.10192193133E+03 -0.87183999485E+02  0.17804061437E+03  0.00000000000E+00 0. -1.
        -11    1    3    3    0    0 -0.17351919370E+03  0.43052794292E+02 -0.42047579870E+02  0.18365852186E+03  0.00000000000E+00 0.  1.
          2    1    6    6  502    0  0.46071397528E+01  0.67468404609E+01  0.20810300671E+03  0.20826331168E+03  0.00000000000E+00 0. -1.
          1    1    5    5  503    0  0.64932985341E+02 -0.60899085931E+02  0.71677603513E+02  0.11429203865E+03  0.00000000000E+00 0. -1.
         -2    1    5    5    0  503  0.38264804012E+03 -0.12871849455E+03  0.32880168775E+03  0.52067122382E+03  0.00000000000E+00 0.  1.
         -1    1    6    6    0  502 -0.16158212122E+03  0.37896014391E+02  0.11086775947E+04  0.11210311766E+04  0.00000000000E+00 0.  1.
<mgrwt>
<rscale>  0 0.16994827E+04</rscale>
<asrwt>0</asrwt>
<pdfrwt beam="1">  1        1 0.30107578E+00 0.16994827E+04</pdfrwt>
<pdfrwt beam="2">  1       -1 0.56763738E-01 0.16994827E+04</pdfrwt>
<totfact> 0.95308395E+00</totfact>
</mgrwt>
</event>
<event>
12    1  0.1562393E-007  0.1386668E+04  0.7818608E-02  0.8963526E-01
         -1   -1    0    0    0  501 -0.00000000000E+00  0.00000000000E+00  0.35151849125E+03  0.35151849125E+03  0.00000000000E+00 0.  1.
          1   -1    0    0  501    0  0.00000000000E+00 -0.00000000000E+00 -0.13675294325E+04  0.13675294325E+04  0.00000000000E+00 0. -1.
         23    2    1    2    0    0  0.13524265356E+03  0.26025922539E+03  0.28095351690E+02  0.30852993502E+03  0.91520119517E+02 0.  0.
        254    2    1    2    0    0 -0.13524265356E+03 -0.26025922539E+03 -0.10441062929E+04  0.14105179887E+04  0.90187449561E+03 0.  0.
        -24    2    4    4    0    0 -0.13932484811E+02  0.23953708090E+03 -0.79351327210E+03  0.83299104099E+03  0.81477813606E+02 0.  0.
         24    2    4    4    0    0 -0.12131016875E+03 -0.49979630629E+03 -0.25059302084E+03  0.57752694774E+03  0.78917732165E+02 0.  0.
         13    1    3    3    0    0  0.90295623172E+02  0.13284121795E+03 -0.26514816801E+02  0.16279780177E+03  0.00000000000E+00 0. -1.
        -13    1    3    3    0    0  0.44947030391E+02  0.12741800744E+03  0.54610168492E+02  0.14573213325E+03  0.00000000000E+00 0.  1.
          2    1    6    6  502    0 -0.99521147238E+02 -0.30029183949E+03 -0.18454858065E+03  0.36624831225E+03  0.00000000000E+00 0. -1.
          1    1    5    5  503    0  0.53605642452E+00  0.51740078391E+01 -0.11275516671E+03  0.11287508731E+03  0.00000000000E+00 0. -1.
         -2    1    5    5    0  503 -0.14468541235E+02  0.23436307306E+03 -0.68075810538E+03  0.72011595368E+03  0.00000000000E+00 0.  1.
         -1    1    6    6    0  502 -0.21789021514E+02 -0.19950446680E+03 -0.66044440191E+02  0.21127863549E+03  0.00000000000E+00 0.  1.
<mgrwt>
<rscale>  0 0.13866678E+04</rscale>
<asrwt>0</asrwt>
<pdfrwt beam="1">  1        1 0.21038915E+00 0.13866678E+04</pdfrwt>
<pdfrwt beam="2">  1       -1 0.54079767E-01 0.13866678E+04</pdfrwt>
<totfact> 0.27286793E+01</totfact>
</mgrwt>
</event>
<event>
12    1  0.1562393E-007  0.1228078E+04  0.7818608E-02  0.9088629E-01
          2   -1    0    0  501    0  0.00000000000E+00  0.00000000000E+00  0.16288480950E+04  0.16288480950E+04  0.00000000000E+00 0. -1.
         -2   -1    0    0    0  501 -0.00000000000E+00 -0.00000000000E+00 -0.23147891252E+03  0.23147891252E+03  0.00000000000E+00 0.  1.
         23    2    1    2    0    0  0.64345780316E+02  0.12197264823E+03 -0.31971247043E+02  0.16799479241E+03  0.90456527004E+02 0.  0.
        254    2    1    2    0    0 -0.64345780316E+02 -0.12197264823E+03  0.14293404295E+04  0.16923322151E+04  0.89552027138E+03 0.  0.
        -24    2    4    4    0    0 -0.22649232898E+03 -0.45749588161E+03  0.93573319805E+03  0.10687483938E+04  0.77622513444E+02 0.  0.
         24    2    4    4    0    0  0.16214654866E+03  0.33552323338E+03  0.49360723143E+03  0.62358382125E+03  0.79632529919E+02 0.  0.
         11    1    3    3    0    0  0.16475478618E+02 -0.10073646370E+02  0.95320387579E+01  0.21535540619E+02  0.00000000000E+00 0. -1.
        -11    1    3    3    0    0  0.47870301698E+02  0.13204629460E+03 -0.41503285801E+02  0.14645925179E+03  0.00000000000E+00 0.  1.
          2    1    6    6  502    0  0.30051039835E+02  0.15022435134E+03  0.18656687825E+03  0.24140758230E+03  0.00000000000E+00 0. -1.
          3    1    5    5  503    0 -0.78232746581E+02 -0.90890016795E+02  0.19076787204E+03  0.22533028823E+03  0.00000000000E+00 0. -1.
         -4    1    5    5    0  503 -0.14825958240E+03 -0.36660586481E+03  0.74496532601E+03  0.84341810559E+03  0.00000000000E+00 0.  1.
         -1    1    6    6    0  502  0.13209550883E+03  0.18529888204E+03  0.30704035318E+03  0.38217623895E+03  0.00000000000E+00 0.  1.
<mgrwt>
<rscale>  0 0.12280782E+04</rscale>
<asrwt>0</asrwt>
<pdfrwt beam="1">  1        2 0.25059201E+00 0.12280782E+04</pdfrwt>
<pdfrwt beam="2">  1       -2 0.35612141E-01 0.12280782E+04</pdfrwt>
<totfact> 0.78397488E+01</totfact>
</mgrwt>
</event>
<event>
12    1  0.1626826E-007  0.1316066E+04  0.7818608E-02  0.9016921E-01
         -2   -1    0    0    0  501 -0.00000000000E+00  0.00000000000E+00  0.20073930847E+03  0.20073930847E+03  0.00000000000E+00 0.  1.
          2   -1    0    0  501    0  0.00000000000E+00 -0.00000000000E+00 -0.21570637874E+04  0.21570637874E+04  0.00000000000E+00 0. -1.
         23    2    1    2    0    0 -0.16376562254E+02  0.27550995791E+03 -0.15737144550E+03  0.33077143406E+03  0.92032825842E+02 0.  0.
        254    2    1    2    0    0  0.16376562254E+02 -0.27550995791E+03 -0.17989530334E+04  0.20270316618E+04  0.89244126574E+03 0.  0.
        -24    2    4    4    0    0 -0.34437764015E+03 -0.38071316977E+03 -0.77254222312E+03  0.93092327585E+03  0.79108674223E+02 0.  0.
         24    2    4    4    0    0  0.36075420241E+03  0.10520321185E+03 -0.10264108103E+04  0.10961083859E+04  0.81994706659E+02 0.  0.
         13    1    3    3    0    0 -0.11120699448E+02 -0.36661632121E+01 -0.65323825719E+01  0.13408308282E+02  0.00000000000E+00 0. -1.
        -13    1    3    3    0    0 -0.52558628064E+01  0.27917612113E+03 -0.15083906293E+03  0.31736312578E+03  0.00000000000E+00 0.  1.
          2    1    6    6  502    0  0.35291098825E+03  0.11380880116E+03 -0.96893410972E+03  0.10374641767E+04  0.00000000000E+00 0. -1.
          1    1    5    5  503    0 -0.34128467851E+03 -0.38005276232E+03 -0.74555849539E+03  0.90375483622E+03  0.00000000000E+00 0. -1.
         -2    1    5    5    0  503 -0.30929616398E+01 -0.66040744658E+00 -0.26983727734E+02  0.27168439633E+02  0.00000000000E+00 0.  1.
         -1    1    6    6    0  502  0.78432141551E+01 -0.86055893092E+01 -0.57476700550E+02  0.58644209277E+02  0.00000000000E+00 0.  1.
<mgrwt>
<rscale>  0 0.13160661E+04</rscale>
<asrwt>0</asrwt>
<pdfrwt beam="1">  1        2 0.33185596E+00 0.13160661E+04</pdfrwt>
<pdfrwt beam="2">  1       -2 0.30882971E-01 0.13160661E+04</pdfrwt>
<totfact> 0.51999617E+01</totfact>
</mgrwt>
</event>
<event>
12    1  0.1562393E-007  0.2184967E+04  0.7818608E-02  0.8524711E-01
          2   -1    0    0  501    0  0.00000000000E+00  0.00000000000E+00  0.12074449796E+04  0.12074449796E+04  0.00000000000E+00 0. -1.
         -2   -1    0    0    0  501 -0.00000000000E+00 -0.00000000000E+00 -0.98846780507E+03  0.98846780507E+03  0.00000000000E+00 0.  1.
         23    2    1    2    0    0  0.77627988604E+03 -0.45178472289E+03  0.96785888841E+02  0.90725971472E+03  0.83861697881E+02 0.  0.
        254    2    1    2    0    0 -0.77627988604E+03  0.45178472289E+03  0.12219128572E+03  0.12886530700E+04  0.91595640025E+03 0.  0.
        -24    2    4    4    0    0 -0.84386553958E+03  0.53554699178E+03 -0.12347461751E+03  0.10100340642E+04  0.77480322365E+02 0.  0.
         24    2    4    4    0    0  0.67585653545E+02 -0.83762268892E+02  0.24566590323E+03  0.27861900579E+03  0.75451150582E+02 0.  0.
         13    1    3    3    0    0  0.68328990883E+03 -0.41923054585E+03  0.67545204429E+02  0.80448847396E+03  0.00000000000E+00 0.  1.
        -13    1    3    3    0    0  0.92989977202E+02 -0.32554177039E+02  0.29240684412E+02  0.10277124076E+03  0.00000000000E+00 0. -1.
          4    1    6    6  502    0  0.57305943779E+02 -0.61517011489E+02  0.98830555902E+02  0.12975281375E+03  0.00000000000E+00 0. -1.
          3    1    5    5  503    0 -0.66907064686E+03  0.45843852148E+03 -0.89430845258E+02  0.81597750248E+03  0.00000000000E+00 0. -1.
         -4    1    5    5    0  503 -0.17479489272E+03  0.77108470296E+02 -0.34043772248E+02  0.19405656171E+03  0.00000000000E+00 0.  1.
         -3    1    6    6    0  502  0.10279709766E+02 -0.22245257402E+02  0.14683534732E+03  0.14886619204E+03  0.00000000000E+00 0.  1.
<mgrwt>
<rscale>  0 0.21849673E+04</rscale>
<asrwt>0</asrwt>
<pdfrwt beam="1">  1        2 0.18576077E+00 0.21849673E+04</pdfrwt>
<pdfrwt beam="2">  1       -2 0.15207197E+00 0.21849673E+04</pdfrwt>
<totfact> 0.49568700E+00</totfact>
</mgrwt>
</event>
<event>
12    1  0.1562393E-007  0.2142048E+04  0.7818608E-02  0.8542944E-01
          2   -1    0    0  501    0  0.00000000000E+00  0.00000000000E+00  0.44247778649E+04  0.44247778649E+04  0.00000000000E+00 0. -1.
         -2   -1    0    0    0  501 -0.00000000000E+00 -0.00000000000E+00 -0.25924299696E+03  0.25924299696E+03  0.00000000000E+00 0.  1.
         23    2    1    2    0    0  0.56834791593E+02 -0.83946283948E+03  0.11584099661E+04  0.14347733715E+04  0.93450124357E+02 0.  0.
        254    2    1    2    0    0 -0.56834791593E+02  0.83946283948E+03  0.30071249019E+04  0.32492474903E+04  0.89826556516E+03 0.  0.
        -24    2    4    4    0    0 -0.36089837138E+03  0.64805723558E+02  0.68212947672E+03  0.77859440983E+03  0.80381687812E+02 0.  0.
         24    2    4    4    0    0  0.30406357979E+03  0.77465711592E+03  0.23249954251E+04  0.24706530805E+04  0.77295597487E+02 0.  0.
         13    1    3    3    0    0  0.40412123626E+02 -0.81891054615E+03  0.11148425330E+04  0.13838791478E+04  0.00000000000E+00 0. -1.
        -13    1    3    3    0    0  0.16422667967E+02 -0.20552293329E+02  0.43567433040E+02  0.50894223699E+02  0.00000000000E+00 0.  1.
          4    1    6    6  502    0 -0.18292930884E+01  0.81986773124E+01  0.10569959830E+02  0.13501432282E+02  0.00000000000E+00 0. -1.
          1    1    5    5  503    0 -0.53658505411E+02 -0.96187539532E+01  0.15058759219E+03  0.16015111161E+03  0.00000000000E+00 0. -1.
         -2    1    5    5    0  503 -0.30723986597E+03  0.74424477512E+02  0.53154188453E+03  0.61844329821E+03  0.00000000000E+00 0.  1.
         -3    1    6    6    0  502  0.30589287288E+03  0.76645843861E+03  0.23144254653E+04  0.24571516482E+04  0.00000000000E+00 0.  1.
<mgrwt>
<rscale>  0 0.21420482E+04</rscale>
<asrwt>0</asrwt>
<pdfrwt beam="1">  1        2 0.68073500E+00 0.21420482E+04</pdfrwt>
<pdfrwt beam="2">  1       -2 0.39883541E-01 0.21420482E+04</pdfrwt>
<totfact> 0.80420471E-01</totfact>
</mgrwt>
</event>
<event>
12    1  0.1562393E-007  0.2183252E+04  0.7818608E-02  0.8525431E-01
          2   -1    0    0  501    0  0.00000000000E+00  0.00000000000E+00  0.32562777425E+04  0.32562777425E+04  0.00000000000E+00 0. -1.
         -2   -1    0    0    0  501 -0.00000000000E+00 -0.00000000000E+00 -0.36595388974E+03  0.36595388974E+03  0.00000000000E+00 0.  1.
         23    2    1    2    0    0  0.80121139578E+03 -0.35704169594E+03  0.14928806194E+04  0.17339364649E+04  0.91785876962E+02 0.  0.
        254    2    1    2    0    0 -0.80121139578E+03  0.35704169594E+03  0.13974432333E+04  0.18882951673E+04  0.91836407549E+03 0.  0.
        -24    2    4    4    0    0  0.56484867829E+02  0.12612421322E+03  0.79891514704E+03  0.81455985901E+03  0.78386824619E+02 0.  0.
         24    2    4    4    0    0 -0.85769626361E+03  0.23091748272E+03  0.59852808631E+03  0.10737353083E+04  0.75537261063E+02 0.  0.
         11    1    3    3    0    0  0.40876350051E+02 -0.21949326312E+02  0.45328667838E+02  0.64863988831E+02  0.00000000000E+00 0. -1.
        -11    1    3    3    0    0  0.76033504573E+03 -0.33509236963E+03  0.14475519516E+04  0.16690724761E+04  0.00000000000E+00 0.  1.
          2    1    6    6  502    0 -0.40233286234E+03  0.69370283206E+02  0.27572478260E+03  0.49265416273E+03  0.00000000000E+00 0. -1.
          1    1    5    5  503    0  0.76090417803E+02  0.10569258135E+03  0.67525653875E+03  0.68770056461E+03  0.00000000000E+00 0. -1.
         -2    1    5    5    0  503 -0.19605549974E+02  0.20431631868E+02  0.12365860829E+03  0.12685929440E+03  0.00000000000E+00 0.  1.
         -1    1    6    6    0  502 -0.45536340127E+03  0.16154719951E+03  0.32280330370E+03  0.58108114559E+03  0.00000000000E+00 0.  1.
<mgrwt>
<rscale>  0 0.21832522E+04</rscale>
<asrwt>0</asrwt>
<pdfrwt beam="1">  1        2 0.50096579E+00 0.21832522E+04</pdfrwt>
<pdfrwt beam="2">  1       -2 0.56300601E-01 0.21832522E+04</pdfrwt>
<totfact> 0.32352768E+00</totfact>
</mgrwt>
</event>
<event>
12    1  0.1562393E-007  0.1080369E+04  0.7818608E-02  0.9224540E-01
          2   -1    0    0  501    0  0.00000000000E+00  0.00000000000E+00  0.52607684741E+03  0.52607684741E+03  0.00000000000E+00 0. -1.
         -2   -1    0    0    0  501 -0.00000000000E+00 -0.00000000000E+00 -0.55467022090E+03  0.55467022090E+03  0.00000000000E+00 0.  1.
         23    2    1    2    0    0 -0.82609543401E+02 -0.38036608759E+01  0.20138495487E+03  0.23596038797E+03  0.91008791577E+02 0.  0.
        254    2    1    2    0    0  0.82609543401E+02  0.38036608759E+01 -0.22997832836E+03  0.84478668034E+03  0.80866290831E+03 0.  0.
        -24    2    4    4    0    0 -0.15560336806E+03 -0.29888571572E+03 -0.28415267040E+03  0.44794786641E+03  0.79808970117E+02 0.  0.
         24    2    4    4    0    0  0.23821291146E+03  0.30268937660E+03  0.54174342044E+02  0.39683881393E+03  0.78612562694E+02 0.  0.
         11    1    3    3    0    0 -0.66692198869E+02 -0.26848461964E+02  0.65624294164E+02  0.97340830509E+02  0.00000000000E+00 0.  1.
        -11    1    3    3    0    0 -0.15917344533E+02  0.23044801088E+02  0.13576066071E+03  0.13861955746E+03  0.00000000000E+00 0. -1.
          2    1    6    6  502    0 -0.48316117623E+01  0.86214693082E+01 -0.44792475237E+01  0.10850707978E+02  0.00000000000E+00 0. -1.
          1    1    5    5  503    0  0.84336065041E+01 -0.22575707016E+02 -0.28489560873E+02  0.37315457181E+02  0.00000000000E+00 0. -1.
         -2    1    5    5    0  503 -0.16403697457E+03 -0.27631000870E+03 -0.25566310953E+03  0.41063240923E+03  0.00000000000E+00 0.  1.
         -1    1    6    6    0  502  0.24304452323E+03  0.29406790729E+03  0.58653589568E+02  0.38598810595E+03  0.00000000000E+00 0.  1.
<mgrwt>
<rscale>  0 0.10803688E+04</rscale>
<asrwt>0</asrwt>
<pdfrwt beam="1">  1        2 0.80934899E-01 0.10803688E+04</pdfrwt>
<pdfrwt beam="2">  1       -2 0.85333880E-01 0.10803688E+04</pdfrwt>
<totfact> 0.68913623E+01</totfact>
</mgrwt>
</event>
<event>
12    1  0.1562393E-007  0.1299321E+04  0.7818608E-02  0.9030104E-01
          1   -1    0    0  501    0  0.00000000000E+00  0.00000000000E+00  0.15451008200E+04  0.15451008200E+04  0.00000000000E+00 0. -1.
         -1   -1    0    0    0  501 -0.00000000000E+00 -0.00000000000E+00 -0.27315926028E+03  0.27315926028E+03  0.00000000000E+00 0.  1.
         23    2    1    2    0    0 -0.22981725638E+03  0.11304831286E+03  0.24448633878E+02  0.27294241379E+03  0.91125919338E+02 0.  0.
        254    2    1    2    0    0  0.22981725638E+03 -0.11304831286E+03  0.12474929258E+04  0.15453176665E+04  0.87531262869E+03 0.  0.
        -24    2    4    4    0    0 -0.28580188290E+03  0.67266462726E+02  0.72093594582E+03  0.78249743153E+03  0.79662407045E+02 0.  0.
         24    2    4    4    0    0  0.51561913928E+03 -0.18031477558E+03  0.52655697999E+03  0.76282023492E+03  0.79094516586E+02 0.  0.
         13    1    3    3    0    0 -0.23822986589E+03  0.11170058694E+03  0.25537320415E+02  0.26435325770E+03  0.00000000000E+00 0. -1.
        -13    1    3    3    0    0  0.84126095075E+01  0.13477259174E+01 -0.10886865376E+01  0.85891560849E+01  0.00000000000E+00 0.  1.
          4    1    6    6  502    0  0.18627591752E+03 -0.69834471336E+02  0.24547605628E+03  0.31596529088E+03  0.00000000000E+00 0. -1.
          3    1    5    5  503    0 -0.12269461940E+02  0.28640320261E+01  0.10175689249E+03  0.10253393362E+03  0.00000000000E+00 0. -1.
         -4    1    5    5    0  503 -0.27353242096E+03  0.64402430700E+02  0.61917905333E+03  0.67996349790E+03  0.00000000000E+00 0.  1.
         -3    1    6    6    0  502  0.32934322176E+03 -0.11048030425E+03  0.28108092371E+03  0.44685494404E+03  0.00000000000E+00 0.  1.
<mgrwt>
<rscale>  0 0.12993207E+04</rscale>
<asrwt>0</asrwt>
<pdfrwt beam="1">  1        1 0.23770781E+00 0.12993207E+04</pdfrwt>
<pdfrwt beam="2">  1       -1 0.42024502E-01 0.12993207E+04</pdfrwt>
<totfact> 0.33265835E+01</totfact>
</mgrwt>
</event>
<event>
12    1  0.1562393E-007  0.1460940E+04  0.7818608E-02  0.8910851E-01
          1   -1    0    0  501    0  0.00000000000E+00  0.00000000000E+00  0.25040413909E+04  0.25040413909E+04  0.00000000000E+00 0. -1.
         -1   -1    0    0    0  501 -0.00000000000E+00 -0.00000000000E+00 -0.21309016848E+03  0.21309016848E+03  0.00000000000E+00 0.  1.
         23    2    1    2    0    0  0.35589347559E+03 -0.27612709181E+03  0.72621774871E+03  0.85934553005E+03  0.90422257593E+02 0.  0.
        254    2    1    2    0    0 -0.35589347559E+03  0.27612709181E+03  0.15647334737E+04  0.18577860294E+04  0.89446729972E+03 0.  0.
        -24    2    4    4    0    0 -0.43647598763E+03 -0.14297534204E+03  0.12115930958E+04  0.12981131711E+04  0.78655827007E+02 0.  0.
         24    2    4    4    0    0  0.80582512048E+02  0.41910243385E+03  0.35314037797E+03  0.55967285824E+03  0.79907386328E+02 0.  0.
         13    1    3    3    0    0  0.20170468462E+03 -0.16612857215E+03  0.33656157868E+03  0.42609526931E+03  0.00000000000E+00 0. -1.
        -13    1    3    3    0    0  0.15418879097E+03 -0.10999851967E+03  0.38965617003E+03  0.43325026074E+03  0.00000000000E+00 0.  1.
          2    1    6    6  502    0  0.26294818302E+01  0.16742591781E+03  0.17127731859E+03  0.23952927169E+03  0.00000000000E+00 0. -1.
          1    1    5    5  503    0 -0.13583933251E+03 -0.75831110632E+01  0.33621806199E+03  0.36270154816E+03  0.00000000000E+00 0. -1.
         -2    1    5    5    0  503 -0.30063665512E+03 -0.13539223098E+03  0.87537503379E+03  0.93541162297E+03  0.00000000000E+00 0.  1.
         -1    1    6    6    0  502  0.77953030218E+02  0.25167651604E+03  0.18186305937E+03  0.32014358655E+03  0.00000000000E+00 0.  1.
<mgrwt>
<rscale>  0 0.14609402E+04</rscale>
<asrwt>0</asrwt>
<pdfrwt beam="1">  1        1 0.38523712E+00 0.14609402E+04</pdfrwt>
<pdfrwt beam="2">  1       -1 0.32783105E-01 0.14609402E+04</pdfrwt>
<totfact> 0.11426842E+01</totfact>
</mgrwt>
</event>
<event>
12    1  0.1562393E-007  0.1492861E+04  0.7818608E-02  0.8889214E-01
         -1   -1    0    0    0  501 -0.00000000000E+00  0.00000000000E+00  0.87468532904E+03  0.87468532904E+03  0.00000000000E+00 0.  1.
          1   -1    0    0  501    0  0.00000000000E+00 -0.00000000000E+00 -0.63698204287E+03  0.63698204287E+03  0.00000000000E+00 0. -1.
         23    2    1    2    0    0 -0.21445365721E+03  0.20437847819E+03  0.43504285115E+03  0.53402561407E+03  0.90333497142E+02 0.  0.
        254    2    1    2    0    0  0.21445365721E+03 -0.20437847819E+03 -0.19733956498E+03  0.97764175784E+03  0.91053806583E+03 0.  0.
        -24    2    4    4    0    0 -0.31445494475E+03  0.91418916603E+02 -0.56646337922E+01  0.33687919389E+03  0.78842708027E+02 0.  0.
         24    2    4    4    0    0  0.52890860196E+03 -0.29579739480E+03 -0.19167493119E+03  0.64076256395E+03  0.81221771228E+02 0.  0.
         11    1    3    3    0    0 -0.77902164550E+01  0.75369982260E+01 -0.29650169553E+01  0.11237666138E+02  0.00000000000E+00 0. -1.
        -11    1    3    3    0    0 -0.20666344076E+03  0.19684147997E+03  0.43800786810E+03  0.52278794793E+03  0.00000000000E+00 0.  1.
          4    1    6    6  502    0  0.31371428050E+03 -0.17366258692E+03 -0.71284553382E+02  0.36559107133E+03  0.00000000000E+00 0. -1.
          1    1    5    5  503    0 -0.57825595463E+02  0.37778173216E+02 -0.26260815695E+02  0.73896010063E+02  0.00000000000E+00 0. -1.
         -2    1    5    5    0  503 -0.25662934929E+03  0.53640743386E+02  0.20596181903E+02  0.26298318383E+03  0.00000000000E+00 0.  1.
         -3    1    6    6    0  502  0.21519432146E+03 -0.12213480787E+03 -0.12039037781E+03  0.27517149262E+03  0.00000000000E+00 0.  1.
<mgrwt>
<rscale>  0 0.14928615E+04</rscale>
<asrwt>0</asrwt>
<pdfrwt beam="1">  1        1 0.97997238E-01 0.14928615E+04</pdfrwt>
<pdfrwt beam="2">  1       -1 0.13456697E+00 0.14928615E+04</pdfrwt>
<totfact> 0.14110740E+01</totfact>
</mgrwt>
</event>
<event>
12    1  0.1562393E-007  0.3831250E+04  0.7818608E-02  0.8039482E-01
          1   -1    0    0  501    0  0.00000000000E+00  0.00000000000E+00  0.39245927979E+04  0.39245927979E+04  0.00000000000E+00 0. -1.
         -1   -1    0    0    0  501 -0.00000000000E+00 -0.00000000000E+00 -0.93503171159E+03  0.93503171159E+03  0.00000000000E+00 0.  1.
         23    2    1    2    0    0 -0.10929383332E+04  0.12021364412E+04  0.41372643592E+03  0.16790113167E+04  0.90902223338E+02 0.  0.
        254    2    1    2    0    0  0.10929383332E+04 -0.12021364412E+04  0.25758346504E+04  0.31806131928E+04  0.91745839834E+03 0.  0.
        -24    2    4    4    0    0  0.48142884777E+03  0.26854364690E+02  0.72955689052E+03  0.87857941714E+03  0.84579213398E+02 0.  0.
         24    2    4    4    0    0  0.61150948544E+03 -0.12289908059E+04  0.18462777598E+04  0.23020337757E+04  0.79092894912E+02 0.  0.
         13    1    3    3    0    0 -0.43108082689E+02  0.71942081668E+02  0.33285857415E+02  0.90232578439E+02  0.00000000000E+00 0. -1.
        -13    1    3    3    0    0 -0.10498302505E+04  0.11301943595E+04  0.38044057850E+03  0.15887787382E+04  0.00000000000E+00 0.  1.
          4    1    6    6  502    0  0.45920156895E+03 -0.87063620605E+03  0.13673855608E+04  0.16848195025E+04  0.00000000000E+00 0. -1.
          1    1    5    5  503    0  0.33283174164E+03  0.46026842620E+02  0.45251927013E+03  0.56362144062E+03  0.00000000000E+00 0. -1.
         -2    1    5    5    0  503  0.14859710613E+03 -0.19172477931E+02  0.27703762039E+03  0.31495797652E+03  0.00000000000E+00 0.  1.
         -3    1    6    6    0  502  0.15230791649E+03 -0.35835459984E+03  0.47889219909E+03  0.61721427317E+03  0.00000000000E+00 0.  1.
<mgrwt>
<rscale>  0 0.38312498E+04</rscale>
<asrwt>0</asrwt>
<pdfrwt beam="1">  1        1 0.60378350E+00 0.38312498E+04</pdfrwt>
<pdfrwt beam="2">  1       -1 0.14385103E+00 0.38312498E+04</pdfrwt>
<totfact> 0.34476244E-02</totfact>
</mgrwt>
</event>
<event>
12    1  0.1562393E-007  0.2945425E+04  0.7818608E-02  0.8259489E-01
          2   -1    0    0  501    0  0.00000000000E+00  0.00000000000E+00  0.38895427135E+04  0.38895427135E+04  0.00000000000E+00 0. -1.
         -2   -1    0    0    0  501 -0.00000000000E+00 -0.00000000000E+00 -0.55761875326E+03  0.55761875326E+03  0.00000000000E+00 0.  1.
         23    2    1    2    0    0 -0.69817426365E+03 -0.11841960439E+01 -0.20014595282E+03  0.73199689068E+03  0.91172039479E+02 0.  0.
        254    2    1    2    0    0  0.69817426365E+03  0.11841960439E+01  0.35320699131E+04  0.37151645761E+04  0.91623209499E+03 0.  0.
        -24    2    4    4    0    0  0.66949306581E+03 -0.35414055766E+03  0.27215873182E+04  0.28262189565E+04  0.82701630363E+02 0.  0.
         24    2    4    4    0    0  0.28681197844E+02  0.35532475370E+03  0.81048259492E+03  0.88894561965E+03  0.79145349392E+02 0.  0.
         13    1    3    3    0    0 -0.67357023556E+03 -0.18700480226E+02 -0.18943496143E+03  0.69995155176E+03  0.00000000000E+00 0.  1.
        -13    1    3    3    0    0 -0.24604028089E+02  0.17516284182E+02 -0.10710991398E+02  0.32045338920E+02  0.00000000000E+00 0. -1.
          2    1    6    6  502    0  0.54377901994E+02  0.24902398339E+03  0.59504321886E+03  0.64733788151E+03  0.00000000000E+00 0. -1.
          1    1    5    5  503    0  0.49935970474E+03 -0.30304145103E+03  0.20645889334E+04  0.21456285092E+04  0.00000000000E+00 0. -1.
         -2    1    5    5    0  503  0.17013336107E+03 -0.51099106626E+02  0.65699838483E+03  0.68059044727E+03  0.00000000000E+00 0.  1.
         -1    1    6    6    0  502 -0.25696704150E+02  0.10630077031E+03  0.21543937606E+03  0.24160773814E+03  0.00000000000E+00 0.  1.
<mgrwt>
<rscale>  0 0.29454249E+04</rscale>
<asrwt>0</asrwt>
<pdfrwt beam="1">  1        2 0.59839117E+00 0.29454249E+04</pdfrwt>
<pdfrwt beam="2">  1       -2 0.85787503E-01 0.29454249E+04</pdfrwt>
<totfact> 0.42480264E-01</totfact>
</mgrwt>
</event>
<event>
12    1  0.1562393E-007  0.1448795E+04  0.7818608E-02  0.8919237E-01
         -2   -1    0    0    0  501 -0.00000000000E+00  0.00000000000E+00  0.23289892810E+04  0.23289892810E+04  0.00000000000E+00 0.  1.
          2   -1    0    0  501    0  0.00000000000E+00 -0.00000000000E+00 -0.22531296406E+03  0.22531296406E+03  0.00000000000E+00 0. -1.
         23    2    1    2    0    0 -0.39384651877E+03 -0.37964420330E+02  0.31643265491E+03  0.51490922306E+03  0.91899430581E+02 0.  0.
        254    2    1    2    0    0  0.39384651877E+03  0.37964420330E+02  0.17872436621E+04  0.20393930220E+04  0.89907041615E+03 0.  0.
        -24    2    4    4    0    0  0.19623431509E+03  0.12563902625E+03  0.89498286117E+01  0.24652609511E+03  0.80012154095E+02 0.  0.
         24    2    4    4    0    0  0.19761220368E+03 -0.87674605919E+02  0.17782938334E+04  0.17928669269E+04  0.72838451601E+02 0.  0.
         11    1    3    3    0    0 -0.11439556075E+02  0.21399710343E+01  0.39176798397E+02  0.40868868982E+02  0.00000000000E+00 0.  1.
        -11    1    3    3    0    0 -0.38240696269E+03 -0.40104391364E+02  0.27725585652E+03  0.47404035408E+03  0.00000000000E+00 0. -1.
          2    1    6    6  502    0  0.77094644877E+02 -0.25145504616E+02  0.41645343673E+03  0.42427508250E+03  0.00000000000E+00 0. -1.
          1    1    5    5  503    0  0.64038254431E+02  0.17214763048E+01  0.12629628548E+02  0.65294479311E+02  0.00000000000E+00 0. -1.
         -2    1    5    5    0  503  0.13219606065E+03  0.12391754994E+03 -0.36797999361E+01  0.18123161580E+03  0.00000000000E+00 0.  1.
         -1    1    6    6    0  502  0.12051755880E+03 -0.62529101303E+02  0.13618403967E+04  0.13685918444E+04  0.00000000000E+00 0.  1.
<mgrwt>
<rscale>  0 0.14487946E+04</rscale>
<asrwt>0</asrwt>
<pdfrwt beam="1">  1        2 0.34663534E-01 0.14487946E+04</pdfrwt>
<pdfrwt beam="2">  1       -2 0.35830603E+00 0.14487946E+04</pdfrwt>
<totfact> 0.20397612E+00</totfact>
</mgrwt>
</event>
<event>
12    1  0.1562393E-007  0.1180359E+04  0.7818608E-02  0.9130224E-01
         -3   -1    0    0    0  501 -0.00000000000E+00  0.00000000000E+00  0.93389481214E+03  0.93389481214E+03  0.00000000000E+00 0.  1.
          3   -1    0    0  501    0  0.00000000000E+00 -0.00000000000E+00 -0.37296671528E+03  0.37296671528E+03  0.00000000000E+00 0. -1.
         23    2    1    2    0    0  0.34624006743E+02  0.24894695584E+02  0.38838950707E+03  0.40116433227E+03  0.90927688673E+02 0.  0.
        254    2    1    2    0    0 -0.34624006743E+02 -0.24894695584E+02  0.17253858978E+03  0.90569719515E+03  0.88808742623E+03 0.  0.
        -24    2    4    4    0    0 -0.12438205037E+03 -0.18433406256E+03 -0.30583066618E+03  0.38614900895E+03  0.78286139670E+02 0.  0.
         24    2    4    4    0    0  0.89758043630E+02  0.15943936698E+03  0.47836925596E+03  0.51954818620E+03  0.87268290929E+02 0.  0.
         13    1    3    3    0    0  0.51015933965E+02  0.28946888785E+01  0.35148130590E+03  0.35517617198E+03  0.00000000000E+00 0.  1.
        -13    1    3    3    0    0 -0.16391927222E+02  0.22000006705E+02  0.36908201170E+02  0.45988160289E+02  0.00000000000E+00 0. -1.
          2    1    6    6  502    0 -0.13848198137E+02  0.23984475232E+02  0.35819586983E+02  0.45277703734E+02  0.00000000000E+00 0. -1.
          1    1    5    5  503    0 -0.42126034200E+02 -0.12531972475E+03 -0.14611265969E+03  0.19704960160E+03  0.00000000000E+00 0. -1.
         -2    1    5    5    0  503 -0.82256016173E+02 -0.59014337806E+02 -0.15971800649E+03  0.18909940735E+03  0.00000000000E+00 0.  1.
         -1    1    6    6    0  502  0.10360624177E+03  0.13545489174E+03  0.44254966898E+03  0.47427048247E+03  0.00000000000E+00 0.  1.
<mgrwt>
<rscale>  0 0.11803587E+04</rscale>
<asrwt>0</asrwt>
<pdfrwt beam="1">  1        3 0.57379495E-01 0.11803587E+04</pdfrwt>
<pdfrwt beam="2">  1       -3 0.14367612E+00 0.11803587E+04</pdfrwt>
<totfact> 0.27841384E+00</totfact>
</mgrwt>
</event>
<event>
12    1  0.1562393E-007  0.3347969E+04  0.7818608E-02  0.8150796E-01
          2   -1    0    0  501    0  0.00000000000E+00  0.00000000000E+00  0.31202841520E+04  0.31202841520E+04  0.00000000000E+00 0. -1.
         -2   -1    0    0    0  501 -0.00000000000E+00 -0.00000000000E+00 -0.89806683070E+03  0.89806683070E+03  0.00000000000E+00 0.  1.
         23    2    1    2    0    0 -0.46708846991E+03  0.89934806155E+03  0.24424739699E+04  0.26459237158E+04  0.90744928669E+02 0.  0.
        254    2    1    2    0    0  0.46708846991E+03 -0.89934806155E+03 -0.22025664852E+03  0.13724272669E+04  0.89891325342E+03 0.  0.
        -24    2    4    4    0    0  0.33167372981E+03 -0.64121773546E+03 -0.56063933478E+03  0.91741844550E+03  0.78565215726E+02 0.  0.
         24    2    4    4    0    0  0.13541474010E+03 -0.25813032609E+03  0.34038268626E+03  0.45500882140E+03  0.78766981401E+02 0.  0.
         13    1    3    3    0    0 -0.65498373240E+02  0.77188875057E+02  0.20658847342E+03  0.23005859401E+03  0.00000000000E+00 0.  1.
        -13    1    3    3    0    0 -0.40159009667E+03  0.82215918650E+03  0.22358854964E+04  0.24158651218E+04  0.00000000000E+00 0. -1.
          4    1    6    6  502    0  0.70573992371E+02 -0.12644405656E+03  0.22819020678E+03  0.27025831774E+03  0.00000000000E+00 0. -1.
          1    1    5    5  503    0  0.31062417814E+03 -0.61538454778E+03 -0.55167526305E+03  0.88291059431E+03  0.00000000000E+00 0. -1.
         -2    1    5    5    0  503  0.21049551672E+02 -0.25833187687E+02 -0.89640717293E+01  0.34507851188E+02  0.00000000000E+00 0.  1.
         -3    1    6    6    0  502  0.64840747726E+02 -0.13168626953E+03  0.11219247948E+03  0.18475050366E+03  0.00000000000E+00 0.  1.
<mgrwt>
<rscale>  0 0.33479688E+04</rscale>
<asrwt>0</asrwt>
<pdfrwt beam="1">  1        2 0.48004371E+00 0.33479688E+04</pdfrwt>
<pdfrwt beam="2">  1       -2 0.13816413E+00 0.33479688E+04</pdfrwt>
<totfact> 0.45120507E-01</totfact>
</mgrwt>
</event>
<event>
12    1  0.1562393E-007  0.1220447E+04  0.7818608E-02  0.9095145E-01
         -3   -1    0    0    0  501 -0.00000000000E+00  0.00000000000E+00  0.14848475311E+04  0.14848475311E+04  0.00000000000E+00 0.  1.
          3   -1    0    0  501    0  0.00000000000E+00 -0.00000000000E+00 -0.25078169276E+03  0.25078169276E+03  0.00000000000E+00 0. -1.
         23    2    1    2    0    0  0.19773190273E+03  0.10222505577E+03  0.16312449290E+03  0.29059035082E+03  0.91023537741E+02 0.  0.
        254    2    1    2    0    0 -0.19773190273E+03 -0.10222505577E+03  0.10709413454E+04  0.14450388730E+04  0.94428497385E+03 0.  0.
        -24    2    4    4    0    0 -0.14464951361E+03 -0.24640399979E+03 -0.58156207283E+02  0.30283143121E+03  0.81769911240E+02 0.  0.
         24    2    4    4    0    0 -0.53082389117E+02  0.14417894402E+03  0.11290975527E+04  0.11422074418E+04  0.78557295433E+02 0.  0.
         13    1    3    3    0    0  0.12959962356E+03  0.11221449128E+03  0.12160958440E+03  0.21018336161E+03  0.00000000000E+00 0. -1.
        -13    1    3    3    0    0  0.68132279169E+02 -0.99894355064E+01  0.41514908500E+02  0.80406989213E+02  0.00000000000E+00 0.  1.
          2    1    6    6  502    0 -0.17802262332E+02  0.10260659251E+03  0.92884205008E+03  0.93466175025E+03  0.00000000000E+00 0. -1.
          1    1    5    5  503    0 -0.84225611200E+02 -0.12546355345E+03 -0.71128011974E+02  0.16701572056E+03  0.00000000000E+00 0. -1.
         -4    1    5    5    0  503 -0.60423902412E+02 -0.12094044634E+03  0.12971804692E+02  0.13581571065E+03  0.00000000000E+00 0.  1.
         -1    1    6    6    0  502 -0.35280126785E+02  0.41572351510E+02  0.20025550264E+03  0.20754569158E+03  0.00000000000E+00 0.  1.
<mgrwt>
<rscale>  0 0.12204468E+04</rscale>
<asrwt>0</asrwt>
<pdfrwt beam="1">  1        3 0.38581800E-01 0.12204468E+04</pdfrwt>
<pdfrwt beam="2">  1       -3 0.22843808E+00 0.12204468E+04</pdfrwt>
<totfact> 0.16927689E+00</totfact>
</mgrwt>
</event>
<event>
12    1  0.1562393E-007  0.1723038E+04  0.7818608E-02  0.8748333E-01
          2   -1    0    0  501    0  0.00000000000E+00  0.00000000000E+00  0.15748299317E+04  0.15748299317E+04  0.00000000000E+00 0. -1.
         -2   -1    0    0    0  501 -0.00000000000E+00 -0.00000000000E+00 -0.47129843249E+03  0.47129843249E+03  0.00000000000E+00 0.  1.
         23    2    1    2    0    0  0.18862731312E+02 -0.52017899989E+02 -0.33446625000E+03  0.35098967903E+03  0.90908843596E+02 0.  0.
        254    2    1    2    0    0 -0.18862731312E+02  0.52017899989E+02  0.14379977492E+04  0.16951386851E+04  0.89587720735E+03 0.  0.
        -24    2    4    4    0    0 -0.22033315746E+03  0.66328950040E+02  0.33361692104E+01  0.24364391798E+03  0.80031236744E+02 0.  0.
         24    2    4    4    0    0  0.20147042615E+03 -0.14311050050E+02  0.14346615800E+04  0.14514947671E+04  0.88250049759E+02 0.  0.
         11    1    3    3    0    0  0.17344378096E+02 -0.72617722577E+02 -0.17597291683E+03  0.19115603193E+03  0.00000000000E+00 0.  1.
        -11    1    3    3    0    0  0.15183532165E+01  0.20599822587E+02 -0.15849333317E+03  0.15983364710E+03  0.00000000000E+00 0. -1.
          2    1    6    6  502    0  0.17573592033E+03 -0.15660013647E+02  0.13779936864E+04  0.13892425812E+04  0.00000000000E+00 0. -1.
          3    1    5    5  503    0 -0.18054993843E+03  0.78369521170E+02  0.22057381331E+02  0.19805703771E+03  0.00000000000E+00 0. -1.
         -4    1    5    5    0  503 -0.39783219023E+02 -0.12040571131E+02 -0.18721212121E+02  0.45586880265E+02  0.00000000000E+00 0.  1.
         -1    1    6    6    0  502  0.25734505819E+02  0.13489635963E+01  0.56667893589E+02  0.62252185956E+02  0.00000000000E+00 0.  1.
<mgrwt>
<rscale>  0 0.17230379E+04</rscale>
<asrwt>0</asrwt>
<pdfrwt beam="1">  1        2 0.24228153E+00 0.17230379E+04</pdfrwt>
<pdfrwt beam="2">  1       -2 0.72507452E-01 0.17230379E+04</pdfrwt>
<totfact> 0.18827194E+01</totfact>
</mgrwt>
</event>
<event>
12    1  0.1562393E-007  0.1316748E+04  0.7818608E-02  0.9016389E-01
          1   -1    0    0  501    0  0.00000000000E+00  0.00000000000E+00  0.10410218316E+04  0.10410218316E+04  0.00000000000E+00 0. -1.
         -1   -1    0    0    0  501 -0.00000000000E+00 -0.00000000000E+00 -0.41637556270E+03  0.41637556270E+03  0.00000000000E+00 0.  1.
         23    2    1    2    0    0  0.20888238704E+03 -0.75816681449E+02 -0.12218718751E+03  0.26709261783E+03  0.83837562624E+02 0.  0.
        254    2    1    2    0    0 -0.20888238704E+03  0.75816681449E+02  0.74683345643E+03  0.11903047765E+04  0.89982510996E+03 0.  0.
        -24    2    4    4    0    0 -0.23738510298E+03 -0.23802871754E+03 -0.31954442104E+02  0.34589105258E+03  0.74901110735E+02 0.  0.
         24    2    4    4    0    0  0.28502715942E+02  0.31384539899E+03  0.77878789853E+03  0.84441372392E+03  0.84927068482E+02 0.  0.
         11    1    3    3    0    0  0.13901371091E+03 -0.50410386676E+02 -0.12361439818E+03  0.19273437250E+03  0.00000000000E+00 0.  1.
        -11    1    3    3    0    0  0.69868676130E+02 -0.25406294773E+02  0.14272106709E+01  0.74358245330E+02  0.00000000000E+00 0. -1.
          2    1    6    6  502    0  0.32018200477E+02  0.28903265570E+03  0.75795211017E+03  0.81182291329E+03  0.00000000000E+00 0. -1.
          1    1    5    5  503    0 -0.20126783109E+03 -0.23288360312E+03 -0.25682383888E+02  0.30887391809E+03  0.00000000000E+00 0. -1.
         -2    1    5    5    0  503 -0.36117271891E+02 -0.51451144222E+01 -0.62720582165E+01  0.37017134486E+02  0.00000000000E+00 0.  1.
         -1    1    6    6    0  502 -0.35154845357E+01  0.24812743290E+02  0.20835788357E+02  0.32590810631E+02  0.00000000000E+00 0.  1.
<mgrwt>
<rscale>  0 0.13167476E+04</rscale>
<asrwt>0</asrwt>
<pdfrwt beam="1">  1        1 0.16015720E+00 0.13167476E+04</pdfrwt>
<pdfrwt beam="2">  1       -1 0.64057779E-01 0.13167476E+04</pdfrwt>
<totfact> 0.34102495E+01</totfact>
</mgrwt>
</event>
<event>
12    1  0.1562393E-007  0.1858967E+04  0.7818608E-02  0.8675555E-01
          2   -1    0    0  501    0  0.00000000000E+00  0.00000000000E+00  0.31715958825E+04  0.31715958825E+04  0.00000000000E+00 0. -1.
         -2   -1    0    0    0  501 -0.00000000000E+00 -0.00000000000E+00 -0.27239894828E+03  0.27239894828E+03  0.00000000000E+00 0.  1.
         23    2    1    2    0    0  0.71285990357E+02  0.24580154924E+02  0.24206240671E+04  0.24234072605E+04  0.88294958589E+02 0.  0.
        254    2    1    2    0    0 -0.71285990357E+02 -0.24580154924E+02  0.47857286710E+03  0.10205875702E+04  0.89826561938E+03 0.  0.
        -24    2    4    4    0    0  0.22026220051E+03  0.62157739828E+02  0.62683996620E+03  0.67190705192E+03  0.78432911480E+02 0.  0.
         24    2    4    4    0    0 -0.29154819086E+03 -0.86737894752E+02 -0.14826709911E+03  0.34868051831E+03  0.84090196768E+02 0.  0.
         13    1    3    3    0    0  0.32562014744E+02  0.30167781488E+02  0.20907359227E+04  0.20912070864E+04  0.00000000000E+00 0. -1.
        -13    1    3    3    0    0  0.38723975613E+02 -0.55876265642E+01  0.32988814443E+03  0.33220017413E+03  0.00000000000E+00 0.  1.
          2    1    6    6  502    0 -0.95941079483E+02 -0.65258647760E+02 -0.33042111054E+02  0.12064478001E+03  0.00000000000E+00 0. -1.
          3    1    5    5  503    0  0.46536255314E+02  0.48872931355E+02  0.16258983573E+03  0.17603874903E+03  0.00000000000E+00 0. -1.
         -4    1    5    5    0  503  0.17372594519E+03  0.13284808474E+02  0.46425013047E+03  0.49586830289E+03  0.00000000000E+00 0.  1.
         -1    1    6    6    0  502 -0.19560711138E+03 -0.21479246992E+02 -0.11522498805E+03  0.22803573831E+03  0.00000000000E+00 0.  1.
<mgrwt>
<rscale>  0 0.18589668E+04</rscale>
<asrwt>0</asrwt>
<pdfrwt beam="1">  1        2 0.48793780E+00 0.18589668E+04</pdfrwt>
<pdfrwt beam="2">  1       -2 0.41907533E-01 0.18589668E+04</pdfrwt>
<totfact> 0.68921786E+00</totfact>
</mgrwt>
</event>
<event>
12    1  0.1562393E-007  0.2979508E+04  0.7818608E-02  0.8249607E-01
          1   -1    0    0  501    0  0.00000000000E+00  0.00000000000E+00  0.25363321619E+04  0.25363321619E+04  0.00000000000E+00 0. -1.
         -1   -1    0    0    0  501 -0.00000000000E+00 -0.00000000000E+00 -0.87503012001E+03  0.87503012001E+03  0.00000000000E+00 0.  1.
         23    2    1    2    0    0  0.12020941192E+04 -0.50252215998E+03  0.11672122588E+04  0.17516590788E+04  0.91467362851E+02 0.  0.
        254    2    1    2    0    0 -0.12020941192E+04  0.50252215998E+03  0.49408978310E+03  0.16597032031E+04  0.90162698271E+03 0.  0.
        -24    2    4    4    0    0 -0.11497966284E+04  0.66300388932E+03  0.58420476678E+03  0.14524325060E+04  0.81599823423E+02 0.  0.
         24    2    4    4    0    0 -0.52297490857E+02 -0.16048172934E+03 -0.90114983679E+02  0.20727069709E+03  0.79693278198E+02 0.  0.
         13    1    3    3    0    0  0.22120748658E+03 -0.12678648633E+03  0.25203413065E+03  0.35850909088E+03  0.00000000000E+00 0.  1.
        -13    1    3    3    0    0  0.98088663266E+03 -0.37573567366E+03  0.91517812818E+03  0.13931499879E+04  0.00000000000E+00 0. -1.
          2    1    6    6  502    0 -0.61575284478E+02 -0.80982600757E+02 -0.26765450383E+02  0.10519546862E+03  0.00000000000E+00 0. -1.
          1    1    5    5  503    0 -0.55043289274E+03  0.36064030729E+03  0.27154743042E+03  0.71188187758E+03  0.00000000000E+00 0. -1.
         -2    1    5    5    0  503 -0.59936373564E+03  0.30236358203E+03  0.31265733636E+03  0.74055062846E+03  0.00000000000E+00 0.  1.
         -1    1    6    6    0  502  0.92777936213E+01 -0.79499128580E+02 -0.63349533297E+02  0.10207522848E+03  0.00000000000E+00 0.  1.
<mgrwt>
<rscale>  0 0.29795080E+04</rscale>
<asrwt>0</asrwt>
<pdfrwt beam="1">  1        1 0.39020495E+00 0.29795080E+04</pdfrwt>
<pdfrwt beam="2">  1       -1 0.13462002E+00 0.29795080E+04</pdfrwt>
<totfact> 0.50539579E-01</totfact>
</mgrwt>
</event>
<event>
12    1  0.1562393E-007  0.1601137E+04  0.7818608E-02  0.8819850E-01
         -2   -1    0    0    0  501 -0.00000000000E+00  0.00000000000E+00  0.32466117302E+03  0.32466117302E+03  0.00000000000E+00 0.  1.
          2   -1    0    0  501    0  0.00000000000E+00 -0.00000000000E+00 -0.19740893601E+04  0.19740893601E+04  0.00000000000E+00 0. -1.
         23    2    1    2    0    0  0.55251663769E+03 -0.30878487157E+03 -0.72851529392E+03  0.96945845917E+03  0.92154428762E+02 0.  0.
        254    2    1    2    0    0 -0.55251663769E+03  0.30878487157E+03 -0.92091289316E+03  0.13292920739E+04  0.71994036504E+03 0.  0.
        -24    2    4    4    0    0 -0.28012568196E+03 -0.15674020924E+03 -0.62967603275E+03  0.71119050210E+03  0.79133641240E+02 0.  0.
         24    2    4    4    0    0 -0.27239095573E+03  0.46552508081E+03 -0.29123686041E+03  0.61810157183E+03  0.79499752314E+02 0.  0.
         11    1    3    3    0    0  0.52585327146E+03 -0.26793397869E+03 -0.66053175348E+03  0.88578353868E+03  0.00000000000E+00 0.  1.
        -11    1    3    3    0    0  0.26663366233E+02 -0.40850892881E+02 -0.67983540438E+02  0.83674920487E+02  0.00000000000E+00 0. -1.
          4    1    6    6  502    0 -0.33944315030E+01 -0.47662506753E+00  0.32453781545E+01  0.47203618557E+01  0.00000000000E+00 0. -1.
          3    1    5    5  503    0 -0.93982414204E+01 -0.77768155455E+01 -0.77317853277E+02  0.78274237379E+02  0.00000000000E+00 0. -1.
         -4    1    5    5    0  503 -0.27072744054E+03 -0.14896339370E+03 -0.55235817947E+03  0.63291626473E+03  0.00000000000E+00 0.  1.
         -3    1    6    6    0  502 -0.26899652423E+03  0.46600170588E+03 -0.29448223856E+03  0.61338120998E+03  0.00000000000E+00 0.  1.
<mgrwt>
<rscale>  0 0.16011373E+04</rscale>
<asrwt>0</asrwt>
<pdfrwt beam="1">  1        2 0.30370606E+00 0.16011373E+04</pdfrwt>
<pdfrwt beam="2">  1       -2 0.49947872E-01 0.16011373E+04</pdfrwt>
<totfact> 0.25119016E+01</totfact>
</mgrwt>
</event>
<event>
12    1  0.1562393E-007  0.1565623E+04  0.7818608E-02  0.8841950E-01
          1   -1    0    0  501    0  0.00000000000E+00  0.00000000000E+00  0.10417135505E+04  0.10417135505E+04  0.00000000000E+00 0. -1.
         -1   -1    0    0    0  501 -0.00000000000E+00 -0.00000000000E+00 -0.58825534487E+03  0.58825534487E+03  0.00000000000E+00 0.  1.
         23    2    1    2    0    0  0.28896800096E+03 -0.84098958461E+02 -0.29106559672E+03  0.42854711101E+03  0.91423762584E+02 0.  0.
        254    2    1    2    0    0 -0.28896800096E+03  0.84098958461E+02  0.74452380232E+03  0.12014217843E+04  0.89360140511E+03 0.  0.
        -24    2    4    4    0    0  0.31352690690E+02  0.21349771614E+03  0.80936432350E+03  0.84147800891E+03  0.80314166285E+02 0.  0.
         24    2    4    4    0    0 -0.32032069165E+03 -0.12939875768E+03 -0.64840521182E+02  0.35994377541E+03  0.77497382405E+02 0.  0.
         11    1    3    3    0    0  0.24967808282E+01 -0.15456379552E+01  0.66203133455E+01  0.72423380192E+01  0.00000000000E+00 0. -1.
        -11    1    3    3    0    0  0.28647122013E+03 -0.82553320506E+02 -0.29768591007E+03  0.42130477299E+03  0.00000000000E+00 0.  1.
          2    1    6    6  502    0 -0.68431692168E+02 -0.57507428783E+02 -0.36186938731E+02  0.96433891309E+02  0.00000000000E+00 0. -1.
          1    1    5    5  503    0 -0.24437564693E+02  0.48862160462E+02  0.24154015811E+03  0.24764158227E+03  0.00000000000E+00 0. -1.
         -2    1    5    5    0  503  0.55790255383E+02  0.16463555568E+03  0.56782416540E+03  0.59383642664E+03  0.00000000000E+00 0.  1.
         -1    1    6    6    0  502 -0.25188899949E+03 -0.71891328897E+02 -0.28653582451E+02  0.26350988410E+03  0.00000000000E+00 0.  1.
<mgrwt>
<rscale>  0 0.15656226E+04</rscale>
<asrwt>0</asrwt>
<pdfrwt beam="1">  1        1 0.16026362E+00 0.15656226E+04</pdfrwt>
<pdfrwt beam="2">  1       -1 0.90500823E-01 0.15656226E+04</pdfrwt>
<totfact> 0.16127501E+01</totfact>
</mgrwt>
</event>
<event>
12    1  0.1562393E-007  0.1320815E+04  0.7818608E-02  0.9013219E-01
         -2   -1    0    0    0  501 -0.00000000000E+00  0.00000000000E+00  0.26157851594E+04  0.26157851594E+04  0.00000000000E+00 0.  1.
          2   -1    0    0  501    0  0.00000000000E+00 -0.00000000000E+00 -0.16673324612E+03  0.16673324612E+03  0.00000000000E+00 0. -1.
         23    2    1    2    0    0  0.22925175379E+03  0.22609376293E+03  0.40566391948E+03  0.52614362374E+03  0.92677618546E+02 0.  0.
        254    2    1    2    0    0 -0.22925175379E+03 -0.22609376293E+03  0.20433879938E+04  0.22563747818E+04  0.90117584654E+03 0.  0.
        -24    2    4    4    0    0 -0.25352872558E+03 -0.50355687112E+03  0.81539113051E+03  0.99453335291E+03  0.79922194566E+02 0.  0.
         24    2    4    4    0    0  0.24276971785E+02  0.27746310819E+03  0.12279968633E+04  0.12618414289E+04  0.81806769865E+02 0.  0.
         11    1    3    3    0    0  0.14761246974E+03  0.18861052574E+03  0.33519150610E+03  0.41196688872E+03  0.00000000000E+00 0. -1.
        -11    1    3    3    0    0  0.81639284056E+02  0.37483237193E+02  0.70472413382E+02  0.11417673502E+03  0.00000000000E+00 0.  1.
          4    1    6    6  502    0 -0.33115527604E+01  0.10881540409E+03  0.65209832085E+03  0.66112327035E+03  0.00000000000E+00 0. -1.
          3    1    5    5  503    0 -0.23596073984E+03 -0.47810891154E+03  0.73195806782E+03  0.90555409285E+03  0.00000000000E+00 0. -1.
         -4    1    5    5    0  503 -0.17567985742E+02 -0.25447959584E+02  0.83433062692E+02  0.88979260056E+02  0.00000000000E+00 0.  1.
         -3    1    6    6    0  502  0.27588524546E+02  0.16864770410E+03  0.57589854246E+03  0.60071815854E+03  0.00000000000E+00 0.  1.
<mgrwt>
<rscale>  0 0.13208154E+04</rscale>
<asrwt>0</asrwt>
<pdfrwt beam="1">  1        2 0.25651270E-01 0.13208154E+04</pdfrwt>
<pdfrwt beam="2">  1       -2 0.40242846E+00 0.13208154E+04</pdfrwt>
<totfact> 0.15134018E+00</totfact>
</mgrwt>
</event>
<event>
12    1  0.1562393E-007  0.1167478E+04  0.7818608E-02  0.9141809E-01
          3   -1    0    0  501    0  0.00000000000E+00  0.00000000000E+00  0.62110667286E+03  0.62110667286E+03  0.00000000000E+00 0. -1.
         -3   -1    0    0    0  501 -0.00000000000E+00 -0.00000000000E+00 -0.54861970188E+03  0.54861970188E+03  0.00000000000E+00 0.  1.
         23    2    1    2    0    0  0.81006851232E+02  0.19416550261E+03  0.74541305646E+02  0.23895733832E+03  0.85333762004E+02 0.  0.
        254    2    1    2    0    0 -0.81006851232E+02 -0.19416550261E+03 -0.20543346590E+01  0.93076903642E+03  0.90667768612E+03 0.  0.
        -24    2    4    4    0    0  0.80255651517E+01 -0.51259498829E+03 -0.17728736949E+03  0.54819950381E+03  0.79207656634E+02 0.  0.
         24    2    4    4    0    0 -0.89032416384E+02  0.31842948568E+03  0.17523303484E+03  0.38256953261E+03  0.79553266858E+02 0.  0.
         13    1    3    3    0    0  0.36292375279E+02  0.10664566682E+03 -0.46410466023E+01  0.11274739051E+03  0.00000000000E+00 0. -1.
        -13    1    3    3    0    0  0.44714475953E+02  0.87519835799E+02  0.79182352248E+02  0.12620994781E+03  0.00000000000E+00 0.  1.
          4    1    6    6  502    0  0.16668782333E+01  0.11441350696E+03  0.81188949954E+02  0.14030279631E+03  0.00000000000E+00 0. -1.
          1    1    5    5  503    0 -0.27332002637E+02 -0.30358284464E+03 -0.12779745343E+03  0.33051742924E+03  0.00000000000E+00 0. -1.
         -2    1    5    5    0  503  0.35357567789E+02 -0.20901214365E+03 -0.49489916061E+02  0.21768207456E+03  0.00000000000E+00 0.  1.
         -3    1    6    6    0  502 -0.90699294617E+02  0.20401597872E+03  0.94044084882E+02  0.24226673630E+03  0.00000000000E+00 0.  1.
<mgrwt>
<rscale>  0 0.11674782E+04</rscale>
<asrwt>0</asrwt>
<pdfrwt beam="1">  1        3 0.95554872E-01 0.11674782E+04</pdfrwt>
<pdfrwt beam="2">  1       -3 0.84403031E-01 0.11674782E+04</pdfrwt>
<totfact> 0.32502650E+00</totfact>
</mgrwt>
</event>
<event>
12    1  0.1562393E-007  0.1516061E+04  0.7818608E-02  0.8873842E-01
         -2   -1    0    0    0  501 -0.00000000000E+00  0.00000000000E+00  0.22814357425E+03  0.22814357425E+03  0.00000000000E+00 0. -1.
          2   -1    0    0  501    0  0.00000000000E+00 -0.00000000000E+00 -0.25186343957E+04  0.25186343957E+04  0.00000000000E+00 0.  1.
         23    2    1    2    0    0 -0.46987505581E+03  0.11610868764E+03 -0.84520855641E+03  0.97780267059E+03  0.86352552733E+02 0.  0.
        254    2    1    2    0    0  0.46987505581E+03 -0.11610868764E+03 -0.14452822651E+04  0.17689752994E+04  0.89786913787E+03 0.  0.
        -24    2    4    4    0    0 -0.19632571001E+02  0.23661591893E+03 -0.62878628640E+02  0.25827329760E+03  0.79867661644E+02 0.  0.
         24    2    4    4    0    0  0.48950762682E+03 -0.35272460657E+03 -0.13824036364E+04  0.15107020018E+04  0.84547971224E+02 0.  0.
         13    1    3    3    0    0 -0.34796498940E+03  0.82250993788E+02 -0.54267795012E+03  0.64988015616E+03  0.00000000000E+00 0. -1.
        -13    1    3    3    0    0 -0.12191006641E+03  0.33857693854E+02 -0.30253060629E+03  0.32792251443E+03  0.00000000000E+00 0.  1.
          2    1    6    6  502    0  0.21312150659E+03 -0.11256664836E+03 -0.48877974031E+03  0.54497491817E+03  0.00000000000E+00 0. -1.
          3    1    5    5  503    0 -0.37193405221E+02  0.48304351426E+02 -0.21719900114E+02  0.64717955929E+02  0.00000000000E+00 0. -1.
         -4    1    5    5    0  503  0.17560834220E+02  0.18831156750E+03 -0.41158728525E+02  0.19355534167E+03  0.00000000000E+00 0.  1.
         -1    1    6    6    0  502  0.27638612022E+03 -0.24015795821E+03 -0.89362389612E+03  0.96572708363E+03  0.00000000000E+00 0.  1.
<mgrwt>
<rscale>  0 0.15160610E+04</rscale>
<asrwt>0</asrwt>
<pdfrwt beam="1">  1        2 0.38748222E+00 0.15160610E+04</pdfrwt>
<pdfrwt beam="2">  1       -2 0.35099011E-01 0.15160610E+04</pdfrwt>
<totfact> 0.25036603E+01</totfact>
</mgrwt>
</event>
<event>
12    1  0.1777898E-007  0.1300861E+04  0.7818608E-02  0.9028882E-01
          1   -1    0    0  501    0  0.00000000000E+00  0.00000000000E+00  0.63925692358E+03  0.63925692358E+03  0.00000000000E+00 0. -1.
         -1   -1    0    0    0  501 -0.00000000000E+00 -0.00000000000E+00 -0.66179972488E+03  0.66179972488E+03  0.00000000000E+00 0.  1.
         23    2    1    2    0    0 -0.26462245887E+03 -0.78185755822E+02 -0.22973671819E+03  0.37016776176E+03  0.90039735717E+02 0.  0.
        254    2    1    2    0    0  0.26462245887E+03  0.78185755822E+02  0.20719391690E+03  0.93088888671E+03  0.86457315599E+03 0.  0.
        -24    2    4    4    0    0  0.22073557095E+03 -0.37364954697E+03  0.15549848644E+03  0.46757480376E+03  0.78155240375E+02 0.  0.
         24    2    4    4    0    0  0.43886887921E+02  0.45183530279E+03  0.51695430458E+02  0.46331408295E+03  0.76852600135E+02 0.  0.
         11    1    3    3    0    0 -0.25910172250E+03 -0.90632326863E+02 -0.20752233093E+03  0.34411253844E+03  0.00000000000E+00 0.  1.
        -11    1    3    3    0    0 -0.55207363635E+01  0.12446571041E+02 -0.22214387260E+02  0.26055223316E+02  0.00000000000E+00 0. -1.
          2    1    6    6  502    0 -0.14098502719E+02  0.20994277720E+02 -0.15695444088E+01  0.25337540243E+02  0.00000000000E+00 0. -1.
          3    1    5    5  503    0  0.16381007340E+01  0.35531849213E+00 -0.50662690549E+01  0.53363571266E+01  0.00000000000E+00 0. -1.
         -4    1    5    5    0  503  0.21909747021E+03 -0.37400486546E+03  0.16056475549E+03  0.46223844664E+03  0.00000000000E+00 0.  1.
         -1    1    6    6    0  502  0.57985390640E+02  0.43084102507E+03  0.53264974866E+02  0.43797654270E+03  0.00000000000E+00 0.  1.
<mgrwt>
<rscale>  0 0.13008613E+04</rscale>
<asrwt>0</asrwt>
<pdfrwt beam="1">  1        1 0.98347219E-01 0.13008613E+04</pdfrwt>
<pdfrwt beam="2">  1       -1 0.10181534E+00 0.13008613E+04</pdfrwt>
<totfact> 0.28060448E+01</totfact>
</mgrwt>
</event>
<event>
12    1  0.1562393E-007  0.1820536E+04  0.7818608E-02  0.8695454E-01
          2   -1    0    0  501    0  0.00000000000E+00  0.00000000000E+00  0.43424556661E+03  0.43424556661E+03  0.00000000000E+00 0.  1.
         -2   -1    0    0    0  501 -0.00000000000E+00 -0.00000000000E+00 -0.19081085586E+04  0.19081085586E+04  0.00000000000E+00 0. -1.
         23    2    1    2    0    0  0.28423264141E+02 -0.18287914466E+03 -0.13868191261E+04  0.14020996392E+04  0.91451879508E+02 0.  0.
        254    2    1    2    0    0 -0.28423264141E+02  0.18287914466E+03 -0.87043865896E+02  0.94025448600E+03  0.91774135809E+03 0.  0.
        -24    2    4    4    0    0  0.27423290892E+03  0.39262604601E+03 -0.23010166638E+03  0.53748299075E+03  0.81131301835E+02 0.  0.
         24    2    4    4    0    0 -0.30265617306E+03 -0.20974690135E+03  0.14305780048E+03  0.40277149525E+03  0.78516376599E+02 0.  0.
         11    1    3    3    0    0 -0.95906917297E+01 -0.93561035713E+02 -0.41906786430E+03  0.42949216950E+03  0.00000000000E+00 0.  1.
        -11    1    3    3    0    0  0.38013955870E+02 -0.89318108946E+02 -0.96775126180E+03  0.97260746971E+03  0.00000000000E+00 0. -1.
          4    1    6    6  502    0 -0.26442892803E+02 -0.16267633793E+02 -0.97353938275E+01  0.32536754325E+02  0.00000000000E+00 0. -1.
          1    1    5    5  503    0  0.23478048432E+02  0.30235929019E+02  0.39763206633E+01  0.38486897612E+02  0.00000000000E+00 0. -1.
         -2    1    5    5    0  503  0.25075486048E+03  0.36239011699E+03 -0.23407798704E+03  0.49899609314E+03  0.00000000000E+00 0.  1.
         -3    1    6    6    0  502 -0.27621328025E+03 -0.19347926756E+03  0.15279319431E+03  0.37023474093E+03  0.00000000000E+00 0.  1.
<mgrwt>
<rscale>  0 0.18205358E+04</rscale>
<asrwt>0</asrwt>
<pdfrwt beam="1">  1        2 0.66807010E-01 0.18205358E+04</pdfrwt>
<pdfrwt beam="2">  1       -2 0.29355516E+00 0.18205358E+04</pdfrwt>
<totfact> 0.23795544E+00</totfact>
</mgrwt>
</event>
<event>
12    1  0.1562393E-007  0.2169559E+04  0.7818608E-02  0.8531206E-01
          2   -1    0    0  501    0  0.00000000000E+00  0.00000000000E+00  0.35173736895E+04  0.35173736895E+04  0.00000000000E+00 0. -1.
         -2   -1    0    0    0  501 -0.00000000000E+00 -0.00000000000E+00 -0.33455265908E+03  0.33455265908E+03  0.00000000000E+00 0.  1.
         23    2    1    2    0    0  0.64981939015E+03  0.27701559701E+03  0.23056759032E+04  0.24139337680E+04  0.10923362620E+03 0.  0.
        254    2    1    2    0    0 -0.64981939015E+03 -0.27701559701E+03  0.87714512727E+03  0.14379925806E+04  0.89411196543E+03 0.  0.
        -24    2    4    4    0    0 -0.66755595492E+03  0.16323616602E+03  0.52422241066E+03  0.86796340600E+03  0.79210728304E+02 0.  0.
         24    2    4    4    0    0  0.17736564764E+02 -0.44025176303E+03  0.35292271661E+03  0.57002917458E+03  0.79010223381E+02 0.  0.
         11    1    3    3    0    0  0.63885041188E+03  0.27795925435E+03  0.21998787575E+04  0.23075653281E+04  0.00000000000E+00 0. -1.
        -11    1    3    3    0    0  0.10968978278E+02 -0.94365734043E+00  0.10579714571E+03  0.10636843993E+03  0.00000000000E+00 0.  1.
          2    1    6    6  502    0 -0.17346463908E+02 -0.34558571034E+03  0.25999410249E+03  0.43281325803E+03  0.00000000000E+00 0. -1.
          1    1    5    5  503    0 -0.61342188128E+03  0.17092675263E+03  0.47560411935E+03  0.79479660136E+03  0.00000000000E+00 0. -1.
         -2    1    5    5    0  503 -0.54134073642E+02 -0.76905866119E+01  0.48618291305E+02  0.73166804638E+02  0.00000000000E+00 0.  1.
         -1    1    6    6    0  502  0.35083028672E+02 -0.94666052692E+02  0.92928614115E+02  0.13721591655E+03  0.00000000000E+00 0.  1.
<mgrwt>
<rscale>  0 0.21695591E+04</rscale>
<asrwt>0</asrwt>
<pdfrwt beam="1">  1        2 0.54113439E+00 0.21695591E+04</pdfrwt>
<pdfrwt beam="2">  1       -2 0.51469643E-01 0.21695591E+04</pdfrwt>
<totfact> 0.25932073E+00</totfact>
</mgrwt>
</event>
<event>
12    1  0.1562393E-007  0.1986577E+04  0.7818608E-02  0.8612922E-01
          2   -1    0    0  501    0  0.00000000000E+00  0.00000000000E+00  0.92782928879E+03  0.92782928879E+03  0.00000000000E+00 0. -1.
         -2   -1    0    0    0  501 -0.00000000000E+00 -0.00000000000E+00 -0.10633661705E+04  0.10633661705E+04  0.00000000000E+00 0.  1.
         23    2    1    2    0    0  0.68060064999E+03 -0.87974396618E+02  0.29615994271E+03  0.75496132102E+03  0.10629743809E+03 0.  0.
        254    2    1    2    0    0 -0.68060064999E+03  0.87974396618E+02 -0.43169682444E+03  0.12362341383E+04  0.93325021146E+03 0.  0.
        -24    2    4    4    0    0 -0.79611361034E+03  0.29131291158E+03 -0.15602560551E+03  0.86574179824E+03  0.80652207767E+02 0.  0.
         24    2    4    4    0    0  0.11551296035E+03 -0.20333851497E+03 -0.27567121893E+03  0.37049234004E+03  0.81118169394E+02 0.  0.
         11    1    3    3    0    0  0.47823546593E+02 -0.16873341822E+02 -0.42598491547E+01  0.50891527662E+02  0.00000000000E+00 0.  1.
        -11    1    3    3    0    0  0.63277710340E+03 -0.71101054797E+02  0.30041979186E+03  0.70406979336E+03  0.00000000000E+00 0. -1.
          2    1    6    6  502    0  0.42026762461E+02 -0.11730948874E+03 -0.92481057776E+02  0.15517896429E+03  0.00000000000E+00 0. -1.
          3    1    5    5  503    0 -0.34732888078E+03  0.16066315347E+03 -0.95500697721E+02  0.39442411637E+03  0.00000000000E+00 0. -1.
         -4    1    5    5    0  503 -0.44878472956E+03  0.13064975812E+03 -0.60524907785E+02  0.47131768187E+03  0.00000000000E+00 0.  1.
         -1    1    6    6    0  502  0.73486197888E+02 -0.86029026230E+02 -0.18319016115E+03  0.21531337575E+03  0.00000000000E+00 0.  1.
<mgrwt>
<rscale>  0 0.19865772E+04</rscale>
<asrwt>0</asrwt>
<pdfrwt beam="1">  1        2 0.14274297E+00 0.19865772E+04</pdfrwt>
<pdfrwt beam="2">  1       -2 0.16359480E+00 0.19865772E+04</pdfrwt>
<totfact> 0.61898663E+00</totfact>
</mgrwt>
</event>
<event>
12    1  0.1562393E-007  0.1647151E+04  0.7818608E-02  0.8792094E-01
         -2   -1    0    0    0  501 -0.00000000000E+00  0.00000000000E+00  0.16511415948E+04  0.16511415948E+04  0.00000000000E+00 0.  1.
          2   -1    0    0  501    0  0.00000000000E+00 -0.00000000000E+00 -0.41079228746E+03  0.41079228746E+03  0.00000000000E+00 0. -1.
         23    2    1    2    0    0 -0.27946473838E+03  0.16478324306E+03  0.99821605318E+03  0.10532048525E+04  0.86897154112E+02 0.  0.
        254    2    1    2    0    0  0.27946473838E+03 -0.16478324306E+03  0.24213325414E+03  0.10087290297E+04  0.92393272774E+03 0.  0.
        -24    2    4    4    0    0 -0.28680577424E+02  0.16564992463E+03 -0.26546011976E+03  0.32433279237E+03  0.80375443819E+02 0.  0.
         24    2    4    4    0    0  0.30814531580E+03 -0.33043316769E+03  0.50759337390E+03  0.68439623732E+03  0.81286914532E+02 0.  0.
         11    1    3    3    0    0 -0.16167029404E+02  0.42517416537E+02  0.12769396745E+03  0.13555387443E+03  0.00000000000E+00 0. -1.
        -11    1    3    3    0    0 -0.26329770897E+03  0.12226582653E+03  0.87052208573E+03  0.91765097811E+03  0.00000000000E+00 0.  1.
          4    1    6    6  502    0  0.10445516520E+03 -0.15907169721E+03  0.24784959664E+03  0.31248057370E+03  0.00000000000E+00 0. -1.
          1    1    5    5  503    0 -0.13862175281E+02  0.16738895252E+03 -0.22197789979E+03  0.27836201128E+03  0.00000000000E+00 0. -1.
         -2    1    5    5    0  503 -0.14818402142E+02 -0.17390278874E+01 -0.43482219973E+02  0.45970781088E+02  0.00000000000E+00 0.  1.
         -3    1    6    6    0  502  0.20369015060E+03 -0.17136147048E+03  0.25974377726E+03  0.37191566362E+03  0.00000000000E+00 0.  1.
<mgrwt>
<rscale>  0 0.16471505E+04</rscale>
<asrwt>0</asrwt>
<pdfrwt beam="1">  1        2 0.63198814E-01 0.16471505E+04</pdfrwt>
<pdfrwt beam="2">  1       -2 0.25402178E+00 0.16471505E+04</pdfrwt>
<totfact> 0.44768630E+00</totfact>
</mgrwt>
</event>
<event>
12    1  0.2049337E-007  0.1828566E+04  0.7818608E-02  0.8691254E-01
         -1   -1    0    0    0  501 -0.00000000000E+00  0.00000000000E+00  0.48509294021E+03  0.48509294021E+03  0.00000000000E+00 0.  1.
          1   -1    0    0  501    0  0.00000000000E+00 -0.00000000000E+00 -0.17232019978E+04  0.17232019978E+04  0.00000000000E+00 0. -1.
         23    2    1    2    0    0 -0.62439161698E+02 -0.68602136011E+03 -0.43230270188E+03  0.81833982179E+03  0.90942192847E+02 0.  0.
        254    2    1    2    0    0  0.62439161698E+02  0.68602136011E+03 -0.80580635573E+03  0.13899551162E+04  0.89895905735E+03 0.  0.
        -24    2    4    4    0    0  0.70817017707E+01 -0.77950261757E+02  0.13383670565E+03  0.17505094211E+03  0.81266073759E+02 0.  0.
         24    2    4    4    0    0  0.55357459927E+02  0.76397162186E+03 -0.93964306138E+03  0.12149041741E+04  0.79661673001E+02 0.  0.
         13    1    3    3    0    0 -0.77703908345E+02 -0.65239654783E+03 -0.39941047913E+03  0.76888743248E+03  0.00000000000E+00 0.  1.
        -13    1    3    3    0    0  0.15264746647E+02 -0.33624812277E+02 -0.32892222744E+02  0.49452389305E+02  0.00000000000E+00 0. -1.
          4    1    6    6  502    0  0.63093774983E+02  0.70992078602E+03 -0.84306420580E+03  0.11039590581E+04  0.00000000000E+00 0. -1.
          1    1    5    5  503    0  0.45598598869E+01 -0.61145641334E+02  0.14311023750E+03  0.15569239498E+03  0.00000000000E+00 0. -1.
         -4    1    5    5    0  503  0.25218418838E+01 -0.16804620424E+02 -0.92735318466E+01  0.19358547130E+02  0.00000000000E+00 0.  1.
         -3    1    6    6    0  502 -0.77363150559E+01  0.54050835839E+02 -0.96578855575E+02  0.11094511602E+03  0.00000000000E+00 0.  1.
<mgrwt>
<rscale>  0 0.18285657E+04</rscale>
<asrwt>0</asrwt>
<pdfrwt beam="1">  1        1 0.26510800E+00 0.18285657E+04</pdfrwt>
<pdfrwt beam="2">  1       -1 0.74629683E-01 0.18285657E+04</pdfrwt>
<totfact> 0.78138465E+00</totfact>
</mgrwt>
</event>
<event>
12    1  0.1562393E-007  0.1397269E+04  0.7818608E-02  0.8955798E-01
         -2   -1    0    0    0  501 -0.00000000000E+00  0.00000000000E+00  0.12340663576E+03  0.12340663576E+03  0.00000000000E+00 0.  1.
          2   -1    0    0  501    0  0.00000000000E+00 -0.00000000000E+00 -0.39551389265E+04  0.39551389265E+04  0.00000000000E+00 0. -1.
         23    2    1    2    0    0  0.21214692618E+02  0.39996639784E+03 -0.11158097038E+04  0.11891691501E+04  0.93106335558E+02 0.  0.
        254    2    1    2    0    0 -0.21214692618E+02 -0.39996639784E+03 -0.27159225869E+04  0.28893764122E+04  0.90102018326E+03 0.  0.
        -24    2    4    4    0    0  0.28934169673E+02 -0.64478165754E+03 -0.13498377228E+04  0.14983377729E+04  0.79835029091E+02 0.  0.
         24    2    4    4    0    0 -0.50148862291E+02  0.24481525970E+03 -0.13660848642E+04  0.13910386393E+04  0.79694542699E+02 0.  0.
         13    1    3    3    0    0  0.15551035751E+02  0.52103944487E+01 -0.46203035866E+02  0.49027578428E+02  0.00000000000E+00 0. -1.
        -13    1    3    3    0    0  0.56636568672E+01  0.39475600339E+03 -0.10696066680E+04  0.11401415716E+04  0.00000000000E+00 0.  1.
          4    1    6    6  502    0  0.20987118401E+02  0.53142476482E+02 -0.25802686564E+03  0.26427721305E+03  0.00000000000E+00 0. -1.
          1    1    5    5  503    0 -0.25403929568E+02 -0.13855825177E+03 -0.31320600423E+03  0.34342648392E+03  0.00000000000E+00 0. -1.
         -2    1    5    5    0  503  0.54338099241E+02 -0.50622340577E+03 -0.10366317185E+04  0.11549112890E+04  0.00000000000E+00 0.  1.
         -3    1    6    6    0  502 -0.71135980692E+02  0.19167278321E+03 -0.11080579985E+04  0.11267614263E+04  0.00000000000E+00 0.  1.
<mgrwt>
<rscale>  0 0.13972693E+04</rscale>
<asrwt>0</asrwt>
<pdfrwt beam="1">  1        2 0.60848284E+00 0.13972693E+04</pdfrwt>
<pdfrwt beam="2">  1       -2 0.18985639E-01 0.13972693E+04</pdfrwt>
<totfact> 0.87089622E+00</totfact>
</mgrwt>
</event>
<event>
12    1  0.1562393E-007  0.1372902E+04  0.7818608E-02  0.8973670E-01
         -1   -1    0    0    0  501 -0.00000000000E+00  0.00000000000E+00  0.39221836648E+03  0.39221836648E+03  0.00000000000E+00 0.  1.
          1   -1    0    0  501    0  0.00000000000E+00 -0.00000000000E+00 -0.12014103816E+04  0.12014103816E+04  0.00000000000E+00 0. -1.
         23    2    1    2    0    0 -0.86918544615E+02  0.75150297910E+02 -0.65374243012E+03  0.67000272943E+03  0.91225499861E+02 0.  0.
        254    2    1    2    0    0  0.86918544615E+02 -0.75150297910E+02 -0.15544958497E+03  0.92362601862E+03  0.90317110678E+03 0.  0.
        -24    2    4    4    0    0 -0.25626506120E+03  0.21475661815E+03 -0.28878563983E+03  0.44838450340E+03  0.76546263729E+02 0.  0.
         24    2    4    4    0    0  0.34318360582E+03 -0.28990691606E+03  0.13333605486E+03  0.47524151521E+03  0.79088475617E+02 0.  0.
         13    1    3    3    0    0 -0.50884310945E+01 -0.12192860246E+02 -0.14354852608E+02  0.19509478860E+02  0.00000000000E+00 0.  1.
        -13    1    3    3    0    0 -0.81830113521E+02  0.87343158156E+02 -0.63938757751E+03  0.65049325057E+03  0.00000000000E+00 0. -1.
          4    1    6    6  502    0  0.33364985600E+03 -0.25492649525E+03  0.12331403481E+03  0.43762551979E+03  0.00000000000E+00 0. -1.
          1    1    5    5  503    0 -0.12831649151E+03  0.14913824018E+03 -0.13999651991E+03  0.24146710390E+03  0.00000000000E+00 0. -1.
         -2    1    5    5    0  503 -0.12794856969E+03  0.65618377972E+02 -0.14878911991E+03  0.20691739951E+03  0.00000000000E+00 0.  1.
         -3    1    6    6    0  502  0.95337498125E+01 -0.34980420814E+02  0.10022020055E+02  0.37615995424E+02  0.00000000000E+00 0.  1.
<mgrwt>
<rscale>  0 0.13729024E+04</rscale>
<asrwt>0</asrwt>
<pdfrwt beam="1">  1        1 0.18483237E+00 0.13729024E+04</pdfrwt>
<pdfrwt beam="2">  1       -1 0.60341287E-01 0.13729024E+04</pdfrwt>
<totfact> 0.29008350E+01</totfact>
</mgrwt>
</event>
<event>
12    1  0.1562393E-007  0.2157406E+04  0.7818608E-02  0.8536369E-01
          1   -1    0    0  501    0  0.00000000000E+00  0.00000000000E+00  0.10843930467E+04  0.10843930467E+04  0.00000000000E+00 0. -1.
         -1   -1    0    0    0  501 -0.00000000000E+00 -0.00000000000E+00 -0.10730425329E+04  0.10730425329E+04  0.00000000000E+00 0.  1.
         23    2    1    2    0    0 -0.19166071533E+03  0.74851742877E+03  0.44143047048E+03  0.89457213814E+03  0.91576629663E+02 0.  0.
        254    2    1    2    0    0  0.19166071533E+03 -0.74851742877E+03 -0.43007995663E+03  0.12628634414E+04  0.90157813398E+03 0.  0.
        -24    2    4    4    0    0  0.20936465492E+03 -0.93064969224E+03 -0.23843263772E+03  0.98621734107E+03  0.76368270265E+02 0.  0.
         24    2    4    4    0    0 -0.17703939596E+02  0.18213226347E+03 -0.19164731891E+03  0.27664610038E+03  0.79490748728E+02 0.  0.
         13    1    3    3    0    0 -0.97540128123E+01  0.19097997814E+03  0.12073157668E+03  0.22615173319E+03  0.00000000000E+00 0.  1.
        -13    1    3    3    0    0 -0.18190670252E+03  0.55753745063E+03  0.32069889380E+03  0.66842040495E+03  0.00000000000E+00 0. -1.
          4    1    6    6  502    0  0.18870920381E+02  0.43998687655E+02 -0.87795091390E+02  0.99999871118E+02  0.00000000000E+00 0. -1.
          3    1    5    5  503    0  0.13435325193E+03 -0.61982562246E+03 -0.12145785350E+03  0.64574500288E+03  0.00000000000E+00 0. -1.
         -4    1    5    5    0  503  0.75011402996E+02 -0.31082406978E+03 -0.11697478422E+03  0.34047233819E+03  0.00000000000E+00 0.  1.
         -3    1    6    6    0  502 -0.36574859977E+02  0.13813357582E+03 -0.10385222752E+03  0.17664622926E+03  0.00000000000E+00 0.  1.
<mgrwt>
<rscale>  0 0.21574057E+04</rscale>
<asrwt>0</asrwt>
<pdfrwt beam="1">  1        1 0.16682970E+00 0.21574057E+04</pdfrwt>
<pdfrwt beam="2">  1       -1 0.16508347E+00 0.21574057E+04</pdfrwt>
<totfact> 0.31905363E+00</totfact>
</mgrwt>
</event>
<event>
12    1  0.1562393E-007  0.2008008E+04  0.7818608E-02  0.8602886E-01
          2   -1    0    0  501    0  0.00000000000E+00  0.00000000000E+00  0.20989170962E+04  0.20989170962E+04  0.00000000000E+00 0. -1.
         -2   -1    0    0    0  501 -0.00000000000E+00 -0.00000000000E+00 -0.48025908880E+03  0.48025908880E+03  0.00000000000E+00 0.  1.
         23    2    1    2    0    0 -0.47101121966E+03  0.17506331426E+03 -0.14343123520E+03  0.53043863587E+03  0.91070819396E+02 0.  0.
        254    2    1    2    0    0  0.47101121966E+03 -0.17506331426E+03  0.17620892426E+04  0.20487375491E+04  0.91644329516E+03 0.  0.
        -24    2    4    4    0    0  0.21544326364E+03 -0.46584636068E+03  0.14649604941E+04  0.15543439059E+04  0.80293816239E+02 0.  0.
         24    2    4    4    0    0  0.25556795602E+03  0.29078304642E+03  0.29712874846E+03  0.49439364318E+03  0.79182201480E+02 0.  0.
         13    1    3    3    0    0 -0.37835653196E+03  0.17761454947E+03 -0.11905201732E+03  0.43459633718E+03  0.00000000000E+00 0.  1.
        -13    1    3    3    0    0 -0.92654687707E+02 -0.25512352076E+01 -0.24379217879E+02  0.95842298697E+02  0.00000000000E+00 0. -1.
          2    1    6    6  502    0  0.22151917111E+03  0.21484113434E+03  0.20627586821E+03  0.37118349907E+03  0.00000000000E+00 0. -1.
          1    1    5    5  503    0  0.16986541147E+03 -0.31421794943E+03  0.92211778342E+03  0.98888239152E+03  0.00000000000E+00 0. -1.
         -2    1    5    5    0  503  0.45577852174E+02 -0.15162841125E+03  0.54284271068E+03  0.56546151438E+03  0.00000000000E+00 0.  1.
         -1    1    6    6    0  502  0.34048784912E+02  0.75941912083E+02  0.90852880245E+02  0.12321014412E+03  0.00000000000E+00 0.  1.
<mgrwt>
<rscale>  0 0.20080080E+04</rscale>
<asrwt>0</asrwt>
<pdfrwt beam="1">  1        2 0.32291032E+00 0.20080080E+04</pdfrwt>
<pdfrwt beam="2">  1       -2 0.73886015E-01 0.20080080E+04</pdfrwt>
<totfact> 0.90171832E+00</totfact>
</mgrwt>
</event>
<event>
12    1  0.1562393E-007  0.1240957E+04  0.7818608E-02  0.9077743E-01
         -2   -1    0    0    0  501 -0.00000000000E+00  0.00000000000E+00  0.62494286323E+03  0.62494286323E+03  0.00000000000E+00 0. -1.
          2   -1    0    0  501    0  0.00000000000E+00 -0.00000000000E+00 -0.61604619920E+03  0.61604619920E+03  0.00000000000E+00 0.  1.
         23    2    1    2    0    0  0.59658932272E+02 -0.25044825573E+03 -0.95933468892E+02  0.28914227537E+03  0.90091664173E+02 0.  0.
        254    2    1    2    0    0 -0.59658932272E+02  0.25044825573E+03  0.10483013292E+03  0.95184678706E+03  0.91035126861E+03 0.  0.
        -24    2    4    4    0    0  0.28550629256E+03  0.45075978315E+03  0.66599935834E+02  0.54363605664E+03  0.80039898969E+02 0.  0.
         24    2    4    4    0    0 -0.34516522483E+03 -0.20031152742E+03  0.38230197087E+02  0.40821073042E+03  0.76881155116E+02 0.  0.
         11    1    3    3    0    0  0.22588185104E+00  0.73831970008E+01 -0.65128099255E+01  0.98478075575E+01  0.00000000000E+00 0. -1.
        -11    1    3    3    0    0  0.59433050421E+02 -0.25783145273E+03 -0.89420658966E+02  0.27929446781E+03  0.00000000000E+00 0.  1.
          4    1    6    6  502    0 -0.27045419084E+03 -0.13318313537E+03  0.54816484275E+02  0.30641159220E+03  0.00000000000E+00 0. -1.
          3    1    5    5  503    0  0.85450527130E+02  0.10199891311E+03 -0.13243426459E+02  0.13371970388E+03  0.00000000000E+00 0. -1.
         -2    1    5    5    0  503  0.20005576543E+03  0.34876087004E+03  0.79843362293E+02  0.40991635275E+03  0.00000000000E+00 0.  1.
         -1    1    6    6    0  502 -0.74711033995E+02 -0.67128392042E+02 -0.16586287188E+02  0.10179913822E+03  0.00000000000E+00 0.  1.
<mgrwt>
<rscale>  0 0.12409572E+04</rscale>
<asrwt>0</asrwt>
<pdfrwt beam="1">  1        2 0.94776339E-01 0.12409572E+04</pdfrwt>
<pdfrwt beam="2">  1       -2 0.96145055E-01 0.12409572E+04</pdfrwt>
<totfact> 0.42846314E+01</totfact>
</mgrwt>
</event>
<event>
12    1  0.1562393E-007  0.2267915E+04  0.7818608E-02  0.8490680E-01
          2   -1    0    0  501    0  0.00000000000E+00  0.00000000000E+00  0.11119423840E+04  0.11119423840E+04  0.00000000000E+00 0. -1.
         -2   -1    0    0    0  501 -0.00000000000E+00 -0.00000000000E+00 -0.11564081651E+04  0.11564081651E+04  0.00000000000E+00 0.  1.
         23    2    1    2    0    0 -0.47358521571E+03 -0.49077936363E+03  0.63957614330E+03  0.93942018342E+03  0.91133405698E+02 0.  0.
        254    2    1    2    0    0  0.47358521571E+03  0.49077936363E+03 -0.68404192435E+03  0.13289303657E+04  0.91268571932E+03 0.  0.
        -24    2    4    4    0    0  0.21864331922E+02  0.13696694132E+03  0.20915945535E+03  0.26429301586E+03  0.82856070682E+02 0.  0.
         24    2    4    4    0    0  0.45172088379E+03  0.35381242232E+03 -0.89320137970E+03  0.10646373498E+04  0.80056198320E+02 0.  0.
         13    1    3    3    0    0 -0.20459847158E+03 -0.21957907251E+03  0.22072659609E+03  0.37255299473E+03  0.00000000000E+00 0. -1.
        -13    1    3    3    0    0 -0.26898674413E+03 -0.27120029112E+03  0.41884954721E+03  0.56686718870E+03  0.00000000000E+00 0.  1.
          4    1    6    6  502    0  0.41069863607E+03  0.29034472468E+03 -0.79462634743E+03  0.94042780736E+03  0.00000000000E+00 0. -1.
          3    1    5    5  503    0  0.27855860816E+01  0.11790145593E+03  0.20568693812E+03  0.23709835368E+03  0.00000000000E+00 0. -1.
         -4    1    5    5    0  503  0.19078745841E+02  0.19065485381E+02  0.34725172264E+01  0.27194662189E+02  0.00000000000E+00 0.  1.
         -3    1    6    6    0  502  0.41022247718E+02  0.63467697635E+02 -0.98575032273E+02  0.12420954246E+03  0.00000000000E+00 0.  1.
<mgrwt>
<rscale>  0 0.22679147E+04</rscale>
<asrwt>0</asrwt>
<pdfrwt beam="1">  1        2 0.17106806E+00 0.22679147E+04</pdfrwt>
<pdfrwt beam="2">  1       -2 0.17790895E+00 0.22679147E+04</pdfrwt>
<totfact> 0.36501881E+00</totfact>
</mgrwt>
</event>
<event>
12    1  0.1562393E-007  0.2228179E+04  0.7818608E-02  0.8506790E-01
         -2   -1    0    0    0  501 -0.00000000000E+00  0.00000000000E+00  0.46167668815E+03  0.46167668815E+03  0.00000000000E+00 0.  1.
          2   -1    0    0  501    0  0.00000000000E+00 -0.00000000000E+00 -0.26884512584E+04  0.26884512584E+04  0.00000000000E+00 0. -1.
         23    2    1    2    0    0  0.37843653431E+03 -0.67040753184E+03 -0.16619726373E+04  0.18360804466E+04  0.12797613027E+03 0.  0.
        254    2    1    2    0    0 -0.37843653431E+03  0.67040753184E+03 -0.56480193292E+03  0.13140475000E+04  0.90280625799E+03 0.  0.
        -24    2    4    4    0    0  0.28950382934E+03  0.20416155281E+03 -0.23113049355E+03  0.42998274118E+03  0.77262188772E+02 0.  0.
         24    2    4    4    0    0 -0.66794036365E+03  0.46624597903E+03 -0.33367143937E+03  0.88406475878E+03  0.81879337525E+02 0.  0.
         11    1    3    3    0    0  0.29881709950E+02 -0.46822390573E+02 -0.21922103181E+03  0.22614843275E+03  0.00000000000E+00 0.  1.
        -11    1    3    3    0    0  0.34855482436E+03 -0.62358514127E+03 -0.14427516055E+04  0.16099320138E+04  0.00000000000E+00 0. -1.
          2    1    6    6  502    0 -0.19124139871E+03  0.91040955255E+02 -0.95475162261E+02  0.23233001253E+03  0.00000000000E+00 0. -1.
          3    1    5    5  503    0  0.20326370914E+03  0.16773754695E+03 -0.13618223182E+03  0.29664392859E+03  0.00000000000E+00 0. -1.
         -4    1    5    5    0  503  0.86240120203E+02  0.36424005863E+02 -0.94948261730E+02  0.13333881258E+03  0.00000000000E+00 0.  1.
         -1    1    6    6    0  502 -0.47669896494E+03  0.37520502377E+03 -0.23819627711E+03  0.65173474625E+03  0.00000000000E+00 0.  1.
<mgrwt>
<rscale>  0 0.22281789E+04</rscale>
<asrwt>0</asrwt>
<pdfrwt beam="1">  1        2 0.41360789E+00 0.22281789E+04</pdfrwt>
<pdfrwt beam="2">  1       -2 0.71027183E-01 0.22281789E+04</pdfrwt>
<totfact> 0.44313594E+00</totfact>
</mgrwt>
</event>
<event>
12    1  0.1562393E-007  0.2003850E+04  0.7818608E-02  0.8604823E-01
          1   -1    0    0  501    0  0.00000000000E+00  0.00000000000E+00  0.13393582859E+04  0.13393582859E+04  0.00000000000E+00 0. -1.
         -1   -1    0    0    0  501 -0.00000000000E+00 -0.00000000000E+00 -0.74950363471E+03  0.74950363471E+03  0.00000000000E+00 0.  1.
         23    2    1    2    0    0  0.74533950858E+03  0.25977154422E+03  0.11499561006E+03  0.80280447631E+03  0.90877932460E+02 0.  0.
        254    2    1    2    0    0 -0.74533950858E+03 -0.25977154422E+03  0.47485904118E+03  0.12860574444E+04  0.89746331566E+03 0.  0.
        -24    2    4    4    0    0 -0.60641418527E+02  0.27254605410E+03 -0.75742973642E+01  0.29046114788E+03  0.79696770314E+02 0.  0.
         24    2    4    4    0    0 -0.68469809005E+03 -0.53231759832E+03  0.48243333854E+03  0.99559629647E+03  0.79350862659E+02 0.  0.
         11    1    3    3    0    0  0.17602894294E+02  0.13411067479E+02 -0.10196281731E+02  0.24365606489E+02  0.00000000000E+00 0. -1.
        -11    1    3    3    0    0  0.72773661429E+03  0.24636047674E+03  0.12519189179E+03  0.77843886982E+03  0.00000000000E+00 0.  1.
          2    1    6    6  502    0 -0.91294274607E+02 -0.93543689778E+02  0.98707992904E+02  0.16379357233E+03  0.00000000000E+00 0. -1.
          1    1    5    5  503    0 -0.49706200778E+01  0.23911614406E+02  0.23364326946E+02  0.33798877809E+02  0.00000000000E+00 0. -1.
         -2    1    5    5    0  503 -0.55670798449E+02  0.24863443970E+03 -0.30938624311E+02  0.25666227007E+03  0.00000000000E+00 0.  1.
         -1    1    6    6    0  502 -0.59340381545E+03 -0.43877390855E+03  0.38372534564E+03  0.83180272414E+03  0.00000000000E+00 0.  1.
<mgrwt>
<rscale>  0 0.20038502E+04</rscale>
<asrwt>0</asrwt>
<pdfrwt beam="1">  1        1 0.20605512E+00 0.20038502E+04</pdfrwt>
<pdfrwt beam="2">  1       -1 0.11530825E+00 0.20038502E+04</pdfrwt>
<totfact> 0.53631605E+00</totfact>
</mgrwt>
</event>
<event>
12    1  0.1562393E-007  0.1771944E+04  0.7818608E-02  0.8721363E-01
         -3   -1    0    0    0  501 -0.00000000000E+00  0.00000000000E+00  0.11391973084E+04  0.11391973084E+04  0.00000000000E+00 0.  1.
          3   -1    0    0  501    0  0.00000000000E+00 -0.00000000000E+00 -0.68903432042E+03  0.68903432042E+03  0.00000000000E+00 0. -1.
         23    2    1    2    0    0 -0.40989881303E+03 -0.46597627181E+03  0.34768550722E+03  0.71732130794E+03  0.92269843829E+02 0.  0.
        254    2    1    2    0    0  0.40989881303E+03  0.46597627181E+03  0.10247748072E+03  0.11109103208E+04  0.91567962961E+03 0.  0.
        -24    2    4    4    0    0  0.21854685035E+03  0.11888272528E+03  0.48682596327E+03  0.55286484516E+03  0.82244697940E+02 0.  0.
         24    2    4    4    0    0  0.19135196268E+03  0.34709354653E+03 -0.38434848255E+03  0.55804547568E+03  0.81249573698E+02 0.  0.
         11    1    3    3    0    0 -0.92843202943E+02 -0.98262478150E+02  0.34405162882E+02  0.13949584287E+03  0.00000000000E+00 0. -1.
        -11    1    3    3    0    0 -0.31705561009E+03 -0.36771379366E+03  0.31328034434E+03  0.57782546507E+03  0.00000000000E+00 0.  1.
          4    1    6    6  502    0  0.11344923555E+03  0.27667426816E+03 -0.29689706669E+03  0.42138728970E+03  0.00000000000E+00 0. -1.
          1    1    5    5  503    0  0.16138200500E+03  0.63887494946E+02  0.39543343357E+03  0.43184877438E+03  0.00000000000E+00 0. -1.
         -2    1    5    5    0  503  0.57164845351E+02  0.54995230337E+02  0.91392529696E+02  0.12101607078E+03  0.00000000000E+00 0.  1.
         -3    1    6    6    0  502  0.77902727133E+02  0.70419278367E+02 -0.87451415857E+02  0.13665818598E+03  0.00000000000E+00 0.  1.
<mgrwt>
<rscale>  0 0.17719436E+04</rscale>
<asrwt>0</asrwt>
<pdfrwt beam="1">  1        3 0.10600528E+00 0.17719436E+04</pdfrwt>
<pdfrwt beam="2">  1       -3 0.17526112E+00 0.17719436E+04</pdfrwt>
<totfact> 0.40167025E-01</totfact>
</mgrwt>
</event>
<event>
12    1  0.1562393E-007  0.1295063E+04  0.7818608E-02  0.9033489E-01
         -2   -1    0    0    0  501 -0.00000000000E+00  0.00000000000E+00  0.31893113416E+03  0.31893113416E+03  0.00000000000E+00 0.  1.
          2   -1    0    0  501    0  0.00000000000E+00 -0.00000000000E+00 -0.13146951612E+04  0.13146951612E+04  0.00000000000E+00 0. -1.
         23    2    1    2    0    0 -0.14288662074E+03 -0.92202440646E+01 -0.64373455690E+03  0.66524609252E+03  0.87501911814E+02 0.  0.
        254    2    1    2    0    0  0.14288662074E+03  0.92202440646E+01 -0.35202947016E+03  0.96838020286E+03  0.89069291573E+03 0.  0.
        -24    2    4    4    0    0 -0.36110121966E+03 -0.15767219888E+02 -0.46743753179E+02  0.37300439217E+03  0.79401524286E+02 0.  0.
         24    2    4    4    0    0  0.50398784040E+03  0.24987463952E+02 -0.30528571698E+03  0.59537581068E+03  0.81516074070E+02 0.  0.
         11    1    3    3    0    0 -0.62138439467E+02 -0.28466293662E+02 -0.15344204952E+03  0.16797612358E+03  0.00000000000E+00 0.  1.
        -11    1    3    3    0    0 -0.80748181272E+02  0.19246049597E+02 -0.49029250739E+03  0.49726996893E+03  0.00000000000E+00 0. -1.
          4    1    6    6  502    0  0.34450318962E+02  0.23287367838E+02 -0.23228708159E+02  0.47630860376E+02  0.00000000000E+00 0. -1.
          3    1    5    5  503    0 -0.37062052494E+02 -0.28952809066E+01 -0.30870394896E+02  0.48321420381E+02  0.00000000000E+00 0. -1.
         -4    1    5    5    0  503 -0.32403916716E+03 -0.12871938981E+02 -0.15873358283E+02  0.32468297179E+03  0.00000000000E+00 0.  1.
         -3    1    6    6    0  502  0.46953752143E+03  0.17000961142E+01 -0.28205700882E+03  0.54774495031E+03  0.00000000000E+00 0.  1.
<mgrwt>
<rscale>  0 0.12950633E+04</rscale>
<asrwt>0</asrwt>
<pdfrwt beam="1">  1        2 0.20226079E+00 0.12950633E+04</pdfrwt>
<pdfrwt beam="2">  1       -2 0.49066328E-01 0.12950633E+04</pdfrwt>
<totfact> 0.62479872E+01</totfact>
</mgrwt>
</event>
<event>
12    1  0.1562393E-007  0.1999239E+04  0.7818608E-02  0.8606977E-01
         -2   -1    0    0    0  501 -0.00000000000E+00  0.00000000000E+00  0.11323154029E+04  0.11323154029E+04  0.00000000000E+00 0. -1.
          2   -1    0    0  501    0  0.00000000000E+00 -0.00000000000E+00 -0.88247378427E+03  0.88247378427E+03  0.00000000000E+00 0.  1.
         23    2    1    2    0    0  0.76146239941E+02 -0.59122990779E+03 -0.42635893697E+03  0.73847815966E+03  0.90647644500E+02 0.  0.
        254    2    1    2    0    0 -0.76146239941E+02  0.59122990779E+03  0.67620055560E+03  0.12763110275E+04  0.90353284049E+03 0.  0.
        -24    2    4    4    0    0  0.12093952298E+03  0.66046482947E+03  0.77710627465E+03  0.10300692667E+04  0.79425266423E+02 0.  0.
         24    2    4    4    0    0 -0.19708576292E+03 -0.69234921682E+02 -0.10090571905E+03  0.24624176080E+03  0.82563722648E+02 0.  0.
         13    1    3    3    0    0  0.31233459276E+02 -0.44818015020E+03 -0.28258844507E+03  0.53075154761E+03  0.00000000000E+00 0. -1.
        -13    1    3    3    0    0  0.44912780666E+02 -0.14304975759E+03 -0.14377049190E+03  0.20772661205E+03  0.00000000000E+00 0.  1.
          2    1    6    6  502    0 -0.16979572406E+03 -0.78976468313E+02 -0.10831470203E+03  0.21633294971E+03  0.00000000000E+00 0. -1.
          1    1    5    5  503    0  0.68042351401E+02  0.53588219281E+03  0.63830592126E+03  0.83620208997E+03  0.00000000000E+00 0. -1.
         -2    1    5    5    0  503  0.52897171576E+02  0.12458263666E+03  0.13880035339E+03  0.19386717674E+03  0.00000000000E+00 0.  1.
         -1    1    6    6    0  502 -0.27290038859E+02  0.97415466304E+01  0.74089829772E+01  0.29908811083E+02  0.00000000000E+00 0.  1.
<mgrwt>
<rscale>  0 0.19992385E+04</rscale>
<asrwt>0</asrwt>
<pdfrwt beam="1">  1        2 0.13576520E+00 0.19992385E+04</pdfrwt>
<pdfrwt beam="2">  1       -2 0.17420237E+00 0.19992385E+04</pdfrwt>
<totfact> 0.55713906E+00</totfact>
</mgrwt>
</event>
<event>
12    1  0.1562393E-007  0.2803747E+04  0.7818608E-02  0.8302106E-01
          2   -1    0    0  501    0  0.00000000000E+00  0.00000000000E+00  0.21455205029E+04  0.21455205029E+04  0.00000000000E+00 0. -1.
         -2   -1    0    0    0  501 -0.00000000000E+00 -0.00000000000E+00 -0.91597755414E+03  0.91597755414E+03  0.00000000000E+00 0.  1.
         23    2    1    2    0    0 -0.96502735092E+03 -0.30210211671E+03 -0.26094314360E+03  0.10483025441E+04  0.91123119626E+02 0.  0.
        254    2    1    2    0    0  0.96502735092E+03  0.30210211671E+03  0.14904860924E+04  0.20131955129E+04  0.89936861443E+03 0.  0.
        -24    2    4    4    0    0  0.47417917759E+03  0.44043442758E+00  0.79767235957E+02  0.48721708116E+03  0.78559441195E+02 0.  0.
         24    2    4    4    0    0  0.49084817334E+03  0.30166168228E+03  0.14107188564E+04  0.15259784317E+04  0.80936904165E+02 0.  0.
         11    1    3    3    0    0 -0.48489718872E+03 -0.10508046247E+03 -0.11790036961E+03  0.50996831703E+03  0.00000000000E+00 0. -1.
        -11    1    3    3    0    0 -0.48013016220E+03 -0.19702165424E+03 -0.14304277400E+03  0.53833422712E+03  0.00000000000E+00 0.  1.
          2    1    6    6  502    0  0.32842147939E+03  0.23620835106E+03  0.92253906576E+03  0.10073397545E+04  0.00000000000E+00 0. -1.
          3    1    5    5  503    0  0.13074663774E+03 -0.34833211994E+02  0.26858964859E+02  0.13794723604E+03  0.00000000000E+00 0. -1.
         -4    1    5    5    0  503  0.34343253985E+03  0.35273646421E+02  0.52908271098E+02  0.34926984512E+03  0.00000000000E+00 0.  1.
         -1    1    6    6    0  502  0.16242669394E+03  0.65453331221E+02  0.48817979064E+03  0.51863867718E+03  0.00000000000E+00 0.  1.
<mgrwt>
<rscale>  0 0.28037465E+04</rscale>
<asrwt>0</asrwt>
<pdfrwt beam="1">  1        2 0.33008008E+00 0.28037465E+04</pdfrwt>
<pdfrwt beam="2">  1       -2 0.14091962E+00 0.28037465E+04</pdfrwt>
<totfact> 0.17018658E+00</totfact>
</mgrwt>
</event>
<event>
12    1  0.1562393E-007  0.2113744E+04  0.7818608E-02  0.8555213E-01
          2   -1    0    0  501    0  0.00000000000E+00  0.00000000000E+00  0.27017924300E+04  0.27017924300E+04  0.00000000000E+00 0. -1.
         -2   -1    0    0    0  501 -0.00000000000E+00 -0.00000000000E+00 -0.41342140193E+03  0.41342140193E+03  0.00000000000E+00 0.  1.
         23    2    1    2    0    0  0.54945063844E+03 -0.19457475827E+03  0.18705554611E+01  0.59143930501E+03  0.10020784344E+03 0.  0.
        254    2    1    2    0    0 -0.54945063844E+03  0.19457475827E+03  0.22865004726E+04  0.25237745269E+04  0.89532011641E+03 0.  0.
        -24    2    4    4    0    0 -0.46527175244E+03  0.20357205194E+03  0.45025955129E+03  0.68378334293E+03  0.83106032265E+02 0.  0.
         24    2    4    4    0    0 -0.84178886003E+02 -0.89972936743E+01  0.18362409213E+04  0.18399911840E+04  0.81362152456E+02 0.  0.
         13    1    3    3    0    0  0.31547866691E+02  0.74564655839E+01  0.14195877342E+02  0.35389118459E+02  0.00000000000E+00 0. -1.
        -13    1    3    3    0    0  0.51790277175E+03 -0.20203122385E+03 -0.12325321881E+02  0.55605018655E+03  0.00000000000E+00 0.  1.
          2    1    6    6  502    0 -0.79489049202E+02 -0.46035499360E+01  0.84810593650E+03  0.85183530165E+03  0.00000000000E+00 0. -1.
          3    1    5    5  503    0 -0.43396216460E+03  0.18028678209E+03  0.38388810172E+03  0.60679202264E+03  0.00000000000E+00 0. -1.
         -4    1    5    5    0  503 -0.31309587846E+02  0.23285269857E+02  0.66371449570E+02  0.76991320299E+02  0.00000000000E+00 0.  1.
         -1    1    6    6    0  502 -0.46898368013E+01 -0.43937437383E+01  0.98813498483E+03  0.98815588234E+03  0.00000000000E+00 0.  1.
<mgrwt>
<rscale>  0 0.21137444E+04</rscale>
<asrwt>0</asrwt>
<pdfrwt beam="1">  1        2 0.41566036E+00 0.21137444E+04</pdfrwt>
<pdfrwt beam="2">  1       -2 0.63603294E-01 0.21137444E+04</pdfrwt>
<totfact> 0.55816930E+00</totfact>
</mgrwt>
</event>
<event>
12    1  0.1562393E-007  0.2590743E+04  0.7818608E-02  0.8371352E-01
          2   -1    0    0  501    0  0.00000000000E+00  0.00000000000E+00  0.26414633406E+04  0.26414633406E+04  0.00000000000E+00 0.  1.
         -2   -1    0    0    0  501 -0.00000000000E+00 -0.00000000000E+00 -0.63524928869E+03  0.63524928869E+03  0.00000000000E+00 0. -1.
         23    2    1    2    0    0  0.23434787090E+01 -0.95342125657E+03  0.16488283957E+04  0.19069772555E+04  0.94390625833E+02 0.  0.
        254    2    1    2    0    0 -0.23434787090E+01  0.95342125657E+03  0.35738565620E+03  0.13697353738E+04  0.91620570970E+03 0.  0.
        -24    2    4    4    0    0 -0.32912927443E+03  0.78579697012E+03  0.47145184510E+03  0.97689276557E+03  0.79054889998E+02 0.  0.
         24    2    4    4    0    0  0.32678579572E+03  0.16762428645E+03 -0.11406618890E+03  0.39284260819E+03  0.80170828025E+02 0.  0.
         13    1    3    3    0    0 -0.72737635478E+01 -0.56954577647E+03  0.89284044527E+03  0.10590558814E+04  0.00000000000E+00 0. -1.
        -13    1    3    3    0    0  0.96172422568E+01 -0.38387548010E+03  0.75598795042E+03  0.84792137416E+03  0.00000000000E+00 0.  1.
          4    1    6    6  502    0  0.16494325757E+03  0.72673268708E+02 -0.96320144819E+02  0.20436548754E+03  0.00000000000E+00 0. -1.
          3    1    5    5  503    0 -0.16100459768E+03  0.43611482351E+03  0.29557068601E+03  0.55089077882E+03  0.00000000000E+00 0. -1.
         -4    1    5    5    0  503 -0.16812467675E+03  0.34968214661E+03  0.17588115909E+03  0.42600198675E+03  0.00000000000E+00 0.  1.
         -3    1    6    6    0  502  0.16184253815E+03  0.94951017741E+02 -0.17746044085E+02  0.18847712064E+03  0.00000000000E+00 0.  1.
<mgrwt>
<rscale>  0 0.25907433E+04</rscale>
<asrwt>0</asrwt>
<pdfrwt beam="1">  1        2 0.40637897E+00 0.25907433E+04</pdfrwt>
<pdfrwt beam="2">  1       -2 0.97730661E-01 0.25907433E+04</pdfrwt>
<totfact> 0.22202118E+00</totfact>
</mgrwt>
</event>
<event>
12    1  0.1562393E-007  0.1422867E+04  0.7818608E-02  0.8937431E-01
          1   -1    0    0  501    0  0.00000000000E+00  0.00000000000E+00  0.29218619894E+03  0.29218619894E+03  0.00000000000E+00 0. -1.
         -1   -1    0    0    0  501 -0.00000000000E+00 -0.00000000000E+00 -0.17322429434E+04  0.17322429434E+04  0.00000000000E+00 0.  1.
         23    2    1    2    0    0  0.28497199490E+03 -0.25323953116E+03 -0.71782546960E+03  0.81763305358E+03  0.88944406693E+02 0.  0.
        254    2    1    2    0    0 -0.28497199490E+03  0.25323953116E+03 -0.72223127487E+03  0.12067960888E+04  0.88848156281E+03 0.  0.
        -24    2    4    4    0    0 -0.33303069885E+03  0.99534245811E+02 -0.89153198495E+03  0.96025783795E+03  0.80307675174E+02 0.  0.
         24    2    4    4    0    0  0.48058703956E+02  0.15370528535E+03  0.16930071009E+03  0.24653825082E+03  0.78634756371E+02 0.  0.
         11    1    3    3    0    0  0.24402292052E+03 -0.24940119427E+03 -0.61859464487E+03  0.71021649946E+03  0.00000000000E+00 0. -1.
        -11    1    3    3    0    0  0.40949074375E+02 -0.38383368875E+01 -0.99230824726E+02  0.10741655412E+03  0.00000000000E+00 0.  1.
          4    1    6    6  502    0  0.49305917673E+02  0.11114837355E+03  0.74463517665E+02  0.14258278271E+03  0.00000000000E+00 0. -1.
          1    1    5    5  503    0 -0.25706696971E+03  0.40759527630E+02 -0.67137886198E+03  0.72006551252E+03  0.00000000000E+00 0. -1.
         -2    1    5    5    0  503 -0.75963729145E+02  0.58774718181E+02 -0.22015312297E+03  0.24019232543E+03  0.00000000000E+00 0.  1.
         -3    1    6    6    0  502 -0.12472137165E+01  0.42556911796E+02  0.94837192422E+02  0.10395546811E+03  0.00000000000E+00 0.  1.
<mgrwt>
<rscale>  0 0.14228668E+04</rscale>
<asrwt>0</asrwt>
<pdfrwt beam="1">  1        1 0.44951722E-01 0.14228668E+04</pdfrwt>
<pdfrwt beam="2">  1       -1 0.26649892E+00 0.14228668E+04</pdfrwt>
<totfact> 0.48165288E+00</totfact>
</mgrwt>
</event>
<event>
12    1  0.1562393E-007  0.1110034E+04  0.7818608E-02  0.9195467E-01
         -2   -1    0    0    0  501 -0.00000000000E+00  0.00000000000E+00  0.12226972499E+03  0.12226972499E+03  0.00000000000E+00 0.  1.
          2   -1    0    0  501    0  0.00000000000E+00 -0.00000000000E+00 -0.25193810035E+04  0.25193810035E+04  0.00000000000E+00 0. -1.
         23    2    1    2    0    0 -0.19205365476E+02  0.15151595564E+03 -0.90739838022E+03  0.92482016662E+03  0.92707007680E+02 0.  0.
        254    2    1    2    0    0  0.19205365476E+02 -0.15151595564E+03 -0.14897128983E+04  0.17168305619E+04  0.83960510241E+03 0.  0.
        -24    2    4    4    0    0  0.23563438121E+03  0.11566926159E+03 -0.11500367213E+03  0.29748393424E+03  0.79799165708E+02 0.  0.
         24    2    4    4    0    0 -0.21642901573E+03 -0.26718521723E+03 -0.13747092262E+04  0.14193466277E+04  0.80560124791E+02 0.  0.
         13    1    3    3    0    0  0.22545695244E+02  0.54966931523E+02 -0.52041487688E+03  0.52379510881E+03  0.00000000000E+00 0. -1.
        -13    1    3    3    0    0 -0.41751060720E+02  0.96549024121E+02 -0.38698350335E+03  0.40102505781E+03  0.00000000000E+00 0.  1.
          4    1    6    6  502    0  0.48619198843E+01 -0.65413346387E+01 -0.12806938460E+02  0.15180414900E+02  0.00000000000E+00 0. -1.
          1    1    5    5  503    0  0.71843927346E+02  0.61417485644E+02 -0.74250804326E+02  0.12019500565E+03  0.00000000000E+00 0. -1.
         -2    1    5    5    0  503  0.16379045386E+03  0.54251775941E+02 -0.40752867800E+02  0.17728892860E+03  0.00000000000E+00 0.  1.
         -3    1    6    6    0  502 -0.22129093562E+03 -0.26064388259E+03 -0.13619022877E+04  0.14041662128E+04  0.00000000000E+00 0.  1.
<mgrwt>
<rscale>  0 0.11100343E+04</rscale>
<asrwt>0</asrwt>
<pdfrwt beam="1">  1        2 0.38759708E+00 0.11100343E+04</pdfrwt>
<pdfrwt beam="2">  1       -2 0.18810727E-01 0.11100343E+04</pdfrwt>
<totfact> 0.80812376E+01</totfact>
</mgrwt>
</event>
<event>
12    1  0.1562393E-007  0.2489266E+04  0.7818608E-02  0.8406819E-01
         -2   -1    0    0    0  501 -0.00000000000E+00  0.00000000000E+00  0.11769760627E+04  0.11769760627E+04  0.00000000000E+00 0.  1.
          2   -1    0    0  501    0  0.00000000000E+00 -0.00000000000E+00 -0.13161793082E+04  0.13161793082E+04  0.00000000000E+00 0. -1.
         23    2    1    2    0    0 -0.11243663150E+03 -0.21431537597E+03 -0.11147423470E+04  0.11444228995E+04  0.92087980810E+02 0.  0.
        254    2    1    2    0    0  0.11243663150E+03  0.21431537597E+03  0.97553910148E+03  0.13487324713E+04  0.89934957845E+03 0.  0.
        -24    2    4    4    0    0 -0.22092762459E+03 -0.23987001856E+03  0.21376450606E+03  0.39801602389E+03  0.79842658477E+02 0.  0.
         24    2    4    4    0    0  0.33336425609E+03  0.45418539453E+03  0.76177459542E+03  0.95071644744E+03  0.78390875545E+02 0.  0.
         13    1    3    3    0    0 -0.47839382964E+02 -0.93445341657E+02 -0.69472586345E+03  0.70261274098E+03  0.00000000000E+00 0. -1.
        -13    1    3    3    0    0 -0.64597248533E+02 -0.12087003431E+03 -0.42001648355E+03  0.44181015852E+03  0.00000000000E+00 0.  1.
          4    1    6    6  502    0  0.29774707847E+03  0.43059705937E+03  0.67714863269E+03  0.85591905051E+03  0.00000000000E+00 0. -1.
          3    1    5    5  503    0 -0.16891877056E+03 -0.22544673813E+03  0.17661013926E+03  0.33249199099E+03  0.00000000000E+00 0. -1.
         -4    1    5    5    0  503 -0.52008854034E+02 -0.14423280434E+02  0.37154366797E+02  0.65524032907E+02  0.00000000000E+00 0.  1.
         -3    1    6    6    0  502  0.35617177621E+02  0.23588335166E+02  0.84625962729E+02  0.94797396934E+02  0.00000000000E+00 0.  1.
<mgrwt>
<rscale>  0 0.24892662E+04</rscale>
<asrwt>0</asrwt>
<pdfrwt beam="1">  1        2 0.20248912E+00 0.24892662E+04</pdfrwt>
<pdfrwt beam="2">  1       -2 0.18107324E+00 0.24892662E+04</pdfrwt>
<totfact> 0.25742710E+00</totfact>
</mgrwt>
</event>
<event>
12    1  0.1562393E-007  0.1695493E+04  0.7818608E-02  0.8763939E-01
         -2   -1    0    0    0  501 -0.00000000000E+00  0.00000000000E+00  0.86367457373E+03  0.86367457373E+03  0.00000000000E+00 0.  1.
          2   -1    0    0  501    0  0.00000000000E+00 -0.00000000000E+00 -0.83211231822E+03  0.83211231822E+03  0.00000000000E+00 0. -1.
         23    2    1    2    0    0  0.51464676298E+03 -0.14824372454E+03  0.29520631631E+03  0.61695084461E+03  0.81511244428E+02 0.  0.
        254    2    1    2    0    0 -0.51464676298E+03  0.14824372454E+03 -0.26364406080E+03  0.10788360473E+04  0.89863314747E+03 0.  0.
        -24    2    4    4    0    0  0.14539028229E+03 -0.22634408015E+03 -0.92936385597E+02  0.29692105302E+03  0.84587015260E+02 0.  0.
         24    2    4    4    0    0 -0.66003704527E+03  0.37458780469E+03 -0.17070767520E+03  0.78191499432E+03  0.79278139633E+02 0.  0.
         11    1    3    3    0    0  0.55229640920E+01 -0.13691775689E+02  0.11987671543E+02  0.19017679220E+02  0.00000000000E+00 0. -1.
        -11    1    3    3    0    0  0.50912379889E+03 -0.13455194885E+03  0.28321864477E+03  0.59793316539E+03  0.00000000000E+00 0.  1.
          2    1    6    6  502    0 -0.11879635217E+03  0.38694841310E+02 -0.12486786719E+02  0.12556187269E+03  0.00000000000E+00 0. -1.
          3    1    5    5  503    0  0.96583168546E+01 -0.50605636777E+02  0.94871067981E+01  0.52385291385E+02  0.00000000000E+00 0. -1.
         -4    1    5    5    0  503  0.13573196544E+03 -0.17573844338E+03 -0.10242349239E+03  0.24453576163E+03  0.00000000000E+00 0.  1.
         -1    1    6    6    0  502 -0.54124069311E+03  0.33589296338E+03 -0.15822088848E+03  0.65635312163E+03  0.00000000000E+00 0.  1.
<mgrwt>
<rscale>  0 0.16954931E+04</rscale>
<asrwt>0</asrwt>
<pdfrwt beam="1">  1        2 0.12801728E+00 0.16954931E+04</pdfrwt>
<pdfrwt beam="2">  1       -2 0.13287301E+00 0.16954931E+04</pdfrwt>
<totfact> 0.12774331E+01</totfact>
</mgrwt>
</event>
<event>
12    1  0.1562393E-007  0.1969760E+04  0.7818608E-02  0.8620891E-01
         -2   -1    0    0    0  501 -0.00000000000E+00  0.00000000000E+00  0.21227247313E+04  0.21227247313E+04  0.00000000000E+00 0.  1.
          2   -1    0    0  501    0  0.00000000000E+00 -0.00000000000E+00 -0.45695467699E+03  0.45695467699E+03  0.00000000000E+00 0. -1.
         23    2    1    2    0    0  0.56153057118E+03  0.29343797112E+03  0.74558892749E+02  0.64420434664E+03  0.89542093331E+02 0.  0.
        254    2    1    2    0    0 -0.56153057118E+03 -0.29343797112E+03  0.15912111616E+04  0.19354750617E+04  0.90149227858E+03 0.  0.
        -24    2    4    4    0    0 -0.69517911245E+03 -0.48539353614E+03  0.12632643142E+04  0.15234821790E+04  0.79248588328E+02 0.  0.
         24    2    4    4    0    0  0.13364854126E+03  0.19195556503E+03  0.32794684736E+03  0.41199288269E+03  0.86487740003E+02 0.  0.
         11    1    3    3    0    0  0.49752154559E+03  0.22738173055E+03  0.51919215387E+02  0.54947770168E+03  0.00000000000E+00 0. -1.
        -11    1    3    3    0    0  0.64009025591E+02  0.66056240565E+02  0.22639677361E+02  0.94726644962E+02  0.00000000000E+00 0.  1.
          2    1    6    6  502    0  0.12500240564E+03  0.20110496152E+03  0.31153765788E+03  0.39131128177E+03  0.00000000000E+00 0. -1.
          1    1    5    5  503    0 -0.66005854297E+03 -0.47972829851E+03  0.12121953148E+04  0.14612439912E+04  0.00000000000E+00 0. -1.
         -2    1    5    5    0  503 -0.35120569472E+02 -0.56652376315E+01  0.51068999440E+02  0.62238187805E+02  0.00000000000E+00 0.  1.
         -1    1    6    6    0  502  0.86461356254E+01 -0.91493964919E+01  0.16409189478E+02  0.20681600923E+02  0.00000000000E+00 0.  1.
<mgrwt>
<rscale>  0 0.19697604E+04</rscale>
<asrwt>0</asrwt>
<pdfrwt beam="1">  1        2 0.70300721E-01 0.19697604E+04</pdfrwt>
<pdfrwt beam="2">  1       -2 0.32657303E+00 0.19697604E+04</pdfrwt>
<totfact> 0.13901838E+00</totfact>
</mgrwt>
</event>
<event>
12    1  0.1562393E-007  0.1362164E+04  0.7818608E-02  0.8981671E-01
         -1   -1    0    0    0  501 -0.00000000000E+00  0.00000000000E+00  0.40210060866E+03  0.40210060866E+03  0.00000000000E+00 0.  1.
          1   -1    0    0  501    0  0.00000000000E+00 -0.00000000000E+00 -0.11536232105E+04  0.11536232105E+04  0.00000000000E+00 0. -1.
         23    2    1    2    0    0 -0.26085490299E+03 -0.18396955792E+03 -0.43079356372E+03  0.54487178817E+03  0.97015938654E+02 0.  0.
        254    2    1    2    0    0  0.26085490299E+03  0.18396955792E+03 -0.32072903810E+03  0.10108520310E+04  0.90391627597E+03 0.  0.
        -24    2    4    4    0    0 -0.21809822426E+03 -0.35493385182E+02 -0.40799859435E+03  0.47090396098E+03  0.80380791607E+02 0.  0.
         24    2    4    4    0    0  0.47895312726E+03  0.21946294310E+03  0.87269556244E+02  0.53994806998E+03  0.79798880496E+02 0.  0.
         13    1    3    3    0    0 -0.20869446328E+03 -0.18119763820E+03 -0.32311817251E+03  0.42519562145E+03  0.00000000000E+00 0. -1.
        -13    1    3    3    0    0 -0.52160439708E+02 -0.27719197119E+01 -0.10767539121E+03  0.11967616672E+03  0.00000000000E+00 0.  1.
          4    1    6    6  502    0  0.69718038738E+01 -0.61912465747E+01 -0.10929807327E+01  0.93878746416E+01  0.00000000000E+00 0. -1.
          3    1    5    5  503    0 -0.74029992825E+02 -0.16494886958E+02 -0.70923369880E+02  0.10383951815E+03  0.00000000000E+00 0. -1.
         -4    1    5    5    0  503 -0.14406823144E+03 -0.18998498224E+02 -0.33707522447E+03  0.36706444284E+03  0.00000000000E+00 0.  1.
         -3    1    6    6    0  502  0.47198132338E+03  0.22565418967E+03  0.88362536976E+02  0.53056019534E+03  0.00000000000E+00 0.  1.
<mgrwt>
<rscale>  0 0.13621639E+04</rscale>
<asrwt>0</asrwt>
<pdfrwt beam="1">  1        1 0.17748049E+00 0.13621639E+04</pdfrwt>
<pdfrwt beam="2">  1       -1 0.61861633E-01 0.13621639E+04</pdfrwt>
<totfact> 0.29963326E+01</totfact>
</mgrwt>
</event>
<event>
12    1  0.1562393E-007  0.2905972E+04  0.7818608E-02  0.8271103E-01
         -2   -1    0    0    0  501 -0.00000000000E+00  0.00000000000E+00  0.14387354647E+04  0.14387354647E+04  0.00000000000E+00 0.  1.
          2   -1    0    0  501    0  0.00000000000E+00 -0.00000000000E+00 -0.14673772228E+04  0.14673772228E+04  0.00000000000E+00 0. -1.
         23    2    1    2    0    0 -0.69110604481E+03  0.97238789423E+03 -0.55821317776E+03  0.13203580532E+04  0.92615629422E+02 0.  0.
        254    2    1    2    0    0  0.69110604481E+03 -0.97238789423E+03  0.52957141967E+03  0.15857546343E+04  0.90055876517E+03 0.  0.
        -24    2    4    4    0    0  0.21519554393E+03  0.10641567541E+03  0.28106779746E+03  0.37809285626E+03  0.79509012614E+02 0.  0.
         24    2    4    4    0    0  0.47591050088E+03 -0.10788035696E+04  0.24850362221E+03  0.12076617780E+04  0.79906026553E+02 0.  0.
         11    1    3    3    0    0 -0.63814329050E+03  0.85505800332E+03 -0.51358598105E+03  0.11841121603E+04  0.00000000000E+00 0. -1.
        -11    1    3    3    0    0 -0.52962754309E+02  0.11732989091E+03 -0.44627196709E+02  0.13624589290E+03  0.00000000000E+00 0.  1.
          4    1    6    6  502    0  0.60356311122E+02 -0.82710369714E+02  0.16563349528E+02  0.10372190751E+03  0.00000000000E+00 0. -1.
          3    1    5    5  503    0  0.50050086289E+02  0.36499127160E+02  0.28137154725E+02  0.68035997068E+02  0.00000000000E+00 0. -1.
         -4    1    5    5    0  503  0.16514545764E+03  0.69916548246E+02  0.25293064273E+03  0.31005685919E+03  0.00000000000E+00 0.  1.
         -3    1    6    6    0  502  0.41555418976E+03 -0.99609319992E+03  0.23194027269E+03  0.11039398705E+04  0.00000000000E+00 0.  1.
<mgrwt>
<rscale>  0 0.29059715E+04</rscale>
<asrwt>0</asrwt>
<pdfrwt beam="1">  1        2 0.22575034E+00 0.29059715E+04</pdfrwt>
<pdfrwt beam="2">  1       -2 0.22134392E+00 0.29059715E+04</pdfrwt>
<totfact> 0.11074595E+00</totfact>
</mgrwt>
</event>
<event>
12    1  0.1562393E-007  0.1771718E+04  0.7818608E-02  0.8721486E-01
         -1   -1    0    0    0  501 -0.00000000000E+00  0.00000000000E+00  0.26270644465E+03  0.26270644465E+03  0.00000000000E+00 0.  1.
          1   -1    0    0  501    0  0.00000000000E+00 -0.00000000000E+00 -0.29871608128E+04  0.29871608128E+04  0.00000000000E+00 0. -1.
         23    2    1    2    0    0  0.10278491832E+03  0.63396219570E+03 -0.77168384998E+03  0.10076426711E+04  0.85877723152E+02 0.  0.
        254    2    1    2    0    0 -0.10278491832E+03 -0.63396219570E+03 -0.19527705182E+04  0.22422245864E+04  0.89542481199E+03 0.  0.
        -24    2    4    4    0    0 -0.24110848630E+03 -0.81561438063E+03 -0.16091112152E+04  0.18218248590E+04  0.80291930221E+02 0.  0.
         24    2    4    4    0    0  0.13832356798E+03  0.18165218494E+03 -0.34365930297E+03  0.42039972731E+03  0.80642968982E+02 0.  0.
         13    1    3    3    0    0  0.98978548521E+02  0.62707282562E+03 -0.77231818756E+03  0.99974620006E+03  0.00000000000E+00 0. -1.
        -13    1    3    3    0    0  0.38063697956E+01  0.68893700749E+01  0.63433757640E+00  0.78964710606E+01  0.00000000000E+00 0.  1.
          2    1    6    6  502    0 -0.23148896456E+01 -0.42428568265E+01 -0.25686789882E+02  0.26137553875E+02  0.00000000000E+00 0. -1.
          3    1    5    5  503    0 -0.86579147512E+02 -0.36142094389E+03 -0.77720556733E+03  0.86149262408E+03  0.00000000000E+00 0. -1.
         -4    1    5    5    0  503 -0.15452933879E+03 -0.45419343674E+03 -0.83190564789E+03  0.96033223497E+03  0.00000000000E+00 0.  1.
         -1    1    6    6    0  502  0.14063845763E+03  0.18589504176E+03 -0.31797251309E+03  0.39426217343E+03  0.00000000000E+00 0.  1.
<mgrwt>
<rscale>  0 0.17717183E+04</rscale>
<asrwt>0</asrwt>
<pdfrwt beam="1">  1        1 0.45956317E+00 0.17717183E+04</pdfrwt>
<pdfrwt beam="2">  1       -1 0.40416379E-01 0.17717183E+04</pdfrwt>
<totfact> 0.34640817E+00</totfact>
</mgrwt>
</event>
<event>
12    1  0.1562393E-007  0.2215007E+04  0.7818608E-02  0.8512208E-01
          2   -1    0    0  501    0  0.00000000000E+00  0.00000000000E+00  0.91386706382E+03  0.91386706382E+03  0.00000000000E+00 0.  1.
         -2   -1    0    0    0  501 -0.00000000000E+00 -0.00000000000E+00 -0.13421687639E+04  0.13421687639E+04  0.00000000000E+00 0. -1.
         23    2    1    2    0    0  0.83941217005E+02  0.18824092134E+02 -0.11106462231E+04  0.11177400665E+04  0.91691597823E+02 0.  0.
        254    2    1    2    0    0 -0.83941217005E+02 -0.18824092134E+02  0.68234452296E+03  0.11382957612E+04  0.90704063727E+03 0.  0.
        -24    2    4    4    0    0 -0.47316990560E+03 -0.77983405994E+02  0.49924583455E+03  0.69674004588E+03  0.78924755509E+02 0.  0.
         24    2    4    4    0    0  0.38922868860E+03  0.59159313860E+02  0.18309868841E+03  0.44155571536E+03  0.80296473275E+02 0.  0.
         13    1    3    3    0    0  0.10153382830E+03  0.21297827411E+02 -0.10270857754E+04  0.10323119227E+04  0.00000000000E+00 0. -1.
        -13    1    3    3    0    0 -0.17592611299E+02 -0.24737352764E+01 -0.83560447649E+02  0.85428143781E+02  0.00000000000E+00 0.  1.
          4    1    6    6  502    0  0.15064590958E+03  0.52464982902E+02  0.10261247236E+03  0.18967362491E+03  0.00000000000E+00 0. -1.
          1    1    5    5  503    0 -0.36767566287E+03 -0.52680164216E+02  0.33675883920E+03  0.50136524465E+03  0.00000000000E+00 0. -1.
         -2    1    5    5    0  503 -0.10549424274E+03 -0.25303241778E+02  0.16248699535E+03  0.19537480122E+03  0.00000000000E+00 0.  1.
         -3    1    6    6    0  502  0.23858277902E+03  0.66943309582E+01  0.80486216057E+02  0.25188209045E+03  0.00000000000E+00 0.  1.
<mgrwt>
<rscale>  0 0.22150068E+04</rscale>
<asrwt>0</asrwt>
<pdfrwt beam="1">  1        2 0.14059493E+00 0.22150068E+04</pdfrwt>
<pdfrwt beam="2">  1       -2 0.20648750E+00 0.22150068E+04</pdfrwt>
<totfact> 0.31596299E+00</totfact>
</mgrwt>
</event>
<event>
12    1  0.1562393E-007  0.1465587E+04  0.7818608E-02  0.8907665E-01
          2   -1    0    0  501    0  0.00000000000E+00  0.00000000000E+00  0.17857965643E+04  0.17857965643E+04  0.00000000000E+00 0. -1.
         -2   -1    0    0    0  501 -0.00000000000E+00 -0.00000000000E+00 -0.30069847184E+03  0.30069847184E+03  0.00000000000E+00 0.  1.
         23    2    1    2    0    0  0.37694263231E+02 -0.35414221070E+03  0.68929959694E+02  0.37428466051E+03  0.92196013302E+02 0.  0.
        254    2    1    2    0    0 -0.37694263231E+02  0.35414221070E+03  0.14161681328E+04  0.17122103756E+04  0.89403278872E+03 0.  0.
        -24    2    4    4    0    0 -0.40098089344E+03  0.20650954304E+03  0.36199645079E+03  0.58475294368E+03  0.86386957876E+02 0.  0.
         24    2    4    4    0    0  0.36328663021E+03  0.14763266766E+03  0.10541716820E+04  0.11274574320E+04  0.78164861401E+02 0.  0.
         13    1    3    3    0    0 -0.30175931524E+02 -0.81298878895E+02  0.15330146562E+02  0.88063090717E+02  0.00000000000E+00 0. -1.
        -13    1    3    3    0    0  0.67870194755E+02 -0.27284333180E+03  0.53599813132E+02  0.28622156979E+03  0.00000000000E+00 0.  1.
          2    1    6    6  502    0  0.28816563425E+02 -0.92476001445E+01  0.71862878455E+02  0.77975545756E+02  0.00000000000E+00 0. -1.
          1    1    5    5  503    0 -0.13631403856E+03  0.49990384796E+02  0.16399903777E+03  0.21903479191E+03  0.00000000000E+00 0. -1.
         -2    1    5    5    0  503 -0.26466685488E+03  0.15651915824E+03  0.19799741303E+03  0.36571815177E+03  0.00000000000E+00 0.  1.
         -1    1    6    6    0  502  0.33447006678E+03  0.15688026780E+03  0.98230880352E+03  0.10494818862E+04  0.00000000000E+00 0.  1.
<mgrwt>
<rscale>  0 0.14655870E+04</rscale>
<asrwt>0</asrwt>
<pdfrwt beam="1">  1        2 0.27473793E+00 0.14655870E+04</pdfrwt>
<pdfrwt beam="2">  1       -2 0.46261304E-01 0.14655870E+04</pdfrwt>
<totfact> 0.37707985E+01</totfact>
</mgrwt>
</event>
<event>
12    1  0.1562393E-007  0.1522325E+04  0.7818608E-02  0.8869742E-01
         -2   -1    0    0    0  501 -0.00000000000E+00  0.00000000000E+00  0.27310487178E+03  0.27310487178E+03  0.00000000000E+00 0.  1.
          2   -1    0    0  501    0  0.00000000000E+00 -0.00000000000E+00 -0.21214124720E+04  0.21214124720E+04  0.00000000000E+00 0. -1.
         23    2    1    2    0    0  0.44082819566E+03 -0.15899174898E+03 -0.42480566863E+03  0.63963918621E+03  0.95239477686E+02 0.  0.
        254    2    1    2    0    0 -0.44082819566E+03  0.15899174898E+03 -0.14235019315E+04  0.17548781575E+04  0.91303435001E+03 0.  0.
        -24    2    4    4    0    0 -0.41920780555E+03 -0.23772914677E+03 -0.11904981134E+04  0.12871661952E+04  0.85209884998E+02 0.  0.
         24    2    4    4    0    0 -0.21620390105E+02  0.39672089574E+03 -0.23300381813E+03  0.46771196234E+03  0.81294465171E+02 0.  0.
         13    1    3    3    0    0  0.10621926237E+03 -0.44713426067E+02 -0.16323616733E+03  0.19981958986E+03  0.00000000000E+00 0. -1.
        -13    1    3    3    0    0  0.33460893329E+03 -0.11427832291E+03 -0.26156950130E+03  0.43981959635E+03  0.00000000000E+00 0.  1.
          4    1    6    6  502    0  0.26483837843E+02  0.13544802115E+03 -0.10125704618E+03  0.17117403279E+03  0.00000000000E+00 0. -1.
          1    1    5    5  503    0 -0.22977326501E+03 -0.81638263211E+02 -0.60596396885E+03  0.65318671977E+03  0.00000000000E+00 0. -1.
         -4    1    5    5    0  503 -0.18943454054E+03 -0.15609088356E+03 -0.58453414456E+03  0.63397947541E+03  0.00000000000E+00 0.  1.
         -3    1    6    6    0  502 -0.48104227949E+02  0.26127287459E+03 -0.13174677196E+03  0.29653792955E+03  0.00000000000E+00 0.  1.
<mgrwt>
<rscale>  0 0.15223246E+04</rscale>
<asrwt>0</asrwt>
<pdfrwt beam="1">  1        2 0.32637115E+00 0.15223246E+04</pdfrwt>
<pdfrwt beam="2">  1       -2 0.42016134E-01 0.15223246E+04</pdfrwt>
<totfact> 0.29619365E+01</totfact>
</mgrwt>
</event>
<event>
12    1  0.1562393E-007  0.1924489E+04  0.7818608E-02  0.8642762E-01
          2   -1    0    0  501    0  0.00000000000E+00  0.00000000000E+00  0.97555895895E+03  0.97555895895E+03  0.00000000000E+00 0. -1.
         -2   -1    0    0    0  501 -0.00000000000E+00 -0.00000000000E+00 -0.94911184576E+03  0.94911184576E+03  0.00000000000E+00 0.  1.
         23    2    1    2    0    0  0.48806668520E+02  0.39545836741E+03  0.64407387638E+03  0.76285340353E+03  0.91349580213E+02 0.  0.
        254    2    1    2    0    0 -0.48806668520E+02 -0.39545836741E+03 -0.61762676319E+03  0.11618174012E+04  0.89977077293E+03 0.  0.
        -24    2    4    4    0    0 -0.35489473801E+03 -0.48845367414E+03 -0.22618502020E+03  0.64975770393E+03  0.80549013648E+02 0.  0.
         24    2    4    4    0    0  0.30608806949E+03  0.92995306733E+02 -0.39144174299E+03  0.51205969725E+03  0.81489030144E+02 0.  0.
         13    1    3    3    0    0  0.59291643392E+02  0.30799862862E+03  0.55551381583E+03  0.63794533762E+03  0.00000000000E+00 0. -1.
        -13    1    3    3    0    0 -0.10484974873E+02  0.87459738784E+02  0.88560060540E+02  0.12490806591E+03  0.00000000000E+00 0.  1.
          4    1    6    6  502    0  0.49060913205E+02  0.49021363081E+02 -0.81419210873E+02  0.10695398610E+03  0.00000000000E+00 0. -1.
          3    1    5    5  503    0 -0.19868798627E+03 -0.31418239776E+03 -0.17166701982E+03  0.40945947375E+03  0.00000000000E+00 0. -1.
         -4    1    5    5    0  503 -0.15620675173E+03 -0.17427127638E+03 -0.54518000383E+02  0.24029823017E+03  0.00000000000E+00 0.  1.
         -3    1    6    6    0  502  0.25702715628E+03  0.43973943652E+02 -0.31002253212E+03  0.40510571115E+03  0.00000000000E+00 0.  1.
<mgrwt>
<rscale>  0 0.19244891E+04</rscale>
<asrwt>0</asrwt>
<pdfrwt beam="1">  1        2 0.15008599E+00 0.19244891E+04</pdfrwt>
<pdfrwt beam="2">  1       -2 0.14601721E+00 0.19244891E+04</pdfrwt>
<totfact> 0.78544994E+00</totfact>
</mgrwt>
</event>
<event>
12    1  0.1562393E-007  0.1818900E+04  0.7818608E-02  0.8696313E-01
          2   -1    0    0  501    0  0.00000000000E+00  0.00000000000E+00  0.30508189861E+04  0.30508189861E+04  0.00000000000E+00 0. -1.
         -2   -1    0    0    0  501 -0.00000000000E+00 -0.00000000000E+00 -0.27110734621E+03  0.27110734621E+03  0.00000000000E+00 0.  1.
         23    2    1    2    0    0 -0.98589779669E+02 -0.61234845194E+03  0.54783840699E+03  0.83724562557E+03  0.12713278928E+03 0.  0.
        254    2    1    2    0    0  0.98589779669E+02  0.61234845194E+03  0.22318732329E+04  0.24846807068E+04  0.89871548081E+03 0.  0.
        -24    2    4    4    0    0 -0.17782986352E+03  0.50598755901E+03  0.20647417809E+04  0.21347428358E+04  0.79507754034E+02 0.  0.
         24    2    4    4    0    0  0.27641964319E+03  0.10636089293E+03  0.16713145204E+03  0.34993787098E+03  0.82481104489E+02 0.  0.
         13    1    3    3    0    0 -0.98045449572E+02 -0.45757415226E+03  0.47284543653E+03  0.66525921403E+03  0.00000000000E+00 0. -1.
        -13    1    3    3    0    0 -0.54433009789E+00 -0.15477429968E+03  0.74992970458E+02  0.17198641154E+03  0.00000000000E+00 0.  1.
          4    1    6    6  502    0  0.84489370997E+02  0.15874790474E+02  0.89213775723E+02  0.12389334350E+03  0.00000000000E+00 0. -1.
          3    1    5    5  503    0  0.28395789955E+01  0.69012859529E+02  0.24160952281E+03  0.25128867762E+03  0.00000000000E+00 0. -1.
         -4    1    5    5    0  503 -0.18066944252E+03  0.43697469948E+03  0.18231322581E+04  0.18834541582E+04  0.00000000000E+00 0.  1.
         -3    1    6    6    0  502  0.19193027220E+03  0.90486102455E+02  0.77917676319E+02  0.22604452748E+03  0.00000000000E+00 0.  1.
<mgrwt>
<rscale>  0 0.18189002E+04</rscale>
<asrwt>0</asrwt>
<pdfrwt beam="1">  1        2 0.46935674E+00 0.18189002E+04</pdfrwt>
<pdfrwt beam="2">  1       -2 0.41708825E-01 0.18189002E+04</pdfrwt>
<totfact> 0.83378156E+00</totfact>
</mgrwt>
</event>
<event>
12    1  0.1562393E-007  0.2121398E+04  0.7818608E-02  0.8551876E-01
         -2   -1    0    0    0  501 -0.00000000000E+00  0.00000000000E+00  0.51884856137E+03  0.51884856137E+03  0.00000000000E+00 0. -1.
          2   -1    0    0  501    0  0.00000000000E+00 -0.00000000000E+00 -0.21684205166E+04  0.21684205166E+04  0.00000000000E+00 0.  1.
         23    2    1    2    0    0 -0.11687514290E+03  0.62798666052E+03  0.60722152751E+02  0.64908727534E+03  0.97979928337E+02 0.  0.
        254    2    1    2    0    0  0.11687514290E+03 -0.62798666052E+03 -0.17102941080E+04  0.20381818026E+04  0.90611924158E+03 0.  0.
        -24    2    4    4    0    0  0.32815037838E+03 -0.76153411846E+03 -0.11595975182E+04  0.14279184150E+04  0.81656055172E+02 0.  0.
         24    2    4    4    0    0 -0.21127523548E+03  0.13354745794E+03 -0.55069658975E+03  0.61026338758E+03  0.81746679509E+02 0.  0.
         11    1    3    3    0    0 -0.10036450580E+03  0.40035699830E+03  0.78591478442E+02  0.42016113646E+03  0.00000000000E+00 0.  1.
        -11    1    3    3    0    0 -0.16510637095E+02  0.22762966222E+03 -0.17869325691E+02  0.22892613888E+03  0.00000000000E+00 0. -1.
          2    1    6    6  502    0 -0.34338733226E+02  0.62342060047E+02 -0.12616127922E+03  0.14485285439E+03  0.00000000000E+00 0. -1.
          3    1    5    5  503    0  0.19938671244E+03 -0.43456509298E+03 -0.73404446785E+03  0.87602691848E+03  0.00000000000E+00 0. -1.
         -4    1    5    5    0  503  0.12876366594E+03 -0.32696902548E+03 -0.42555305036E+03  0.55189149655E+03  0.00000000000E+00 0.  1.
         -1    1    6    6    0  502 -0.17693650225E+03  0.71205397893E+02 -0.42453531053E+03  0.46541053319E+03  0.00000000000E+00 0.  1.
<mgrwt>
<rscale>  0 0.21213975E+04</rscale>
<asrwt>0</asrwt>
<pdfrwt beam="1">  1        2 0.33360315E+00 0.21213975E+04</pdfrwt>
<pdfrwt beam="2">  1       -2 0.79822856E-01 0.21213975E+04</pdfrwt>
<totfact> 0.68741829E+00</totfact>
</mgrwt>
</event>
<event>
12    1  0.1562393E-007  0.1968149E+04  0.7818608E-02  0.8621659E-01
          1   -1    0    0  501    0  0.00000000000E+00  0.00000000000E+00  0.15904112095E+04  0.15904112095E+04  0.00000000000E+00 0. -1.
         -1   -1    0    0    0  501 -0.00000000000E+00 -0.00000000000E+00 -0.60890052067E+03  0.60890052067E+03  0.00000000000E+00 0.  1.
         23    2    1    2    0    0 -0.45180232249E+03 -0.60889495097E+03  0.54387237085E+03  0.93763492450E+03  0.92106980929E+02 0.  0.
        254    2    1    2    0    0  0.45180232249E+03  0.60889495097E+03  0.43763831794E+03  0.12616768056E+04  0.90852774564E+03 0.  0.
        -24    2    4    4    0    0  0.46485758231E+03  0.20325292865E+03  0.62394890475E+03  0.80811317594E+03  0.79563462495E+02 0.  0.
         24    2    4    4    0    0 -0.13055259813E+02  0.40564202232E+03 -0.18631058680E+03  0.45356362969E+03  0.79324909955E+02 0.  0.
         11    1    3    3    0    0 -0.32816019992E+02 -0.93002524341E+02  0.82605088427E+02  0.12864665303E+03  0.00000000000E+00 0.  1.
        -11    1    3    3    0    0 -0.41898630250E+03 -0.51589242663E+03  0.46126728242E+03  0.80898827147E+03  0.00000000000E+00 0. -1.
          2    1    6    6  502    0 -0.29682589204E+02  0.33047124668E+03 -0.12292630782E+03  0.35384061120E+03  0.00000000000E+00 0. -1.
          3    1    5    5  503    0  0.35004783192E+03  0.12237595646E+03  0.48538649131E+03  0.61082682104E+03  0.00000000000E+00 0. -1.
         -2    1    5    5    0  503  0.11480975038E+03  0.80876972192E+02  0.13856241344E+03  0.19728635491E+03  0.00000000000E+00 0.  1.
         -1    1    6    6    0  502  0.16627329391E+02  0.75170775643E+02 -0.63384278982E+02  0.99723018484E+02  0.00000000000E+00 0.  1.
<mgrwt>
<rscale>  0 0.19681486E+04</rscale>
<asrwt>0</asrwt>
<pdfrwt beam="1">  1        1 0.24467865E+00 0.19681486E+04</pdfrwt>
<pdfrwt beam="2">  1       -1 0.93677004E-01 0.19681486E+04</pdfrwt>
<totfact> 0.58228628E+00</totfact>
</mgrwt>
</event>
<event>
12    1  0.1562393E-007  0.1761649E+04  0.7818608E-02  0.8726964E-01
          1   -1    0    0  501    0  0.00000000000E+00  0.00000000000E+00  0.19559588600E+04  0.19559588600E+04  0.00000000000E+00 0. -1.
         -1   -1    0    0    0  501 -0.00000000000E+00 -0.00000000000E+00 -0.39666077887E+03  0.39666077887E+03  0.00000000000E+00 0.  1.
         23    2    1    2    0    0 -0.33088579759E+02  0.29034516302E+03 -0.19556765529E+03  0.36288471235E+03  0.89685220975E+02 0.  0.
        254    2    1    2    0    0  0.33088579759E+02 -0.29034516302E+03  0.17548657365E+04  0.19897349266E+04  0.89112073097E+03 0.  0.
        -24    2    4    4    0    0 -0.34513792857E+03 -0.39911080050E+03  0.92667663894E+03  0.10693649931E+04  0.80014214435E+02 0.  0.
         24    2    4    4    0    0  0.37822650833E+03  0.10876563748E+03  0.82818909752E+03  0.92036993345E+03  0.79362318811E+02 0.  0.
         11    1    3    3    0    0  0.31061906655E+02  0.10789710584E+03 -0.72178586499E+02  0.13347799759E+03  0.00000000000E+00 0. -1.
        -11    1    3    3    0    0 -0.64150486414E+02  0.18244805718E+03 -0.12338906879E+03  0.22940671475E+03  0.00000000000E+00 0.  1.
          2    1    6    6  502    0  0.14465217006E+03  0.81669851117E+02  0.35797978918E+03  0.39464381960E+03  0.00000000000E+00 0. -1.
          1    1    5    5  503    0 -0.10819948789E+03 -0.17556446317E+03  0.40146133912E+03  0.45133271177E+03  0.00000000000E+00 0. -1.
         -2    1    5    5    0  503 -0.23693844069E+03 -0.22354633733E+03  0.52521529982E+03  0.61803228134E+03  0.00000000000E+00 0.  1.
         -1    1    6    6    0  502  0.23357433827E+03  0.27095786364E+02  0.47020930833E+03  0.52572611385E+03  0.00000000000E+00 0.  1.
<mgrwt>
<rscale>  0 0.17616494E+04</rscale>
<asrwt>0</asrwt>
<pdfrwt beam="1">  1        1 0.30091674E+00 0.17616494E+04</pdfrwt>
<pdfrwt beam="2">  1       -1 0.61024736E-01 0.17616494E+04</pdfrwt>
<totfact> 0.82313682E+00</totfact>
</mgrwt>
</event>
<event>
12    1  0.1562393E-007  0.1445280E+04  0.7818608E-02  0.8921679E-01
         -1   -1    0    0    0  501 -0.00000000000E+00  0.00000000000E+00  0.32273710286E+03  0.32273710286E+03  0.00000000000E+00 0.  1.
          1   -1    0    0  501    0  0.00000000000E+00 -0.00000000000E+00 -0.16180622814E+04  0.16180622814E+04  0.00000000000E+00 0. -1.
         23    2    1    2    0    0 -0.27651480258E+03  0.21702694605E+03 -0.64354565733E+02  0.37064632181E+03  0.98366937455E+02 0.  0.
        254    2    1    2    0    0  0.27651480258E+03 -0.21702694605E+03 -0.12309706128E+04  0.15701530624E+04  0.90913742556E+03 0.  0.
        -24    2    4    4    0    0 -0.10741113439E+03  0.28648786678E+03 -0.26646239650E+03  0.41357968635E+03  0.80209093101E+02 0.  0.
         24    2    4    4    0    0  0.38392593697E+03 -0.50351481283E+03 -0.96450821629E+03  0.11565733761E+04  0.80371531862E+02 0.  0.
         13    1    3    3    0    0 -0.16308052717E+02  0.43082860274E+02  0.13715413812E+02  0.48064519230E+02  0.00000000000E+00 0. -1.
        -13    1    3    3    0    0 -0.26020674986E+03  0.17394408578E+03 -0.78069979545E+02  0.32258180258E+03  0.00000000000E+00 0.  1.
          2    1    6    6  502    0  0.37913912676E+03 -0.47837238284E+03 -0.90299395490E+03  0.10899471073E+04  0.00000000000E+00 0. -1.
          1    1    5    5  503    0 -0.84441071335E+02  0.15006787877E+03 -0.10815057398E+03  0.20334013234E+03  0.00000000000E+00 0. -1.
         -2    1    5    5    0  503 -0.22970063056E+02  0.13641998801E+03 -0.15831182251E+03  0.21023955401E+03  0.00000000000E+00 0.  1.
         -1    1    6    6    0  502  0.47868102153E+01 -0.25142429992E+02 -0.61514261394E+02  0.66626268789E+02  0.00000000000E+00 0.  1.
<mgrwt>
<rscale>  0 0.14452802E+04</rscale>
<asrwt>0</asrwt>
<pdfrwt beam="1">  1        1 0.24893266E+00 0.14452802E+04</pdfrwt>
<pdfrwt beam="2">  1       -1 0.49651861E-01 0.14452802E+04</pdfrwt>
<totfact> 0.21432594E+01</totfact>
</mgrwt>
</event>
<event>
12    1  0.1562393E-007  0.2105922E+04  0.7818608E-02  0.8558639E-01
         -1   -1    0    0    0  501 -0.00000000000E+00  0.00000000000E+00  0.59683980371E+03  0.59683980371E+03  0.00000000000E+00 0.  1.
          1   -1    0    0  501    0  0.00000000000E+00 -0.00000000000E+00 -0.18576619328E+04  0.18576619328E+04  0.00000000000E+00 0. -1.
         23    2    1    2    0    0  0.52976053640E+03  0.50273160318E+03 -0.10483463441E+04  0.12808980497E+04  0.91019041162E+02 0.  0.
        254    2    1    2    0    0 -0.52976053640E+03 -0.50273160318E+03 -0.21247578496E+03  0.11736036867E+04  0.89376415434E+03 0.  0.
        -24    2    4    4    0    0  0.20535914827E+03 -0.10805761996E+02 -0.18035722889E+03  0.28499886587E+03  0.80040485172E+02 0.  0.
         24    2    4    4    0    0 -0.73511968466E+03 -0.49192584119E+03 -0.32118556069E+02  0.88860482087E+03  0.78707954052E+02 0.  0.
         13    1    3    3    0    0  0.18671919233E+02  0.47376671930E+01 -0.12203894674E+02  0.22803971222E+02  0.00000000000E+00 0.  1.
        -13    1    3    3    0    0  0.51108861716E+03  0.49799393599E+03 -0.10361424494E+04  0.12580940785E+04  0.00000000000E+00 0. -1.
          4    1    6    6  502    0 -0.18443317272E+03 -0.99491798939E+02  0.19291350594E+02  0.21044326899E+03  0.00000000000E+00 0. -1.
          3    1    5    5  503    0  0.60931019183E+02  0.15945916334E+01 -0.10552579595E+03  0.12186396281E+03  0.00000000000E+00 0. -1.
         -4    1    5    5    0  503  0.14442812908E+03 -0.12400353629E+02 -0.74831432939E+02  0.16313490306E+03  0.00000000000E+00 0.  1.
         -3    1    6    6    0  502 -0.55068651195E+03 -0.39243404225E+03 -0.51409906663E+02  0.67816155189E+03  0.00000000000E+00 0.  1.
<mgrwt>
<rscale>  0 0.21059217E+04</rscale>
<asrwt>0</asrwt>
<pdfrwt beam="1">  1        1 0.28579414E+00 0.21059217E+04</pdfrwt>
<pdfrwt beam="2">  1       -1 0.91821510E-01 0.21059217E+04</pdfrwt>
<totfact> 0.39531446E+00</totfact>
</mgrwt>
</event>
<event>
12    1  0.1562393E-007  0.1760295E+04  0.7818608E-02  0.8727704E-01
         -2   -1    0    0    0  501 -0.00000000000E+00  0.00000000000E+00  0.36444558570E+03  0.36444558570E+03  0.00000000000E+00 0.  1.
          2   -1    0    0  501    0  0.00000000000E+00 -0.00000000000E+00 -0.21255848961E+04  0.21255848961E+04  0.00000000000E+00 0. -1.
         23    2    1    2    0    0  0.26999776778E+03 -0.40928341557E+03 -0.55739606045E+02  0.50207143793E+03  0.92504682238E+02 0.  0.
        254    2    1    2    0    0 -0.26999776778E+03  0.40928341557E+03 -0.17053997044E+04  0.19879590439E+04  0.89620382706E+03 0.  0.
        -24    2    4    4    0    0 -0.15711747894E+03 -0.38499561329E+02  0.36594749518E+02  0.18401507688E+03  0.79713577366E+02 0.  0.
         24    2    4    4    0    0 -0.11288028884E+03  0.44778297690E+03 -0.17419944539E+04  0.18039439670E+04  0.80109953795E+02 0.  0.
         11    1    3    3    0    0  0.38756162518E+01 -0.15748091538E+02  0.14601510845E+02  0.21822623751E+02  0.00000000000E+00 0. -1.
        -11    1    3    3    0    0  0.26612215152E+03 -0.39353532403E+03 -0.70341116890E+02  0.48024881417E+03  0.00000000000E+00 0.  1.
          4    1    6    6  502    0  0.10060107521E+02  0.30883085476E+02 -0.88353393152E+02  0.94134440102E+02  0.00000000000E+00 0. -1.
          1    1    5    5  503    0 -0.86287955430E+02 -0.18451543817E+02 -0.20817817733E+02  0.90661194878E+02  0.00000000000E+00 0. -1.
         -2    1    5    5    0  503 -0.70829523508E+02 -0.20048017511E+02  0.57412567251E+02  0.93353882002E+02  0.00000000000E+00 0.  1.
         -3    1    6    6    0  502 -0.12294039636E+03  0.41689989142E+03 -0.16536410608E+04  0.17098095269E+04  0.00000000000E+00 0.  1.
<mgrwt>
<rscale>  0 0.17602955E+04</rscale>
<asrwt>0</asrwt>
<pdfrwt beam="1">  1        2 0.32701306E+00 0.17602955E+04</pdfrwt>
<pdfrwt beam="2">  1       -2 0.56068552E-01 0.17602955E+04</pdfrwt>
<totfact> 0.16084667E+01</totfact>
</mgrwt>
</event>
<event>
12    1  0.1562393E-007  0.1322080E+04  0.7818608E-02  0.9012237E-01
          1   -1    0    0  501    0  0.00000000000E+00  0.00000000000E+00  0.36663875603E+03  0.36663875603E+03  0.00000000000E+00 0. -1.
         -1   -1    0    0    0  501 -0.00000000000E+00 -0.00000000000E+00 -0.11918370885E+04  0.11918370885E+04  0.00000000000E+00 0.  1.
         23    2    1    2    0    0  0.28068794638E+03  0.14140819531E+03 -0.48118144316E+02  0.33078144209E+03  0.91208583326E+02 0.  0.
        254    2    1    2    0    0 -0.28068794638E+03 -0.14140819531E+03 -0.77708018813E+03  0.12276944024E+04  0.89699382719E+03 0.  0.
        -24    2    4    4    0    0 -0.59844976239E+03 -0.10907727171E+03 -0.57634151472E+03  0.84183324945E+03  0.80459362323E+02 0.  0.
         24    2    4    4    0    0  0.31776181601E+03 -0.32330923605E+02 -0.20073867341E+03  0.38586115297E+03  0.81086090282E+02 0.  0.
         13    1    3    3    0    0  0.13516794189E+03  0.11485895038E+03 -0.44225299679E+02  0.18280817304E+03  0.00000000000E+00 0.  1.
        -13    1    3    3    0    0  0.14552000449E+03  0.26549244926E+02 -0.38928446374E+01  0.14797326905E+03  0.00000000000E+00 0. -1.
          4    1    6    6  502    0  0.14364543635E+03  0.25429347251E+02 -0.95749970827E+02  0.17449561599E+03  0.00000000000E+00 0. -1.
          1    1    5    5  503    0 -0.34335260454E+03 -0.87377054059E+02 -0.37706107470E+03  0.51739812009E+03  0.00000000000E+00 0. -1.
         -2    1    5    5    0  503 -0.25509715784E+03 -0.21700217646E+02 -0.19928044003E+03  0.32443512936E+03  0.00000000000E+00 0.  1.
         -3    1    6    6    0  502  0.17411637966E+03 -0.57760270856E+02 -0.10498870258E+03  0.21136553698E+03  0.00000000000E+00 0.  1.
<mgrwt>
<rscale>  0 0.13220797E+04</rscale>
<asrwt>0</asrwt>
<pdfrwt beam="1">  1        1 0.56405963E-01 0.13220797E+04</pdfrwt>
<pdfrwt beam="2">  1       -1 0.18335955E+00 0.13220797E+04</pdfrwt>
<totfact> 0.13007974E+01</totfact>
</mgrwt>
</event>
<event>
12    1  0.1562393E-007  0.1574302E+04  0.7818608E-02  0.8836493E-01
          2   -1    0    0  501    0  0.00000000000E+00  0.00000000000E+00  0.20965382583E+04  0.20965382583E+04  0.00000000000E+00 0. -1.
         -2   -1    0    0    0  501 -0.00000000000E+00 -0.00000000000E+00 -0.29553787060E+03  0.29553787060E+03  0.00000000000E+00 0.  1.
         23    2    1    2    0    0 -0.49426288858E+02 -0.26886240736E+03  0.12834023269E+04  0.13153617049E+04  0.91241054265E+02 0.  0.
        254    2    1    2    0    0  0.49426288858E+02  0.26886240736E+03  0.51759806082E+03  0.10767144240E+04  0.90370141427E+03 0.  0.
        -24    2    4    4    0    0 -0.33097115991E+03  0.12985823930E+03  0.55178310133E+03  0.66121755769E+03  0.79617816328E+02 0.  0.
         24    2    4    4    0    0  0.38039744877E+03  0.13900416807E+03 -0.34185040506E+02  0.41549686631E+03  0.86282391874E+02 0.  0.
         11    1    3    3    0    0 -0.43866792865E+02 -0.26829845350E+03  0.12805457853E+04  0.13090858887E+04  0.00000000000E+00 0. -1.
        -11    1    3    3    0    0 -0.55594959930E+01 -0.56395386850E+00  0.28565415732E+01  0.62758162355E+01  0.00000000000E+00 0.  1.
          2    1    6    6  502    0  0.12913520037E+03  0.64431649957E+02  0.25850950971E+02  0.14661380957E+03  0.00000000000E+00 0. -1.
          3    1    5    5  503    0 -0.12424963026E+03  0.53379845630E+02  0.14312050853E+03  0.19690317037E+03  0.00000000000E+00 0. -1.
         -4    1    5    5    0  503 -0.20672152965E+03  0.76478393667E+02  0.40866259280E+03  0.46431438732E+03  0.00000000000E+00 0.  1.
         -1    1    6    6    0  502  0.25126224840E+03  0.74572518110E+02 -0.60035991477E+02  0.26888305674E+03  0.00000000000E+00 0.  1.
<mgrwt>
<rscale>  0 0.15743017E+04</rscale>
<asrwt>0</asrwt>
<pdfrwt beam="1">  1        2 0.32254434E+00 0.15743017E+04</pdfrwt>
<pdfrwt beam="2">  1       -2 0.45467366E-01 0.15743017E+04</pdfrwt>
<totfact> 0.26026027E+01</totfact>
</mgrwt>
</event>
<event>
12    1  0.1562393E-007  0.1649671E+04  0.7818608E-02  0.8790601E-01
         -2   -1    0    0    0  501 -0.00000000000E+00  0.00000000000E+00  0.20699760549E+03  0.20699760549E+03  0.00000000000E+00 0.  1.
          2   -1    0    0  501    0  0.00000000000E+00 -0.00000000000E+00 -0.32867689864E+04  0.32867689864E+04  0.00000000000E+00 0. -1.
         23    2    1    2    0    0 -0.19364518348E+03  0.40906842400E+03 -0.30544705786E+03  0.55341025585E+03  0.90164147728E+02 0.  0.
        254    2    1    2    0    0  0.19364518348E+03 -0.40906842400E+03 -0.27743243231E+04  0.29403563361E+04  0.86254536158E+03 0.  0.
        -24    2    4    4    0    0  0.46020958268E+03 -0.13181215888E+03 -0.87166689776E+03  0.99760802981E+03  0.79065133127E+02 0.  0.
         24    2    4    4    0    0 -0.26656439920E+03 -0.27725626511E+03 -0.19026574253E+04  0.19427483063E+04  0.78981566513E+02 0.  0.
         11    1    3    3    0    0 -0.10577190744E+02  0.22193029070E+02  0.44641699410E+01  0.24986722806E+02  0.00000000000E+00 0. -1.
        -11    1    3    3    0    0 -0.18306799273E+03  0.38687539493E+03 -0.30991122780E+03  0.52842353305E+03  0.00000000000E+00 0.  1.
          2    1    6    6  502    0 -0.25069081992E+03 -0.24336578104E+03 -0.15947388589E+04  0.16325638788E+04  0.00000000000E+00 0. -1.
          1    1    5    5  503    0  0.15070362510E+03 -0.58261047352E+02 -0.36769600875E+03  0.40162953963E+03  0.00000000000E+00 0. -1.
         -2    1    5    5    0  503  0.30950595758E+03 -0.73551111532E+02 -0.50397088902E+03  0.59597849018E+03  0.00000000000E+00 0.  1.
         -1    1    6    6    0  502 -0.15873579283E+02 -0.33890484069E+02 -0.30791856648E+03  0.31018442742E+03  0.00000000000E+00 0.  1.
<mgrwt>
<rscale>  0 0.16496706E+04</rscale>
<asrwt>0</asrwt>
<pdfrwt beam="1">  1        2 0.50565674E+00 0.16496706E+04</pdfrwt>
<pdfrwt beam="2">  1       -2 0.31845787E-01 0.16496706E+04</pdfrwt>
<totfact> 0.10037306E+01</totfact>
</mgrwt>
</event>
<event>
12    1  0.1562393E-007  0.1759008E+04  0.7818608E-02  0.8728408E-01
          1   -1    0    0  501    0  0.00000000000E+00  0.00000000000E+00  0.50821295570E+03  0.50821295570E+03  0.00000000000E+00 0. -1.
         -1   -1    0    0    0  501 -0.00000000000E+00 -0.00000000000E+00 -0.15220530255E+04  0.15220530255E+04  0.00000000000E+00 0.  1.
         23    2    1    2    0    0 -0.49625476527E+03  0.64057115530E+02 -0.83767274709E+03  0.97987178053E+03  0.89894209775E+02 0.  0.
        254    2    1    2    0    0  0.49625476527E+03 -0.64057115530E+02 -0.17616732268E+03  0.10503942006E+04  0.90659855782E+03 0.  0.
        -24    2    4    4    0    0 -0.21248183350E+03 -0.13338177918E+03 -0.20342838648E+03  0.33328981689E+03  0.82217790206E+02 0.  0.
         24    2    4    4    0    0  0.70873659878E+03  0.69324663655E+02  0.27261063803E+02  0.71710438375E+03  0.79887772247E+02 0.  0.
         11    1    3    3    0    0 -0.11994423808E+02  0.16101637140E+01 -0.23738175595E+01  0.12332633112E+02  0.00000000000E+00 0. -1.
        -11    1    3    3    0    0 -0.48426034147E+03  0.62446951816E+02 -0.83529892953E+03  0.96753914742E+03  0.00000000000E+00 0.  1.
          4    1    6    6  502    0  0.32824935505E+03  0.27800550045E+02 -0.27007947547E+02  0.33052978520E+03  0.00000000000E+00 0. -1.
          3    1    5    5  503    0 -0.12751123204E+03 -0.53800083429E+02 -0.66450411113E+02  0.15352270324E+03  0.00000000000E+00 0. -1.
         -4    1    5    5    0  503 -0.84970601463E+02 -0.79581695755E+02 -0.13697797537E+03  0.17976711365E+03  0.00000000000E+00 0.  1.
         -3    1    6    6    0  502  0.38048724372E+03  0.41524113609E+02  0.54269011350E+02  0.38657459855E+03  0.00000000000E+00 0.  1.
<mgrwt>
<rscale>  0 0.17590078E+04</rscale>
<asrwt>0</asrwt>
<pdfrwt beam="1">  1        1 0.78186610E-01 0.17590078E+04</pdfrwt>
<pdfrwt beam="2">  1       -1 0.23416200E+00 0.17590078E+04</pdfrwt>
<totfact> 0.36347088E+00</totfact>
</mgrwt>
</event>
<event>
12    1  0.1562393E-007  0.1453760E+04  0.7818608E-02  0.8915798E-01
          1   -1    0    0  501    0  0.00000000000E+00  0.00000000000E+00  0.90496603745E+03  0.90496603745E+03  0.00000000000E+00 0.  1.
         -1   -1    0    0    0  501 -0.00000000000E+00 -0.00000000000E+00 -0.58383915417E+03  0.58383915417E+03  0.00000000000E+00 0. -1.
         23    2    1    2    0    0  0.21566704053E+03  0.10969447705E+03  0.47073246880E+03  0.53794649553E+03  0.96188482700E+02 0.  0.
        254    2    1    2    0    0 -0.21566704053E+03 -0.10969447705E+03 -0.14960558552E+03  0.95085869609E+03  0.90730660642E+03 0.  0.
        -24    2    4    4    0    0 -0.22715526003E+03  0.19882910330E+03  0.27743488140E+03  0.41758084656E+03  0.79190438282E+02 0.  0.
         24    2    4    4    0    0  0.11488219503E+02 -0.30852358035E+03 -0.42704046693E+03  0.53327784953E+03  0.81871396634E+02 0.  0.
         13    1    3    3    0    0  0.67342025762E+02  0.70499334082E+02  0.11645560321E+03  0.15187828041E+03  0.00000000000E+00 0. -1.
        -13    1    3    3    0    0  0.14832501477E+03  0.39195142970E+02  0.35427686558E+03  0.38606821512E+03  0.00000000000E+00 0.  1.
          2    1    6    6  502    0  0.76946372363E+00 -0.30816697291E+03 -0.41755576210E+03  0.51896077860E+03  0.00000000000E+00 0. -1.
          3    1    5    5  503    0 -0.21033324629E+03  0.20442017163E+03  0.26887189359E+03  0.39789417717E+03  0.00000000000E+00 0. -1.
         -4    1    5    5    0  503 -0.16822013745E+02 -0.55910683261E+01  0.85629878123E+01  0.19686669392E+02  0.00000000000E+00 0.  1.
         -1    1    6    6    0  502  0.10718755779E+02 -0.35660744562E+00 -0.94847048260E+01  0.14317070928E+02  0.00000000000E+00 0.  1.
<mgrwt>
<rscale>  0 0.14537601E+04</rscale>
<asrwt>0</asrwt>
<pdfrwt beam="1">  1        1 0.13922554E+00 0.14537601E+04</pdfrwt>
<pdfrwt beam="2">  1       -1 0.89821408E-01 0.14537601E+04</pdfrwt>
<totfact> 0.21242430E+01</totfact>
</mgrwt>
</event>
<event>
12    1  0.1562393E-007  0.2120939E+04  0.7818608E-02  0.8552075E-01
         -2   -1    0    0    0  501 -0.00000000000E+00  0.00000000000E+00  0.30946817852E+03  0.30946817852E+03  0.00000000000E+00 0.  1.
          2   -1    0    0  501    0  0.00000000000E+00 -0.00000000000E+00 -0.36339627985E+04  0.36339627985E+04  0.00000000000E+00 0. -1.
         23    2    1    2    0    0  0.53905764326E+03  0.64985155457E+03 -0.97556480372E+03  0.12938021062E+04  0.96472888134E+02 0.  0.
        254    2    1    2    0    0 -0.53905764326E+03 -0.64985155457E+03 -0.23489298163E+04  0.26496288708E+04  0.88891601704E+03 0.  0.
        -24    2    4    4    0    0 -0.73788472490E+02 -0.51177666973E+03 -0.19416962392E+04  0.20109586003E+04  0.80063154551E+02 0.  0.
         24    2    4    4    0    0 -0.46526917077E+03 -0.13807488484E+03 -0.40723357712E+03  0.63867027045E+03  0.80749321557E+02 0.  0.
         11    1    3    3    0    0  0.33905045339E+03  0.44743305651E+03 -0.70429028368E+03  0.90065329273E+03  0.00000000000E+00 0. -1.
        -11    1    3    3    0    0  0.20000718987E+03  0.20241849806E+03 -0.27127452003E+03  0.39314881352E+03  0.00000000000E+00 0.  1.
          2    1    6    6  502    0 -0.14696512290E+03 -0.11806349714E+02 -0.96053540955E+02  0.17596709912E+03  0.00000000000E+00 0. -1.
          1    1    5    5  503    0 -0.15620251519E+02 -0.15940730899E+03 -0.46976620691E+03  0.49632143976E+03  0.00000000000E+00 0. -1.
         -2    1    5    5    0  503 -0.58168220971E+02 -0.35236936075E+03 -0.14719300323E+04  0.15146371606E+04  0.00000000000E+00 0.  1.
         -1    1    6    6    0  502 -0.31830404787E+03 -0.12626853512E+03 -0.31118003616E+03  0.46270317133E+03  0.00000000000E+00 0.  1.
<mgrwt>
<rscale>  0 0.21209393E+04</rscale>
<asrwt>0</asrwt>
<pdfrwt beam="1">  1        2 0.55907119E+00 0.21209393E+04</pdfrwt>
<pdfrwt beam="2">  1       -2 0.47610490E-01 0.21209393E+04</pdfrwt>
<totfact> 0.25226506E+00</totfact>
</mgrwt>
</event>
<event>
12    1  0.1562393E-007  0.1998944E+04  0.7818608E-02  0.8607114E-01
         -1   -1    0    0    0  501 -0.00000000000E+00  0.00000000000E+00  0.37230034468E+03  0.37230034468E+03  0.00000000000E+00 0.  1.
          1   -1    0    0  501    0  0.00000000000E+00 -0.00000000000E+00 -0.26831686374E+04  0.26831686374E+04  0.00000000000E+00 0. -1.
         23    2    1    2    0    0  0.31678237605E+03  0.71866712720E+03 -0.76010541938E+03  0.10968030785E+04  0.91559985943E+02 0.  0.
        254    2    1    2    0    0 -0.31678237605E+03 -0.71866712720E+03 -0.15507628734E+04  0.19586659036E+04  0.90259244340E+03 0.  0.
        -24    2    4    4    0    0 -0.55625113154E+03 -0.61962521447E+03 -0.78738801329E+03  0.11487223084E+04  0.78945110936E+02 0.  0.
         24    2    4    4    0    0  0.23946875550E+03 -0.99041912735E+02 -0.76337486009E+03  0.80994359520E+03  0.78184813438E+02 0.  0.
         11    1    3    3    0    0  0.17732757237E+02  0.89233045982E+01 -0.26905290663E+02  0.33436068995E+02  0.00000000000E+00 0. -1.
        -11    1    3    3    0    0  0.29904961881E+03  0.70974382261E+03 -0.73320012872E+03  0.10633670095E+04  0.00000000000E+00 0.  1.
          2    1    6    6  502    0  0.70242570336E+02 -0.28553155676E+02 -0.12922107436E+03  0.14982452218E+03  0.00000000000E+00 0. -1.
          1    1    5    5  503    0 -0.11965491523E+03 -0.10480652783E+03 -0.11783615616E+03  0.19795723456E+03  0.00000000000E+00 0. -1.
         -2    1    5    5    0  503 -0.43659621632E+03 -0.51481868664E+03 -0.66955185713E+03  0.95076507382E+03  0.00000000000E+00 0.  1.
         -1    1    6    6    0  502  0.16922618516E+03 -0.70488757059E+02 -0.63415378573E+03  0.66011907303E+03  0.00000000000E+00 0.  1.
<mgrwt>
<rscale>  0 0.19989443E+04</rscale>
<asrwt>0</asrwt>
<pdfrwt beam="1">  1        1 0.41279518E+00 0.19989443E+04</pdfrwt>
<pdfrwt beam="2">  1       -1 0.57276975E-01 0.19989443E+04</pdfrwt>
<totfact> 0.28908664E+00</totfact>
</mgrwt>
</event>
<event>
12    1  0.1562393E-007  0.1212383E+04  0.7818608E-02  0.9102086E-01
         -1   -1    0    0    0  501 -0.00000000000E+00  0.00000000000E+00  0.20889090567E+03  0.20889090567E+03  0.00000000000E+00 0.  1.
          1   -1    0    0  501    0  0.00000000000E+00 -0.00000000000E+00 -0.17591393579E+04  0.17591393579E+04  0.00000000000E+00 0. -1.
         23    2    1    2    0    0  0.17721099309E+03 -0.12188397519E+03 -0.61568346600E+03  0.65639763008E+03  0.74379291430E+02 0.  0.
        254    2    1    2    0    0 -0.17721099309E+03  0.12188397519E+03 -0.93456498626E+03  0.13116326335E+04  0.89482345313E+03 0.  0.
        -24    2    4    4    0    0  0.24475015486E+03 -0.20723013198E+03 -0.16098190092E+03  0.36760728354E+03  0.79830924967E+02 0.  0.
         24    2    4    4    0    0 -0.42196114795E+03  0.32911410717E+03 -0.77358308534E+03  0.94402534997E+03  0.79910985169E+02 0.  0.
         13    1    3    3    0    0  0.11228064538E+03 -0.83366395914E+02 -0.28837108377E+03  0.32049146830E+03  0.00000000000E+00 0. -1.
        -13    1    3    3    0    0  0.64930347705E+02 -0.38517579277E+02 -0.32731238223E+03  0.33590616178E+03  0.00000000000E+00 0.  1.
          2    1    6    6  502    0 -0.33771564021E+03  0.22210957219E+03 -0.55775877603E+03  0.68882462785E+03  0.00000000000E+00 0. -1.
          1    1    5    5  503    0  0.14517483000E+03 -0.80308696170E+02 -0.10733456650E+03  0.19760042285E+03  0.00000000000E+00 0. -1.
         -2    1    5    5    0  503  0.99575324864E+02 -0.12692143581E+03 -0.53647334417E+02  0.17000686068E+03  0.00000000000E+00 0.  1.
         -1    1    6    6    0  502 -0.84245507741E+02  0.10700453498E+03 -0.21582430931E+03  0.25520072212E+03  0.00000000000E+00 0.  1.
<mgrwt>
<rscale>  0 0.12123831E+04</rscale>
<asrwt>0</asrwt>
<pdfrwt beam="1">  1        1 0.27063683E+00 0.12123831E+04</pdfrwt>
<pdfrwt beam="2">  1       -1 0.32137062E-01 0.12123831E+04</pdfrwt>
<totfact> 0.38831508E+01</totfact>
</mgrwt>
</event>
<event>
12    1  0.1562393E-007  0.2104583E+04  0.7818608E-02  0.8559227E-01
         -1   -1    0    0    0  501 -0.00000000000E+00  0.00000000000E+00  0.23813977443E+03  0.23813977443E+03  0.00000000000E+00 0.  1.
          1   -1    0    0  501    0  0.00000000000E+00 -0.00000000000E+00 -0.46498627365E+04  0.46498627365E+04  0.00000000000E+00 0. -1.
         23    2    1    2    0    0  0.77092932832E+02  0.50052947857E+03 -0.34167435195E+04  0.34552593052E+04  0.90595301562E+02 0.  0.
        254    2    1    2    0    0 -0.77092932832E+02 -0.50052947857E+03 -0.99497944253E+03  0.14327432057E+04  0.89793982164E+03 0.  0.
        -24    2    4    4    0    0 -0.41032850341E+03 -0.35477515415E+03 -0.89059237008E+03  0.10458882130E+04  0.80576012655E+02 0.  0.
         24    2    4    4    0    0  0.33323557058E+03 -0.14575432442E+03 -0.10438707245E+03  0.38685499269E+03  0.80435414414E+02 0.  0.
         13    1    3    3    0    0  0.57075438177E+02  0.26935911958E+03 -0.15652500049E+04  0.15892827057E+04  0.00000000000E+00 0.  1.
        -13    1    3    3    0    0  0.20017494654E+02  0.23117035898E+03 -0.18514935146E+04  0.18659765994E+04  0.00000000000E+00 0. -1.
          2    1    6    6  502    0  0.91752456739E+02 -0.52542364950E+02 -0.67374647748E+02  0.12537366785E+03  0.00000000000E+00 0. -1.
          1    1    5    5  503    0 -0.17880816715E+01 -0.36705918332E+01  0.99566788872E+00  0.42025986026E+01  0.00000000000E+00 0. -1.
         -2    1    5    5    0  503 -0.40854042174E+03 -0.35110456232E+03 -0.89158803796E+03  0.10416856144E+04  0.00000000000E+00 0.  1.
         -1    1    6    6    0  502  0.24148311384E+03 -0.93211959465E+02 -0.37012424705E+02  0.26148132484E+03  0.00000000000E+00 0.  1.
<mgrwt>
<rscale>  0 0.21045829E+04</rscale>
<asrwt>0</asrwt>
<pdfrwt beam="1">  1        1 0.71536351E+00 0.21045829E+04</pdfrwt>
<pdfrwt beam="2">  1       -1 0.36636888E-01 0.21045829E+04</pdfrwt>
<totfact> 0.14889662E-01</totfact>
</mgrwt>
</event>
<event>
12    1  0.1562393E-007  0.1578804E+04  0.7818608E-02  0.8833676E-01
         -1   -1    0    0    0  501 -0.00000000000E+00  0.00000000000E+00  0.35124260720E+03  0.35124260720E+03  0.00000000000E+00 0.  1.
          1   -1    0    0  501    0  0.00000000000E+00 -0.00000000000E+00 -0.17741464634E+04  0.17741464634E+04  0.00000000000E+00 0. -1.
         23    2    1    2    0    0  0.19001896488E+03 -0.22923625668E+03 -0.10730465578E+04  0.11175500247E+04  0.93982306854E+02 0.  0.
        254    2    1    2    0    0 -0.19001896488E+03  0.22923625668E+03 -0.34985729834E+03  0.10078390459E+04  0.89704121690E+03 0.  0.
        -24    2    4    4    0    0  0.35014993131E+03  0.10752458848E+03 -0.68229490375E+02  0.38098632618E+03  0.79553792213E+02 0.  0.
         24    2    4    4    0    0 -0.54016889619E+03  0.12171166820E+03 -0.28162780797E+03  0.62685271970E+03  0.83868607873E+02 0.  0.
         11    1    3    3    0    0  0.82576418381E+02 -0.33995125160E+02 -0.31854861520E+03  0.33082888879E+03  0.00000000000E+00 0.  1.
        -11    1    3    3    0    0  0.10744254650E+03 -0.19524113152E+03 -0.75449794264E+03  0.78672113591E+03  0.00000000000E+00 0. -1.
          2    1    6    6  502    0 -0.51645105129E+03  0.13352454056E+03 -0.26577291096E+03  0.59597460643E+03  0.00000000000E+00 0. -1.
          1    1    5    5  503    0  0.30990702175E+03  0.12055113303E+03 -0.60659955817E+02  0.33801563284E+03  0.00000000000E+00 0. -1.
         -2    1    5    5    0  503  0.40242909568E+02 -0.13026544549E+02 -0.75695345583E+01  0.42970693348E+02  0.00000000000E+00 0.  1.
         -1    1    6    6    0  502 -0.23717844909E+02 -0.11812872356E+02 -0.15854897007E+02  0.30878113277E+02  0.00000000000E+00 0.  1.
<mgrwt>
<rscale>  0 0.15788044E+04</rscale>
<asrwt>0</asrwt>
<pdfrwt beam="1">  1        1 0.27294561E+00 0.15788044E+04</pdfrwt>
<pdfrwt beam="2">  1       -1 0.54037324E-01 0.15788044E+04</pdfrwt>
<totfact> 0.14100418E+01</totfact>
</mgrwt>
</event>
<event>
12    1  0.1562393E-007  0.1882253E+04  0.7818608E-02  0.8663741E-01
          2   -1    0    0  501    0  0.00000000000E+00  0.00000000000E+00  0.28509722847E+04  0.28509722847E+04  0.00000000000E+00 0. -1.
         -2   -1    0    0    0  501 -0.00000000000E+00 -0.00000000000E+00 -0.31067264061E+03  0.31067264061E+03  0.00000000000E+00 0.  1.
         23    2    1    2    0    0  0.47414059927E+03  0.30727366983E+03  0.17478847236E+04  0.18392425840E+04  0.92118728117E+02 0.  0.
        254    2    1    2    0    0 -0.47414059927E+03 -0.30727366983E+03  0.79241492057E+03  0.13224023413E+04  0.89532124396E+03 0.  0.
        -24    2    4    4    0    0 -0.91182416445E+02  0.11128716967E+03  0.72756979547E+03  0.74575620312E+03  0.78073298954E+02 0.  0.
         24    2    4    4    0    0 -0.38295818282E+03 -0.41856083951E+03  0.64845125104E+02  0.57664613818E+03  0.80409777213E+02 0.  0.
         13    1    3    3    0    0  0.19199087470E+03  0.71912549642E+02  0.63275301128E+03  0.66513779328E+03  0.00000000000E+00 0.  1.
        -13    1    3    3    0    0  0.28214972457E+03  0.23536112019E+03  0.11151317123E+04  0.11741047908E+04  0.00000000000E+00 0. -1.
          4    1    6    6  502    0 -0.10636454704E+03 -0.16967069448E+03  0.35763873578E+02  0.20342226055E+03  0.00000000000E+00 0. -1.
          1    1    5    5  503    0 -0.43153750738E+02  0.74543951856E+00  0.18921320914E+03  0.19407328614E+03  0.00000000000E+00 0. -1.
         -2    1    5    5    0  503 -0.48028665707E+02  0.11054173016E+03  0.53835658633E+03  0.55168291697E+03  0.00000000000E+00 0.  1.
         -3    1    6    6    0  502 -0.27659363579E+03 -0.24889014503E+03  0.29081251526E+02  0.37322387764E+03  0.00000000000E+00 0.  1.
<mgrwt>
<rscale>  0 0.18822530E+04</rscale>
<asrwt>0</asrwt>
<pdfrwt beam="1">  1        2 0.43861110E+00 0.18822530E+04</pdfrwt>
<pdfrwt beam="2">  1       -2 0.47795793E-01 0.18822530E+04</pdfrwt>
<totfact> 0.83956426E+00</totfact>
</mgrwt>
</event>
<event>
12    1  0.1562393E-007  0.2422737E+04  0.7818608E-02  0.8431040E-01
         -2   -1    0    0    0  501 -0.00000000000E+00  0.00000000000E+00  0.18088914848E+04  0.18088914848E+04  0.00000000000E+00 0.  1.
          2   -1    0    0  501    0  0.00000000000E+00 -0.00000000000E+00 -0.81122244582E+03  0.81122244582E+03  0.00000000000E+00 0. -1.
         23    2    1    2    0    0  0.34226144023E+02  0.37689996255E+03  0.14618444367E+04  0.15127798417E+04  0.91042197056E+02 0.  0.
        254    2    1    2    0    0 -0.34226144023E+02 -0.37689996255E+03 -0.46417539767E+03  0.11073340890E+04  0.93139947073E+03 0.  0.
        -24    2    4    4    0    0 -0.17971751528E+03  0.55963866884E+02  0.20882394684E+03  0.29025389233E+03  0.72177153893E+02 0.  0.
         24    2    4    4    0    0  0.14549137125E+03 -0.43286382944E+03 -0.67299934452E+03  0.81708019663E+03  0.78441673027E+02 0.  0.
         13    1    3    3    0    0  0.56930609728E+02  0.14361087146E+03  0.61340346987E+03  0.63255750219E+03  0.00000000000E+00 0. -1.
        -13    1    3    3    0    0 -0.22704465705E+02  0.23328909109E+03  0.84844096680E+03  0.88022233949E+03  0.00000000000E+00 0.  1.
          2    1    6    6  502    0  0.17495817888E+02 -0.15105830143E+03 -0.25614092061E+03  0.29788065611E+03  0.00000000000E+00 0. -1.
          3    1    5    5  503    0  0.50566884734E+01 -0.22499222322E+01  0.17815045840E+00  0.55375071967E+01  0.00000000000E+00 0. -1.
         -4    1    5    5    0  503 -0.18477420375E+03  0.58213789116E+02  0.20864579639E+03  0.28471638513E+03  0.00000000000E+00 0.  1.
         -1    1    6    6    0  502  0.12799555337E+03 -0.28180552801E+03 -0.41685842391E+03  0.51919954052E+03  0.00000000000E+00 0.  1.
<mgrwt>
<rscale>  0 0.24227368E+04</rscale>
<asrwt>0</asrwt>
<pdfrwt beam="1">  1        2 0.12480345E+00 0.24227368E+04</pdfrwt>
<pdfrwt beam="2">  1       -2 0.27829100E+00 0.24227368E+04</pdfrwt>
<totfact> 0.13090875E+00</totfact>
</mgrwt>
</event>
<event>
12    1  0.1562393E-007  0.1931368E+04  0.7818608E-02  0.8639398E-01
         -1   -1    0    0    0  501 -0.00000000000E+00  0.00000000000E+00  0.44930840097E+03  0.44930840097E+03  0.00000000000E+00 0.  1.
          1   -1    0    0  501    0  0.00000000000E+00 -0.00000000000E+00 -0.20755123172E+04  0.20755123172E+04  0.00000000000E+00 0. -1.
         23    2    1    2    0    0 -0.71072379805E+03  0.37676129471E+02 -0.41780048171E+03  0.82983489206E+03  0.86723109502E+02 0.  0.
        254    2    1    2    0    0  0.71072379805E+03 -0.37676129471E+02 -0.12084034345E+04  0.16949858261E+04  0.95194027244E+03 0.  0.
        -24    2    4    4    0    0 -0.27421108857E+02  0.16305792295E+03  0.75399168891E+02  0.19842327822E+03  0.79667805440E+02 0.  0.
         24    2    4    4    0    0  0.73814490690E+03 -0.20073405242E+03 -0.12838026034E+04  0.14965625479E+04  0.79989198076E+02 0.  0.
         11    1    3    3    0    0 -0.14197091300E+03  0.13292260329E+02 -0.12524279780E+03  0.18978456925E+03  0.00000000000E+00 0.  1.
        -11    1    3    3    0    0 -0.56875288504E+03  0.24383869142E+02 -0.29255768392E+03  0.64005032282E+03  0.00000000000E+00 0. -1.
          4    1    6    6  502    0  0.72518316878E+03 -0.19142066008E+03 -0.12722025298E+04  0.14768316675E+04  0.00000000000E+00 0. -1.
          3    1    5    5  503    0  0.24784967623E+02  0.86412913495E+02  0.27271560019E+02  0.93942664560E+02  0.00000000000E+00 0. -1.
         -4    1    5    5    0  503 -0.52206076479E+02  0.76645009456E+02  0.48127608872E+02  0.10448061366E+03  0.00000000000E+00 0.  1.
         -3    1    6    6    0  502  0.12961738121E+02 -0.93133923376E+01 -0.11600073639E+02  0.19730880375E+02  0.00000000000E+00 0.  1.
<mgrwt>
<rscale>  0 0.19313675E+04</rscale>
<asrwt>0</asrwt>
<pdfrwt beam="1">  1        1 0.31930959E+00 0.19313675E+04</pdfrwt>
<pdfrwt beam="2">  1       -1 0.69124369E-01 0.19313675E+04</pdfrwt>
<totfact> 0.52318456E+00</totfact>
</mgrwt>
</event>
<event>
12    1  0.1562393E-007  0.1789456E+04  0.7818608E-02  0.8711927E-01
         -2   -1    0    0    0  501 -0.00000000000E+00  0.00000000000E+00  0.18957968791E+03  0.18957968791E+03  0.00000000000E+00 0.  1.
          2   -1    0    0  501    0  0.00000000000E+00 -0.00000000000E+00 -0.42227002556E+04  0.42227002556E+04  0.00000000000E+00 0. -1.
         23    2    1    2    0    0  0.50129553773E+03 -0.41032302117E+03 -0.14103614864E+04  0.15547809771E+04  0.92531974751E+02 0.  0.
        254    2    1    2    0    0 -0.50129553773E+03  0.41032302117E+03 -0.26227590813E+04  0.28574989665E+04  0.93100641626E+03 0.  0.
        -24    2    4    4    0    0 -0.24965716269E+03  0.14542283689E+03 -0.11338711557E+03  0.32039168904E+03  0.79483935834E+02 0.  0.
         24    2    4    4    0    0 -0.25163837504E+03  0.26490018428E+03 -0.25093719657E+04  0.25371072774E+04  0.80446848924E+02 0.  0.
         11    1    3    3    0    0  0.13439441721E+03 -0.60692640946E+02 -0.33011862794E+03  0.36155741530E+03  0.00000000000E+00 0. -1.
        -11    1    3    3    0    0  0.36690112052E+03 -0.34963038022E+03 -0.10802428585E+04  0.11932235618E+04  0.00000000000E+00 0.  1.
          4    1    6    6  502    0 -0.13715344682E+01 -0.46222789384E-02 -0.12839838835E+03  0.12840571349E+03  0.00000000000E+00 0. -1.
          3    1    5    5  503    0 -0.36622541943E+02  0.46932317751E+02 -0.48775510929E+02  0.76960402118E+02  0.00000000000E+00 0. -1.
         -4    1    5    5    0  503 -0.21303462075E+03  0.98490519142E+02 -0.64611604646E+02  0.24343128692E+03  0.00000000000E+00 0.  1.
         -3    1    6    6    0  502 -0.25026684057E+03  0.26490480656E+03 -0.23809735774E+04  0.24087015640E+04  0.00000000000E+00 0.  1.
<mgrwt>
<rscale>  0 0.17894560E+04</rscale>
<asrwt>0</asrwt>
<pdfrwt beam="1">  1        2 0.64964618E+00 0.17894560E+04</pdfrwt>
<pdfrwt beam="2">  1       -2 0.29166106E-01 0.17894560E+04</pdfrwt>
<totfact> 0.23107001E+00</totfact>
</mgrwt>
</event>
<event>
12    1  0.1562393E-007  0.1335388E+04  0.7818608E-02  0.9001963E-01
          2   -1    0    0  501    0  0.00000000000E+00  0.00000000000E+00  0.55959367542E+03  0.55959367542E+03  0.00000000000E+00 0. -1.
         -2   -1    0    0    0  501 -0.00000000000E+00 -0.00000000000E+00 -0.79667706413E+03  0.79667706413E+03  0.00000000000E+00 0.  1.
         23    2    1    2    0    0 -0.33044814281E+03  0.15060613850E+03 -0.12906256530E+02  0.37501736541E+03  0.92699885993E+02 0.  0.
        254    2    1    2    0    0  0.33044814281E+03 -0.15060613850E+03 -0.22417713217E+03  0.98125337414E+03  0.88358622309E+03 0.  0.
        -24    2    4    4    0    0  0.20810569030E+03 -0.22694453808E+03 -0.53847328702E+03  0.62670520159E+03  0.89409882959E+02 0.  0.
         24    2    4    4    0    0  0.12234245251E+03  0.76338399585E+02  0.31429615484E+03  0.35454817255E+03  0.78275837730E+02 0.  0.
         11    1    3    3    0    0 -0.16110469579E+03  0.11922322151E+03  0.13046939639E+02  0.20084601611E+03  0.00000000000E+00 0. -1.
        -11    1    3    3    0    0 -0.16934344702E+03  0.31382916992E+02 -0.25953196170E+02  0.17417134930E+03  0.00000000000E+00 0.  1.
          2    1    6    6  502    0  0.79540821746E+01  0.24053680032E+02  0.13927098177E+02  0.28910396226E+02  0.00000000000E+00 0. -1.
          1    1    5    5  503    0  0.95545648765E+02 -0.10749242186E+03 -0.16576045638E+03  0.21945414249E+03  0.00000000000E+00 0. -1.
         -4    1    5    5    0  503  0.11256004153E+03 -0.11945211622E+03 -0.37271283064E+03  0.40725105910E+03  0.00000000000E+00 0.  1.
         -1    1    6    6    0  502  0.11438837033E+03  0.52284719552E+02  0.30036905667E+03  0.32563777632E+03  0.00000000000E+00 0.  1.
<mgrwt>
<rscale>  0 0.13353883E+04</rscale>
<asrwt>0</asrwt>
<pdfrwt beam="1">  1        2 0.86091334E-01 0.13353883E+04</pdfrwt>
<pdfrwt beam="2">  1       -2 0.12256570E+00 0.13353883E+04</pdfrwt>
<totfact> 0.26553713E+01</totfact>
</mgrwt>
</event>
<event>
12    1  0.1562393E-007  0.1204734E+04  0.7818608E-02  0.9108723E-01
         -4   -1    0    0    0  501 -0.00000000000E+00  0.00000000000E+00  0.17994776790E+03  0.17994776790E+03  0.00000000000E+00 0.  1.
          4   -1    0    0  501    0  0.00000000000E+00 -0.00000000000E+00 -0.20163958477E+04  0.20163958477E+04  0.00000000000E+00 0. -1.
         23    2    1    2    0    0 -0.21987149798E+02 -0.65582233798E+01  0.48299422281E+02  0.10659763604E+03  0.92215924689E+02 0.  0.
        254    2    1    2    0    0  0.21987149798E+02  0.65582233798E+01 -0.18847475021E+04  0.20897459796E+04  0.90235174265E+03 0.  0.
        -24    2    4    4    0    0 -0.36317600772E+03  0.24256063506E+03 -0.91769890460E+03  0.10193505234E+04  0.78560395164E+02 0.  0.
         24    2    4    4    0    0  0.38516315751E+03 -0.23600241168E+03 -0.96704859749E+03  0.10703954562E+04  0.80719555093E+02 0.  0.
         13    1    3    3    0    0  0.16621343684E+02  0.79259593142E+01 -0.19766642399E+02  0.27014996736E+02  0.00000000000E+00 0. -1.
        -13    1    3    3    0    0 -0.38608493482E+02 -0.14484182694E+02  0.68066064680E+02  0.79582639303E+02  0.00000000000E+00 0.  1.
          4    1    6    6  502    0  0.30941842433E+03 -0.15935954689E+03 -0.68236629160E+03  0.76600194674E+03  0.00000000000E+00 0. -1.
          1    1    5    5  503    0 -0.21794061755E+03  0.11967880617E+03 -0.44403584968E+03  0.50890958453E+03  0.00000000000E+00 0. -1.
         -2    1    5    5    0  503 -0.14523539016E+03  0.12288182889E+03 -0.47366305492E+03  0.51044093882E+03  0.00000000000E+00 0.  1.
         -3    1    6    6    0  502  0.75744733181E+02 -0.76642864791E+02 -0.28468230589E+03  0.30439350949E+03  0.00000000000E+00 0.  1.
<mgrwt>
<rscale>  0 0.12047339E+04</rscale>
<asrwt>0</asrwt>
<pdfrwt beam="1">  1        4 0.31021475E+00 0.12047339E+04</pdfrwt>
<pdfrwt beam="2">  1       -4 0.27684272E-01 0.12047339E+04</pdfrwt>
<totfact> 0.66862607E-01</totfact>
</mgrwt>
</event>
<event>
12    1  0.1562393E-007  0.3657767E+04  0.7818608E-02  0.8077386E-01
         -2   -1    0    0    0  501 -0.00000000000E+00  0.00000000000E+00  0.14130080693E+04  0.14130080693E+04  0.00000000000E+00 0.  1.
          2   -1    0    0  501    0  0.00000000000E+00 -0.00000000000E+00 -0.23671588764E+04  0.23671588764E+04  0.00000000000E+00 0. -1.
         23    2    1    2    0    0  0.11007843772E+04 -0.27407056116E+03  0.87938013355E+03  0.14381808133E+04  0.90629546791E+02 0.  0.
        254    2    1    2    0    0 -0.11007843772E+04  0.27407056116E+03 -0.18335309407E+04  0.23419861324E+04  0.91445197583E+03 0.  0.
        -24    2    4    4    0    0 -0.29124391747E+03  0.52353826786E+03 -0.69619440660E+03  0.92190934532E+03  0.79466041991E+02 0.  0.
         24    2    4    4    0    0 -0.80954045976E+03 -0.24946770670E+03 -0.11373365341E+04  0.14200767870E+04  0.74120150266E+02 0.  0.
         13    1    3    3    0    0  0.10012355429E+04 -0.27342872193E+03  0.78936912476E+03  0.13039706644E+04  0.00000000000E+00 0.  1.
        -13    1    3    3    0    0  0.99548834311E+02 -0.64183923725E+00  0.90011008794E+02  0.13421014892E+03  0.00000000000E+00 0. -1.
          2    1    6    6  502    0 -0.27182647317E+03 -0.12023062960E+03 -0.40734185499E+03  0.50425432337E+03  0.00000000000E+00 0. -1.
          1    1    5    5  503    0 -0.13849476546E+01 -0.10738962040E+01 -0.12796845935E+02  0.12916291997E+02  0.00000000000E+00 0. -1.
         -2    1    5    5    0  503 -0.28985896982E+03  0.52461216407E+03 -0.68339756067E+03  0.90899305333E+03  0.00000000000E+00 0.  1.
         -1    1    6    6    0  502 -0.53771398659E+03 -0.12923707710E+03 -0.72999467907E+03  0.91582246366E+03  0.00000000000E+00 0.  1.
<mgrwt>
<rscale>  0 0.36577669E+04</rscale>
<asrwt>0</asrwt>
<pdfrwt beam="1">  1        2 0.36417829E+00 0.36577669E+04</pdfrwt>
<pdfrwt beam="2">  1       -2 0.21738586E+00 0.36577669E+04</pdfrwt>
<totfact> 0.34580973E-01</totfact>
</mgrwt>
</event>
<event>
12    1  0.1562393E-007  0.1170918E+04  0.7818608E-02  0.9138700E-01
          1   -1    0    0  501    0  0.00000000000E+00  0.00000000000E+00  0.16373260918E+04  0.16373260918E+04  0.00000000000E+00 0. -1.
         -1   -1    0    0    0  501 -0.00000000000E+00 -0.00000000000E+00 -0.20934272478E+03  0.20934272478E+03  0.00000000000E+00 0.  1.
         23    2    1    2    0    0  0.11240270582E+01 -0.10879749694E+02  0.63527667300E+03  0.64177431503E+03  0.90433333370E+02 0.  0.
        254    2    1    2    0    0 -0.11240270582E+01  0.10879749694E+02  0.79270669406E+03  0.12048945016E+04  0.90734074347E+03 0.  0.
        -24    2    4    4    0    0 -0.37765876869E+03  0.23810038807E+03  0.47323211829E+03  0.65545475180E+03  0.79714198919E+02 0.  0.
         24    2    4    4    0    0  0.37653474163E+03 -0.22722063837E+03  0.31947457577E+03  0.54943974979E+03  0.80077487031E+02 0.  0.
         11    1    3    3    0    0 -0.94865987721E+01 -0.38636426999E+02  0.55059046306E+03  0.55202592970E+03  0.00000000000E+00 0. -1.
        -11    1    3    3    0    0  0.10610625830E+02  0.27756677305E+02  0.84686209941E+02  0.89748385332E+02  0.00000000000E+00 0.  1.
          4    1    6    6  502    0  0.51937468063E+02 -0.19642377818E+02  0.12771060513E+02  0.56977395358E+02  0.00000000000E+00 0. -1.
          1    1    5    5  503    0 -0.17007469535E+03  0.97306092823E+02  0.15252655321E+03  0.24831074711E+03  0.00000000000E+00 0. -1.
         -2    1    5    5    0  503 -0.20758407334E+03  0.14079429524E+03  0.32070556508E+03  0.40714400469E+03  0.00000000000E+00 0.  1.
         -3    1    6    6    0  502  0.32459727357E+03 -0.20757826056E+03  0.30670351525E+03  0.49246235443E+03  0.00000000000E+00 0.  1.
<mgrwt>
<rscale>  0 0.11709181E+04</rscale>
<asrwt>0</asrwt>
<pdfrwt beam="1">  1        1 0.25189631E+00 0.11709181E+04</pdfrwt>
<pdfrwt beam="2">  1       -1 0.32206574E-01 0.11709181E+04</pdfrwt>
<totfact> 0.46969889E+01</totfact>
</mgrwt>
</event>
<event>
12    1  0.1562393E-007  0.1912998E+04  0.7818608E-02  0.8648414E-01
          2   -1    0    0  501    0  0.00000000000E+00  0.00000000000E+00  0.68843983908E+03  0.68843983908E+03  0.00000000000E+00 0. -1.
         -2   -1    0    0    0  501 -0.00000000000E+00 -0.00000000000E+00 -0.13289322404E+04  0.13289322404E+04  0.00000000000E+00 0.  1.
         23    2    1    2    0    0  0.56843995168E+03  0.21459403898E+03 -0.68840163737E+03  0.92265178109E+03  0.90636165962E+02 0.  0.
        254    2    1    2    0    0 -0.56843995168E+03 -0.21459403898E+03  0.47909236037E+02  0.10947202984E+04  0.90936387471E+03 0.  0.
        -24    2    4    4    0    0 -0.33654789689E+03 -0.31761741677E+03 -0.37097128634E+03  0.59859742021E+03  0.80955950030E+02 0.  0.
         24    2    4    4    0    0 -0.23189205478E+03  0.10302337779E+03  0.41888052238E+03  0.49612287821E+03  0.79304960797E+02 0.  0.
         11    1    3    3    0    0  0.35388049395E+02  0.38810084937E+02 -0.69916677481E+02  0.87446432304E+02  0.00000000000E+00 0. -1.
        -11    1    3    3    0    0  0.53305190228E+03  0.17578395405E+03 -0.61848495989E+03  0.83520534879E+03  0.00000000000E+00 0.  1.
          4    1    6    6  502    0 -0.64132506511E+02  0.13345418003E+02  0.55056503835E+02  0.85570422388E+02  0.00000000000E+00 0. -1.
          3    1    5    5  503    0 -0.15933056776E+03 -0.16763670178E+03 -0.23417083403E+03  0.32912653056E+03  0.00000000000E+00 0. -1.
         -4    1    5    5    0  503 -0.17721732913E+03 -0.14998071499E+03 -0.13680045231E+03  0.26947088965E+03  0.00000000000E+00 0.  1.
         -3    1    6    6    0  502 -0.16775954827E+03  0.89677959788E+02  0.36382401855E+03  0.41055245582E+03  0.00000000000E+00 0.  1.
<mgrwt>
<rscale>  0 0.19129975E+04</rscale>
<asrwt>0</asrwt>
<pdfrwt beam="1">  1        2 0.10591382E+00 0.19129975E+04</pdfrwt>
<pdfrwt beam="2">  1       -2 0.20445111E+00 0.19129975E+04</pdfrwt>
<totfact> 0.48661343E+00</totfact>
</mgrwt>
</event>
<event>
12    1  0.1562393E-007  0.3148837E+04  0.7818608E-02  0.8202461E-01
          2   -1    0    0  501    0  0.00000000000E+00  0.00000000000E+00  0.11963549766E+04  0.11963549766E+04  0.00000000000E+00 0. -1.
         -2   -1    0    0    0  501 -0.00000000000E+00 -0.00000000000E+00 -0.20719554185E+04  0.20719554185E+04  0.00000000000E+00 0.  1.
         23    2    1    2    0    0  0.12048630716E+04  0.57247645211E+03 -0.97512843527E+03  0.16552691752E+04  0.98062569376E+02 0.  0.
        254    2    1    2    0    0 -0.12048630716E+04 -0.57247645211E+03  0.99527993435E+02  0.16130412199E+04  0.90142767113E+03 0.  0.
        -24    2    4    4    0    0 -0.73815167048E+03 -0.65840982579E+03  0.37134727786E+03  0.10598330432E+04  0.83521801781E+02 0.  0.
         24    2    4    4    0    0 -0.46671140109E+03  0.85933373683E+02 -0.27181928443E+03  0.55320817673E+03  0.83363581921E+02 0.  0.
         11    1    3    3    0    0  0.51215089341E+03  0.23073190958E+03 -0.46919419866E+03  0.73190091391E+03  0.00000000000E+00 0.  1.
        -11    1    3    3    0    0  0.69271217816E+03  0.34174454252E+03 -0.50593423661E+03  0.92336826126E+03  0.00000000000E+00 0. -1.
          4    1    6    6  502    0 -0.39852473487E+03  0.54676789626E+02 -0.25519730201E+03  0.47637923819E+03  0.00000000000E+00 0. -1.
          1    1    5    5  503    0 -0.68438203184E+03 -0.57746898920E+03  0.33661908414E+03  0.95664079298E+03  0.00000000000E+00 0. -1.
         -2    1    5    5    0  503 -0.53769638635E+02 -0.80940836586E+02  0.34728193727E+02  0.10319225022E+03  0.00000000000E+00 0.  1.
         -3    1    6    6    0  502 -0.68186666223E+02  0.31256584057E+02 -0.16621982422E+02  0.76828938540E+02  0.00000000000E+00 0.  1.
<mgrwt>
<rscale>  0 0.31488374E+04</rscale>
<asrwt>0</asrwt>
<pdfrwt beam="1">  1        2 0.18405461E+00 0.31488374E+04</pdfrwt>
<pdfrwt beam="2">  1       -2 0.31876237E+00 0.31488374E+04</pdfrwt>
<totfact> 0.39221209E-01</totfact>
</mgrwt>
</event>
<event>
12    1  0.1562393E-007  0.2123060E+04  0.7818608E-02  0.8551153E-01
          2   -1    0    0  501    0  0.00000000000E+00  0.00000000000E+00  0.17106844356E+04  0.17106844356E+04  0.00000000000E+00 0.  1.
         -2   -1    0    0    0  501 -0.00000000000E+00 -0.00000000000E+00 -0.65871034548E+03  0.65871034548E+03  0.00000000000E+00 0. -1.
         23    2    1    2    0    0  0.51147657448E+02  0.82308309702E+03  0.72265370283E+03  0.11002581753E+04  0.90872496490E+02 0.  0.
        254    2    1    2    0    0 -0.51147657448E+02 -0.82308309702E+03  0.32932038727E+03  0.12691366058E+04  0.90673807640E+03 0.  0.
        -24    2    4    4    0    0 -0.51386356110E+02 -0.78962993751E+03  0.59290636724E+03  0.99193064234E+03  0.78945823760E+02 0.  0.
         24    2    4    4    0    0  0.23869866223E+00 -0.33453159505E+02 -0.26358597996E+03  0.27720596344E+03  0.79034210807E+02 0.  0.
         11    1    3    3    0    0  0.69617798501E+02  0.50828982251E+03  0.41748262867E+03  0.66143550462E+03  0.00000000000E+00 0.  1.
        -11    1    3    3    0    0 -0.18470141053E+02  0.31479327451E+03  0.30517107417E+03  0.43882267067E+03  0.00000000000E+00 0. -1.
          2    1    6    6  502    0  0.33477473215E+02 -0.37139034493E+02 -0.12470963693E+03  0.13435975082E+03  0.00000000000E+00 0. -1.
          1    1    5    5  503    0 -0.68329957569E+01 -0.46833499297E+02  0.14684975178E+02  0.49555171107E+02  0.00000000000E+00 0. -1.
         -2    1    5    5    0  503 -0.44553360353E+02 -0.74279643822E+03  0.57822139206E+03  0.94237547123E+03  0.00000000000E+00 0.  1.
         -1    1    6    6    0  502 -0.33238774552E+02  0.36858749878E+01 -0.13887634303E+03  0.14284621262E+03  0.00000000000E+00 0.  1.
<mgrwt>
<rscale>  0 0.21230596E+04</rscale>
<asrwt>0</asrwt>
<pdfrwt beam="1">  1        2 0.26318222E+00 0.21230596E+04</pdfrwt>
<pdfrwt beam="2">  1       -2 0.10134005E+00 0.21230596E+04</pdfrwt>
<totfact> 0.71208054E+00</totfact>
</mgrwt>
</event>
<event>
12    1  0.2260974E-007  0.2332354E+04  0.7818608E-02  0.8465273E-01
         -2   -1    0    0    0  501 -0.00000000000E+00  0.00000000000E+00  0.12849762932E+04  0.12849762932E+04  0.00000000000E+00 0. -1.
          2   -1    0    0  501    0  0.00000000000E+00 -0.00000000000E+00 -0.10583609124E+04  0.10583609124E+04  0.00000000000E+00 0.  1.
         23    2    1    2    0    0 -0.80941804015E+03 -0.73417789598E+02  0.66275616745E+03  0.10525444280E+04  0.89756893042E+02 0.  0.
        254    2    1    2    0    0  0.80941804015E+03  0.73417789598E+02 -0.43614078657E+03  0.12907927776E+04  0.90298365076E+03 0.  0.
        -24    2    4    4    0    0  0.47097053634E+03 -0.39020589365E+03 -0.11560947821E+03  0.62831846265E+03  0.85700953995E+02 0.  0.
         24    2    4    4    0    0  0.33844750381E+03  0.46362368325E+03 -0.32053130836E+03  0.66247431498E+03  0.81475553789E+02 0.  0.
         11    1    3    3    0    0 -0.69536740421E+03 -0.59198000610E+02  0.52602117804E+03  0.87392134077E+03  0.00000000000E+00 0. -1.
        -11    1    3    3    0    0 -0.11405063594E+03 -0.14219788988E+02  0.13673498941E+03  0.17862308721E+03  0.00000000000E+00 0.  1.
          4    1    6    6  502    0  0.34255043696E+03  0.46142425836E+03 -0.31537007184E+03  0.65552378315E+03  0.00000000000E+00 0. -1.
          1    1    5    5  503    0  0.44804142126E+03 -0.38853059859E+03 -0.10243908178E+03  0.60182298616E+03  0.00000000000E+00 0. -1.
         -2    1    5    5    0  503  0.22929115080E+02 -0.16752950649E+01 -0.13170396436E+02  0.26495476486E+02  0.00000000000E+00 0.  1.
         -1    1    6    6    0  502 -0.41029331525E+01  0.21994248913E+01 -0.51612365176E+01  0.69505318283E+01  0.00000000000E+00 0.  1.
<mgrwt>
<rscale>  0 0.23323539E+04</rscale>
<asrwt>0</asrwt>
<pdfrwt beam="1">  1        2 0.16282476E+00 0.23323539E+04</pdfrwt>
<pdfrwt beam="2">  1       -2 0.19768866E+00 0.23323539E+04</pdfrwt>
<totfact> 0.28800612E+00</totfact>
</mgrwt>
</event>
<event>
12    1  0.1562393E-007  0.2195859E+04  0.7818608E-02  0.8520154E-01
          2   -1    0    0  501    0  0.00000000000E+00  0.00000000000E+00  0.30370752055E+04  0.30370752055E+04  0.00000000000E+00 0. -1.
         -2   -1    0    0    0  501 -0.00000000000E+00 -0.00000000000E+00 -0.39691117588E+03  0.39691117588E+03  0.00000000000E+00 0.  1.
         23    2    1    2    0    0 -0.90638824342E+03 -0.25426209570E+02  0.13429188819E+04  0.16228464157E+04  0.89516622468E+02 0.  0.
        254    2    1    2    0    0  0.90638824342E+03  0.25426209570E+02  0.12972451477E+04  0.18111399657E+04  0.88045264610E+03 0.  0.
        -24    2    4    4    0    0  0.46554487405E+03  0.44426380740E+03  0.61261261003E+03  0.89206814681E+03  0.79931272145E+02 0.  0.
         24    2    4    4    0    0  0.44084336937E+03 -0.41883759784E+03  0.68463253769E+03  0.91907181886E+03  0.78762217345E+02 0.  0.
         11    1    3    3    0    0 -0.39353161389E+03 -0.90104074923E+01  0.66277992474E+03  0.77086026439E+03  0.00000000000E+00 0. -1.
        -11    1    3    3    0    0 -0.51285662953E+03 -0.16415802077E+02  0.68013895719E+03  0.85198615136E+03  0.00000000000E+00 0.  1.
          2    1    6    6  502    0  0.34019691430E+03 -0.28246371160E+03  0.52292039796E+03  0.68481050771E+03  0.00000000000E+00 0. -1.
          3    1    5    5  503    0  0.22520814933E+03  0.26482266542E+03  0.30559117964E+03  0.46285605075E+03  0.00000000000E+00 0. -1.
         -4    1    5    5    0  503  0.24033672472E+03  0.17944114199E+03  0.30702143039E+03  0.42921209606E+03  0.00000000000E+00 0.  1.
         -1    1    6    6    0  502  0.10064645507E+03 -0.13637388623E+03  0.16171213973E+03  0.23426131115E+03  0.00000000000E+00 0.  1.
<mgrwt>
<rscale>  0 0.21958589E+04</rscale>
<asrwt>0</asrwt>
<pdfrwt beam="1">  1        2 0.46724232E+00 0.21958589E+04</pdfrwt>
<pdfrwt beam="2">  1       -2 0.61063260E-01 0.21958589E+04</pdfrwt>
<totfact> 0.37698118E+00</totfact>
</mgrwt>
</event>
<event>
12    1  0.1562393E-007  0.1964349E+04  0.7818608E-02  0.8623472E-01
         -2   -1    0    0    0  501 -0.00000000000E+00  0.00000000000E+00  0.52536459870E+03  0.52536459870E+03  0.00000000000E+00 0.  1.
          2   -1    0    0  501    0  0.00000000000E+00 -0.00000000000E+00 -0.18361859269E+04  0.18361859269E+04  0.00000000000E+00 0. -1.
         23    2    1    2    0    0  0.72494673638E+03 -0.11317548218E+03 -0.81588046998E+03  0.11009201655E+04  0.89486362975E+02 0.  0.
        254    2    1    2    0    0 -0.72494673638E+03  0.11317548218E+03 -0.49494085818E+03  0.12606303601E+04  0.89770039059E+03 0.  0.
        -24    2    4    4    0    0 -0.68855465484E+03 -0.21811175683E+03 -0.93033750884E+02  0.73257618290E+03  0.79575962328E+02 0.  0.
         24    2    4    4    0    0 -0.36392081537E+02  0.33128723901E+03 -0.40190710730E+03  0.52805417716E+03  0.78970075310E+02 0.  0.
         13    1    3    3    0    0  0.59769174058E+03 -0.95641125746E+02 -0.71998045969E+03  0.94061389743E+03  0.00000000000E+00 0. -1.
        -13    1    3    3    0    0  0.12725499580E+03 -0.17534356438E+02 -0.95900010293E+02  0.16030626808E+03  0.00000000000E+00 0.  1.
          2    1    6    6  502    0 -0.56580883088E+02  0.29337995817E+03 -0.36251097077E+03  0.46977377546E+03  0.00000000000E+00 0. -1.
          1    1    5    5  503    0 -0.36096372750E+03 -0.14435329319E+03 -0.77618641574E+02  0.39643074975E+03  0.00000000000E+00 0. -1.
         -2    1    5    5    0  503 -0.32759092735E+03 -0.73758463634E+02 -0.15415109309E+02  0.33614543316E+03  0.00000000000E+00 0.  1.
         -1    1    6    6    0  502  0.20188801552E+02  0.37907280846E+02 -0.39396136529E+02  0.58280401703E+02  0.00000000000E+00 0.  1.
<mgrwt>
<rscale>  0 0.19643493E+04</rscale>
<asrwt>0</asrwt>
<pdfrwt beam="1">  1        2 0.28249014E+00 0.19643493E+04</pdfrwt>
<pdfrwt beam="2">  1       -2 0.80825323E-01 0.19643493E+04</pdfrwt>
<totfact> 0.10367581E+01</totfact>
</mgrwt>
</event>
<event>
12    1  0.1562393E-007  0.3330851E+04  0.7818608E-02  0.8155089E-01
          2   -1    0    0  501    0  0.00000000000E+00  0.00000000000E+00  0.21257195526E+04  0.21257195526E+04  0.00000000000E+00 0. -1.
         -2   -1    0    0    0  501 -0.00000000000E+00 -0.00000000000E+00 -0.13048016808E+04  0.13048016808E+04  0.00000000000E+00 0.  1.
         23    2    1    2    0    0 -0.63810983446E+03  0.57621868363E+03  0.16929780098E+04  0.19009384906E+04  0.90445956252E+02 0.  0.
        254    2    1    2    0    0  0.63810983446E+03 -0.57621868363E+03 -0.87206013796E+03  0.15295827428E+04  0.91647277683E+03 0.  0.
        -24    2    4    4    0    0 -0.23260923098E+02 -0.33952990414E+03 -0.72913611915E+03  0.80846650686E+03  0.78466464968E+02 0.  0.
         24    2    4    4    0    0  0.66137075756E+03 -0.23668877949E+03 -0.14292401881E+03  0.72111623594E+03  0.78412328708E+02 0.  0.
         11    1    3    3    0    0 -0.59176860228E+03  0.55764665038E+03  0.16185778515E+04  0.18113404226E+04  0.00000000000E+00 0. -1.
        -11    1    3    3    0    0 -0.46341232178E+02  0.18572033253E+02  0.74400158316E+02  0.89598067928E+02  0.00000000000E+00 0.  1.
          4    1    6    6  502    0  0.17911716405E+03 -0.94749475567E+02 -0.62222398293E+02  0.21197181045E+03  0.00000000000E+00 0. -1.
          1    1    5    5  503    0 -0.21241183902E+02 -0.67574499784E+02 -0.22175585776E+03  0.23279424685E+03  0.00000000000E+00 0. -1.
         -2    1    5    5    0  503 -0.20197391958E+01 -0.27195540436E+03 -0.50738026139E+03  0.57567226001E+03  0.00000000000E+00 0.  1.
         -3    1    6    6    0  502  0.48225359351E+03 -0.14193930392E+03 -0.80701620518E+02  0.50914442549E+03  0.00000000000E+00 0.  1.
<mgrwt>
<rscale>  0 0.33308512E+04</rscale>
<asrwt>0</asrwt>
<pdfrwt beam="1">  1        2 0.32703378E+00 0.33308512E+04</pdfrwt>
<pdfrwt beam="2">  1       -2 0.20073872E+00 0.33308512E+04</pdfrwt>
<totfact> 0.62287541E-01</totfact>
</mgrwt>
</event>
<event>
12    1  0.1562393E-007  0.2547017E+04  0.7818608E-02  0.8386424E-01
          2   -1    0    0  501    0  0.00000000000E+00  0.00000000000E+00  0.59978627448E+03  0.59978627448E+03  0.00000000000E+00 0. -1.
         -2   -1    0    0    0  501 -0.00000000000E+00 -0.00000000000E+00 -0.27040027980E+04  0.27040027980E+04  0.00000000000E+00 0.  1.
         23    2    1    2    0    0  0.96043890277E+02 -0.90313316623E+02 -0.23565490151E+04  0.23634681957E+04  0.12360310556E+03 0.  0.
        254    2    1    2    0    0 -0.96043890277E+02  0.90313316623E+02  0.25233249151E+03  0.94032087681E+03  0.89618677800E+03 0.  0.
        -24    2    4    4    0    0  0.27963707214E+03  0.19700714437E+03 -0.14195943798E+03  0.37890518242E+03  0.80049660724E+02 0.  0.
         24    2    4    4    0    0 -0.37568096242E+03 -0.10669382774E+03  0.39429192950E+03  0.56141569439E+03  0.84862817744E+02 0.  0.
         13    1    3    3    0    0 -0.51367390124E+01  0.83091768837E+01 -0.90627081823E+03  0.90632346570E+03  0.00000000000E+00 0. -1.
        -13    1    3    3    0    0  0.10118062929E+03 -0.98622493507E+02 -0.14502781968E+04  0.14571447300E+04  0.00000000000E+00 0.  1.
          2    1    6    6  502    0 -0.27699974672E+02 -0.67982792927E+01  0.35622745840E+01  0.28743607957E+02  0.00000000000E+00 0. -1.
          1    1    5    5  503    0  0.37040333384E+02  0.65750336040E+02 -0.29190011473E+02  0.80914459501E+02  0.00000000000E+00 0. -1.
         -2    1    5    5    0  503  0.24259673876E+03  0.13125680833E+03 -0.11276942651E+03  0.29799072292E+03  0.00000000000E+00 0.  1.
         -1    1    6    6    0  502 -0.34798098775E+03 -0.99895548450E+02  0.39072965491E+03  0.53267208643E+03  0.00000000000E+00 0.  1.
<mgrwt>
<rscale>  0 0.25470169E+04</rscale>
<asrwt>0</asrwt>
<pdfrwt beam="1">  1        2 0.92274810E-01 0.25470169E+04</pdfrwt>
<pdfrwt beam="2">  1       -2 0.41600044E+00 0.25470169E+04</pdfrwt>
<totfact> 0.25683424E-01</totfact>
</mgrwt>
</event>
<event>
12    1  0.1562393E-007  0.1751827E+04  0.7818608E-02  0.8732345E-01
          1   -1    0    0  501    0  0.00000000000E+00  0.00000000000E+00  0.75059649138E+03  0.75059649138E+03  0.00000000000E+00 0. -1.
         -1   -1    0    0    0  501 -0.00000000000E+00 -0.00000000000E+00 -0.10221535624E+04  0.10221535624E+04  0.00000000000E+00 0.  1.
         23    2    1    2    0    0  0.83844431447E+01  0.58503838434E+03  0.17463434096E+03  0.61728931013E+03  0.90602038189E+02 0.  0.
        254    2    1    2    0    0 -0.83844431447E+01 -0.58503838434E+03 -0.44619141194E+03  0.11554607436E+04  0.89087740117E+03 0.  0.
        -24    2    4    4    0    0  0.50769593949E+02  0.90861960099E+02  0.18443662673E+03  0.22552159854E+03  0.77522091458E+02 0.  0.
         24    2    4    4    0    0 -0.59154037094E+02 -0.67590034443E+03 -0.63062803867E+03  0.92993914508E+03  0.82186462898E+02 0.  0.
         11    1    3    3    0    0 -0.13790223624E+00  0.49388940416E+03  0.17979419418E+03  0.52559748365E+03  0.00000000000E+00 0. -1.
        -11    1    3    3    0    0  0.85223453809E+01  0.91148980175E+02 -0.51598532186E+01  0.91691826479E+02  0.00000000000E+00 0.  1.
          2    1    6    6  502    0 -0.60327085876E+02 -0.46655062108E+03 -0.39073667648E+03  0.61154230407E+03  0.00000000000E+00 0. -1.
          1    1    5    5  503    0  0.10343776861E+02  0.35046523373E+02  0.98808304000E+01  0.37853445413E+02  0.00000000000E+00 0. -1.
         -2    1    5    5    0  503  0.40425817088E+02  0.55815436727E+02  0.17455579633E+03  0.18766815312E+03  0.00000000000E+00 0.  1.
         -1    1    6    6    0  502  0.11730487828E+01 -0.20934972336E+03 -0.23989136219E+03  0.31839684101E+03  0.00000000000E+00 0.  1.
<mgrwt>
<rscale>  0 0.17518275E+04</rscale>
<asrwt>0</asrwt>
<pdfrwt beam="1">  1        1 0.11547638E+00 0.17518275E+04</pdfrwt>
<pdfrwt beam="2">  1       -1 0.15725439E+00 0.17518275E+04</pdfrwt>
<totfact> 0.71077017E+00</totfact>
</mgrwt>
</event>
<event>
12    1  0.1562393E-007  0.2428669E+04  0.7818608E-02  0.8428848E-01
         -2   -1    0    0    0  501 -0.00000000000E+00  0.00000000000E+00  0.43495628908E+03  0.43495628908E+03  0.00000000000E+00 0.  1.
          2   -1    0    0  501    0  0.00000000000E+00 -0.00000000000E+00 -0.33902457332E+04  0.33902457332E+04  0.00000000000E+00 0. -1.
         23    2    1    2    0    0  0.98668490854E+03  0.33120589378E+03 -0.10492471383E+04  0.14807112558E+04  0.91333526586E+02 0.  0.
        254    2    1    2    0    0 -0.98668490854E+03 -0.33120589378E+03 -0.19060423058E+04  0.23444907664E+04  0.88339981300E+03 0.  0.
        -24    2    4    4    0    0 -0.10813125153E+04 -0.44905139981E+03 -0.15048339292E+04  0.19085568280E+04  0.84735446110E+02 0.  0.
         24    2    4    4    0    0  0.94627606757E+02  0.11784550603E+03 -0.40120837653E+03  0.43593393838E+03  0.78919515876E+02 0.  0.
         13    1    3    3    0    0  0.11284265207E+03  0.62855371882E+02 -0.10483229459E+03  0.16635525808E+03  0.00000000000E+00 0. -1.
        -13    1    3    3    0    0  0.87384225646E+03  0.26835052190E+03 -0.94441484375E+03  0.13143559978E+04  0.00000000000E+00 0.  1.
          4    1    6    6  502    0  0.87898516544E+02  0.91156859306E+02 -0.23025958084E+03  0.26278355500E+03  0.00000000000E+00 0. -1.
          1    1    5    5  503    0 -0.59453506430E+03 -0.28218317227E+03 -0.88751919941E+03  0.11048934857E+04  0.00000000000E+00 0. -1.
         -2    1    5    5    0  503 -0.48677745100E+03 -0.16686822753E+03 -0.61731472981E+03  0.80366334232E+03  0.00000000000E+00 0.  1.
         -3    1    6    6    0  502  0.67290902134E+01  0.26688646720E+02 -0.17094879568E+03  0.17315038338E+03  0.00000000000E+00 0.  1.
<mgrwt>
<rscale>  0 0.24286694E+04</rscale>
<asrwt>0</asrwt>
<pdfrwt beam="1">  1        2 0.52157625E+00 0.24286694E+04</pdfrwt>
<pdfrwt beam="2">  1       -2 0.66916354E-01 0.24286694E+04</pdfrwt>
<totfact> 0.17832850E+00</totfact>
</mgrwt>
</event>
<event>
12    1  0.1562393E-007  0.1555692E+04  0.7818608E-02  0.8848240E-01
         -1   -1    0    0    0  501 -0.00000000000E+00  0.00000000000E+00  0.75688985276E+03  0.75688985276E+03  0.00000000000E+00 0.  1.
          1   -1    0    0  501    0  0.00000000000E+00 -0.00000000000E+00 -0.79938194198E+03  0.79938194198E+03  0.00000000000E+00 0. -1.
         23    2    1    2    0    0  0.10791626949E+03  0.21858818505E+03 -0.46547650697E+03  0.53346655372E+03  0.92149169979E+02 0.  0.
        254    2    1    2    0    0 -0.10791626949E+03 -0.21858818505E+03  0.42298441775E+03  0.10228052410E+04  0.89877028630E+03 0.  0.
        -24    2    4    4    0    0  0.18659979556E+03 -0.32492664510E+03  0.55473370425E+03  0.67417838510E+03  0.79938750954E+02 0.  0.
         24    2    4    4    0    0 -0.29451606505E+03  0.10633846005E+03 -0.13174928650E+03  0.34862685592E+03  0.78327705930E+02 0.  0.
         11    1    3    3    0    0  0.40249437987E+02  0.54157358046E+02 -0.58354689223E+02  0.89209340560E+02  0.00000000000E+00 0.  1.
        -11    1    3    3    0    0  0.67666831504E+02  0.16443082701E+03 -0.40712181775E+03  0.44425721316E+03  0.00000000000E+00 0. -1.
          2    1    6    6  502    0 -0.13088655219E+03  0.38630792093E+02 -0.98860231497E+02  0.16851401429E+03  0.00000000000E+00 0. -1.
          3    1    5    5  503    0  0.14372254670E+03 -0.22842590631E+03  0.45448076042E+03  0.52857102332E+03  0.00000000000E+00 0. -1.
         -4    1    5    5    0  503  0.42877248861E+02 -0.96500738793E+02  0.10025294383E+03  0.14560736178E+03  0.00000000000E+00 0.  1.
         -1    1    6    6    0  502 -0.16362951286E+03  0.67707667957E+02 -0.32889055005E+02  0.18011284163E+03  0.00000000000E+00 0.  1.
<mgrwt>
<rscale>  0 0.15556916E+04</rscale>
<asrwt>0</asrwt>
<pdfrwt beam="1">  1        1 0.12298184E+00 0.15556916E+04</pdfrwt>
<pdfrwt beam="2">  1       -1 0.11644459E+00 0.15556916E+04</pdfrwt>
<totfact> 0.14203639E+01</totfact>
</mgrwt>
</event>
<event>
12    1  0.1562393E-007  0.1991421E+04  0.7818608E-02  0.8610642E-01
          2   -1    0    0  501    0  0.00000000000E+00  0.00000000000E+00  0.22310284788E+04  0.22310284788E+04  0.00000000000E+00 0. -1.
         -2   -1    0    0    0  501 -0.00000000000E+00 -0.00000000000E+00 -0.44438684808E+03  0.44438684808E+03  0.00000000000E+00 0.  1.
         23    2    1    2    0    0 -0.27094952569E+03  0.84407968033E+02  0.16875786384E+04  0.17136833470E+04  0.90832827552E+02 0.  0.
        254    2    1    2    0    0  0.27094952569E+03 -0.84407968033E+02  0.99062992276E+02  0.96173197980E+03  0.91355162634E+03 0.  0.
        -24    2    4    4    0    0 -0.27563233639E+03  0.28606737033E+02 -0.17245007524E+03  0.33607862414E+03  0.80114186530E+02 0.  0.
         24    2    4    4    0    0  0.54658186208E+03 -0.11301470507E+03  0.27151306752E+03  0.62565335566E+03  0.78731950969E+02 0.  0.
         11    1    3    3    0    0 -0.14242127911E+03  0.74928465485E+02  0.11301583443E+04  0.11415585744E+04  0.00000000000E+00 0. -1.
        -11    1    3    3    0    0 -0.12852824658E+03  0.94795025478E+01  0.55742029412E+03  0.57212477261E+03  0.00000000000E+00 0.  1.
          4    1    6    6  502    0  0.47324880952E+03 -0.82156149188E+02  0.20619557927E+03  0.52271472667E+03  0.00000000000E+00 0. -1.
          1    1    5    5  503    0 -0.27677169568E+03  0.19138462530E+02 -0.15955953391E+03  0.32004389877E+03  0.00000000000E+00 0. -1.
         -2    1    5    5    0  503  0.11393592954E+01  0.94682745026E+01 -0.12890541331E+02  0.16034725363E+02  0.00000000000E+00 0.  1.
         -3    1    6    6    0  502  0.73333052556E+02 -0.30858555878E+02  0.65317488254E+02  0.10293862900E+03  0.00000000000E+00 0.  1.
<mgrwt>
<rscale>  0 0.19914213E+04</rscale>
<asrwt>0</asrwt>
<pdfrwt beam="1">  1        2 0.34323514E+00 0.19914213E+04</pdfrwt>
<pdfrwt beam="2">  1       -2 0.68367209E-01 0.19914213E+04</pdfrwt>
<totfact> 0.90255798E+00</totfact>
</mgrwt>
</event>
<event>
12    1  0.1562393E-007  0.1990682E+04  0.7818608E-02  0.8610990E-01
          2   -1    0    0  501    0  0.00000000000E+00  0.00000000000E+00  0.71851449951E+03  0.71851449951E+03  0.00000000000E+00 0. -1.
         -2   -1    0    0    0  501 -0.00000000000E+00 -0.00000000000E+00 -0.13788221071E+04  0.13788221071E+04  0.00000000000E+00 0.  1.
         23    2    1    2    0    0  0.31616089923E+03 -0.30568038825E+03  0.39151919513E+03  0.59558298954E+03  0.89630370482E+02 0.  0.
        254    2    1    2    0    0 -0.31616089923E+03  0.30568038825E+03 -0.10518268028E+04  0.15017536171E+04  0.97751014807E+03 0.  0.
        -24    2    4    4    0    0 -0.36212904787E+03 -0.28171911736E+03 -0.35442385418E+03  0.58519820767E+03  0.79608827692E+02 0.  0.
         24    2    4    4    0    0  0.45968148641E+02  0.58739950560E+03 -0.69740294858E+03  0.91655540945E+03  0.80942547776E+02 0.  0.
         11    1    3    3    0    0  0.19608715026E+03 -0.13609211937E+03  0.17891762998E+03  0.29829977166E+03  0.00000000000E+00 0. -1.
        -11    1    3    3    0    0  0.12007374897E+03 -0.16958826888E+03  0.21260156514E+03  0.29728321788E+03  0.00000000000E+00 0.  1.
          4    1    6    6  502    0 -0.17354885299E+02  0.23476194025E+03 -0.25016628096E+03  0.34350768371E+03  0.00000000000E+00 0. -1.
          3    1    5    5  503    0 -0.33132128238E+02 -0.14968601967E+02 -0.62065063777E+01  0.36882484838E+02  0.00000000000E+00 0. -1.
         -4    1    5    5    0  503 -0.32899691964E+03 -0.26675051539E+03 -0.34821734781E+03  0.54831572283E+03  0.00000000000E+00 0.  1.
         -3    1    6    6    0  502  0.63323033940E+02  0.35263756535E+03 -0.44723666761E+03  0.57304772574E+03  0.00000000000E+00 0.  1.
<mgrwt>
<rscale>  0 0.19906820E+04</rscale>
<asrwt>0</asrwt>
<pdfrwt beam="1">  1        2 0.11054069E+00 0.19906820E+04</pdfrwt>
<pdfrwt beam="2">  1       -2 0.21212648E+00 0.19906820E+04</pdfrwt>
<totfact> 0.40862836E+00</totfact>
</mgrwt>
</event>
<event>
12    1  0.1562393E-007  0.1791058E+04  0.7818608E-02  0.8711069E-01
          2   -1    0    0  501    0  0.00000000000E+00  0.00000000000E+00  0.60134439825E+03  0.60134439825E+03  0.00000000000E+00 0. -1.
         -2   -1    0    0    0  501 -0.00000000000E+00 -0.00000000000E+00 -0.13336326669E+04  0.13336326669E+04  0.00000000000E+00 0.  1.
         23    2    1    2    0    0 -0.57798703929E+03  0.19698415141E+03 -0.50111421664E+03  0.79512815657E+03  0.90783003646E+02 0.  0.
        254    2    1    2    0    0  0.57798703929E+03 -0.19698415141E+03 -0.23117405202E+03  0.11398489086E+04  0.93431382232E+03 0.  0.
        -24    2    4    4    0    0 -0.11755995562E+03  0.22018783340E+03  0.69063465456E+02  0.27099850924E+03  0.79796018729E+02 0.  0.
         24    2    4    4    0    0  0.69554699491E+03 -0.41717198482E+03 -0.30023751748E+03  0.86885039935E+03  0.83308838109E+02 0.  0.
         11    1    3    3    0    0 -0.14545733392E+02 -0.68482565017E+01 -0.39667068870E+01  0.16559339979E+02  0.00000000000E+00 0. -1.
        -11    1    3    3    0    0 -0.56344130590E+03  0.20383240792E+03 -0.49714750975E+03  0.77856881659E+03  0.00000000000E+00 0.  1.
          2    1    6    6  502    0  0.57268187772E+03 -0.30445411995E+03 -0.24055211177E+03  0.69175296364E+03  0.00000000000E+00 0. -1.
          1    1    5    5  503    0  0.22425766527E+00  0.64282951512E+02  0.16630565047E+01  0.64304851322E+02  0.00000000000E+00 0. -1.
         -2    1    5    5    0  503 -0.11778421328E+03  0.15590488189E+03  0.67400408951E+02  0.20669365792E+03  0.00000000000E+00 0.  1.
         -1    1    6    6    0  502  0.12286511719E+03 -0.11271786487E+03 -0.59685405708E+02  0.17709743571E+03  0.00000000000E+00 0.  1.
<mgrwt>
<rscale>  0 0.17910584E+04</rscale>
<asrwt>0</asrwt>
<pdfrwt beam="1">  1        2 0.92514522E-01 0.17910584E+04</pdfrwt>
<pdfrwt beam="2">  1       -2 0.20517426E+00 0.17910584E+04</pdfrwt>
<totfact> 0.57447814E+00</totfact>
</mgrwt>
</event>
<event>
12    1  0.1606031E-007  0.3935996E+04  0.7818608E-02  0.8017584E-01
          1   -1    0    0  501    0  0.00000000000E+00  0.00000000000E+00  0.18337519170E+04  0.18337519170E+04  0.00000000000E+00 0. -1.
         -1   -1    0    0    0  501 -0.00000000000E+00 -0.00000000000E+00 -0.21120717844E+04  0.21120717844E+04  0.00000000000E+00 0.  1.
         23    2    1    2    0    0 -0.13240412930E+04  0.11338551352E+04 -0.79272451353E+03  0.19170659826E+04  0.89537779297E+02 0.  0.
        254    2    1    2    0    0  0.13240412930E+04 -0.11338551352E+04  0.51440464611E+03  0.20287577189E+04  0.90140608418E+03 0.  0.
        -24    2    4    4    0    0 -0.36661311292E+02 -0.36104970863E+03  0.22546261982E+03  0.43545012519E+03  0.84157440231E+02 0.  0.
         24    2    4    4    0    0  0.13607026043E+04 -0.77280542658E+03  0.28894202629E+03  0.15933075937E+04  0.80011178736E+02 0.  0.
         11    1    3    3    0    0 -0.15319186871E+03  0.10863444669E+03 -0.10986994828E+03  0.21757894472E+03  0.00000000000E+00 0.  1.
        -11    1    3    3    0    0 -0.11708494243E+04  0.10252206885E+04 -0.68285456525E+03  0.16994870379E+04  0.00000000000E+00 0. -1.
          2    1    6    6  502    0  0.12595253821E+01  0.17781046498E+01 -0.19165506539E+00  0.21874167408E+01  0.00000000000E+00 0. -1.
          1    1    5    5  503    0  0.13411541695E+02 -0.58844912290E+02  0.68352667839E+02  0.91184869105E+02  0.00000000000E+00 0. -1.
         -2    1    5    5    0  503 -0.50072852987E+02 -0.30220479634E+03  0.15710995198E+03  0.34426525608E+03  0.00000000000E+00 0.  1.
         -1    1    6    6    0  502  0.13594430789E+04 -0.77458353123E+03  0.28913368135E+03  0.15911201769E+04  0.00000000000E+00 0.  1.
<mgrwt>
<rscale>  0 0.39359958E+04</rscale>
<asrwt>0</asrwt>
<pdfrwt beam="1">  1        1 0.28211568E+00 0.39359958E+04</pdfrwt>
<pdfrwt beam="2">  1       -1 0.32493412E+00 0.39359958E+04</pdfrwt>
<totfact> 0.69072699E-02</totfact>
</mgrwt>
</event>
<event>
12    1  0.1562393E-007  0.1276825E+04  0.7818608E-02  0.9048148E-01
          2   -1    0    0  501    0  0.00000000000E+00  0.00000000000E+00  0.16874403142E+04  0.16874403142E+04  0.00000000000E+00 0. -1.
         -2   -1    0    0    0  501 -0.00000000000E+00 -0.00000000000E+00 -0.24153162959E+03  0.24153162959E+03  0.00000000000E+00 0.  1.
         23    2    1    2    0    0  0.10078406058E+03 -0.86243897765E+02  0.75919628280E+03  0.78081512197E+03  0.12529094984E+03 0.  0.
        254    2    1    2    0    0 -0.10078406058E+03  0.86243897765E+02  0.68671240178E+03  0.11481568218E+04  0.91054638976E+03 0.  0.
        -24    2    4    4    0    0  0.82618329030E+02  0.35141558903E+03 -0.16901179807E+02  0.37006866253E+03  0.79664676022E+02 0.  0.
         24    2    4    4    0    0 -0.18340238961E+03 -0.26517169126E+03  0.70361358158E+03  0.77808815926E+03  0.79979053656E+02 0.  0.
         13    1    3    3    0    0 -0.16274828837E+02  0.10691525215E+02  0.21235892937E+03  0.21324983857E+03  0.00000000000E+00 0.  1.
        -13    1    3    3    0    0  0.11705888942E+03 -0.96935422980E+02  0.54683735343E+03  0.56756528341E+03  0.00000000000E+00 0. -1.
          4    1    6    6  502    0 -0.16687208805E+03 -0.22982974038E+03  0.54289432865E+03  0.61270078784E+03  0.00000000000E+00 0. -1.
          1    1    5    5  503    0  0.60027702371E+02  0.28964155681E+03 -0.43769859429E+02  0.29901731903E+03  0.00000000000E+00 0. -1.
         -2    1    5    5    0  503  0.22590626659E+02  0.61774032216E+02  0.26868679622E+02  0.71051343504E+02  0.00000000000E+00 0.  1.
         -3    1    6    6    0  502 -0.16530301561E+02 -0.35341950881E+02  0.16071925294E+03  0.16538737142E+03  0.00000000000E+00 0.  1.
<mgrwt>
<rscale>  0 0.12768245E+04</rscale>
<asrwt>0</asrwt>
<pdfrwt beam="1">  1        2 0.25960619E+00 0.12768245E+04</pdfrwt>
<pdfrwt beam="2">  1       -2 0.37158713E-01 0.12768245E+04</pdfrwt>
<totfact> 0.66781896E+01</totfact>
</mgrwt>
</event>
<event>
12    1  0.1562393E-007  0.2230234E+04  0.7818608E-02  0.8505948E-01
         -1   -1    0    0    0  501 -0.00000000000E+00  0.00000000000E+00  0.12160868921E+04  0.12160868921E+04  0.00000000000E+00 0.  1.
          1   -1    0    0  501    0  0.00000000000E+00 -0.00000000000E+00 -0.10225307448E+04  0.10225307448E+04  0.00000000000E+00 0. -1.
         23    2    1    2    0    0  0.12475002858E+03  0.33435362137E+03  0.94213081861E+03  0.10119566886E+04  0.95346455134E+02 0.  0.
        254    2    1    2    0    0 -0.12475002858E+03 -0.33435362137E+03 -0.74857467131E+03  0.12266609483E+04  0.90386842510E+03 0.  0.
        -24    2    4    4    0    0  0.21663798757E+03  0.51623892158E+02 -0.65514516320E+03  0.69681501636E+03  0.82091036406E+02 0.  0.
         24    2    4    4    0    0 -0.34138801615E+03 -0.38597751353E+03 -0.93429508111E+02  0.52984593199E+03  0.80518445910E+02 0.  0.
         11    1    3    3    0    0  0.31050890337E+02  0.16808975211E+02  0.58405725427E+02  0.68249016118E+02  0.00000000000E+00 0. -1.
        -11    1    3    3    0    0  0.93699138247E+02  0.31754464616E+03  0.88372509319E+03  0.94370767250E+03  0.00000000000E+00 0.  1.
          2    1    6    6  502    0 -0.32695774963E+03 -0.34713782917E+03 -0.69250050920E+02  0.48187302481E+03  0.00000000000E+00 0. -1.
          1    1    5    5  503    0  0.46841892142E+02  0.44048488831E+02 -0.13348287078E+03  0.14816244133E+03  0.00000000000E+00 0. -1.
         -2    1    5    5    0  503  0.16979609542E+03  0.75754033273E+01 -0.52166229241E+03  0.54865257503E+03  0.00000000000E+00 0.  1.
         -1    1    6    6    0  502 -0.14430266523E+02 -0.38839684359E+02 -0.24179457191E+02  0.47972907177E+02  0.00000000000E+00 0.  1.
<mgrwt>
<rscale>  0 0.22302343E+04</rscale>
<asrwt>0</asrwt>
<pdfrwt beam="1">  1        1 0.15731242E+00 0.22302343E+04</pdfrwt>
<pdfrwt beam="2">  1       -1 0.18709029E+00 0.22302343E+04</pdfrwt>
<totfact> 0.24477969E+00</totfact>
</mgrwt>
</event>
<event>
12    1  0.1562393E-007  0.1648734E+04  0.7818608E-02  0.8791156E-01
         -1   -1    0    0    0  501 -0.00000000000E+00  0.00000000000E+00  0.52335404584E+03  0.52335404584E+03  0.00000000000E+00 0.  1.
          1   -1    0    0  501    0  0.00000000000E+00 -0.00000000000E+00 -0.12985108190E+04  0.12985108190E+04  0.00000000000E+00 0. -1.
         23    2    1    2    0    0 -0.24057485331E+03 -0.47968935537E+03 -0.44826146915E+02  0.54626632262E+03  0.91757147313E+02 0.  0.
        254    2    1    2    0    0  0.24057485331E+03  0.47968935537E+03 -0.73033062621E+03  0.12755985422E+04  0.89765844259E+03 0.  0.
        -24    2    4    4    0    0 -0.19136808468E+03 -0.46962814526E+01 -0.56493045633E+03  0.60110306800E+03  0.74395423148E+02 0.  0.
         24    2    4    4    0    0  0.43194293799E+03  0.48438563682E+03 -0.16540016988E+03  0.67449547418E+03  0.79892312886E+02 0.  0.
         13    1    3    3    0    0 -0.12135934663E+03 -0.21520380762E+03 -0.64944788746E+02  0.25545761961E+03  0.00000000000E+00 0.  1.
        -13    1    3    3    0    0 -0.11921550668E+03 -0.26448554775E+03  0.20118641831E+02  0.29080870301E+03  0.00000000000E+00 0. -1.
          2    1    6    6  502    0  0.99386957202E+01 -0.12249381615E+01 -0.60518612862E+01  0.11700562856E+02  0.00000000000E+00 0. -1.
          1    1    5    5  503    0 -0.34270732050E+02  0.21043393414E+02 -0.18220240129E+03  0.18658784129E+03  0.00000000000E+00 0. -1.
         -2    1    5    5    0  503 -0.15709735263E+03 -0.25739674866E+02 -0.38272805504E+03  0.41451522671E+03  0.00000000000E+00 0.  1.
         -1    1    6    6    0  502  0.42200424227E+03  0.48561057498E+03 -0.15934830860E+03  0.66279491133E+03  0.00000000000E+00 0.  1.
<mgrwt>
<rscale>  0 0.16487339E+04</rscale>
<asrwt>0</asrwt>
<pdfrwt beam="1">  1        1 0.19977090E+00 0.16487339E+04</pdfrwt>
<pdfrwt beam="2">  1       -1 0.80516007E-01 0.16487339E+04</pdfrwt>
<totfact> 0.13334338E+01</totfact>
</mgrwt>
</event>
<event>
12    1  0.1562393E-007  0.1650994E+04  0.7818608E-02  0.8789818E-01
         -2   -1    0    0    0  501 -0.00000000000E+00  0.00000000000E+00  0.65042630081E+03  0.65042630081E+03  0.00000000000E+00 0.  1.
          2   -1    0    0  501    0  0.00000000000E+00 -0.00000000000E+00 -0.10476907613E+04  0.10476907613E+04  0.00000000000E+00 0. -1.
         23    2    1    2    0    0  0.12448228144E+03  0.33378152597E+03 -0.61076990158E+03  0.71289603261E+03  0.90966670604E+02 0.  0.
        254    2    1    2    0    0 -0.12448228144E+03 -0.33378152597E+03  0.21350544110E+03  0.98522102950E+03  0.89340358076E+03 0.  0.
        -24    2    4    4    0    0 -0.26853211991E+03 -0.59087798041E+03  0.17577539761E+03  0.67703868343E+03  0.78981651612E+02 0.  0.
         24    2    4    4    0    0  0.14404983847E+03  0.25709645444E+03  0.37730043482E+02  0.30818234607E+03  0.81877099367E+02 0.  0.
         13    1    3    3    0    0  0.35040644595E+02  0.19661856476E+02 -0.83544128414E+02  0.92704135648E+02  0.00000000000E+00 0.  1.
        -13    1    3    3    0    0  0.89441636846E+02  0.31411966950E+03 -0.52722577316E+03  0.62019189696E+03  0.00000000000E+00 0. -1.
          4    1    6    6  502    0  0.12874984902E+03  0.24925251885E+03  0.16727112089E+02  0.28103938879E+03  0.00000000000E+00 0. -1.
          3    1    5    5  503    0 -0.25526969477E+03 -0.53956102131E+03  0.14001757350E+03  0.61310165036E+03  0.00000000000E+00 0. -1.
         -4    1    5    5    0  503 -0.13262425138E+02 -0.51316959104E+02  0.35757824114E+02  0.63937033068E+02  0.00000000000E+00 0.  1.
         -3    1    6    6    0  502  0.15299989447E+02  0.78439355920E+01  0.21002931394E+02  0.27142957277E+02  0.00000000000E+00 0.  1.
<mgrwt>
<rscale>  0 0.16509944E+04</rscale>
<asrwt>0</asrwt>
<pdfrwt beam="1">  1        2 0.16118319E+00 0.16509944E+04</pdfrwt>
<pdfrwt beam="2">  1       -2 0.10006558E+00 0.16509944E+04</pdfrwt>
<totfact> 0.18505723E+01</totfact>
</mgrwt>
</event>
<event>
12    1  0.1562393E-007  0.1832930E+04  0.7818608E-02  0.8688981E-01
          2   -1    0    0  501    0  0.00000000000E+00  0.00000000000E+00  0.87005227861E+03  0.87005227861E+03  0.00000000000E+00 0. -1.
         -2   -1    0    0    0  501 -0.00000000000E+00 -0.00000000000E+00 -0.96535374184E+03  0.96535374184E+03  0.00000000000E+00 0.  1.
         23    2    1    2    0    0  0.10663323984E+03 -0.64405756674E+03 -0.23721734101E+03  0.70069561470E+03  0.92311865293E+02 0.  0.
        254    2    1    2    0    0 -0.10663323984E+03  0.64405756674E+03  0.14191587778E+03  0.11347104058E+04  0.91719506729E+03 0.  0.
        -24    2    4    4    0    0 -0.30549731096E+03  0.38059848581E+03 -0.29917941334E+03  0.57800704316E+03  0.80000038523E+02 0.  0.
         24    2    4    4    0    0  0.19886407113E+03  0.26345908093E+03  0.44109529112E+03  0.55670336260E+03  0.79974820875E+02 0.  0.
         11    1    3    3    0    0  0.10125301487E+03 -0.44214637189E+03 -0.12914927933E+03  0.47161968104E+03  0.00000000000E+00 0. -1.
        -11    1    3    3    0    0  0.53802249642E+01 -0.20191119485E+03 -0.10806806168E+03  0.22907593366E+03  0.00000000000E+00 0.  1.
          4    1    6    6  502    0  0.87415680434E+02  0.12986165948E+03  0.14555884934E+03  0.21375904755E+03  0.00000000000E+00 0. -1.
          3    1    5    5  503    0 -0.11884134719E+03  0.12996093640E+03 -0.65890413777E+02  0.18802834207E+03  0.00000000000E+00 0. -1.
         -4    1    5    5    0  503 -0.18665596377E+03  0.25063754941E+03 -0.23328899957E+03  0.38997870109E+03  0.00000000000E+00 0.  1.
         -3    1    6    6    0  502  0.11144839069E+03  0.13359742145E+03  0.29553644178E+03  0.34294431505E+03  0.00000000000E+00 0.  1.
<mgrwt>
<rscale>  0 0.18329301E+04</rscale>
<asrwt>0</asrwt>
<pdfrwt beam="1">  1        2 0.13385420E+00 0.18329301E+04</pdfrwt>
<pdfrwt beam="2">  1       -2 0.14851596E+00 0.18329301E+04</pdfrwt>
<totfact> 0.89006270E+00</totfact>
</mgrwt>
</event>
<event>
12    1  0.1562393E-007  0.1459325E+04  0.7818608E-02  0.8911961E-01
          1   -1    0    0  501    0  0.00000000000E+00  0.00000000000E+00  0.36578870476E+03  0.36578870476E+03  0.00000000000E+00 0. -1.
         -1   -1    0    0    0  501 -0.00000000000E+00 -0.00000000000E+00 -0.14555059531E+04  0.14555059531E+04  0.00000000000E+00 0.  1.
         23    2    1    2    0    0  0.29194366609E+03 -0.19927676464E+03 -0.66872648528E+03  0.76240402373E+03  0.95511518653E+02 0.  0.
        254    2    1    2    0    0 -0.29194366609E+03  0.19927676464E+03 -0.42099076309E+03  0.10588906342E+04  0.90502697165E+03 0.  0.
        -24    2    4    4    0    0 -0.43842664997E+03 -0.11422666593E+03  0.54812103748E+02  0.46454630193E+03  0.86794246970E+02 0.  0.
         24    2    4    4    0    0  0.14648298388E+03  0.31350343057E+03 -0.47580286683E+03  0.59434433223E+03  0.84351358136E+02 0.  0.
         13    1    3    3    0    0  0.16623686864E+03 -0.87020155421E+02 -0.26306276318E+03  0.32312415774E+03  0.00000000000E+00 0. -1.
        -13    1    3    3    0    0  0.12570679745E+03 -0.11225660922E+03 -0.40566372210E+03  0.43927986599E+03  0.00000000000E+00 0.  1.
          2    1    6    6  502    0  0.13624922290E+03  0.29924924719E+03 -0.47375445291E+03  0.57667776473E+03  0.00000000000E+00 0. -1.
          1    1    5    5  503    0 -0.38289647025E+03 -0.68073031341E+02  0.51115452107E+02  0.39224537469E+03  0.00000000000E+00 0. -1.
         -2    1    5    5    0  503 -0.55530179720E+02 -0.46153634594E+02  0.36966516410E+01  0.72300927237E+02  0.00000000000E+00 0.  1.
         -1    1    6    6    0  502  0.10233760979E+02  0.14254183380E+02 -0.20484139284E+01  0.17666567500E+02  0.00000000000E+00 0.  1.
<mgrwt>
<rscale>  0 0.14593254E+04</rscale>
<asrwt>0</asrwt>
<pdfrwt beam="1">  1        1 0.56275185E-01 0.14593254E+04</pdfrwt>
<pdfrwt beam="2">  1       -1 0.22392399E+00 0.14593254E+04</pdfrwt>
<totfact> 0.67940430E+00</totfact>
</mgrwt>
</event>
<event>
12    1  0.1562393E-007  0.1209842E+04  0.7818608E-02  0.9104285E-01
         -1   -1    0    0    0  501 -0.00000000000E+00  0.00000000000E+00  0.19081862530E+03  0.19081862530E+03  0.00000000000E+00 0.  1.
          1   -1    0    0  501    0  0.00000000000E+00 -0.00000000000E+00 -0.19176821743E+04  0.19176821743E+04  0.00000000000E+00 0. -1.
         23    2    1    2    0    0 -0.80823671911E+02  0.22103446943E+03 -0.21378615661E+03  0.33238383471E+03  0.96880287986E+02 0.  0.
        254    2    1    2    0    0  0.80823671911E+02 -0.22103446943E+03 -0.15130773924E+04  0.17761169649E+04  0.89988864588E+03 0.  0.
        -24    2    4    4    0    0  0.37494747127E+03 -0.32621713398E+03 -0.48611353019E+03  0.69977411304E+03  0.79838714446E+02 0.  0.
         24    2    4    4    0    0 -0.29412379936E+03  0.10518266455E+03 -0.10269638622E+04  0.10763428518E+04  0.79290341150E+02 0.  0.
         11    1    3    3    0    0 -0.40002777609E+02  0.88024949612E+02 -0.15200692838E+03  0.18015193656E+03  0.00000000000E+00 0. -1.
        -11    1    3    3    0    0 -0.40820894303E+02  0.13300951982E+03 -0.61779228235E+02  0.15223189815E+03  0.00000000000E+00 0.  1.
          4    1    6    6  502    0 -0.29541409703E+03  0.96755608246E+02 -0.10157771401E+04  0.10622778990E+04  0.00000000000E+00 0. -1.
          3    1    5    5  503    0  0.32244881938E+03 -0.30998612721E+03 -0.41739747182E+03  0.61178859883E+03  0.00000000000E+00 0. -1.
         -4    1    5    5    0  503  0.52498651899E+02 -0.16231006774E+02 -0.68716058373E+02  0.87985514208E+02  0.00000000000E+00 0.  1.
         -3    1    6    6    0  502  0.12902976678E+01  0.84270563058E+01 -0.11186722074E+02  0.14064952784E+02  0.00000000000E+00 0.  1.
<mgrwt>
<rscale>  0 0.12098421E+04</rscale>
<asrwt>0</asrwt>
<pdfrwt beam="1">  1        1 0.29502803E+00 0.12098421E+04</pdfrwt>
<pdfrwt beam="2">  1       -1 0.29356711E-01 0.12098421E+04</pdfrwt>
<totfact> 0.35576614E+01</totfact>
</mgrwt>
</event>
<event>
12    1  0.1562393E-007  0.2313303E+04  0.7818608E-02  0.8472694E-01
          2   -1    0    0  501    0  0.00000000000E+00  0.00000000000E+00  0.22690027502E+04  0.22690027502E+04  0.00000000000E+00 0. -1.
         -2   -1    0    0    0  501 -0.00000000000E+00 -0.00000000000E+00 -0.58961700727E+03  0.58961700727E+03  0.00000000000E+00 0.  1.
         23    2    1    2    0    0  0.85322842777E+03  0.11710800943E+03  0.11441154815E+03  0.87356919409E+03  0.91214575024E+02 0.  0.
        254    2    1    2    0    0 -0.85322842777E+03 -0.11710800943E+03  0.15649741948E+04  0.19850505634E+04  0.86577622572E+03 0.  0.
        -24    2    4    4    0    0 -0.36825130283E+03 -0.29927829311E+03  0.13230374114E+04  0.14078391327E+04  0.80040694243E+02 0.  0.
         24    2    4    4    0    0 -0.48497712494E+03  0.18217028368E+03  0.24193678339E+03  0.57721143072E+03  0.79062030209E+02 0.  0.
         13    1    3    3    0    0  0.56226539295E+03  0.39441740497E+02  0.96849417605E+02  0.57190718888E+03  0.00000000000E+00 0.  1.
        -13    1    3    3    0    0  0.29096303482E+03  0.77666268932E+02  0.17562130542E+02  0.30166200521E+03  0.00000000000E+00 0. -1.
          4    1    6    6  502    0 -0.30767502437E+03  0.15324925076E+03  0.17282271729E+03  0.38472970394E+03  0.00000000000E+00 0. -1.
          1    1    5    5  503    0 -0.34109728423E+03 -0.29404778586E+03  0.11997378492E+04  0.12814766344E+04  0.00000000000E+00 0. -1.
         -2    1    5    5    0  503 -0.27154018599E+02 -0.52305072551E+01  0.12329956221E+03  0.12636249829E+03  0.00000000000E+00 0.  1.
         -3    1    6    6    0  502 -0.17730210057E+03  0.28921032926E+02  0.69114066102E+02  0.19248172678E+03  0.00000000000E+00 0.  1.
<mgrwt>
<rscale>  0 0.23133029E+04</rscale>
<asrwt>0</asrwt>
<pdfrwt beam="1">  1        2 0.34907734E+00 0.23133029E+04</pdfrwt>
<pdfrwt beam="2">  1       -2 0.90710310E-01 0.23133029E+04</pdfrwt>
<totfact> 0.44362360E+00</totfact>
</mgrwt>
</event>
<event>
12    1  0.1562393E-007  0.2178329E+04  0.7818608E-02  0.8527502E-01
         -2   -1    0    0    0  501 -0.00000000000E+00  0.00000000000E+00  0.54811947562E+03  0.54811947562E+03  0.00000000000E+00 0.  1.
          2   -1    0    0  501    0  0.00000000000E+00 -0.00000000000E+00 -0.21642720442E+04  0.21642720442E+04  0.00000000000E+00 0. -1.
         23    2    1    2    0    0 -0.83537564404E+03  0.19578328379E+03 -0.10080374236E+04  0.13267587111E+04  0.89250597179E+02 0.  0.
        254    2    1    2    0    0  0.83537564404E+03 -0.19578328379E+03 -0.60811514490E+03  0.13856328087E+04  0.90221432610E+03 0.  0.
        -24    2    4    4    0    0 -0.10130872580E+03  0.18916540424E+03 -0.12630715612E+03  0.26135183692E+03  0.79399476621E+02 0.  0.
         24    2    4    4    0    0  0.93668436984E+03 -0.38494868803E+03 -0.48180798878E+03  0.11242809718E+04  0.79408213242E+02 0.  0.
         13    1    3    3    0    0 -0.33494302693E+02 -0.55688128507E+01 -0.24423079409E+02  0.41825432422E+02  0.00000000000E+00 0.  1.
        -13    1    3    3    0    0 -0.80188134134E+03  0.20135209664E+03 -0.98361434423E+03  0.12849332787E+04  0.00000000000E+00 0. -1.
          4    1    6    6  502    0  0.79033702566E+03 -0.30632937515E+03 -0.42870016369E+03  0.94987058622E+03  0.00000000000E+00 0. -1.
          1    1    5    5  503    0 -0.78572232445E+02  0.16265567294E+03 -0.13482125265E+03  0.22540460025E+03  0.00000000000E+00 0. -1.
         -2    1    5    5    0  503 -0.22736493357E+02  0.26509731306E+02  0.85140965300E+01  0.35947236664E+02  0.00000000000E+00 0.  1.
         -3    1    6    6    0  502  0.14634734418E+03 -0.78619312880E+02 -0.53107825091E+02  0.17441038556E+03  0.00000000000E+00 0.  1.
<mgrwt>
<rscale>  0 0.21783293E+04</rscale>
<asrwt>0</asrwt>
<pdfrwt beam="1">  1        2 0.33296493E+00 0.21783293E+04</pdfrwt>
<pdfrwt beam="2">  1       -2 0.84326073E-01 0.21783293E+04</pdfrwt>
<totfact> 0.60754119E+00</totfact>
</mgrwt>
</event>
<event>
12    1  0.1562393E-007  0.1915006E+04  0.7818608E-02  0.8647423E-01
          1   -1    0    0  501    0  0.00000000000E+00  0.00000000000E+00  0.12111985648E+04  0.12111985648E+04  0.00000000000E+00 0. -1.
         -1   -1    0    0    0  501 -0.00000000000E+00 -0.00000000000E+00 -0.75694641743E+03  0.75694641743E+03  0.00000000000E+00 0.  1.
         23    2    1    2    0    0 -0.60242578587E+03  0.42988170892E+03  0.22081647331E+03  0.77783675106E+03  0.92493163351E+02 0.  0.
        254    2    1    2    0    0  0.60242578587E+03 -0.42988170892E+03  0.23343567409E+03  0.11903082312E+04  0.90256654058E+03 0.  0.
        -24    2    4    4    0    0 -0.16141391725E+03 -0.21219864459E+03 -0.13479357989E+03  0.31147052966E+03  0.88101442795E+02 0.  0.
         24    2    4    4    0    0  0.76383970311E+03 -0.21768306434E+03  0.36822925398E+03  0.87883770154E+03  0.76979955891E+02 0.  0.
         13    1    3    3    0    0 -0.49725348840E+03  0.33717911034E+03  0.21296625499E+03  0.63742090485E+03  0.00000000000E+00 0.  1.
        -13    1    3    3    0    0 -0.10517229747E+03  0.92702598585E+02  0.78502183217E+01  0.14041584621E+03  0.00000000000E+00 0. -1.
          4    1    6    6  502    0  0.70508738498E+03 -0.20941420087E+03  0.36011583661E+03  0.81895417684E+03  0.00000000000E+00 0. -1.
          3    1    5    5  503    0 -0.97673712114E+02 -0.12992567588E+03 -0.32941141561E+02  0.16584919083E+03  0.00000000000E+00 0. -1.
         -2    1    5    5    0  503 -0.63740205133E+02 -0.82272968704E+02 -0.10185243833E+03  0.14562133883E+03  0.00000000000E+00 0.  1.
         -3    1    6    6    0  502  0.58752318138E+02 -0.82688634727E+01  0.81134173668E+01  0.59883524705E+02  0.00000000000E+00 0.  1.
<mgrwt>
<rscale>  0 0.19150064E+04</rscale>
<asrwt>0</asrwt>
<pdfrwt beam="1">  1        1 0.18633824E+00 0.19150064E+04</pdfrwt>
<pdfrwt beam="2">  1       -1 0.11645330E+00 0.19150064E+04</pdfrwt>
<totfact> 0.65259485E+00</totfact>
</mgrwt>
</event>
<event>
12    1  0.1562393E-007  0.2630725E+04  0.7818608E-02  0.8357839E-01
          1   -1    0    0  501    0  0.00000000000E+00  0.00000000000E+00  0.19779068387E+04  0.19779068387E+04  0.00000000000E+00 0. -1.
         -1   -1    0    0    0  501 -0.00000000000E+00 -0.00000000000E+00 -0.87475202982E+03  0.87475202982E+03  0.00000000000E+00 0.  1.
         23    2    1    2    0    0  0.95605957946E+02  0.71274063734E+03 -0.49931489336E+03  0.88043476699E+03  0.93328992769E+02 0.  0.
        254    2    1    2    0    0 -0.95605957946E+02 -0.71274063734E+03  0.16024697023E+04  0.19722241016E+04  0.89700559907E+03 0.  0.
        -24    2    4    4    0    0 -0.30720973276E+03 -0.17079914688E+03  0.12187468194E+04  0.12709371170E+04  0.79919815934E+02 0.  0.
         24    2    4    4    0    0  0.21160377481E+03 -0.54194149045E+03  0.38372288285E+03  0.70128698458E+03  0.77996457129E+02 0.  0.
         11    1    3    3    0    0  0.57463523359E+02  0.63439491180E+03 -0.42343414572E+03  0.76488916609E+03  0.00000000000E+00 0.  1.
        -11    1    3    3    0    0  0.38142434587E+02  0.78345725534E+02 -0.75880747643E+02  0.11554560091E+03  0.00000000000E+00 0. -1.
          4    1    6    6  502    0  0.77346943707E+02 -0.23600334447E+03  0.20709828412E+03  0.32337258323E+03  0.00000000000E+00 0. -1.
          1    1    5    5  503    0 -0.76042695654E+02 -0.11914869467E+02  0.33561325955E+03  0.34432646669E+03  0.00000000000E+00 0. -1.
         -2    1    5    5    0  503 -0.23116703711E+03 -0.15888427742E+03  0.88313355990E+03  0.92661065031E+03  0.00000000000E+00 0.  1.
         -3    1    6    6    0  502  0.13425683111E+03 -0.30593814598E+03  0.17662459873E+03  0.37791440134E+03  0.00000000000E+00 0.  1.
<mgrwt>
<rscale>  0 0.26307246E+04</rscale>
<asrwt>0</asrwt>
<pdfrwt beam="1">  1        1 0.30429336E+00 0.26307246E+04</pdfrwt>
<pdfrwt beam="2">  1       -1 0.13457724E+00 0.26307246E+04</pdfrwt>
<totfact> 0.12580661E+00</totfact>
</mgrwt>
</event>
<event>
12    1  0.1562393E-007  0.1195855E+04  0.7818608E-02  0.9116492E-01
          1   -1    0    0  501    0  0.00000000000E+00  0.00000000000E+00  0.60097577654E+03  0.60097577654E+03  0.00000000000E+00 0. -1.
         -1   -1    0    0    0  501 -0.00000000000E+00 -0.00000000000E+00 -0.59489497414E+03  0.59489497414E+03  0.00000000000E+00 0.  1.
         23    2    1    2    0    0 -0.12957715151E+03  0.12680504239E+03  0.16826578114E+03  0.26402586526E+03  0.92339197836E+02 0.  0.
        254    2    1    2    0    0  0.12957715151E+03 -0.12680504239E+03 -0.16218497874E+03  0.93184488541E+03  0.89953386049E+03 0.  0.
        -24    2    4    4    0    0  0.38749900355E+03  0.23757877079E+03 -0.51302341018E+02  0.46518981195E+03  0.84678691924E+02 0.  0.
         24    2    4    4    0    0 -0.25792185204E+03 -0.36438381318E+03 -0.11088263772E+03  0.46665507346E+03  0.78566870711E+02 0.  0.
         11    1    3    3    0    0  0.31764325731E+01 -0.72382366885E+01  0.27575233109E+02  0.28685802678E+02  0.00000000000E+00 0.  1.
        -11    1    3    3    0    0 -0.13275358408E+03  0.13404327908E+03  0.14069054803E+03  0.23534006258E+03  0.00000000000E+00 0. -1.
          4    1    6    6  502    0 -0.23544532658E+03 -0.32588984390E+03 -0.73994517861E+02  0.40879564680E+03  0.00000000000E+00 0. -1.
          1    1    5    5  503    0  0.37584209516E+03  0.24259704276E+03 -0.41702606514E+02  0.44927687793E+03  0.00000000000E+00 0. -1.
         -2    1    5    5    0  503  0.11656908387E+02 -0.50182719654E+01 -0.95997345040E+01  0.15912934023E+02  0.00000000000E+00 0.  1.
         -3    1    6    6    0  502 -0.22476525466E+02 -0.38493969278E+02 -0.36888119857E+02  0.57859426668E+02  0.00000000000E+00 0.  1.
<mgrwt>
<rscale>  0 0.11958553E+04</rscale>
<asrwt>0</asrwt>
<pdfrwt beam="1">  1        1 0.92457811E-01 0.11958553E+04</pdfrwt>
<pdfrwt beam="2">  1       -1 0.91522305E-01 0.11958553E+04</pdfrwt>
<totfact> 0.39391908E+01</totfact>
</mgrwt>
</event>
<event>
12    1  0.1562393E-007  0.3939357E+04  0.7818608E-02  0.8016893E-01
         -1   -1    0    0    0  501 -0.00000000000E+00  0.00000000000E+00  0.23461854008E+04  0.23461854008E+04  0.00000000000E+00 0.  1.
          1   -1    0    0  501    0  0.00000000000E+00 -0.00000000000E+00 -0.16535916837E+04  0.16535916837E+04  0.00000000000E+00 0. -1.
         23    2    1    2    0    0 -0.40174214438E+03 -0.88094497145E+03  0.19493256969E+04  0.21784386270E+04  0.90903166946E+02 0.  0.
        254    2    1    2    0    0  0.40174214438E+03  0.88094497145E+03 -0.12567319798E+04  0.18213384575E+04  0.89467184722E+03 0.  0.
        -24    2    4    4    0    0  0.20550062816E+03 -0.14461801992E+03 -0.33626956756E+03  0.42707622746E+03  0.78562090969E+02 0.  0.
         24    2    4    4    0    0  0.19624151622E+03  0.10255629914E+04 -0.92046241227E+03  0.13942622300E+04  0.80161908876E+02 0.  0.
         11    1    3    3    0    0 -0.17550871235E+03 -0.30852539798E+03  0.78178443589E+03  0.85859078350E+03  0.00000000000E+00 0. -1.
        -11    1    3    3    0    0 -0.22623343203E+03 -0.57241957347E+03  0.11675412610E+04  0.13198478435E+04  0.00000000000E+00 0.  1.
          4    1    6    6  502    0  0.43446070716E+02  0.15748778267E+03 -0.18011191304E+03  0.24316715233E+03  0.00000000000E+00 0. -1.
          1    1    5    5  503    0  0.10857930682E+03 -0.57003696323E+02 -0.10495462685E+03  0.16141363314E+03  0.00000000000E+00 0. -1.
         -2    1    5    5    0  503  0.96921321334E+02 -0.87614323598E+02 -0.23131494071E+03  0.26566259433E+03  0.00000000000E+00 0.  1.
         -3    1    6    6    0  502  0.15279544551E+03  0.86807520870E+03 -0.74035049923E+03  0.11510950777E+04  0.00000000000E+00 0.  1.
<mgrwt>
<rscale>  0 0.39393566E+04</rscale>
<asrwt>0</asrwt>
<pdfrwt beam="1">  1        1 0.25439872E+00 0.39393566E+04</pdfrwt>
<pdfrwt beam="2">  1       -1 0.36095160E+00 0.39393566E+04</pdfrwt>
<totfact> 0.52953691E-02</totfact>
</mgrwt>
</event>
<event>
12    1  0.1562393E-007  0.2328068E+04  0.7818608E-02  0.8466936E-01
         -1   -1    0    0    0  501 -0.00000000000E+00  0.00000000000E+00  0.22859015795E+04  0.22859015795E+04  0.00000000000E+00 0.  1.
          1   -1    0    0  501    0  0.00000000000E+00 -0.00000000000E+00 -0.59275321149E+03  0.59275321149E+03  0.00000000000E+00 0. -1.
         23    2    1    2    0    0  0.51840949303E+03 -0.49882227871E+03 -0.11164455669E+03  0.73395189726E+03  0.92998990619E+02 0.  0.
        254    2    1    2    0    0 -0.51840949303E+03  0.49882227871E+03  0.18047929247E+04  0.21447028937E+04  0.90824057007E+03 0.  0.
        -24    2    4    4    0    0 -0.68656754385E+03  0.54801080303E+03  0.17229646003E+04  0.19355976420E+04  0.78996108742E+02 0.  0.
         24    2    4    4    0    0  0.16815805082E+03 -0.49188524313E+02  0.81828324406E+02  0.20910525177E+03  0.79576948059E+02 0.  0.
         13    1    3    3    0    0  0.14043411286E+03 -0.84188247404E+02 -0.12618023996E+02  0.16422123975E+03  0.00000000000E+00 0. -1.
        -13    1    3    3    0    0  0.37797538017E+03 -0.41463403131E+03 -0.99026532697E+02  0.56973065751E+03  0.00000000000E+00 0.  1.
          4    1    6    6  502    0  0.15548564714E+03 -0.66501538951E+02  0.62694635378E+02  0.18035758496E+03  0.00000000000E+00 0. -1.
          3    1    5    5  503    0 -0.37337102117E+03  0.33947093722E+03  0.10346402807E+04  0.11511415843E+04  0.00000000000E+00 0. -1.
         -4    1    5    5    0  503 -0.31319652268E+03  0.20853986580E+03  0.68832431958E+03  0.78445605764E+03  0.00000000000E+00 0.  1.
         -3    1    6    6    0  502  0.12672403683E+02  0.17313014637E+02  0.19133689028E+02  0.28747666805E+02  0.00000000000E+00 0.  1.
<mgrwt>
<rscale>  0 0.23280683E+04</rscale>
<asrwt>0</asrwt>
<pdfrwt beam="1">  1        1 0.91192803E-01 0.23280683E+04</pdfrwt>
<pdfrwt beam="2">  1       -1 0.35167716E+00 0.23280683E+04</pdfrwt>
<totfact> 0.47627766E-01</totfact>
</mgrwt>
</event>
<event>
12    1  0.1562393E-007  0.1615560E+04  0.7818608E-02  0.8811045E-01
          2   -1    0    0  501    0  0.00000000000E+00  0.00000000000E+00  0.15102114960E+04  0.15102114960E+04  0.00000000000E+00 0. -1.
         -2   -1    0    0    0  501 -0.00000000000E+00 -0.00000000000E+00 -0.43206453913E+03  0.43206453913E+03  0.00000000000E+00 0.  1.
         23    2    1    2    0    0 -0.47708938783E+03 -0.15963379206E+03  0.65511233105E+03  0.83091624238E+03  0.90290663997E+02 0.  0.
        254    2    1    2    0    0  0.47708938783E+03  0.15963379206E+03  0.42303462581E+03  0.11113597927E+04  0.89613897514E+03 0.  0.
        -24    2    4    4    0    0  0.15621817992E+03  0.33705393832E+03 -0.16469057384E+03  0.41405023447E+03  0.79404876898E+02 0.  0.
         24    2    4    4    0    0  0.32087120791E+03 -0.17742014626E+03  0.58772519966E+03  0.69730955828E+03  0.79896616902E+02 0.  0.
         13    1    3    3    0    0 -0.18401229776E+03 -0.98019597719E+02  0.22427425116E+03  0.30621447876E+03  0.00000000000E+00 0.  1.
        -13    1    3    3    0    0 -0.29307709007E+03 -0.61614194341E+02  0.43083807989E+03  0.52470176362E+03  0.00000000000E+00 0. -1.
          4    1    6    6  502    0  0.23867778085E+03 -0.11435655531E+03  0.47818022533E+03  0.54653529869E+03  0.00000000000E+00 0. -1.
          3    1    5    5  503    0  0.14138857989E+03  0.21933589248E+03 -0.12055647544E+03  0.28745926324E+03  0.00000000000E+00 0. -1.
         -4    1    5    5    0  503  0.14829600027E+02  0.11771804584E+03 -0.44134098403E+02  0.12659097123E+03  0.00000000000E+00 0.  1.
         -3    1    6    6    0  502  0.82193427057E+02 -0.63063590954E+02  0.10954497432E+03  0.15077425959E+03  0.00000000000E+00 0.  1.
<mgrwt>
<rscale>  0 0.16155604E+04</rscale>
<asrwt>0</asrwt>
<pdfrwt beam="1">  1        2 0.23234023E+00 0.16155604E+04</pdfrwt>
<pdfrwt beam="2">  1       -2 0.66471468E-01 0.16155604E+04</pdfrwt>
<totfact> 0.24955329E+01</totfact>
</mgrwt>
</event>
<event>
12    1  0.1562393E-007  0.1509652E+04  0.7818608E-02  0.8878060E-01
          1   -1    0    0  501    0  0.00000000000E+00  0.00000000000E+00  0.69717433133E+03  0.69717433133E+03  0.00000000000E+00 0. -1.
         -1   -1    0    0    0  501 -0.00000000000E+00 -0.00000000000E+00 -0.81724483096E+03  0.81724483096E+03  0.00000000000E+00 0.  1.
         23    2    1    2    0    0 -0.35988528004E+03  0.76914603202E+02  0.26305644143E+03  0.46173108846E+03  0.92539914079E+02 0.  0.
        254    2    1    2    0    0  0.35988528004E+03 -0.76914603202E+02 -0.38312694106E+03  0.10526880738E+04  0.90880837191E+03 0.  0.
        -24    2    4    4    0    0  0.39859028553E+03  0.22298565987E+03  0.10285974420E+03  0.47454033762E+03  0.77534410584E+02 0.  0.
         24    2    4    4    0    0 -0.38705005486E+02 -0.29990026307E+03 -0.48598668526E+03  0.57814773622E+03  0.81446309947E+02 0.  0.
         11    1    3    3    0    0 -0.34566405937E+03  0.83496206708E+02  0.22560353043E+03  0.42113205936E+03  0.00000000000E+00 0. -1.
        -11    1    3    3    0    0 -0.14221220674E+02 -0.65816035062E+01  0.37452910998E+02  0.40599029106E+02  0.00000000000E+00 0.  1.
          4    1    6    6  502    0 -0.58319820602E+02 -0.17631591632E+03 -0.32412359758E+03  0.37355670296E+03  0.00000000000E+00 0. -1.
          3    1    5    5  503    0  0.22667577886E+03  0.82611411027E+02  0.57168139313E+02  0.24794102143E+03  0.00000000000E+00 0. -1.
         -4    1    5    5    0  503  0.17191450666E+03  0.14037424884E+03  0.45691604891E+02  0.22659931619E+03  0.00000000000E+00 0.  1.
         -3    1    6    6    0  502  0.19614815116E+02 -0.12358434675E+03 -0.16186308768E+03  0.20459103325E+03  0.00000000000E+00 0.  1.
<mgrwt>
<rscale>  0 0.15096518E+04</rscale>
<asrwt>0</asrwt>
<pdfrwt beam="1">  1        1 0.10725759E+00 0.15096518E+04</pdfrwt>
<pdfrwt beam="2">  1       -1 0.12572997E+00 0.15096518E+04</pdfrwt>
<totfact> 0.14618521E+01</totfact>
</mgrwt>
</event>
<event>
12    1  0.1562393E-007  0.1836645E+04  0.7818608E-02  0.8687051E-01
          2   -1    0    0  501    0  0.00000000000E+00  0.00000000000E+00  0.79140914164E+03  0.79140914164E+03  0.00000000000E+00 0. -1.
         -2   -1    0    0    0  501 -0.00000000000E+00 -0.00000000000E+00 -0.10655886354E+04  0.10655886354E+04  0.00000000000E+00 0.  1.
         23    2    1    2    0    0 -0.69048144432E+03 -0.43909435528E+02 -0.10834187513E+03  0.70635632197E+03  0.92242225762E+02 0.  0.
        254    2    1    2    0    0  0.69048144432E+03  0.43909435528E+02 -0.16583761861E+03  0.11506414550E+04  0.90431243430E+03 0.  0.
        -24    2    4    4    0    0  0.78600192210E+03 -0.24126764748E+03 -0.96576544462E+02  0.83176758190E+03  0.80629908174E+02 0.  0.
         24    2    4    4    0    0 -0.95520477782E+02  0.28517708300E+03 -0.69261074143E+02  0.31887387314E+03  0.80207981121E+02 0.  0.
         11    1    3    3    0    0 -0.12494425480E+03  0.27601327311E+02 -0.19401558292E+02  0.12941916605E+03  0.00000000000E+00 0. -1.
        -11    1    3    3    0    0 -0.56553718952E+03 -0.71510762838E+02 -0.88940316841E+02  0.57693715593E+03  0.00000000000E+00 0.  1.
          2    1    6    6  502    0 -0.10707230630E+03  0.21869550768E+03 -0.59806930522E+02  0.25073705908E+03  0.00000000000E+00 0. -1.
          3    1    5    5  503    0  0.57648080859E+03 -0.13961131825E+03 -0.63060688213E+02  0.59648813337E+03  0.00000000000E+00 0. -1.
         -4    1    5    5    0  503  0.20952111351E+03 -0.10165632923E+03 -0.33515856249E+02  0.23527944852E+03  0.00000000000E+00 0.  1.
         -1    1    6    6    0  502  0.11551828517E+02  0.66481575324E+02 -0.94541436212E+01  0.68136814068E+02  0.00000000000E+00 0.  1.
<mgrwt>
<rscale>  0 0.18366454E+04</rscale>
<asrwt>0</asrwt>
<pdfrwt beam="1">  1        2 0.12175525E+00 0.18366454E+04</pdfrwt>
<pdfrwt beam="2">  1       -2 0.16393671E+00 0.18366454E+04</pdfrwt>
<totfact> 0.77484094E+00</totfact>
</mgrwt>
</event>
<event>
12    1  0.1562393E-007  0.2286009E+04  0.7818608E-02  0.8483458E-01
         -1   -1    0    0    0  501 -0.00000000000E+00  0.00000000000E+00  0.87738020477E+03  0.87738020477E+03  0.00000000000E+00 0.  1.
          1   -1    0    0  501    0  0.00000000000E+00 -0.00000000000E+00 -0.14890462685E+04  0.14890462685E+04  0.00000000000E+00 0. -1.
         23    2    1    2    0    0  0.13889625652E+03 -0.94088529248E+02  0.76076052717E+03  0.78528767523E+03  0.98870277431E+02 0.  0.
        254    2    1    2    0    0 -0.13889625652E+03  0.94088529248E+02 -0.13724265909E+04  0.15811387981E+04  0.76700738580E+03 0.  0.
        -24    2    4    4    0    0  0.74264067982E+02  0.28201601856E+03 -0.12040913565E+04  0.12414682675E+04  0.79745081777E+02 0.  0.
         24    2    4    4    0    0 -0.21316032450E+03 -0.18792748931E+03 -0.16833523448E+03  0.33967053055E+03  0.79279587389E+02 0.  0.
         13    1    3    3    0    0  0.83513251551E+02 -0.36337055825E+02  0.58656607230E+03  0.59359464451E+03  0.00000000000E+00 0.  1.
        -13    1    3    3    0    0  0.55383004966E+02 -0.57751473424E+02  0.17419445487E+03  0.19169303072E+03  0.00000000000E+00 0. -1.
          2    1    6    6  502    0 -0.45686709390E+02 -0.80709401524E+02 -0.30164175551E+02  0.97525178266E+02  0.00000000000E+00 0. -1.
          3    1    5    5  503    0  0.26636163612E+02  0.20009804163E+03 -0.92363617630E+03  0.94543772807E+03  0.00000000000E+00 0. -1.
         -4    1    5    5    0  503  0.47627904370E+02  0.81917976927E+02 -0.28045518016E+03  0.29603053947E+03  0.00000000000E+00 0.  1.
         -1    1    6    6    0  502 -0.16747361511E+03 -0.10721808779E+03 -0.13817105892E+03  0.24214535228E+03  0.00000000000E+00 0.  1.
<mgrwt>
<rscale>  0 0.22860094E+04</rscale>
<asrwt>0</asrwt>
<pdfrwt beam="1">  1        1 0.22908404E+00 0.22860094E+04</pdfrwt>
<pdfrwt beam="2">  1       -1 0.13498157E+00 0.22860094E+04</pdfrwt>
<totfact> 0.27762426E+00</totfact>
</mgrwt>
</event>
<event>
12    1  0.1562393E-007  0.2319913E+04  0.7818608E-02  0.8470111E-01
         -2   -1    0    0    0  501 -0.00000000000E+00  0.00000000000E+00  0.14203437148E+04  0.14203437148E+04  0.00000000000E+00 0.  1.
          2   -1    0    0  501    0  0.00000000000E+00 -0.00000000000E+00 -0.94730562486E+03  0.94730562486E+03  0.00000000000E+00 0. -1.
         23    2    1    2    0    0 -0.71785071091E+03 -0.23485022316E+03 -0.44076945494E+03  0.87931247347E+03  0.91915412848E+02 0.  0.
        254    2    1    2    0    0  0.71785071091E+03  0.23485022316E+03  0.91380754484E+03  0.14883368662E+04  0.89979893737E+03 0.  0.
        -24    2    4    4    0    0  0.38751991457E+03 -0.18411967527E+03  0.83662287771E+03  0.94370820798E+03  0.81090093741E+02 0.  0.
         24    2    4    4    0    0  0.33033079634E+03  0.41896989843E+03  0.77184667132E+02  0.54462865817E+03  0.77515751058E+02 0.  0.
         11    1    3    3    0    0 -0.52336756463E+03 -0.14629982417E+03 -0.27619298145E+03  0.60958986971E+03  0.00000000000E+00 0. -1.
        -11    1    3    3    0    0 -0.19448314628E+03 -0.88550398992E+02 -0.16457647350E+03  0.26972260376E+03  0.00000000000E+00 0.  1.
          4    1    6    6  502    0  0.27789061366E+02  0.77723811000E+02  0.20675387373E+02  0.85092269749E+02  0.00000000000E+00 0. -1.
          1    1    5    5  503    0  0.29833511038E+02  0.75116290448E+01  0.63757820918E+02  0.70792108882E+02  0.00000000000E+00 0. -1.
         -2    1    5    5    0  503  0.35768640353E+03 -0.19163130431E+03  0.77286505679E+03  0.87291609910E+03  0.00000000000E+00 0.  1.
         -3    1    6    6    0  502  0.30254173497E+03  0.34124608743E+03  0.56509279759E+02  0.45953638842E+03  0.00000000000E+00 0.  1.
<mgrwt>
<rscale>  0 0.23199134E+04</rscale>
<asrwt>0</asrwt>
<pdfrwt beam="1">  1        2 0.14573933E+00 0.23199134E+04</pdfrwt>
<pdfrwt beam="2">  1       -2 0.21851442E+00 0.23199134E+04</pdfrwt>
<totfact> 0.24916810E+00</totfact>
</mgrwt>
</event>
<event>
12    1  0.1562393E-007  0.2234397E+04  0.7818608E-02  0.8504246E-01
         -2   -1    0    0    0  501 -0.00000000000E+00  0.00000000000E+00  0.25404022529E+04  0.25404022529E+04  0.00000000000E+00 0.  1.
          2   -1    0    0  501    0  0.00000000000E+00 -0.00000000000E+00 -0.49131295676E+03  0.49131295676E+03  0.00000000000E+00 0. -1.
         23    2    1    2    0    0  0.28324808599E+02 -0.35068033358E+03 -0.30846748560E+03  0.47666177351E+03  0.90968486366E+02 0.  0.
        254    2    1    2    0    0 -0.28324808599E+02  0.35068033358E+03  0.23575567817E+04  0.25550534362E+04  0.92002450585E+03 0.  0.
        -24    2    4    4    0    0 -0.10682875640E+03 -0.12961774184E+03  0.18041700346E+04  0.18137822736E+04  0.81015308552E+02 0.  0.
         24    2    4    4    0    0  0.78503947799E+02  0.48029807542E+03  0.55338674718E+03  0.74127116257E+03  0.79980831573E+02 0.  0.
         13    1    3    3    0    0 -0.16915335533E+02 -0.23619717284E+03 -0.17071962761E+03  0.29192537451E+03  0.00000000000E+00 0. -1.
        -13    1    3    3    0    0  0.45240144132E+02 -0.11448316075E+03 -0.13774785798E+03  0.18473639900E+03  0.00000000000E+00 0.  1.
          2    1    6    6  502    0  0.34957590706E+02  0.36168385192E+03  0.37020721754E+03  0.51873945850E+03  0.00000000000E+00 0. -1.
          3    1    5    5  503    0 -0.10583707695E+03 -0.10217710568E+03  0.16885570430E+04  0.16949532546E+04  0.00000000000E+00 0. -1.
         -4    1    5    5    0  503 -0.99167945053E+00 -0.27440636157E+02  0.11561299158E+03  0.11882901903E+03  0.00000000000E+00 0.  1.
         -1    1    6    6    0  502  0.43546357093E+02  0.11861422350E+03  0.18317952965E+03  0.22253170407E+03  0.00000000000E+00 0.  1.
<mgrwt>
<rscale>  0 0.22343970E+04</rscale>
<asrwt>0</asrwt>
<pdfrwt beam="1">  1        2 0.75586610E-01 0.22343970E+04</pdfrwt>
<pdfrwt beam="2">  1       -2 0.39083111E+00 0.22343970E+04</pdfrwt>
<totfact> 0.48867862E-01</totfact>
</mgrwt>
</event>
<event>
12    1  0.1562393E-007  0.2353530E+04  0.7818608E-02  0.8457109E-01
          2   -1    0    0  501    0  0.00000000000E+00  0.00000000000E+00  0.13058841319E+04  0.13058841319E+04  0.00000000000E+00 0.  1.
         -2   -1    0    0    0  501 -0.00000000000E+00 -0.00000000000E+00 -0.10604126896E+04  0.10604126896E+04  0.00000000000E+00 0. -1.
         23    2    1    2    0    0 -0.25035587366E+03 -0.43047228450E+03 -0.76962792997E+03  0.92108167268E+03  0.89887963361E+02 0.  0.
        254    2    1    2    0    0  0.25035587366E+03  0.43047228450E+03  0.10150993722E+04  0.14452151488E+04  0.90013090146E+03 0.  0.
        -24    2    4    4    0    0  0.45371415488E+03 -0.84384934819E+02  0.42781630902E+03  0.63431211781E+03  0.79672560994E+02 0.  0.
         24    2    4    4    0    0 -0.20335828122E+03  0.51485721932E+03  0.58728306321E+03  0.81090303104E+03  0.78928971794E+02 0.  0.
         13    1    3    3    0    0 -0.23113711907E+03 -0.40573397158E+03 -0.67016408357E+03  0.81680127474E+03  0.00000000000E+00 0. -1.
        -13    1    3    3    0    0 -0.19218754588E+02 -0.24738312919E+02 -0.99463846399E+02  0.10428039794E+03  0.00000000000E+00 0.  1.
          2    1    6    6  502    0 -0.15530060153E+03  0.40396186544E+03  0.40868382124E+03  0.59525282973E+03  0.00000000000E+00 0. -1.
          3    1    5    5  503    0  0.30783996055E+03 -0.23910972884E+02  0.30768934864E+03  0.43590126313E+03  0.00000000000E+00 0. -1.
         -4    1    5    5    0  503  0.14587419433E+03 -0.60473961935E+02  0.12012696039E+03  0.19841085468E+03  0.00000000000E+00 0.  1.
         -1    1    6    6    0  502 -0.48057679696E+02  0.11089535387E+03  0.17859924197E+03  0.21565020130E+03  0.00000000000E+00 0.  1.
<mgrwt>
<rscale>  0 0.23535302E+04</rscale>
<asrwt>0</asrwt>
<pdfrwt beam="1">  1        2 0.20090525E+00 0.23535302E+04</pdfrwt>
<pdfrwt beam="2">  1       -2 0.16314041E+00 0.23535302E+04</pdfrwt>
<totfact> 0.35364603E+00</totfact>
</mgrwt>
</event>
<event>
12    1  0.1562393E-007  0.1416419E+04  0.7818608E-02  0.8942019E-01
          2   -1    0    0  501    0  0.00000000000E+00  0.00000000000E+00  0.34268603619E+04  0.34268603619E+04  0.00000000000E+00 0.  1.
         -2   -1    0    0    0  501 -0.00000000000E+00 -0.00000000000E+00 -0.14636149033E+03  0.14636149033E+03  0.00000000000E+00 0. -1.
         23    2    1    2    0    0  0.13336970558E+03 -0.38194814919E+03  0.12248160788E+04  0.12930837380E+04  0.90660131791E+02 0.  0.
        254    2    1    2    0    0 -0.13336970558E+03  0.38194814919E+03  0.20556827927E+04  0.22801381142E+04  0.89973674403E+03 0.  0.
        -24    2    4    4    0    0 -0.19548592680E+03  0.62347882797E+03  0.17878578199E+04  0.19051651347E+04  0.79233892130E+02 0.  0.
         24    2    4    4    0    0  0.62116221223E+02 -0.24153067879E+03  0.26782497277E+03  0.37497297950E+03  0.81725305628E+02 0.  0.
         11    1    3    3    0    0  0.61457883771E+01 -0.35540320377E+02  0.21383745555E+03  0.21685788545E+03  0.00000000000E+00 0. -1.
        -11    1    3    3    0    0  0.12722391720E+03 -0.34640782881E+03  0.10109786233E+04  0.10762258526E+04  0.00000000000E+00 0.  1.
          2    1    6    6  502    0  0.71418273149E+01 -0.11487419740E+03  0.17180560293E+03  0.20679519367E+03  0.00000000000E+00 0. -1.
          3    1    5    5  503    0 -0.27450650412E+02  0.14325889318E+03  0.48623384100E+03  0.50764160273E+03  0.00000000000E+00 0. -1.
         -4    1    5    5    0  503 -0.16803527639E+03  0.48021993479E+03  0.13016239789E+04  0.13975235320E+04  0.00000000000E+00 0.  1.
         -1    1    6    6    0  502  0.54974393908E+02 -0.12665648138E+03  0.96019369842E+02  0.16817778583E+03  0.00000000000E+00 0.  1.
<mgrwt>
<rscale>  0 0.14164186E+04</rscale>
<asrwt>0</asrwt>
<pdfrwt beam="1">  1        2 0.52720923E+00 0.14164186E+04</pdfrwt>
<pdfrwt beam="2">  1       -2 0.22517155E-01 0.14164186E+04</pdfrwt>
<totfact> 0.15626484E+01</totfact>
</mgrwt>
</event>
<event>
12    1  0.1562393E-007  0.1772866E+04  0.7818608E-02  0.8720863E-01
         -2   -1    0    0    0  501 -0.00000000000E+00  0.00000000000E+00  0.51133827393E+03  0.51133827393E+03  0.00000000000E+00 0.  1.
          2   -1    0    0  501    0  0.00000000000E+00 -0.00000000000E+00 -0.15366805766E+04  0.15366805766E+04  0.00000000000E+00 0. -1.
         23    2    1    2    0    0  0.25778212287E+03 -0.59050708868E+03 -0.50136541095E+03  0.82107431679E+03  0.87438628431E+02 0.  0.
        254    2    1    2    0    0 -0.25778212287E+03  0.59050708868E+03 -0.52397689174E+03  0.12269445338E+04  0.90315605583E+03 0.  0.
        -24    2    4    4    0    0 -0.44347066732E+03  0.60688921535E+03 -0.10632285076E+03  0.76327238278E+03  0.79368943762E+02 0.  0.
         24    2    4    4    0    0  0.18568854445E+03 -0.16382126667E+02 -0.41765404098E+03  0.46367215098E+03  0.76212571383E+02 0.  0.
         11    1    3    3    0    0  0.83470182589E+02 -0.21454054289E+03 -0.12866565329E+03  0.26372289673E+03  0.00000000000E+00 0.  1.
        -11    1    3    3    0    0  0.17431194028E+03 -0.37596654579E+03 -0.37269975767E+03  0.55735142006E+03  0.00000000000E+00 0. -1.
          4    1    6    6  502    0  0.18628343592E+03 -0.45875737839E+01 -0.36623525845E+03  0.41091462479E+03  0.00000000000E+00 0. -1.
          1    1    5    5  503    0 -0.15212553834E+03  0.16837194690E+03 -0.60265483877E+02  0.23478334793E+03  0.00000000000E+00 0. -1.
         -2    1    5    5    0  503 -0.29134512898E+03  0.43851726845E+03 -0.46057366883E+02  0.52848903485E+03  0.00000000000E+00 0.  1.
         -3    1    6    6    0  502 -0.59489147121E+00 -0.11794552883E+02 -0.51418782525E+02  0.52757526192E+02  0.00000000000E+00 0.  1.
<mgrwt>
<rscale>  0 0.17728661E+04</rscale>
<asrwt>0</asrwt>
<pdfrwt beam="1">  1        2 0.23641239E+00 0.17728661E+04</pdfrwt>
<pdfrwt beam="2">  1       -2 0.78667428E-01 0.17728661E+04</pdfrwt>
<totfact> 0.16436885E+01</totfact>
</mgrwt>
</event>
<event>
12    1  0.1562393E-007  0.2214115E+04  0.7818608E-02  0.8512576E-01
          1   -1    0    0  501    0  0.00000000000E+00  0.00000000000E+00  0.12055855020E+04  0.12055855020E+04  0.00000000000E+00 0. -1.
         -1   -1    0    0    0  501 -0.00000000000E+00 -0.00000000000E+00 -0.10165821466E+04  0.10165821466E+04  0.00000000000E+00 0.  1.
         23    2    1    2    0    0 -0.64168320085E+03 -0.66594042853E+03  0.18294997452E+03  0.94706573393E+03  0.90712880009E+02 0.  0.
        254    2    1    2    0    0  0.64168320085E+03  0.66594042853E+03  0.60533809021E+01  0.12751019146E+04  0.87784637873E+03 0.  0.
        -24    2    4    4    0    0 -0.14647432361E+03  0.20005734415E+03  0.20931588374E+03  0.33399676733E+03  0.79139326339E+02 0.  0.
         24    2    4    4    0    0  0.78815752447E+03  0.46588308438E+03 -0.20326250284E+03  0.94110514729E+03  0.78255488753E+02 0.  0.
         11    1    3    3    0    0 -0.22406336748E+01 -0.20609437219E+02  0.33033743210E+01  0.20992418242E+02  0.00000000000E+00 0.  1.
        -11    1    3    3    0    0 -0.63944256718E+03 -0.64533099131E+03  0.17964660020E+03  0.92607331569E+03  0.00000000000E+00 0. -1.
          4    1    6    6  502    0  0.62412108033E+03  0.39665142149E+03 -0.14348908156E+03  0.75329183562E+03  0.00000000000E+00 0. -1.
          3    1    5    5  503    0 -0.13307931695E+03  0.12601539584E+03  0.16540013486E+03  0.24687484522E+03  0.00000000000E+00 0. -1.
         -4    1    5    5    0  503 -0.13395006668E+02  0.74041948312E+02  0.43915748879E+02  0.87121922116E+02  0.00000000000E+00 0.  1.
         -3    1    6    6    0  502  0.16403644413E+03  0.69231662887E+02 -0.59773421279E+02  0.18781331167E+03  0.00000000000E+00 0.  1.
<mgrwt>
<rscale>  0 0.22141154E+04</rscale>
<asrwt>0</asrwt>
<pdfrwt beam="1">  1        1 0.18547469E+00 0.22141154E+04</pdfrwt>
<pdfrwt beam="2">  1       -1 0.15639725E+00 0.22141154E+04</pdfrwt>
<totfact> 0.30012220E+00</totfact>
</mgrwt>
</event>
<event>
12    1  0.1562393E-007  0.4012424E+04  0.7818608E-02  0.8002045E-01
          2   -1    0    0  501    0  0.00000000000E+00  0.00000000000E+00  0.27432130839E+04  0.27432130839E+04  0.00000000000E+00 0. -1.
         -2   -1    0    0    0  501 -0.00000000000E+00 -0.00000000000E+00 -0.14672164398E+04  0.14672164398E+04  0.00000000000E+00 0.  1.
         23    2    1    2    0    0 -0.65961289142E+03 -0.14821520751E+04  0.16523340822E+04  0.23174227048E+04  0.91521218545E+02 0.  0.
        254    2    1    2    0    0  0.65961289142E+03  0.14821520751E+04 -0.37633743805E+03  0.18930068188E+04  0.89998944927E+03 0.  0.
        -24    2    4    4    0    0  0.45506320378E+03  0.49352724156E+03  0.22748890962E+03  0.71377977754E+03  0.84135065337E+02 0.  0.
         24    2    4    4    0    0  0.20454968763E+03  0.98862483350E+03 -0.60382634767E+03  0.11792270413E+04  0.82161552373E+02 0.  0.
         13    1    3    3    0    0 -0.56089355497E+03 -0.12333715990E+04  0.13322946055E+04  0.19002147239E+04  0.00000000000E+00 0. -1.
        -13    1    3    3    0    0 -0.98719336449E+02 -0.24878047606E+03  0.32003947670E+03  0.41720798088E+03  0.00000000000E+00 0.  1.
          4    1    6    6  502    0 -0.62696036740E+01  0.15494546711E+02 -0.14916244742E+02  0.22402751287E+02  0.00000000000E+00 0. -1.
          1    1    5    5  503    0  0.28026699371E+02  0.50916793701E+02  0.28029373349E+00  0.58121375784E+02  0.00000000000E+00 0. -1.
         -2    1    5    5    0  503  0.42703650441E+03  0.44261044786E+03  0.22720861589E+03  0.65565840176E+03  0.00000000000E+00 0.  1.
         -3    1    6    6    0  502  0.21081929131E+03  0.97313028679E+03 -0.58891010293E+03  0.11568242900E+04  0.00000000000E+00 0.  1.
<mgrwt>
<rscale>  0 0.40124244E+04</rscale>
<asrwt>0</asrwt>
<pdfrwt beam="1">  1        2 0.42203278E+00 0.40124244E+04</pdfrwt>
<pdfrwt beam="2">  1       -2 0.22572561E+00 0.40124244E+04</pdfrwt>
<totfact> 0.17929049E-01</totfact>
</mgrwt>
</event>
<event>
12    1  0.1562393E-007  0.2869132E+04  0.7818608E-02  0.8282121E-01
          2   -1    0    0  501    0  0.00000000000E+00  0.00000000000E+00  0.16664653065E+04  0.16664653065E+04  0.00000000000E+00 0. -1.
         -2   -1    0    0    0  501 -0.00000000000E+00 -0.00000000000E+00 -0.12349371050E+04  0.12349371050E+04  0.00000000000E+00 0.  1.
         23    2    1    2    0    0  0.82464225509E+03 -0.69688409468E+03  0.91118067801E+03  0.14163992673E+04  0.10126384403E+03 0.  0.
        254    2    1    2    0    0 -0.82464225509E+03  0.69688409468E+03 -0.47965247653E+03  0.14850031442E+04  0.89971414893E+03 0.  0.
        -24    2    4    4    0    0 -0.80359273438E+03  0.35609517401E+03  0.10104953268E+02  0.88265753984E+03  0.80107220947E+02 0.  0.
         24    2    4    4    0    0 -0.21049520712E+02  0.34078892067E+03 -0.48975742980E+03  0.60234560438E+03  0.79860605417E+02 0.  0.
         13    1    3    3    0    0  0.71794695873E+03 -0.60000859227E+03  0.83142014465E+03  0.12516859044E+04  0.00000000000E+00 0. -1.
        -13    1    3    3    0    0  0.10669529636E+03 -0.96875502411E+02  0.79760533354E+02  0.16471336289E+03  0.00000000000E+00 0.  1.
          4    1    6    6  502    0  0.21121563191E+02  0.18265282545E+03 -0.29889139641E+03  0.35091913872E+03  0.00000000000E+00 0. -1.
          1    1    5    5  503    0 -0.30416894946E+03  0.10604270959E+03  0.31956061207E+02  0.32370510642E+03  0.00000000000E+00 0. -1.
         -2    1    5    5    0  503 -0.49942378492E+03  0.25005246442E+03 -0.21851107939E+02  0.55895243342E+03  0.00000000000E+00 0.  1.
         -3    1    6    6    0  502 -0.42171083903E+02  0.15813609522E+03 -0.19086603339E+03  0.25142646566E+03  0.00000000000E+00 0.  1.
<mgrwt>
<rscale>  0 0.28691322E+04</rscale>
<asrwt>0</asrwt>
<pdfrwt beam="1">  1        2 0.25637928E+00 0.28691322E+04</pdfrwt>
<pdfrwt beam="2">  1       -2 0.18999033E+00 0.28691322E+04</pdfrwt>
<totfact> 0.13734507E+00</totfact>
</mgrwt>
</event>
<event>
12    1  0.1562393E-007  0.1978582E+04  0.7818608E-02  0.8616700E-01
          2   -1    0    0  501    0  0.00000000000E+00  0.00000000000E+00  0.36599042568E+04  0.36599042568E+04  0.00000000000E+00 0. -1.
         -2   -1    0    0    0  501 -0.00000000000E+00 -0.00000000000E+00 -0.26741055193E+03  0.26741055193E+03  0.00000000000E+00 0.  1.
         23    2    1    2    0    0 -0.67476155925E+03 -0.14679006261E+03  0.20547224492E+04  0.21695277991E+04  0.90089086908E+02 0.  0.
        254    2    1    2    0    0  0.67476155925E+03  0.14679006261E+03  0.13377712557E+04  0.17577870096E+04  0.90737685355E+03 0.  0.
        -24    2    4    4    0    0  0.78099650376E+03 -0.99640345502E+01  0.13390701939E+04  0.15522598745E+04  0.79667515186E+02 0.  0.
         24    2    4    4    0    0 -0.10623494451E+03  0.15675409716E+03 -0.12989381727E+01  0.20552713515E+03  0.79887456026E+02 0.  0.
         11    1    3    3    0    0 -0.71189161811E+02 -0.24900252282E+02  0.31982938180E+03  0.32860120631E+03  0.00000000000E+00 0. -1.
        -11    1    3    3    0    0 -0.60357239744E+03 -0.12188981033E+03  0.17348930674E+04  0.18409265928E+04  0.00000000000E+00 0.  1.
          4    1    6    6  502    0 -0.64474690166E+01 -0.15621267595E+01  0.16263362634E+02  0.17564369072E+02  0.00000000000E+00 0. -1.
          1    1    5    5  503    0  0.22419300530E+03  0.29671554446E+02  0.41740328574E+03  0.47472982602E+03  0.00000000000E+00 0. -1.
         -2    1    5    5    0  503  0.55680349845E+03 -0.39635588996E+02  0.92166690811E+03  0.10775300485E+04  0.00000000000E+00 0.  1.
         -3    1    6    6    0  502 -0.99787475489E+02  0.15831622392E+03 -0.17562300806E+02  0.18796276608E+03  0.00000000000E+00 0.  1.
<mgrwt>
<rscale>  0 0.19785823E+04</rscale>
<asrwt>0</asrwt>
<pdfrwt beam="1">  1        2 0.56306216E+00 0.19785823E+04</pdfrwt>
<pdfrwt beam="2">  1       -2 0.41140088E-01 0.19785823E+04</pdfrwt>
<totfact> 0.32775358E+00</totfact>
</mgrwt>
</event>
<event>
12    1  0.1562393E-007  0.1206596E+04  0.7818608E-02  0.9107103E-01
          3   -1    0    0  501    0  0.00000000000E+00  0.00000000000E+00  0.20082570789E+04  0.20082570789E+04  0.00000000000E+00 0. -1.
         -3   -1    0    0    0  501 -0.00000000000E+00 -0.00000000000E+00 -0.18123591977E+03  0.18123591977E+03  0.00000000000E+00 0.  1.
         23    2    1    2    0    0  0.22399256420E+03  0.91368308226E+02  0.26301809320E+03  0.36708691348E+03  0.83984808933E+02 0.  0.
        254    2    1    2    0    0 -0.22399256420E+03 -0.91368308226E+02  0.15640030659E+04  0.18224060852E+04  0.90362465247E+03 0.  0.
        -24    2    4    4    0    0 -0.54852117838E+03  0.75463567147E+02  0.87578918577E+03  0.10395350698E+04  0.84001370532E+02 0.  0.
         24    2    4    4    0    0  0.32452861418E+03 -0.16683187537E+03  0.68821388016E+03  0.78287101544E+03  0.78083198630E+02 0.  0.
         11    1    3    3    0    0  0.98296127324E+02  0.27046454534E+02  0.16927030817E+03  0.19760080106E+03  0.00000000000E+00 0. -1.
        -11    1    3    3    0    0  0.12569643687E+03  0.64321853692E+02  0.93747785024E+02  0.16948611242E+03  0.00000000000E+00 0.  1.
          4    1    6    6  502    0  0.20906688841E+03 -0.66016788340E+02  0.42733098115E+03  0.48029048254E+03  0.00000000000E+00 0. -1.
          3    1    5    5  503    0 -0.46608717228E+03  0.65089852743E+02  0.68123091398E+03  0.82797916595E+03  0.00000000000E+00 0. -1.
         -4    1    5    5    0  503 -0.82434006095E+02  0.10373714404E+02  0.19455827180E+03  0.21155590381E+03  0.00000000000E+00 0.  1.
         -3    1    6    6    0  502  0.11546172577E+03 -0.10081508703E+03  0.26088289902E+03  0.30258053290E+03  0.00000000000E+00 0.  1.
<mgrwt>
<rscale>  0 0.12065957E+04</rscale>
<asrwt>0</asrwt>
<pdfrwt beam="1">  1        3 0.30896261E+00 0.12065957E+04</pdfrwt>
<pdfrwt beam="2">  1       -3 0.27882450E-01 0.12065957E+04</pdfrwt>
<totfact> 0.11236719E+00</totfact>
</mgrwt>
</event>
<event>
12    1  0.1562393E-007  0.1215398E+04  0.7818608E-02  0.9099485E-01
         -2   -1    0    0    0  501 -0.00000000000E+00  0.00000000000E+00  0.22189009819E+04  0.22189009819E+04  0.00000000000E+00 0.  1.
          2   -1    0    0  501    0  0.00000000000E+00 -0.00000000000E+00 -0.16643280807E+03  0.16643280807E+03  0.00000000000E+00 0. -1.
         23    2    1    2    0    0 -0.18035146518E+03 -0.15082557953E+03  0.32287571111E+03  0.40976778128E+03  0.91574577861E+02 0.  0.
        254    2    1    2    0    0  0.18035146518E+03  0.15082557953E+03  0.17295924628E+04  0.19755660087E+04  0.92525453860E+03 0.  0.
        -24    2    4    4    0    0  0.15572171076E+03  0.11903798572E+03  0.18291849551E+04  0.18413445905E+04  0.78822635424E+02 0.  0.
         24    2    4    4    0    0  0.24629754425E+02  0.31787593809E+02 -0.99592492322E+02  0.13422141822E+03  0.80496264882E+02 0.  0.
         11    1    3    3    0    0 -0.10916324599E+03 -0.10976309976E+03  0.27242163683E+03  0.31333384841E+03  0.00000000000E+00 0.  1.
        -11    1    3    3    0    0 -0.71188219192E+02 -0.41062479766E+02  0.50454074279E+02  0.96433932864E+02  0.00000000000E+00 0. -1.
          4    1    6    6  502    0  0.38260854141E+01  0.27509530119E+02  0.43661108848E+01  0.28115406830E+02  0.00000000000E+00 0. -1.
          3    1    5    5  503    0  0.72512882682E+02  0.10353763007E+03  0.11362556864E+04  0.11432651240E+04  0.00000000000E+00 0. -1.
         -4    1    5    5    0  503  0.83208828077E+02  0.15500355654E+02  0.69292926870E+03  0.69807946647E+03  0.00000000000E+00 0.  1.
         -3    1    6    6    0  502  0.20803669011E+02  0.42780636901E+01 -0.10395860321E+03  0.10610601139E+03  0.00000000000E+00 0.  1.
<mgrwt>
<rscale>  0 0.12153977E+04</rscale>
<asrwt>0</asrwt>
<pdfrwt beam="1">  1        2 0.25605049E-01 0.12153977E+04</pdfrwt>
<pdfrwt beam="2">  1       -2 0.34136936E+00 0.12153977E+04</pdfrwt>
<totfact> 0.37572647E+00</totfact>
</mgrwt>
</event>
<event>
12    1  0.1562393E-007  0.3778017E+04  0.7818608E-02  0.8050889E-01
          2   -1    0    0  501    0  0.00000000000E+00  0.00000000000E+00  0.28908169355E+04  0.28908169355E+04  0.00000000000E+00 0. -1.
         -2   -1    0    0    0  501 -0.00000000000E+00 -0.00000000000E+00 -0.12343751248E+04  0.12343751248E+04  0.00000000000E+00 0.  1.
         23    2    1    2    0    0  0.30274843554E+03  0.14082702480E+04 -0.36167833692E+03  0.14880616407E+04  0.92922120974E+02 0.  0.
        254    2    1    2    0    0 -0.30274843554E+03 -0.14082702480E+04  0.20181201476E+04  0.26371304195E+04  0.89820165490E+03 0.  0.
        -24    2    4    4    0    0  0.33030767241E+02 -0.36415577162E+03  0.43637685194E+02  0.37707734131E+03  0.81133323405E+02 0.  0.
         24    2    4    4    0    0 -0.33577920278E+03 -0.10441144764E+04  0.19744824624E+04  0.22600530782E+04  0.79600309478E+02 0.  0.
         11    1    3    3    0    0  0.63854844733E+02  0.50839428298E+03 -0.13010361663E+03  0.52864840795E+03  0.00000000000E+00 0. -1.
        -11    1    3    3    0    0  0.23889359081E+03  0.89987596502E+03 -0.23157472030E+03  0.95941323278E+03  0.00000000000E+00 0.  1.
          4    1    6    6  502    0 -0.33874092935E+03 -0.10073799129E+04  0.19075577578E+04  0.21836520569E+04  0.00000000000E+00 0. -1.
          1    1    5    5  503    0  0.18264524325E+01 -0.31397580420E+03  0.24374301911E+02  0.31492578197E+03  0.00000000000E+00 0. -1.
         -2    1    5    5    0  503  0.31204314808E+02 -0.50179967421E+02  0.19263383283E+02  0.62151559341E+02  0.00000000000E+00 0.  1.
         -3    1    6    6    0  502  0.29617265714E+01 -0.36734563493E+02  0.66924704605E+02  0.76401021366E+02  0.00000000000E+00 0.  1.
<mgrwt>
<rscale>  0 0.37780167E+04</rscale>
<asrwt>0</asrwt>
<pdfrwt beam="1">  1        2 0.44474106E+00 0.37780167E+04</pdfrwt>
<pdfrwt beam="2">  1       -2 0.18990387E+00 0.37780167E+04</pdfrwt>
<totfact> 0.25367390E-01</totfact>
</mgrwt>
</event>
<event>
12    1  0.1562393E-007  0.1532707E+04  0.7818608E-02  0.8862990E-01
          1   -1    0    0  501    0  0.00000000000E+00  0.00000000000E+00  0.17659051408E+04  0.17659051408E+04  0.00000000000E+00 0. -1.
         -1   -1    0    0    0  501 -0.00000000000E+00 -0.00000000000E+00 -0.33257606979E+03  0.33257606979E+03  0.00000000000E+00 0.  1.
         23    2    1    2    0    0 -0.34912163225E+03  0.34854578676E+03  0.42338011338E+03  0.65602378541E+03  0.88013675354E+02 0.  0.
        254    2    1    2    0    0  0.34912163225E+03 -0.34854578676E+03  0.10099489576E+04  0.14424574252E+04  0.90405555518E+03 0.  0.
        -24    2    4    4    0    0 -0.41796590879E+02 -0.56729697892E+03  0.58240390903E+03  0.81796960987E+03  0.79417580644E+02 0.  0.
         24    2    4    4    0    0  0.39091822313E+03  0.21875119216E+03  0.42754504857E+03  0.62448781528E+03  0.80753462042E+02 0.  0.
         11    1    3    3    0    0 -0.39535456597E+00  0.23416696120E+02  0.12080340906E+02  0.26352089079E+02  0.00000000000E+00 0. -1.
        -11    1    3    3    0    0 -0.34872627768E+03  0.32512909064E+03  0.41129977247E+03  0.62967169633E+03  0.00000000000E+00 0.  1.
          2    1    6    6  502    0  0.38632810318E+02  0.30072439573E+02  0.85227657006E+02  0.98288347090E+02  0.00000000000E+00 0. -1.
          1    1    5    5  503    0 -0.17769329648E+02 -0.38625888292E+02  0.66275139029E+02  0.78740728824E+02  0.00000000000E+00 0. -1.
         -2    1    5    5    0  503 -0.24027261231E+02 -0.52867109063E+03  0.51612877000E+03  0.73922888104E+03  0.00000000000E+00 0.  1.
         -1    1    6    6    0  502  0.35228541281E+03  0.18867875259E+03  0.34231739157E+03  0.52619946819E+03  0.00000000000E+00 0.  1.
<mgrwt>
<rscale>  0 0.15327071E+04</rscale>
<asrwt>0</asrwt>
<pdfrwt beam="1">  1        1 0.27167771E+00 0.15327071E+04</pdfrwt>
<pdfrwt beam="2">  1       -1 0.51165550E-01 0.15327071E+04</pdfrwt>
<totfact> 0.15927445E+01</totfact>
</mgrwt>
</event>
<event>
12    1  0.1562393E-007  0.1460735E+04  0.7818608E-02  0.8910992E-01
         -1   -1    0    0    0  501 -0.00000000000E+00  0.00000000000E+00  0.44917273497E+03  0.44917273497E+03  0.00000000000E+00 0.  1.
          1   -1    0    0  501    0  0.00000000000E+00 -0.00000000000E+00 -0.11875980729E+04  0.11875980729E+04  0.00000000000E+00 0. -1.
         23    2    1    2    0    0 -0.62994440280E+02 -0.16233716415E+03 -0.69388741226E+03  0.72123786417E+03  0.91556875446E+02 0.  0.
        254    2    1    2    0    0  0.62994440280E+02  0.16233716415E+03 -0.44537925633E+02  0.91553294366E+03  0.89771670907E+03 0.  0.
        -24    2    4    4    0    0  0.37762972434E+03 -0.15609729338E+03 -0.15940942343E+03  0.44602797949E+03  0.80987780000E+02 0.  0.
         24    2    4    4    0    0 -0.31463528406E+03  0.31843445753E+03  0.11487149780E+03  0.46950496417E+03  0.82725961207E+02 0.  0.
         13    1    3    3    0    0  0.24051471174E+02 -0.35737168041E+02 -0.14778628236E+03  0.15393636250E+03  0.00000000000E+00 0.  1.
        -13    1    3    3    0    0 -0.87045911454E+02 -0.12659999611E+03 -0.54610112990E+03  0.56730150167E+03  0.00000000000E+00 0. -1.
          4    1    6    6  502    0 -0.49145815548E+01  0.83994053903E+01  0.18345522643E+02  0.20766832301E+02  0.00000000000E+00 0. -1.
          3    1    5    5  503    0  0.14233374250E+03 -0.28844926093E+02 -0.85403538582E+02  0.16847756057E+03  0.00000000000E+00 0. -1.
         -4    1    5    5    0  503  0.23529598184E+03 -0.12725236729E+03 -0.74005884848E+02  0.27755041892E+03  0.00000000000E+00 0.  1.
         -3    1    6    6    0  502 -0.30972070250E+03  0.31003505214E+03  0.96525975155E+02  0.44873813187E+03  0.00000000000E+00 0.  1.
<mgrwt>
<rscale>  0 0.14607350E+04</rscale>
<asrwt>0</asrwt>
<pdfrwt beam="1">  1        1 0.18270740E+00 0.14607350E+04</pdfrwt>
<pdfrwt beam="2">  1       -1 0.69103498E-01 0.14607350E+04</pdfrwt>
<totfact> 0.22434670E+01</totfact>
</mgrwt>
</event>
<event>
12    1  0.1562393E-007  0.1848747E+04  0.7818608E-02  0.8680797E-01
         -1   -1    0    0    0  501 -0.00000000000E+00  0.00000000000E+00  0.73693201483E+03  0.73693201483E+03  0.00000000000E+00 0.  1.
          1   -1    0    0  501    0  0.00000000000E+00 -0.00000000000E+00 -0.11594917109E+04  0.11594917109E+04  0.00000000000E+00 0. -1.
         23    2    1    2    0    0  0.31356647948E+03  0.27500238169E+03  0.42259865149E+03  0.59822708053E+03  0.73046373264E+02 0.  0.
        254    2    1    2    0    0 -0.31356647948E+03 -0.27500238169E+03 -0.84515834759E+03  0.12981966452E+04  0.89278869294E+03 0.  0.
        -24    2    4    4    0    0 -0.46733119014E+03 -0.39957846492E+02 -0.88289665514E+03  0.10032790746E+04  0.84067396018E+02 0.  0.
         24    2    4    4    0    0  0.15376471066E+03 -0.23504453520E+03  0.37738307543E+02  0.29491757066E+03  0.81625203581E+02 0.  0.
         13    1    3    3    0    0  0.11117522295E+03  0.91076494773E+02  0.19613715785E+03  0.24315559378E+03  0.00000000000E+00 0.  1.
        -13    1    3    3    0    0  0.20239125653E+03  0.18392588692E+03  0.22646149364E+03  0.35507148674E+03  0.00000000000E+00 0. -1.
          4    1    6    6  502    0  0.50348451033E+02 -0.10950512009E+03  0.52776084231E+02  0.13157375465E+03  0.00000000000E+00 0. -1.
          3    1    5    5  503    0 -0.31926106801E+03  0.53626466287E+01 -0.63979072021E+03  0.71504444141E+03  0.00000000000E+00 0. -1.
         -4    1    5    5    0  503 -0.14807012213E+03 -0.45320493121E+02 -0.24310593493E+03  0.28823463317E+03  0.00000000000E+00 0.  1.
         -3    1    6    6    0  502  0.10341625963E+03 -0.12553941511E+03 -0.15037776688E+02  0.16334381601E+03  0.00000000000E+00 0.  1.
<mgrwt>
<rscale>  0 0.18487472E+04</rscale>
<asrwt>0</asrwt>
<pdfrwt beam="1">  1        1 0.17838334E+00 0.18487472E+04</pdfrwt>
<pdfrwt beam="2">  1       -1 0.11337416E+00 0.18487472E+04</pdfrwt>
<totfact> 0.76395936E+00</totfact>
</mgrwt>
</event>
<event>
12    1  0.1562393E-007  0.1091453E+04  0.7818608E-02  0.9213562E-01
         -2   -1    0    0    0  501 -0.00000000000E+00  0.00000000000E+00  0.19964577117E+03  0.19964577117E+03  0.00000000000E+00 0.  1.
          2   -1    0    0  501    0  0.00000000000E+00 -0.00000000000E+00 -0.14917297762E+04  0.14917297762E+04  0.00000000000E+00 0. -1.
         23    2    1    2    0    0 -0.12323957039E+03 -0.35695002523E+02 -0.31553776031E+03  0.35248981672E+03  0.90680029733E+02 0.  0.
        254    2    1    2    0    0  0.12323957039E+03  0.35695002523E+02 -0.97654624476E+03  0.13388857307E+04  0.90692353967E+03 0.  0.
        -24    2    4    4    0    0 -0.15939402066E+02  0.40328765244E+03 -0.80210701192E+03  0.90141253220E+03  0.79207950961E+02 0.  0.
         24    2    4    4    0    0  0.13917897246E+03 -0.36759264992E+03 -0.17443923284E+03  0.43747319850E+03  0.80365482661E+02 0.  0.
         11    1    3    3    0    0 -0.30748689426E+02 -0.39071856770E+02 -0.46877552861E+02  0.68334448524E+02  0.00000000000E+00 0.  1.
        -11    1    3    3    0    0 -0.92490880969E+02  0.33768542466E+01 -0.26866020745E+03  0.28415536819E+03  0.00000000000E+00 0. -1.
          4    1    6    6  502    0  0.77028986182E+02 -0.28889299226E+03 -0.14879688177E+03  0.33396577327E+03  0.00000000000E+00 0. -1.
          1    1    5    5  503    0 -0.22076401507E+02  0.37156870151E+03 -0.77289765814E+03  0.85785864652E+03  0.00000000000E+00 0. -1.
         -2    1    5    5    0  503  0.61369994403E+01  0.31718950928E+02 -0.29209353776E+02  0.43553885683E+02  0.00000000000E+00 0.  1.
         -3    1    6    6    0  502  0.62149986279E+02 -0.78699657653E+02 -0.25642351070E+02  0.10350742523E+03  0.00000000000E+00 0.  1.
<mgrwt>
<rscale>  0 0.10914532E+04</rscale>
<asrwt>0</asrwt>
<pdfrwt beam="1">  1        2 0.22949689E+00 0.10914532E+04</pdfrwt>
<pdfrwt beam="2">  1       -2 0.30714733E-01 0.10914532E+04</pdfrwt>
<totfact> 0.12496928E+02</totfact>
</mgrwt>
</event>
<event>
12    1  0.1562393E-007  0.1363770E+04  0.7818608E-02  0.8980469E-01
          1   -1    0    0  501    0  0.00000000000E+00  0.00000000000E+00  0.78703841930E+03  0.78703841930E+03  0.00000000000E+00 0. -1.
         -1   -1    0    0    0  501 -0.00000000000E+00 -0.00000000000E+00 -0.59078104153E+03  0.59078104153E+03  0.00000000000E+00 0.  1.
         23    2    1    2    0    0  0.49549097558E+02  0.79846538179E+02  0.42072560436E+03  0.44033519640E+03  0.89746689633E+02 0.  0.
        254    2    1    2    0    0 -0.49549097558E+02 -0.79846538179E+02 -0.22446822659E+03  0.93748426443E+03  0.90535085938E+03 0.  0.
        -24    2    4    4    0    0 -0.24380311145E+03 -0.37267578656E+03 -0.33202459259E+03  0.56122724535E+03  0.80053056121E+02 0.  0.
         24    2    4    4    0    0  0.19425401389E+03  0.29282924838E+03  0.10755636601E+03  0.37625701908E+03  0.80730303577E+02 0.  0.
         11    1    3    3    0    0  0.49988341842E+02  0.81643894303E+02  0.42501536346E+03  0.43566342396E+03  0.00000000000E+00 0. -1.
        -11    1    3    3    0    0 -0.43924428435E+00 -0.17973561240E+01 -0.42897591045E+01  0.46717724423E+01  0.00000000000E+00 0.  1.
          4    1    6    6  502    0  0.18489065426E+03  0.27261764462E+03  0.76720835580E+02  0.33821741646E+03  0.00000000000E+00 0. -1.
          3    1    5    5  503    0 -0.17248875265E+03 -0.21297429485E+03 -0.23616618158E+03  0.36178016167E+03  0.00000000000E+00 0. -1.
         -4    1    5    5    0  503 -0.71314358803E+02 -0.15970149171E+03 -0.95858411016E+02  0.19944708368E+03  0.00000000000E+00 0.  1.
         -3    1    6    6    0  502  0.93633596367E+01  0.20211603767E+02  0.30835530425E+02  0.38039602615E+02  0.00000000000E+00 0.  1.
<mgrwt>
<rscale>  0 0.13637703E+04</rscale>
<asrwt>0</asrwt>
<pdfrwt beam="1">  1        1 0.12108283E+00 0.13637703E+04</pdfrwt>
<pdfrwt beam="2">  1       -1 0.90889391E-01 0.13637703E+04</pdfrwt>
<totfact> 0.26240909E+01</totfact>
</mgrwt>
</event>
<event>
12    1  0.1562393E-007  0.1272839E+04  0.7818608E-02  0.9051386E-01
          2   -1    0    0  501    0  0.00000000000E+00  0.00000000000E+00  0.10639351410E+04  0.10639351410E+04  0.00000000000E+00 0. -1.
         -2   -1    0    0    0  501 -0.00000000000E+00 -0.00000000000E+00 -0.38069046869E+03  0.38069046869E+03  0.00000000000E+00 0.  1.
         23    2    1    2    0    0 -0.93622964250E+02  0.11772608293E+03  0.46806534300E+03  0.50000967897E+03  0.91103368212E+02 0.  0.
        254    2    1    2    0    0  0.93622964250E+02 -0.11772608293E+03  0.21517932932E+03  0.94461593075E+03  0.90739871215E+03 0.  0.
        -24    2    4    4    0    0 -0.37600347838E+03 -0.18379943283E+03  0.18034961272E+03  0.46234471453E+03  0.77947450139E+02 0.  0.
         24    2    4    4    0    0  0.46962644263E+03  0.66073349894E+02  0.34829716603E+02  0.48227121622E+03  0.80360025181E+02 0.  0.
         11    1    3    3    0    0 -0.63982195047E+02  0.17813395642E+02  0.24427438173E+03  0.25314227604E+03  0.00000000000E+00 0. -1.
        -11    1    3    3    0    0 -0.29640769203E+02  0.99912687293E+02  0.22379096127E+03  0.24686740293E+03  0.00000000000E+00 0.  1.
          4    1    6    6  502    0  0.12838294045E+03  0.54583589735E+02  0.63624133858E+01  0.13964966155E+03  0.00000000000E+00 0. -1.
          3    1    5    5  503    0 -0.33846187181E+02 -0.20683186707E+02 -0.57413772664E+01  0.40078947241E+02  0.00000000000E+00 0. -1.
         -4    1    5    5    0  503 -0.34215729120E+03 -0.16311624612E+03  0.18609098999E+03  0.42226576729E+03  0.00000000000E+00 0.  1.
         -3    1    6    6    0  502  0.34124350218E+03  0.11489760159E+02  0.28467303217E+02  0.34262155466E+03  0.00000000000E+00 0.  1.
<mgrwt>
<rscale>  0 0.12728393E+04</rscale>
<asrwt>0</asrwt>
<pdfrwt beam="1">  1        2 0.16368233E+00 0.12728393E+04</pdfrwt>
<pdfrwt beam="2">  1       -2 0.58567765E-01 0.12728393E+04</pdfrwt>
<totfact> 0.61403521E+01</totfact>
</mgrwt>
</event>
<event>
12    1  0.1562393E-007  0.1788155E+04  0.7818608E-02  0.8712624E-01
         -1   -1    0    0    0  501 -0.00000000000E+00  0.00000000000E+00  0.48914729034E+03  0.48914729034E+03  0.00000000000E+00 0.  1.
          1   -1    0    0  501    0  0.00000000000E+00 -0.00000000000E+00 -0.16342207293E+04  0.16342207293E+04  0.00000000000E+00 0. -1.
         23    2    1    2    0    0  0.34135469002E+03  0.24347440674E+03  0.18027815777E+03  0.46538711762E+03  0.91006285149E+02 0.  0.
        254    2    1    2    0    0 -0.34135469002E+03 -0.24347440674E+03 -0.13253515967E+04  0.16579809020E+04  0.90362658514E+03 0.  0.
        -24    2    4    4    0    0  0.84155568061E+01 -0.50593168984E+03 -0.93713446350E+03  0.10680538815E+04  0.80500898588E+02 0.  0.
         24    2    4    4    0    0 -0.34977024682E+03  0.26245728310E+03 -0.38821713324E+03  0.58992702055E+03  0.77963427449E+02 0.  0.
         13    1    3    3    0    0  0.30097066809E+02  0.42220019443E+02 -0.29182397290E+01  0.51931489439E+02  0.00000000000E+00 0. -1.
        -13    1    3    3    0    0  0.31125762321E+03  0.20125438730E+03  0.18319639750E+03  0.41345562818E+03  0.00000000000E+00 0.  1.
          2    1    6    6  502    0 -0.10453788152E+02  0.59775956783E+01 -0.35098166572E+02  0.37106530874E+02  0.00000000000E+00 0. -1.
          3    1    5    5  503    0  0.39457932274E+02 -0.15071665886E+03 -0.28453202290E+03  0.32439314379E+03  0.00000000000E+00 0. -1.
         -4    1    5    5    0  503 -0.31042375468E+02 -0.35521503099E+03 -0.65260244060E+03  0.74366073769E+03  0.00000000000E+00 0.  1.
         -1    1    6    6    0  502 -0.33931645867E+03  0.25647968742E+03 -0.35311896667E+03  0.55282048968E+03  0.00000000000E+00 0.  1.
<mgrwt>
<rscale>  0 0.17881551E+04</rscale>
<asrwt>0</asrwt>
<pdfrwt beam="1">  1        1 0.25141857E+00 0.17881551E+04</pdfrwt>
<pdfrwt beam="2">  1       -1 0.75253430E-01 0.17881551E+04</pdfrwt>
<totfact> 0.88639577E+00</totfact>
</mgrwt>
</event>
<event>
12    1  0.1562393E-007  0.3108538E+04  0.7818608E-02  0.8213399E-01
         -1   -1    0    0    0  501 -0.00000000000E+00  0.00000000000E+00  0.16192611119E+04  0.16192611119E+04  0.00000000000E+00 0.  1.
          1   -1    0    0  501    0  0.00000000000E+00 -0.00000000000E+00 -0.14918853484E+04  0.14918853484E+04  0.00000000000E+00 0. -1.
         23    2    1    2    0    0  0.39878677770E+03 -0.33085274551E+03 -0.12670826843E+04  0.13719518089E+04  0.90877962361E+02 0.  0.
        254    2    1    2    0    0 -0.39878677770E+03  0.33085274551E+03  0.13944584478E+04  0.17391946514E+04  0.90099347357E+03 0.  0.
        -24    2    4    4    0    0 -0.11098453360E+03 -0.26703655448E+03  0.76210083676E+03  0.81912588901E+03  0.80891584994E+02 0.  0.
         24    2    4    4    0    0 -0.28780224410E+03  0.59788929999E+03  0.63235761104E+03  0.92006876236E+03  0.79678306141E+02 0.  0.
         13    1    3    3    0    0  0.28187990814E+03 -0.27148119594E+03 -0.10144183922E+04  0.10872915878E+04  0.00000000000E+00 0. -1.
        -13    1    3    3    0    0  0.11690686956E+03 -0.59371549577E+02 -0.25266429204E+03  0.28466022118E+03  0.00000000000E+00 0.  1.
          4    1    6    6  502    0 -0.67027584350E+02  0.20547201741E+03  0.17299208116E+03  0.27683516241E+03  0.00000000000E+00 0. -1.
          3    1    5    5  503    0 -0.81434514382E+02 -0.10716683905E+03  0.40442731674E+03  0.42623674883E+03  0.00000000000E+00 0. -1.
         -4    1    5    5    0  503 -0.29550019218E+02 -0.15986971543E+03  0.35767352002E+03  0.39288914018E+03  0.00000000000E+00 0.  1.
         -3    1    6    6    0  502 -0.22077465975E+03  0.39241728258E+03  0.45936552988E+03  0.64323359995E+03  0.00000000000E+00 0.  1.
<mgrwt>
<rscale>  0 0.31085379E+04</rscale>
<asrwt>0</asrwt>
<pdfrwt beam="1">  1        1 0.22952082E+00 0.31085379E+04</pdfrwt>
<pdfrwt beam="2">  1       -1 0.24911709E+00 0.31085379E+04</pdfrwt>
<totfact> 0.39480382E-01</totfact>
</mgrwt>
</event>
<event>
12    1  0.1562393E-007  0.1808123E+04  0.7818608E-02  0.8701992E-01
          2   -1    0    0  501    0  0.00000000000E+00  0.00000000000E+00  0.81130437992E+03  0.81130437992E+03  0.00000000000E+00 0. -1.
         -2   -1    0    0    0  501 -0.00000000000E+00 -0.00000000000E+00 -0.10074236054E+04  0.10074236054E+04  0.00000000000E+00 0.  1.
         23    2    1    2    0    0  0.24258593587E+03  0.55155201501E+03 -0.39588836758E+03  0.72636535900E+03  0.88439095556E+02 0.  0.
        254    2    1    2    0    0 -0.24258593587E+03 -0.55155201501E+03  0.19976914206E+03  0.10923626264E+04  0.88898303460E+03 0.  0.
        -24    2    4    4    0    0 -0.52474191532E+03 -0.42602534364E+03  0.31883530390E+03  0.75174966327E+03  0.81362977469E+02 0.  0.
         24    2    4    4    0    0  0.28215597945E+03 -0.12552667137E+03 -0.11906616184E+03  0.34061296309E+03  0.80445619918E+02 0.  0.
         11    1    3    3    0    0  0.13973382259E+01  0.30968766220E+01  0.45825151932E+01  0.57046160629E+01  0.00000000000E+00 0. -1.
        -11    1    3    3    0    0  0.24118859764E+03  0.54845513839E+03 -0.40047088278E+03  0.72066074294E+03  0.00000000000E+00 0.  1.
          2    1    6    6  502    0  0.24764613612E+03 -0.11912755497E+03 -0.76134804876E+02  0.28516046640E+03  0.00000000000E+00 0. -1.
          1    1    5    5  503    0 -0.47417841936E+03 -0.38410448228E+03  0.31296934449E+03  0.68580699711E+03  0.00000000000E+00 0. -1.
         -2    1    5    5    0  503 -0.50563495957E+02 -0.41920861365E+02  0.58659594063E+01  0.65942666163E+02  0.00000000000E+00 0.  1.
         -1    1    6    6    0  502  0.34509843332E+02 -0.63991164041E+01 -0.42931356968E+02  0.55452496686E+02  0.00000000000E+00 0.  1.
<mgrwt>
<rscale>  0 0.18081230E+04</rscale>
<asrwt>0</asrwt>
<pdfrwt beam="1">  1        2 0.12481606E+00 0.18081230E+04</pdfrwt>
<pdfrwt beam="2">  1       -2 0.15498825E+00 0.18081230E+04</pdfrwt>
<totfact> 0.87540224E+00</totfact>
</mgrwt>
</event>
<event>
12    1  0.1562393E-007  0.2344333E+04  0.7818608E-02  0.8460644E-01
          3   -1    0    0  501    0  0.00000000000E+00  0.00000000000E+00  0.72185818504E+03  0.72185818504E+03  0.00000000000E+00 0. -1.
         -3   -1    0    0    0  501 -0.00000000000E+00 -0.00000000000E+00 -0.19033852675E+04  0.19033852675E+04  0.00000000000E+00 0.  1.
         23    2    1    2    0    0 -0.99616285444E+03 -0.55852996485E+02 -0.46378265403E+03  0.11037396821E+04  0.87675229183E+02 0.  0.
        254    2    1    2    0    0  0.99616285444E+03  0.55852996485E+02 -0.71774442847E+03  0.15215037705E+04  0.89685933643E+03 0.  0.
        -24    2    4    4    0    0  0.65655200195E+02 -0.15159319059E+03 -0.51073389183E+03  0.54273561744E+03  0.80135768738E+02 0.  0.
         24    2    4    4    0    0  0.93050765424E+03  0.20744618707E+03 -0.20701053664E+03  0.97876815308E+03  0.79090581411E+02 0.  0.
         13    1    3    3    0    0 -0.23255444797E+03 -0.21122733035E+02 -0.69441826549E+02  0.24361836630E+03  0.00000000000E+00 0. -1.
        -13    1    3    3    0    0 -0.76360840646E+03 -0.34730263450E+02 -0.39434082748E+03  0.86012131577E+03  0.00000000000E+00 0.  1.
          2    1    6    6  502    0  0.35849277369E+03  0.11839787918E+03 -0.91087152178E+02  0.38837095138E+03  0.00000000000E+00 0. -1.
          3    1    5    5  503    0  0.57740462102E+02 -0.11368255764E+03 -0.26628437198E+03  0.29523728023E+03  0.00000000000E+00 0. -1.
         -4    1    5    5    0  503  0.79147380927E+01 -0.37910632952E+02 -0.24444951985E+03  0.24749833722E+03  0.00000000000E+00 0.  1.
         -1    1    6    6    0  502  0.57201488055E+03  0.89048307893E+02 -0.11592338446E+03  0.59039720170E+03  0.00000000000E+00 0.  1.
<mgrwt>
<rscale>  0 0.23443329E+04</rscale>
<asrwt>0</asrwt>
<pdfrwt beam="1">  1        3 0.11105511E+00 0.23443329E+04</pdfrwt>
<pdfrwt beam="2">  1       -3 0.29282850E+00 0.23443329E+04</pdfrwt>
<totfact> 0.67040928E-02</totfact>
</mgrwt>
</event>
<event>
12    1  0.1562393E-007  0.1520995E+04  0.7818608E-02  0.8870610E-01
         -2   -1    0    0    0  501 -0.00000000000E+00  0.00000000000E+00  0.19481618498E+03  0.19481618498E+03  0.00000000000E+00 0.  1.
          2   -1    0    0  501    0  0.00000000000E+00 -0.00000000000E+00 -0.29687308026E+04  0.29687308026E+04  0.00000000000E+00 0. -1.
         23    2    1    2    0    0  0.38199953115E+03 -0.70723481926E+02 -0.31555175247E+03  0.50895762365E+03  0.92409423220E+02 0.  0.
        254    2    1    2    0    0 -0.38199953115E+03  0.70723481926E+02 -0.24583628651E+04  0.26545893639E+04  0.92323954725E+03 0.  0.
        -24    2    4    4    0    0 -0.48448612217E+02  0.21321757892E+03 -0.77832053145E+02  0.24527383005E+03  0.79324770560E+02 0.  0.
         24    2    4    4    0    0 -0.33355091893E+03 -0.14249409699E+03 -0.23805308120E+04  0.24093155339E+04  0.79458238523E+02 0.  0.
         11    1    3    3    0    0  0.31075791069E+03 -0.19216121576E+02 -0.24993374410E+03  0.39925757955E+03  0.00000000000E+00 0.  1.
        -11    1    3    3    0    0  0.71241620453E+02 -0.51507360350E+02 -0.65618008365E+02  0.10970004411E+03  0.00000000000E+00 0. -1.
          4    1    6    6  502    0 -0.31906807073E+03 -0.11790375067E+03 -0.21044283366E+04  0.21317420932E+04  0.00000000000E+00 0. -1.
          1    1    5    5  503    0  0.19510016020E+02  0.75203031145E+02 -0.15154357575E+02  0.79156750641E+02  0.00000000000E+00 0. -1.
         -2    1    5    5    0  503 -0.67958628237E+02  0.13801454777E+03 -0.62677695570E+02  0.16611707941E+03  0.00000000000E+00 0.  1.
         -3    1    6    6    0  502 -0.14482848200E+02 -0.24590346324E+02 -0.27610247543E+03  0.27757344067E+03  0.00000000000E+00 0.  1.
<mgrwt>
<rscale>  0 0.15209955E+04</rscale>
<asrwt>0</asrwt>
<pdfrwt beam="1">  1        2 0.45672781E+00 0.15209955E+04</pdfrwt>
<pdfrwt beam="2">  1       -2 0.29971721E-01 0.15209955E+04</pdfrwt>
<totfact> 0.18169810E+01</totfact>
</mgrwt>
</event>
<event>
12    1  0.1562393E-007  0.2277187E+04  0.7818608E-02  0.8486971E-01
         -2   -1    0    0    0  501 -0.00000000000E+00  0.00000000000E+00  0.60906584367E+03  0.60906584367E+03  0.00000000000E+00 0.  1.
          2   -1    0    0  501    0  0.00000000000E+00 -0.00000000000E+00 -0.21284970934E+04  0.21284970934E+04  0.00000000000E+00 0. -1.
         23    2    1    2    0    0 -0.41115961937E+03  0.58268823963E+03 -0.14086314026E+04  0.15815526831E+04  0.92133835858E+02 0.  0.
        254    2    1    2    0    0  0.41115961937E+03 -0.58268823963E+03 -0.11079984706E+03  0.11560102539E+04  0.90305331177E+03 0.  0.
        -24    2    4    4    0    0  0.10233408599E+03 -0.74927680763E+03 -0.19748072987E+03  0.78567817892E+03  0.80022262893E+02 0.  0.
         24    2    4    4    0    0  0.30882553338E+03  0.16658856799E+03  0.86680882810E+02  0.37033207502E+03  0.80667895047E+02 0.  0.
         13    1    3    3    0    0 -0.26501838276E+03  0.39404991553E+03 -0.84114935909E+03  0.96594115940E+03  0.00000000000E+00 0. -1.
        -13    1    3    3    0    0 -0.14614123662E+03  0.18863832410E+03 -0.56748204353E+03  0.61561152368E+03  0.00000000000E+00 0.  1.
          2    1    6    6  502    0  0.27327435486E+03  0.15561474817E+03  0.10125278693E+03  0.33037395438E+03  0.00000000000E+00 0. -1.
          3    1    5    5  503    0  0.55592125513E+02 -0.62498800932E+03 -0.16999320130E+03  0.65007552231E+03  0.00000000000E+00 0. -1.
         -4    1    5    5    0  503  0.46741960481E+02 -0.12428879831E+03 -0.27487528571E+02  0.13560265662E+03  0.00000000000E+00 0.  1.
         -1    1    6    6    0  502  0.35551178523E+02  0.10973819826E+02 -0.14571904116E+02  0.39958120645E+02  0.00000000000E+00 0.  1.
<mgrwt>
<rscale>  0 0.22771868E+04</rscale>
<asrwt>0</asrwt>
<pdfrwt beam="1">  1        2 0.32746109E+00 0.22771868E+04</pdfrwt>
<pdfrwt beam="2">  1       -2 0.93702438E-01 0.22771868E+04</pdfrwt>
<totfact> 0.49507297E+00</totfact>
</mgrwt>
</event>
<event>
12    1  0.1562393E-007  0.1042003E+04  0.7818608E-02  0.9263639E-01
          2   -1    0    0  501    0  0.00000000000E+00  0.00000000000E+00  0.71394878135E+03  0.71394878135E+03  0.00000000000E+00 0. -1.
         -2   -1    0    0    0  501 -0.00000000000E+00 -0.00000000000E+00 -0.38019899386E+03  0.38019899386E+03  0.00000000000E+00 0.  1.
         23    2    1    2    0    0  0.34960617605E+02 -0.14204410184E+02  0.14425227930E+03  0.17480589093E+03  0.91237982052E+02 0.  0.
        254    2    1    2    0    0 -0.34960617605E+02  0.14204410184E+02  0.18949750819E+03  0.91934188428E+03  0.89880820230E+03 0.  0.
        -24    2    4    4    0    0 -0.38027713108E+03 -0.18815844250E+03 -0.66896568018E+02  0.43716285196E+03  0.81375133906E+02 0.  0.
         24    2    4    4    0    0  0.34531651347E+03  0.20236285268E+03  0.25639407620E+03  0.48217903232E+03  0.81021467970E+02 0.  0.
         11    1    3    3    0    0  0.17113658742E+02 -0.45351397879E+02  0.34948008642E+02  0.59757760275E+02  0.00000000000E+00 0.  1.
        -11    1    3    3    0    0  0.17846958864E+02  0.31146987695E+02  0.10930427066E+03  0.11504813066E+03  0.00000000000E+00 0. -1.
          4    1    6    6  502    0  0.21438679411E+03  0.12890184186E+03  0.20523351754E+03  0.32357097992E+03  0.00000000000E+00 0. -1.
          1    1    5    5  503    0 -0.34272418178E+03 -0.16204586639E+03 -0.84058334480E+02  0.38830983915E+03  0.00000000000E+00 0. -1.
         -2    1    5    5    0  503 -0.37552949302E+02 -0.26112576111E+02  0.17161766462E+02  0.48853012808E+02  0.00000000000E+00 0.  1.
         -3    1    6    6    0  502  0.13092971936E+03  0.73461010823E+02  0.51160558666E+02  0.15860805240E+03  0.00000000000E+00 0.  1.
<mgrwt>
<rscale>  0 0.10420031E+04</rscale>
<asrwt>0</asrwt>
<pdfrwt beam="1">  1        2 0.10983827E+00 0.10420031E+04</pdfrwt>
<pdfrwt beam="2">  1       -2 0.58492153E-01 0.10420031E+04</pdfrwt>
<totfact> 0.10882715E+02</totfact>
</mgrwt>
</event>
<event>
12    1  0.1562393E-007  0.1131031E+04  0.7818608E-02  0.9175464E-01
          2   -1    0    0  501    0  0.00000000000E+00  0.00000000000E+00  0.71564279938E+03  0.71564279938E+03  0.00000000000E+00 0. -1.
         -2   -1    0    0    0  501 -0.00000000000E+00 -0.00000000000E+00 -0.44688186012E+03  0.44688186012E+03  0.00000000000E+00 0.  1.
         23    2    1    2    0    0  0.10187478398E+03 -0.15593437249E+03  0.25468812298E+01  0.20740020887E+03  0.91183111920E+02 0.  0.
        254    2    1    2    0    0 -0.10187478398E+03  0.15593437249E+03  0.26621405803E+03  0.95512445064E+03  0.89816412274E+03 0.  0.
        -24    2    4    4    0    0  0.12629600227E+03  0.23937692948E+03 -0.25165913758E+03  0.37775219128E+03  0.78181851672E+02 0.  0.
         24    2    4    4    0    0 -0.22817078626E+03 -0.83442556990E+02  0.51787319561E+03  0.57737225936E+03  0.78367793938E+02 0.  0.
         13    1    3    3    0    0  0.40731709619E+02 -0.51801100532E+02 -0.42613576414E+02  0.78475111211E+02  0.00000000000E+00 0.  1.
        -13    1    3    3    0    0  0.61143074365E+02 -0.10413327196E+03  0.45160457644E+02  0.12892509766E+03  0.00000000000E+00 0. -1.
          2    1    6    6  502    0 -0.84301770369E+02 -0.61262904477E+02  0.27668767856E+03  0.29566197493E+03  0.00000000000E+00 0. -1.
          3    1    5    5  503    0 -0.87654215098E+01  0.36775791085E+02 -0.41123056100E+02  0.55860515278E+02  0.00000000000E+00 0. -1.
         -4    1    5    5    0  503  0.13506142378E+03  0.20260113839E+03 -0.21053608148E+03  0.32189167600E+03  0.00000000000E+00 0.  1.
         -1    1    6    6    0  502 -0.14386901589E+03 -0.22179652513E+02  0.24118551705E+03  0.28171028443E+03  0.00000000000E+00 0.  1.
<mgrwt>
<rscale>  0 0.11310310E+04</rscale>
<asrwt>0</asrwt>
<pdfrwt beam="1">  1        2 0.11009889E+00 0.11310310E+04</pdfrwt>
<pdfrwt beam="2">  1       -2 0.68751055E-01 0.11310310E+04</pdfrwt>
<totfact> 0.76369524E+01</totfact>
</mgrwt>
</event>
<event>
12    1  0.1562393E-007  0.2150509E+04  0.7818608E-02  0.8539314E-01
         -2   -1    0    0    0  501 -0.00000000000E+00  0.00000000000E+00  0.11700604363E+04  0.11700604363E+04  0.00000000000E+00 0.  1.
          2   -1    0    0  501    0  0.00000000000E+00 -0.00000000000E+00 -0.98813071178E+03  0.98813071178E+03  0.00000000000E+00 0. -1.
         23    2    1    2    0    0  0.41409415278E+03 -0.57278067851E+03  0.61018595267E+03  0.93841042564E+03  0.93464202046E+02 0.  0.
        254    2    1    2    0    0 -0.41409415278E+03  0.57278067851E+03 -0.42825622819E+03  0.12197807224E+04  0.89716773276E+03 0.  0.
        -24    2    4    4    0    0 -0.66689573179E+02  0.93196538313E+02 -0.58482897207E+03  0.60133342789E+03  0.80273725459E+02 0.  0.
         24    2    4    4    0    0 -0.34740457960E+03  0.47958414020E+03  0.15657274389E+03  0.61844729451E+03  0.85270994466E+02 0.  0.
         11    1    3    3    0    0  0.40744470506E+03 -0.57551438628E+03  0.60747243284E+03  0.93072592806E+03  0.00000000000E+00 0.  1.
        -11    1    3    3    0    0  0.66494477257E+01  0.27337077670E+01  0.27135198261E+01  0.76844975801E+01  0.00000000000E+00 0. -1.
          2    1    6    6  502    0 -0.17189342080E+03  0.29749503214E+03  0.66359160748E+02  0.34993453742E+03  0.00000000000E+00 0. -1.
          1    1    5    5  503    0 -0.56120930999E+02  0.24307380900E+02 -0.16947323623E+03  0.18017098951E+03  0.00000000000E+00 0. -1.
         -2    1    5    5    0  503 -0.10568642181E+02  0.68889157414E+02 -0.41535573584E+03  0.42116243838E+03  0.00000000000E+00 0.  1.
         -1    1    6    6    0  502 -0.17551115881E+03  0.18208910806E+03  0.90213583137E+02  0.26851275709E+03  0.00000000000E+00 0.  1.
<mgrwt>
<rscale>  0 0.21505094E+04</rscale>
<asrwt>0</asrwt>
<pdfrwt beam="1">  1        2 0.15202011E+00 0.21505094E+04</pdfrwt>
<pdfrwt beam="2">  1       -2 0.18000930E+00 0.21505094E+04</pdfrwt>
<totfact> 0.42647273E+00</totfact>
</mgrwt>
</event>
<event>
12    1  0.1562393E-007  0.2111542E+04  0.7818608E-02  0.8556176E-01
          2   -1    0    0  501    0  0.00000000000E+00  0.00000000000E+00  0.73113162312E+03  0.73113162312E+03  0.00000000000E+00 0. -1.
         -2   -1    0    0    0  501 -0.00000000000E+00 -0.00000000000E+00 -0.15245575745E+04  0.15245575745E+04  0.00000000000E+00 0.  1.
         23    2    1    2    0    0 -0.89893973714E+02  0.14455895754E+03  0.57651638330E+03  0.60682288167E+03  0.82973795828E+02 0.  0.
        254    2    1    2    0    0  0.89893973714E+02 -0.14455895754E+03 -0.13699423346E+04  0.16488663159E+04  0.90168725661E+03 0.  0.
        -24    2    4    4    0    0  0.48983534499E+02  0.37465468863E+03 -0.49826384990E+03  0.63033378879E+03  0.79298794493E+02 0.  0.
         24    2    4    4    0    0  0.40910439215E+02 -0.51921364617E+03 -0.87167848475E+03  0.10185325271E+04  0.79552835343E+02 0.  0.
         13    1    3    3    0    0 -0.78783793946E+02  0.14921267398E+03  0.56669134378E+03  0.59127860386E+03  0.00000000000E+00 0. -1.
        -13    1    3    3    0    0 -0.11110179768E+02 -0.46537164458E+01  0.98250395240E+01  0.15544277818E+02  0.00000000000E+00 0.  1.
          2    1    6    6  502    0  0.17963052696E+02 -0.30072296872E+02 -0.38022166660E+02  0.51698157210E+02  0.00000000000E+00 0. -1.
          1    1    5    5  503    0 -0.12352034714E+01 -0.36903219555E+01 -0.90595729444E+01  0.98600236148E+01  0.00000000000E+00 0. -1.
         -2    1    5    5    0  503  0.50218737971E+02  0.37834501058E+03 -0.48920427695E+03  0.62047376517E+03  0.00000000000E+00 0.  1.
         -1    1    6    6    0  502  0.22947386518E+02 -0.48914134929E+03 -0.83365631809E+03  0.96683436990E+03  0.00000000000E+00 0.  1.
<mgrwt>
<rscale>  0 0.21115419E+04</rscale>
<asrwt>0</asrwt>
<pdfrwt beam="1">  1        2 0.11248179E+00 0.21115419E+04</pdfrwt>
<pdfrwt beam="2">  1       -2 0.23454732E+00 0.21115419E+04</pdfrwt>
<totfact> 0.28566057E+00</totfact>
</mgrwt>
</event>
<event>
12    1  0.1562393E-007  0.1604649E+04  0.7818608E-02  0.8817697E-01
          2   -1    0    0  501    0  0.00000000000E+00  0.00000000000E+00  0.51103160986E+03  0.51103160986E+03  0.00000000000E+00 0. -1.
         -2   -1    0    0    0  501 -0.00000000000E+00 -0.00000000000E+00 -0.12596574026E+04  0.12596574026E+04  0.00000000000E+00 0.  1.
         23    2    1    2    0    0  0.19381453383E+03 -0.38615482106E+03 -0.66153777751E+03  0.79514749779E+03  0.89149833475E+02 0.  0.
        254    2    1    2    0    0 -0.19381453383E+03  0.38615482106E+03 -0.87088015205E+02  0.97554151465E+03  0.87029725098E+03 0.  0.
        -24    2    4    4    0    0 -0.14912547979E+03 -0.19636130316E+03 -0.25406263989E+03  0.36276135396E+03  0.79068355499E+02 0.  0.
         24    2    4    4    0    0 -0.44689054039E+02  0.58251612422E+03  0.16697462469E+03  0.61278016069E+03  0.79352715859E+02 0.  0.
         13    1    3    3    0    0  0.18115366733E+03 -0.31639432394E+03 -0.50066870512E+03  0.61934737563E+03  0.00000000000E+00 0.  1.
        -13    1    3    3    0    0  0.12660866494E+02 -0.69760497122E+02 -0.16086907239E+03  0.17580012216E+03  0.00000000000E+00 0. -1.
          4    1    6    6  502    0  0.17505850068E+02  0.27190622182E+03  0.87706212536E+02  0.28623736299E+03  0.00000000000E+00 0. -1.
          1    1    5    5  503    0 -0.21376019672E+02 -0.59921856202E+02 -0.28201325784E+02  0.69590788498E+02  0.00000000000E+00 0. -1.
         -2    1    5    5    0  503 -0.12774946011E+03 -0.13643944696E+03 -0.22586131411E+03  0.29317056547E+03  0.00000000000E+00 0.  1.
         -3    1    6    6    0  502 -0.62194904108E+02  0.31060990240E+03  0.79268412150E+02  0.32654279770E+03  0.00000000000E+00 0.  1.
<mgrwt>
<rscale>  0 0.16046492E+04</rscale>
<asrwt>0</asrwt>
<pdfrwt beam="1">  1        2 0.78620249E-01 0.16046492E+04</pdfrwt>
<pdfrwt beam="2">  1       -2 0.19379344E+00 0.16046492E+04</pdfrwt>
<totfact> 0.84044274E+00</totfact>
</mgrwt>
</event>
<event>
12    1  0.1562393E-007  0.1284361E+04  0.7818608E-02  0.9042060E-01
         -1   -1    0    0    0  501 -0.00000000000E+00  0.00000000000E+00  0.31622999777E+03  0.31622999777E+03  0.00000000000E+00 0.  1.
          1   -1    0    0  501    0  0.00000000000E+00 -0.00000000000E+00 -0.13041003780E+04  0.13041003780E+04  0.00000000000E+00 0. -1.
         23    2    1    2    0    0 -0.17186318490E+03  0.32457248379E+02 -0.49056935772E+03  0.52839647453E+03  0.89185829948E+02 0.  0.
        254    2    1    2    0    0  0.17186318490E+03 -0.32457248379E+02 -0.49730102246E+03  0.10919339012E+04  0.95625358056E+03 0.  0.
        -24    2    4    4    0    0  0.79185559867E+02 -0.40141194158E+03  0.51642299108E+02  0.41917137682E+03  0.75072074400E+02 0.  0.
         24    2    4    4    0    0  0.92677625031E+02  0.36895469320E+03 -0.54894332157E+03  0.67276252437E+03  0.80956383811E+02 0.  0.
         11    1    3    3    0    0 -0.14299146341E+02 -0.11622530770E+02 -0.14369499480E+03  0.14487166851E+03  0.00000000000E+00 0. -1.
        -11    1    3    3    0    0 -0.15756403856E+03  0.44079779149E+02 -0.34687436292E+03  0.38352480602E+03  0.00000000000E+00 0.  1.
          4    1    6    6  502    0  0.59744349930E+02  0.28216230868E+03 -0.35225059930E+03  0.45526414365E+03  0.00000000000E+00 0. -1.
          3    1    5    5  503    0  0.46762758687E+02 -0.27035729413E+03 -0.70395458066E+00  0.27437258909E+03  0.00000000000E+00 0. -1.
         -4    1    5    5    0  503  0.32422801180E+02 -0.13105464745E+03  0.52346253688E+02  0.14479878773E+03  0.00000000000E+00 0.  1.
         -3    1    6    6    0  502  0.32933275101E+02  0.86792384524E+02 -0.19669272227E+03  0.21749838072E+03  0.00000000000E+00 0.  1.
<mgrwt>
<rscale>  0 0.12843608E+04</rscale>
<asrwt>0</asrwt>
<pdfrwt beam="1">  1        1 0.20063082E+00 0.12843608E+04</pdfrwt>
<pdfrwt beam="2">  1       -1 0.48650770E-01 0.12843608E+04</pdfrwt>
<totfact> 0.37360269E+01</totfact>
</mgrwt>
</event>
<event>
12    1  0.1562393E-007  0.1133938E+04  0.7818608E-02  0.9172731E-01
         -2   -1    0    0    0  501 -0.00000000000E+00  0.00000000000E+00  0.10704426304E+03  0.10704426304E+03  0.00000000000E+00 0.  1.
          2   -1    0    0  501    0  0.00000000000E+00 -0.00000000000E+00 -0.30029995343E+04  0.30029995343E+04  0.00000000000E+00 0. -1.
         23    2    1    2    0    0 -0.13266911427E+02 -0.17558785342E+03 -0.42063255132E+03  0.46521626210E+03  0.92126663258E+02 0.  0.
        254    2    1    2    0    0  0.13266911427E+02  0.17558785342E+03 -0.24753227199E+04  0.26448275352E+04  0.91481310553E+03 0.  0.
        -24    2    4    4    0    0 -0.41517441670E+03 -0.70804999138E+02 -0.10534354620E+04  0.11373479032E+04  0.80317097362E+02 0.  0.
         24    2    4    4    0    0  0.42844132812E+03  0.24639285256E+03 -0.14218872579E+04  0.15074796320E+04  0.80374481383E+02 0.  0.
         13    1    3    3    0    0 -0.19712385967E+02 -0.72979138901E+02 -0.28597374490E+03  0.29579640911E+03  0.00000000000E+00 0. -1.
        -13    1    3    3    0    0  0.64454745399E+01 -0.10260871452E+03 -0.13465880643E+03  0.16941985299E+03  0.00000000000E+00 0.  1.
          2    1    6    6  502    0  0.41796599102E+03  0.22288565832E+03 -0.13696632509E+04  0.14492587785E+04  0.00000000000E+00 0. -1.
          3    1    5    5  503    0 -0.26241266028E+03 -0.83648120524E+02 -0.68376458468E+03  0.73715087981E+03  0.00000000000E+00 0. -1.
         -4    1    5    5    0  503 -0.15276175641E+03  0.12843121386E+02 -0.36967087735E+03  0.40019702341E+03  0.00000000000E+00 0.  1.
         -1    1    6    6    0  502  0.10475337105E+02  0.23507194246E+02 -0.52224007002E+02  0.58220853447E+02  0.00000000000E+00 0.  1.
<mgrwt>
<rscale>  0 0.11339380E+04</rscale>
<asrwt>0</asrwt>
<pdfrwt beam="1">  1        2 0.46199993E+00 0.11339380E+04</pdfrwt>
<pdfrwt beam="2">  1       -2 0.16468348E-01 0.11339380E+04</pdfrwt>
<totfact> 0.52340591E+01</totfact>
</mgrwt>
</event>
<event>
12    1  0.1562393E-007  0.1711824E+04  0.7818608E-02  0.8754649E-01
         -2   -1    0    0    0  501 -0.00000000000E+00  0.00000000000E+00  0.78189952675E+03  0.78189952675E+03  0.00000000000E+00 0.  1.
          2   -1    0    0  501    0  0.00000000000E+00 -0.00000000000E+00 -0.93693063692E+03  0.93693063692E+03  0.00000000000E+00 0. -1.
         23    2    1    2    0    0  0.38383634351E+02 -0.26984259017E+03 -0.61612125058E+03  0.67921285736E+03  0.86234467196E+02 0.  0.
        254    2    1    2    0    0 -0.38383634351E+02  0.26984259017E+03  0.46109014041E+03  0.10396173063E+04  0.89101722719E+03 0.  0.
        -24    2    4    4    0    0 -0.15166825657E+03 -0.29527753254E+03  0.10377841264E+03  0.35674627292E+03  0.79409464436E+02 0.  0.
         24    2    4    4    0    0  0.11328462222E+03  0.56512012271E+03  0.35731172777E+03  0.68287103339E+03  0.80293329234E+02 0.  0.
         13    1    3    3    0    0 -0.56507487106E+01 -0.18766541265E+03 -0.34912377284E+03  0.39640591169E+03  0.00000000000E+00 0. -1.
        -13    1    3    3    0    0  0.44034383062E+02 -0.82177177524E+02 -0.26699747774E+03  0.28280694567E+03  0.00000000000E+00 0.  1.
          2    1    6    6  502    0  0.44884207557E+02  0.30105599311E+03  0.14473379213E+03  0.33704179809E+03  0.00000000000E+00 0. -1.
          3    1    5    5  503    0 -0.30105451628E+02 -0.14371443896E+03  0.38733383445E+02  0.15185668631E+03  0.00000000000E+00 0. -1.
         -4    1    5    5    0  503 -0.12156280494E+03 -0.15156309357E+03  0.65045029193E+02  0.20488958661E+03  0.00000000000E+00 0.  1.
         -1    1    6    6    0  502  0.68400414660E+02  0.26406412960E+03  0.21257793565E+03  0.34582923530E+03  0.00000000000E+00 0.  1.
<mgrwt>
<rscale>  0 0.17118243E+04</rscale>
<asrwt>0</asrwt>
<pdfrwt beam="1">  1        2 0.14414317E+00 0.17118243E+04</pdfrwt>
<pdfrwt beam="2">  1       -2 0.12029224E+00 0.17118243E+04</pdfrwt>
<totfact> 0.13897082E+01</totfact>
</mgrwt>
</event>
<event>
12    1  0.1562393E-007  0.1639949E+04  0.7818608E-02  0.8796375E-01
          2   -1    0    0  501    0  0.00000000000E+00  0.00000000000E+00  0.16653620785E+04  0.16653620785E+04  0.00000000000E+00 0. -1.
         -2   -1    0    0    0  501 -0.00000000000E+00 -0.00000000000E+00 -0.40373112550E+03  0.40373112550E+03  0.00000000000E+00 0.  1.
         23    2    1    2    0    0  0.25360702671E+03  0.23771563877E+03 -0.12306375985E+03  0.37958504159E+03  0.90082550453E+02 0.  0.
        254    2    1    2    0    0 -0.25360702671E+03 -0.23771563877E+03  0.13846947128E+04  0.16895081624E+04  0.90345621595E+03 0.  0.
        -24    2    4    4    0    0 -0.59165207576E+02 -0.98710155923E+02  0.14270562371E+04  0.14338082264E+04  0.77925024073E+02 0.  0.
         24    2    4    4    0    0 -0.19444181913E+03 -0.13900548285E+03 -0.42361524304E+02  0.25569993603E+03  0.80360520494E+02 0.  0.
         11    1    3    3    0    0  0.21950936105E+03  0.22471622941E+03 -0.82025443275E+02  0.32466893398E+03  0.00000000000E+00 0. -1.
        -11    1    3    3    0    0  0.34097665658E+02  0.12999409364E+02 -0.41038316578E+02  0.54916107607E+02  0.00000000000E+00 0.  1.
          2    1    6    6  502    0 -0.19851094100E+03 -0.11977442840E+03 -0.43965769121E+02  0.23597774524E+03  0.00000000000E+00 0. -1.
          3    1    5    5  503    0 -0.78242462301E+02 -0.83863507612E+02  0.12000100775E+04  0.12054788082E+04  0.00000000000E+00 0. -1.
         -4    1    5    5    0  503  0.19077254726E+02 -0.14846648311E+02  0.22704615961E+03  0.22832941819E+03  0.00000000000E+00 0.  1.
         -1    1    6    6    0  502  0.40691218670E+01 -0.19231054449E+02  0.16042448179E+01  0.19722190787E+02  0.00000000000E+00 0.  1.
<mgrwt>
<rscale>  0 0.16399494E+04</rscale>
<asrwt>0</asrwt>
<pdfrwt beam="1">  1        2 0.25620955E+00 0.16399494E+04</pdfrwt>
<pdfrwt beam="2">  1       -2 0.62112482E-01 0.16399494E+04</pdfrwt>
<totfact> 0.23582902E+01</totfact>
</mgrwt>
</event>
<event>
12    1  0.1562393E-007  0.1757375E+04  0.7818608E-02  0.8729301E-01
         -2   -1    0    0    0  501 -0.00000000000E+00  0.00000000000E+00  0.39691899110E+03  0.39691899110E+03  0.00000000000E+00 0.  1.
          2   -1    0    0  501    0  0.00000000000E+00 -0.00000000000E+00 -0.19452122092E+04  0.19452122092E+04  0.00000000000E+00 0. -1.
         23    2    1    2    0    0  0.31847330952E+03  0.51936055523E+03 -0.45563574752E+03  0.76616218202E+03  0.90774002532E+02 0.  0.
        254    2    1    2    0    0 -0.31847330952E+03 -0.51936055523E+03 -0.10926574706E+04  0.15759690182E+04  0.95844528446E+03 0.  0.
        -24    2    4    4    0    0 -0.54711552052E+03 -0.84124959595E+00 -0.64505842718E+03  0.84952871186E+03  0.79136321024E+02 0.  0.
         24    2    4    4    0    0  0.22864221100E+03 -0.51851930563E+03 -0.44759904337E+03  0.72644030638E+03  0.78937216501E+02 0.  0.
         13    1    3    3    0    0  0.23222480311E+03  0.40424841867E+03 -0.39102619011E+03  0.60847894337E+03  0.00000000000E+00 0. -1.
        -13    1    3    3    0    0  0.86248506416E+02  0.11511213656E+03 -0.64609557408E+02  0.15768323865E+03  0.00000000000E+00 0.  1.
          2    1    6    6  502    0 -0.22225188952E+01 -0.12869072660E+02 -0.47601049921E+00  0.13068251886E+02  0.00000000000E+00 0. -1.
          1    1    5    5  503    0 -0.29635538685E+01  0.59590386438E+01 -0.16796297129E+01  0.68639601588E+01  0.00000000000E+00 0. -1.
         -2    1    5    5    0  503 -0.54415196665E+03 -0.68002882397E+01 -0.64337879747E+03  0.84266475170E+03  0.00000000000E+00 0.  1.
         -1    1    6    6    0  502  0.23086472989E+03 -0.50565023297E+03 -0.44712303288E+03  0.71337205450E+03  0.00000000000E+00 0.  1.
<mgrwt>
<rscale>  0 0.17573749E+04</rscale>
<asrwt>0</asrwt>
<pdfrwt beam="1">  1        2 0.29926341E+00 0.17573749E+04</pdfrwt>
<pdfrwt beam="2">  1       -2 0.61064461E-01 0.17573749E+04</pdfrwt>
<totfact> 0.16938784E+01</totfact>
</mgrwt>
</event>
<event>
12    1  0.1562393E-007  0.1779315E+04  0.7818608E-02  0.8717378E-01
         -2   -1    0    0    0  501 -0.00000000000E+00  0.00000000000E+00  0.14507061154E+04  0.14507061154E+04  0.00000000000E+00 0.  1.
          2   -1    0    0  501    0  0.00000000000E+00 -0.00000000000E+00 -0.54558950658E+03  0.54558950658E+03  0.00000000000E+00 0. -1.
         23    2    1    2    0    0 -0.29406927337E+03  0.47519075772E+03  0.72725828542E+03  0.92163211086E+03  0.90653959062E+02 0.  0.
        254    2    1    2    0    0  0.29406927337E+03 -0.47519075772E+03  0.17785832337E+03  0.10746635111E+04  0.90054710322E+03 0.  0.
        -24    2    4    4    0    0 -0.11125233930E+03 -0.42718043020E+03 -0.21901273480E+03  0.49929740959E+03  0.80443286088E+02 0.  0.
         24    2    4    4    0    0  0.40532161267E+03 -0.48010327524E+02  0.39687105817E+03  0.57536610150E+03  0.83360138529E+02 0.  0.
         13    1    3    3    0    0 -0.26592862236E+03  0.44465135694E+03  0.70379677701E+03  0.87393521771E+03  0.00000000000E+00 0.  1.
        -13    1    3    3    0    0 -0.28140651011E+02  0.30539400787E+02  0.23461508403E+02  0.47696893151E+02  0.00000000000E+00 0. -1.
          2    1    6    6  502    0  0.29049128588E+02  0.10699404245E+02  0.57331514658E+02  0.65155442565E+02  0.00000000000E+00 0. -1.
          3    1    5    5  503    0 -0.11743386036E+02 -0.39298538529E+01  0.16972052817E+00  0.12384654696E+02  0.00000000000E+00 0. -1.
         -4    1    5    5    0  503 -0.99508953263E+02 -0.42325057635E+03 -0.21918245533E+03  0.48691275490E+03  0.00000000000E+00 0.  1.
         -1    1    6    6    0  502  0.37627248408E+03 -0.58709731769E+02  0.33953954351E+03  0.51021065894E+03  0.00000000000E+00 0.  1.
<mgrwt>
<rscale>  0 0.17793145E+04</rscale>
<asrwt>0</asrwt>
<pdfrwt beam="1">  1        2 0.83936848E-01 0.17793145E+04</pdfrwt>
<pdfrwt beam="2">  1       -2 0.22318555E+00 0.17793145E+04</pdfrwt>
<totfact> 0.49559192E+00</totfact>
</mgrwt>
</event>
<event>
12    1  0.1562393E-007  0.1908902E+04  0.7818608E-02  0.8650438E-01
         -1   -1    0    0    0  501 -0.00000000000E+00  0.00000000000E+00  0.32215495545E+03  0.32215495545E+03  0.00000000000E+00 0.  1.
          1   -1    0    0  501    0  0.00000000000E+00 -0.00000000000E+00 -0.28277591790E+04  0.28277591790E+04  0.00000000000E+00 0. -1.
         23    2    1    2    0    0 -0.49451266530E+03  0.24621647059E+02 -0.18757728453E+04  0.19421249839E+04  0.90425019978E+02 0.  0.
        254    2    1    2    0    0  0.49451266530E+03 -0.24621647059E+02 -0.62983137818E+03  0.12077891505E+04  0.90383519819E+03 0.  0.
        -24    2    4    4    0    0  0.10149194285E+03  0.13933480881E+03 -0.73760801797E+03  0.76163957297E+03  0.79463498050E+02 0.  0.
         24    2    4    4    0    0  0.39302072245E+03 -0.16395645587E+03  0.10777663979E+03  0.44614957754E+03  0.78016881233E+02 0.  0.
         11    1    3    3    0    0 -0.44295811796E+03  0.46043509540E+02 -0.16039542708E+04  0.16646324525E+04  0.00000000000E+00 0. -1.
        -11    1    3    3    0    0 -0.51554547339E+02 -0.21421862481E+02 -0.27181857456E+03  0.27749253146E+03  0.00000000000E+00 0.  1.
          4    1    6    6  502    0  0.19738794926E+03 -0.41019843852E+02  0.42254917945E+02  0.20598569900E+03  0.00000000000E+00 0. -1.
          1    1    5    5  503    0  0.91686203206E+02  0.65063688998E+02 -0.50078797092E+03  0.51325260379E+03  0.00000000000E+00 0. -1.
         -2    1    5    5    0  503  0.98057396420E+01  0.74271119815E+02 -0.23682004705E+03  0.24838696917E+03  0.00000000000E+00 0.  1.
         -3    1    6    6    0  502  0.19563277319E+03 -0.12293661202E+03  0.65521721842E+02  0.24016387854E+03  0.00000000000E+00 0.  1.
<mgrwt>
<rscale>  0 0.19089019E+04</rscale>
<asrwt>0</asrwt>
<pdfrwt beam="1">  1        1 0.43503988E+00 0.19089019E+04</pdfrwt>
<pdfrwt beam="2">  1       -1 0.49562300E-01 0.19089019E+04</pdfrwt>
<totfact> 0.30434379E+00</totfact>
</mgrwt>
</event>
<event>
12    1  0.1562393E-007  0.1250782E+04  0.7818608E-02  0.9069533E-01
         -1   -1    0    0    0  501 -0.00000000000E+00  0.00000000000E+00  0.41366726351E+03  0.41366726351E+03  0.00000000000E+00 0.  1.
          1   -1    0    0  501    0  0.00000000000E+00 -0.00000000000E+00 -0.94547933509E+03  0.94547933509E+03  0.00000000000E+00 0. -1.
         23    2    1    2    0    0 -0.18030070179E+02 -0.23509386346E+03  0.44444739062E+02  0.25707396501E+03  0.92290197688E+02 0.  0.
        254    2    1    2    0    0  0.18030070179E+02  0.23509386346E+03 -0.57625681064E+03  0.11020726336E+04  0.90933930401E+03 0.  0.
        -24    2    4    4    0    0  0.32009608951E+03  0.20103098498E+03 -0.67039360210E+03  0.77400839206E+03  0.82379887069E+02 0.  0.
         24    2    4    4    0    0 -0.30206601933E+03  0.34062878480E+02  0.94136791456E+02  0.32806424153E+03  0.79751183939E+02 0.  0.
         13    1    3    3    0    0  0.27516095971E+02 -0.23960929728E+02 -0.34967615587E+00  0.36488134569E+02  0.00000000000E+00 0. -1.
        -13    1    3    3    0    0 -0.45546166150E+02 -0.21113293374E+03  0.44794415218E+02  0.22058583045E+03  0.00000000000E+00 0.  1.
          4    1    6    6  502    0 -0.14248534277E+02 -0.16675336964E+02  0.47180381803E+01  0.22435406753E+02  0.00000000000E+00 0. -1.
          1    1    5    5  503    0  0.52752319318E+02  0.32959687846E+02 -0.58282112030E+02  0.85240558416E+02  0.00000000000E+00 0. -1.
         -2    1    5    5    0  503  0.26734377019E+03  0.16807129714E+03 -0.61211149007E+03  0.68876783364E+03  0.00000000000E+00 0.  1.
         -3    1    6    6    0  502 -0.28781748506E+03  0.50738215444E+02  0.89418753276E+02  0.30562883478E+03  0.00000000000E+00 0.  1.
<mgrwt>
<rscale>  0 0.12507819E+04</rscale>
<asrwt>0</asrwt>
<pdfrwt beam="1">  1        1 0.14545836E+00 0.12507819E+04</pdfrwt>
<pdfrwt beam="2">  1       -1 0.63641118E-01 0.12507819E+04</pdfrwt>
<totfact> 0.41274387E+01</totfact>
</mgrwt>
</event>
<event>
12    1  0.1562393E-007  0.1758182E+04  0.7818608E-02  0.8728860E-01
          2   -1    0    0  501    0  0.00000000000E+00  0.00000000000E+00  0.20407431167E+04  0.20407431167E+04  0.00000000000E+00 0. -1.
         -2   -1    0    0    0  501 -0.00000000000E+00 -0.00000000000E+00 -0.37868594501E+03  0.37868594501E+03  0.00000000000E+00 0.  1.
         23    2    1    2    0    0 -0.22906593355E+03  0.57764854378E+03  0.84535181817E+03  0.10538157666E+04  0.98787303529E+02 0.  0.
        254    2    1    2    0    0  0.22906593355E+03 -0.57764854378E+03  0.81670535352E+03  0.13656132952E+04  0.90096781041E+03 0.  0.
        -24    2    4    4    0    0  0.53738342857E+03 -0.19840438221E+03  0.57288477677E+03  0.81395446279E+03  0.78610761790E+02 0.  0.
         24    2    4    4    0    0 -0.30831749501E+03 -0.37924416157E+03  0.24382057676E+03  0.55165883237E+03  0.77415643533E+02 0.  0.
         13    1    3    3    0    0 -0.77560998872E+01  0.45256947358E+02  0.28706978810E+02  0.54151999058E+02  0.00000000000E+00 0. -1.
        -13    1    3    3    0    0 -0.22130983366E+03  0.53239159642E+03  0.81664483936E+03  0.99966376751E+03  0.00000000000E+00 0.  1.
          4    1    6    6  502    0 -0.26596741139E+03 -0.34089455554E+03  0.18699837400E+03  0.47107977434E+03  0.00000000000E+00 0. -1.
          3    1    5    5  503    0  0.52477934313E+03 -0.18022700218E+03  0.56008994701E+03  0.78840083716E+03  0.00000000000E+00 0. -1.
         -4    1    5    5    0  503  0.12604085438E+02 -0.18177380033E+02  0.12794829758E+02  0.25553625636E+02  0.00000000000E+00 0.  1.
         -3    1    6    6    0  502 -0.42350083625E+02 -0.38349606026E+02  0.56822202759E+02  0.80579058022E+02  0.00000000000E+00 0.  1.
<mgrwt>
<rscale>  0 0.17581817E+04</rscale>
<asrwt>0</asrwt>
<pdfrwt beam="1">  1        2 0.31396047E+00 0.17581817E+04</pdfrwt>
<pdfrwt beam="2">  1       -2 0.58259377E-01 0.17581817E+04</pdfrwt>
<totfact> 0.16554725E+01</totfact>
</mgrwt>
</event>
<event>
12    1  0.1562393E-007  0.2343196E+04  0.7818608E-02  0.8461082E-01
          1   -1    0    0  501    0  0.00000000000E+00  0.00000000000E+00  0.11087900246E+04  0.11087900246E+04  0.00000000000E+00 0. -1.
         -1   -1    0    0    0  501 -0.00000000000E+00 -0.00000000000E+00 -0.12379635999E+04  0.12379635999E+04  0.00000000000E+00 0.  1.
         23    2    1    2    0    0  0.90659072396E+03  0.28839947279E+03  0.16024710503E+03  0.96905755474E+03  0.91172435835E+02 0.  0.
        254    2    1    2    0    0 -0.90659072396E+03 -0.28839947279E+03 -0.28942068035E+03  0.13776960697E+04  0.95352038970E+03 0.  0.
        -24    2    4    4    0    0 -0.26801307125E+03  0.28891602685E+03  0.12236677696E+03  0.42017619689E+03  0.79189212648E+02 0.  0.
         24    2    4    4    0    0 -0.63857765271E+03 -0.57731549964E+03 -0.41178745731E+03  0.95751987280E+03  0.78745108743E+02 0.  0.
         13    1    3    3    0    0  0.41335118538E+03  0.10792849037E+03  0.31990388263E+02  0.42840535295E+03  0.00000000000E+00 0.  1.
        -13    1    3    3    0    0  0.49323953858E+03  0.18047098242E+03  0.12825671677E+03  0.54065220179E+03  0.00000000000E+00 0. -1.
          2    1    6    6  502    0 -0.29619210251E+02 -0.76938488162E+01 -0.14135304604E+02  0.33709045696E+02  0.00000000000E+00 0. -1.
          1    1    5    5  503    0  0.55749431516E+01  0.86642749442E+01  0.35603856872E+01  0.10900733814E+02  0.00000000000E+00 0. -1.
         -4    1    5    5    0  503 -0.27358801440E+03  0.28025175191E+03  0.11880639128E+03  0.40927546308E+03  0.00000000000E+00 0.  1.
         -1    1    6    6    0  502 -0.60895844246E+03 -0.56962165082E+03 -0.39765215271E+03  0.92381082711E+03  0.00000000000E+00 0.  1.
<mgrwt>
<rscale>  0 0.23431958E+04</rscale>
<asrwt>0</asrwt>
<pdfrwt beam="1">  1        1 0.17058308E+00 0.23431958E+04</pdfrwt>
<pdfrwt beam="2">  1       -1 0.19045594E+00 0.23431958E+04</pdfrwt>
<totfact> 0.19723927E+00</totfact>
</mgrwt>
</event>
<event>
12    1  0.1562393E-007  0.1975961E+04  0.7818608E-02  0.8617943E-01
         -2   -1    0    0    0  501 -0.00000000000E+00  0.00000000000E+00  0.81778910766E+03  0.81778910766E+03  0.00000000000E+00 0.  1.
          2   -1    0    0  501    0  0.00000000000E+00 -0.00000000000E+00 -0.11935908407E+04  0.11935908407E+04  0.00000000000E+00 0. -1.
         23    2    1    2    0    0  0.51106426321E+03  0.23429663836E+03  0.38724386148E+03  0.68862958450E+03  0.90395246110E+02 0.  0.
        254    2    1    2    0    0 -0.51106426321E+03 -0.23429663836E+03 -0.76304559455E+03  0.13227503639E+04  0.92268540137E+03 0.  0.
        -24    2    4    4    0    0  0.13718057813E+03 -0.37981058682E+03 -0.28876596841E+03  0.50276354904E+03  0.79440599541E+02 0.  0.
         24    2    4    4    0    0 -0.64824484134E+03  0.14551394846E+03 -0.47427962613E+03  0.81998681484E+03  0.77727274620E+02 0.  0.
         13    1    3    3    0    0  0.21565688561E+03  0.54923950244E+02  0.17448856320E+03  0.28279107360E+03  0.00000000000E+00 0. -1.
        -13    1    3    3    0    0  0.29540737761E+03  0.17937268812E+03  0.21275529828E+03  0.40583851090E+03  0.00000000000E+00 0.  1.
          4    1    6    6  502    0 -0.15539037908E+03  0.74725594738E+01 -0.13448044986E+03  0.20563803260E+03  0.00000000000E+00 0. -1.
          1    1    5    5  503    0 -0.38438196517E+01 -0.55555009353E+02 -0.22214269033E+02  0.59955047847E+02  0.00000000000E+00 0. -1.
         -2    1    5    5    0  503  0.14102439778E+03 -0.32425557746E+03 -0.26655169938E+03  0.44280850119E+03  0.00000000000E+00 0.  1.
         -3    1    6    6    0  502 -0.49285446226E+03  0.13804138898E+03 -0.33979917627E+03  0.61434878224E+03  0.00000000000E+00 0.  1.
<mgrwt>
<rscale>  0 0.19759611E+04</rscale>
<asrwt>0</asrwt>
<pdfrwt beam="1">  1        2 0.18362936E+00 0.19759611E+04</pdfrwt>
<pdfrwt beam="2">  1       -2 0.12581371E+00 0.19759611E+04</pdfrwt>
<totfact> 0.83922203E+00</totfact>
</mgrwt>
</event>
<event>
12    1  0.1562393E-007  0.2062590E+04  0.7818608E-02  0.8577904E-01
          1   -1    0    0  501    0  0.00000000000E+00  0.00000000000E+00  0.98032417878E+03  0.98032417878E+03  0.00000000000E+00 0. -1.
         -1   -1    0    0    0  501 -0.00000000000E+00 -0.00000000000E+00 -0.10849159951E+04  0.10849159951E+04  0.00000000000E+00 0.  1.
         23    2    1    2    0    0  0.24716566174E+03  0.78974135084E+03  0.80338397684E+02  0.83821992058E+03  0.10665885586E+03 0.  0.
        254    2    1    2    0    0 -0.24716566174E+03 -0.78974135084E+03 -0.18493021404E+03  0.12270202533E+04  0.88690318100E+03 0.  0.
        -24    2    4    4    0    0 -0.80952515956E+02 -0.91367338956E+03  0.25537555886E+02  0.92141044983E+03  0.83622231903E+02 0.  0.
         24    2    4    4    0    0 -0.16621314579E+03  0.12393203871E+03 -0.21046776992E+03  0.30560980352E+03  0.78196609749E+02 0.  0.
         11    1    3    3    0    0  0.93255288437E+02  0.42183615310E+03  0.32348894517E+01  0.43203327811E+03  0.00000000000E+00 0.  1.
        -11    1    3    3    0    0  0.15391037331E+03  0.36790519775E+03  0.77103508233E+02  0.40618664247E+03  0.00000000000E+00 0. -1.
          4    1    6    6  502    0 -0.15512327918E+03  0.13279728102E+03 -0.18088380406E+03  0.27279534483E+03  0.00000000000E+00 0. -1.
          3    1    5    5  503    0 -0.81627299552E+02 -0.79341027383E+03 -0.38478849213E+01  0.79760747544E+03  0.00000000000E+00 0. -1.
         -4    1    5    5    0  503  0.67478359593E+00 -0.12026311572E+03  0.29385440807E+02  0.12380297439E+03  0.00000000000E+00 0.  1.
         -1    1    6    6    0  502 -0.11089866605E+02 -0.88652423069E+01 -0.29583965866E+02  0.32814458686E+02  0.00000000000E+00 0.  1.
<mgrwt>
<rscale>  0 0.20625900E+04</rscale>
<asrwt>0</asrwt>
<pdfrwt beam="1">  1        1 0.15081911E+00 0.20625900E+04</pdfrwt>
<pdfrwt beam="2">  1       -1 0.16691015E+00 0.20625900E+04</pdfrwt>
<totfact> 0.37521572E+00</totfact>
</mgrwt>
</event>
<event>
12    1  0.1562393E-007  0.3694024E+04  0.7818608E-02  0.8069288E-01
         -1   -1    0    0    0  501 -0.00000000000E+00  0.00000000000E+00  0.37448689984E+04  0.37448689984E+04  0.00000000000E+00 0.  1.
          1   -1    0    0  501    0  0.00000000000E+00 -0.00000000000E+00 -0.91096717808E+03  0.91096717808E+03  0.00000000000E+00 0. -1.
         23    2    1    2    0    0  0.31929918070E+03 -0.59667125027E+03 -0.68121346917E+03  0.96453371617E+03  0.91131505843E+02 0.  0.
        254    2    1    2    0    0 -0.31929918070E+03  0.59667125027E+03  0.35151152895E+04  0.36913024603E+04  0.90094939225E+03 0.  0.
        -24    2    4    4    0    0 -0.18996103936E+03  0.82558007476E+03  0.25868346321E+04  0.27231999227E+04  0.80229351892E+02 0.  0.
         24    2    4    4    0    0 -0.12933814135E+03 -0.22890882449E+03  0.92828065739E+03  0.96810253760E+03  0.79937098319E+02 0.  0.
         13    1    3    3    0    0  0.19422064147E+03 -0.38730462712E+03 -0.37462588676E+03  0.57277490062E+03  0.00000000000E+00 0. -1.
        -13    1    3    3    0    0  0.12507853924E+03 -0.20936662315E+03 -0.30658758242E+03  0.39175881555E+03  0.00000000000E+00 0.  1.
          4    1    6    6  502    0 -0.10019933047E+03 -0.21896670145E+03  0.76710825377E+03  0.80401579286E+03  0.00000000000E+00 0. -1.
          1    1    5    5  503    0 -0.14433696440E+03  0.59833065633E+03  0.19868145440E+04  0.20799674915E+04  0.00000000000E+00 0. -1.
         -2    1    5    5    0  503 -0.45624074960E+02  0.22724941843E+03  0.60002008814E+03  0.64323243121E+03  0.00000000000E+00 0.  1.
         -3    1    6    6    0  502 -0.29138810874E+02 -0.99421230382E+01  0.16117240362E+03  0.16408674474E+03  0.00000000000E+00 0.  1.
<mgrwt>
<rscale>  0 0.36940237E+04</rscale>
<asrwt>0</asrwt>
<pdfrwt beam="1">  1        1 0.14014880E+00 0.36940237E+04</pdfrwt>
<pdfrwt beam="2">  1       -1 0.57613368E+00 0.36940237E+04</pdfrwt>
<totfact> 0.79553969E-03</totfact>
</mgrwt>
</event>
<event>
12    1  0.1562393E-007  0.2265300E+04  0.7818608E-02  0.8491730E-01
          2   -1    0    0  501    0  0.00000000000E+00  0.00000000000E+00  0.10394019493E+04  0.10394019493E+04  0.00000000000E+00 0.  1.
         -2   -1    0    0    0  501 -0.00000000000E+00 -0.00000000000E+00 -0.12342639049E+04  0.12342639049E+04  0.00000000000E+00 0. -1.
         23    2    1    2    0    0 -0.46955824259E+03 -0.73699503208E+03  0.28898042833E+03  0.92496984815E+03  0.91721925036E+02 0.  0.
        254    2    1    2    0    0  0.46955824259E+03  0.73699503208E+03 -0.48384238397E+03  0.13486960061E+04  0.90621787881E+03 0.  0.
        -24    2    4    4    0    0  0.57944646086E+03  0.88199769334E+03 -0.37871318228E+03  0.11242291859E+04  0.82398154897E+02 0.  0.
         24    2    4    4    0    0 -0.10988821827E+03 -0.14500266127E+03 -0.10512920168E+03  0.22446682021E+03  0.78943093680E+02 0.  0.
         13    1    3    3    0    0 -0.33574820841E+03 -0.59406428947E+03  0.23744968973E+03  0.72251061904E+03  0.00000000000E+00 0.  1.
        -13    1    3    3    0    0 -0.13381003418E+03 -0.14293074261E+03  0.51530738602E+02  0.20245922911E+03  0.00000000000E+00 0. -1.
          4    1    6    6  502    0 -0.70331211246E+02 -0.31913715327E+02 -0.28894733043E+02  0.82461324868E+02  0.00000000000E+00 0. -1.
          3    1    5    5  503    0  0.35520317050E+03  0.49876299030E+03 -0.18377880376E+03  0.63930310616E+03  0.00000000000E+00 0. -1.
         -4    1    5    5    0  503  0.22424329036E+03  0.38323470304E+03 -0.19493437853E+03  0.48492607974E+03  0.00000000000E+00 0.  1.
         -3    1    6    6    0  502 -0.39557007020E+02 -0.11308894594E+03 -0.76234468639E+02  0.14200549534E+03  0.00000000000E+00 0.  1.
<mgrwt>
<rscale>  0 0.22653003E+04</rscale>
<asrwt>0</asrwt>
<pdfrwt beam="1">  1        2 0.15990799E+00 0.22653003E+04</pdfrwt>
<pdfrwt beam="2">  1       -2 0.18988675E+00 0.22653003E+04</pdfrwt>
<totfact> 0.33552954E+00</totfact>
</mgrwt>
</event>
<event>
12    1  0.1562393E-007  0.2857436E+04  0.7818608E-02  0.8285655E-01
         -1   -1    0    0    0  501 -0.00000000000E+00  0.00000000000E+00  0.73193520323E+03  0.73193520323E+03  0.00000000000E+00 0.  1.
          1   -1    0    0  501    0  0.00000000000E+00 -0.00000000000E+00 -0.27888198150E+04  0.27888198150E+04  0.00000000000E+00 0. -1.
         23    2    1    2    0    0  0.30527624466E+03 -0.15692034890E+03 -0.24519873323E+04  0.24775790745E+04  0.91315996922E+02 0.  0.
        254    2    1    2    0    0 -0.30527624466E+03  0.15692034890E+03  0.39510272049E+03  0.10431759437E+04  0.90238146503E+03 0.  0.
        -24    2    4    4    0    0 -0.38910959626E+02 -0.31997694135E+03  0.36014837616E+03  0.48996283920E+03  0.80358105846E+02 0.  0.
         24    2    4    4    0    0 -0.26636528503E+03  0.47689729025E+03  0.34954344332E+02  0.55321310455E+03  0.80258596685E+02 0.  0.
         13    1    3    3    0    0  0.17770605520E+03 -0.76626380675E+02 -0.16718161727E+04  0.16829796076E+04  0.00000000000E+00 0. -1.
        -13    1    3    3    0    0  0.12757018946E+03 -0.80293968225E+02 -0.78017115960E+03  0.79459946693E+03  0.00000000000E+00 0.  1.
          4    1    6    6  502    0 -0.27193658737E+03  0.47128125052E+03  0.33276730267E+02  0.54512646737E+03  0.00000000000E+00 0. -1.
          3    1    5    5  503    0 -0.34836757527E+02 -0.22582009640E+03  0.30387735493E+03  0.38019700479E+03  0.00000000000E+00 0. -1.
         -4    1    5    5    0  503 -0.40742020991E+01 -0.94156844947E+02  0.56271021223E+02  0.10976583441E+03  0.00000000000E+00 0.  1.
         -3    1    6    6    0  502  0.55713023411E+01  0.56160397222E+01  0.16776140647E+01  0.80866371804E+01  0.00000000000E+00 0.  1.
<mgrwt>
<rscale>  0 0.28574362E+04</rscale>
<asrwt>0</asrwt>
<pdfrwt beam="1">  1        1 0.42904920E+00 0.28574362E+04</pdfrwt>
<pdfrwt beam="2">  1       -1 0.11260542E+00 0.28574362E+04</pdfrwt>
<totfact> 0.52756365E-01</totfact>
</mgrwt>
</event>
<event>
12    1  0.1562393E-007  0.2728064E+04  0.7818608E-02  0.8325956E-01
         -1   -1    0    0    0  501 -0.00000000000E+00  0.00000000000E+00  0.47698259151E+03  0.47698259151E+03  0.00000000000E+00 0.  1.
          1   -1    0    0  501    0  0.00000000000E+00 -0.00000000000E+00 -0.39007361451E+04  0.39007361451E+04  0.00000000000E+00 0. -1.
         23    2    1    2    0    0 -0.94825036277E+03 -0.39719516348E+03 -0.25667150076E+04  0.27664255080E+04  0.90229776865E+02 0.  0.
        254    2    1    2    0    0  0.94825036277E+03  0.39719516348E+03 -0.85703854602E+03  0.16112932287E+04  0.89711094685E+03 0.  0.
        -24    2    4    4    0    0  0.80820632915E+03  0.29089933940E+03 -0.14701703466E+03  0.87502488828E+03  0.78959802930E+02 0.  0.
         24    2    4    4    0    0  0.14004403361E+03  0.10629582408E+03 -0.71002151136E+03  0.73626834037E+03  0.83960638815E+02 0.  0.
         13    1    3    3    0    0 -0.78263533530E+03 -0.30311911245E+03 -0.20170210280E+04  0.21846677303E+04  0.00000000000E+00 0. -1.
        -13    1    3    3    0    0 -0.16561502746E+03 -0.94076051037E+02 -0.54969397959E+03  0.58175777769E+03  0.00000000000E+00 0.  1.
          4    1    6    6  502    0  0.28653537683E+02 -0.48984873719E+01 -0.50903052048E+02  0.58618607183E+02  0.00000000000E+00 0. -1.
          1    1    5    5  503    0  0.27076082613E+03  0.13373208089E+03 -0.35398445713E+02  0.30405385112E+03  0.00000000000E+00 0. -1.
         -2    1    5    5    0  503  0.53744550303E+03  0.15716725851E+03 -0.11161858895E+03  0.57097103716E+03  0.00000000000E+00 0.  1.
         -3    1    6    6    0  502  0.11139049593E+03  0.11119431145E+03 -0.65911845931E+03  0.67764973319E+03  0.00000000000E+00 0.  1.
<mgrwt>
<rscale>  0 0.27280640E+04</rscale>
<asrwt>0</asrwt>
<pdfrwt beam="1">  1        1 0.60011328E+00 0.27280640E+04</pdfrwt>
<pdfrwt beam="2">  1       -1 0.73381934E-01 0.27280640E+04</pdfrwt>
<totfact> 0.19090364E-01</totfact>
</mgrwt>
</event>
<event>
12    1  0.1765624E-007  0.1651049E+04  0.7818608E-02  0.8789786E-01
         -2   -1    0    0    0  501 -0.00000000000E+00  0.00000000000E+00  0.85694123594E+03  0.85694123594E+03  0.00000000000E+00 0.  1.
          2   -1    0    0  501    0  0.00000000000E+00 -0.00000000000E+00 -0.79525958429E+03  0.79525958429E+03  0.00000000000E+00 0. -1.
         23    2    1    2    0    0 -0.26227415228E+03  0.66965386104E+02  0.53483988318E+03  0.60661136177E+03  0.93013707019E+02 0.  0.
        254    2    1    2    0    0  0.26227415228E+03 -0.66965386104E+02 -0.47315823154E+03  0.10455894585E+04  0.89224800907E+03 0.  0.
        -24    2    4    4    0    0  0.57356216839E+03 -0.52803528638E+02 -0.42491598956E+03  0.72037450080E+03  0.81388264331E+02 0.  0.
         24    2    4    4    0    0 -0.31128801611E+03 -0.14161857466E+02 -0.48242241972E+02  0.32521495767E+03  0.79603188383E+02 0.  0.
         13    1    3    3    0    0 -0.18488274243E+03  0.62111501926E+01  0.38819309914E+03  0.43001638231E+03  0.00000000000E+00 0.  1.
        -13    1    3    3    0    0 -0.77391409848E+02  0.60754235911E+02  0.14664678404E+03  0.17659497946E+03  0.00000000000E+00 0. -1.
          4    1    6    6  502    0 -0.22890473681E+03  0.12921883602E+02 -0.74785891319E+01  0.22939111339E+03  0.00000000000E+00 0. -1.
          3    1    5    5  503    0  0.48224020601E+03 -0.70873098482E+02 -0.37315781956E+03  0.61386103531E+03  0.00000000000E+00 0. -1.
         -4    1    5    5    0  503  0.91321962377E+02  0.18069569844E+02 -0.51758170008E+02  0.10651346548E+03  0.00000000000E+00 0.  1.
         -3    1    6    6    0  502 -0.82383279304E+02 -0.27083741068E+02 -0.40763652841E+02  0.95823844277E+02  0.00000000000E+00 0.  1.
<mgrwt>
<rscale>  0 0.16510490E+04</rscale>
<asrwt>0</asrwt>
<pdfrwt beam="1">  1        2 0.12234763E+00 0.16510490E+04</pdfrwt>
<pdfrwt beam="2">  1       -2 0.13183711E+00 0.16510490E+04</pdfrwt>
<totfact> 0.13895945E+01</totfact>
</mgrwt>
</event>
<event>
12    1  0.1562393E-007  0.1277136E+04  0.7818608E-02  0.9047896E-01
          2   -1    0    0  501    0  0.00000000000E+00  0.00000000000E+00  0.26923742119E+04  0.26923742119E+04  0.00000000000E+00 0. -1.
         -2   -1    0    0    0  501 -0.00000000000E+00 -0.00000000000E+00 -0.15145334088E+03  0.15145334088E+03  0.00000000000E+00 0.  1.
         23    2    1    2    0    0 -0.35190254430E+03  0.10384307352E+03  0.12106627704E+04  0.12682788136E+04  0.90598127276E+02 0.  0.
        254    2    1    2    0    0  0.35190254430E+03 -0.10384307352E+03  0.13302581006E+04  0.15755487392E+04  0.76036072411E+03 0.  0.
        -24    2    4    4    0    0  0.14038144979E+03  0.11057837353E+03  0.12332559985E+04  0.12486734428E+04  0.79564318572E+02 0.  0.
         24    2    4    4    0    0  0.21152109451E+03 -0.21442144705E+03  0.97002102105E+02  0.32687529640E+03  0.81977565278E+02 0.  0.
         11    1    3    3    0    0 -0.66391416099E+02 -0.60983190914E+01  0.14549301638E+03  0.16004133042E+03  0.00000000000E+00 0.  1.
        -11    1    3    3    0    0 -0.28551112820E+03  0.10994139261E+03  0.10651697541E+04  0.11082374832E+04  0.00000000000E+00 0. -1.
          2    1    6    6  502    0  0.19458359883E+03 -0.18188537942E+03  0.10969701669E+03  0.28805989595E+03  0.00000000000E+00 0. -1.
          1    1    5    5  503    0  0.94197685778E+02  0.32515793244E+02  0.78776194776E+03  0.79403990275E+03  0.00000000000E+00 0. -1.
         -2    1    5    5    0  503  0.46183764013E+02  0.78062580289E+02  0.44549405069E+03  0.45463354001E+03  0.00000000000E+00 0.  1.
         -1    1    6    6    0  502  0.16937495677E+02 -0.32536067626E+02 -0.12694914583E+02  0.38815400457E+02  0.00000000000E+00 0.  1.
<mgrwt>
<rscale>  0 0.12771360E+04</rscale>
<asrwt>0</asrwt>
<pdfrwt beam="1">  1        2 0.41421138E+00 0.12771360E+04</pdfrwt>
<pdfrwt beam="2">  1       -2 0.23300516E-01 0.12771360E+04</pdfrwt>
<totfact> 0.43237555E+01</totfact>
</mgrwt>
</event>
<event>
12    1  0.1654709E-007  0.2470972E+04  0.7818608E-02  0.8413400E-01
         -2   -1    0    0    0  501 -0.00000000000E+00  0.00000000000E+00  0.72870747468E+03  0.72870747468E+03  0.00000000000E+00 0.  1.
          2   -1    0    0  501    0  0.00000000000E+00 -0.00000000000E+00 -0.20947034893E+04  0.20947034893E+04  0.00000000000E+00 0. -1.
         23    2    1    2    0    0  0.43647486909E+03 -0.44363495093E+03  0.38697290869E+03  0.73888941152E+03  0.94272208880E+02 0.  0.
        254    2    1    2    0    0 -0.43647486909E+03  0.44363495093E+03 -0.17529689233E+04  0.20845215525E+04  0.94074851878E+03 0.  0.
        -24    2    4    4    0    0  0.10478145282E+03 -0.20497227981E+03 -0.20100143011E+03  0.31571129621E+03  0.79241777499E+02 0.  0.
         24    2    4    4    0    0 -0.54125632191E+03  0.64860723074E+03 -0.15519674932E+04  0.17688102563E+04  0.80230149764E+02 0.  0.
         13    1    3    3    0    0  0.66882377824E+02 -0.12175550495E+03  0.96920783010E+02  0.16938504547E+03  0.00000000000E+00 0. -1.
        -13    1    3    3    0    0  0.36959249126E+03 -0.32187944598E+03  0.29005212568E+03  0.56950436605E+03  0.00000000000E+00 0.  1.
          4    1    6    6  502    0 -0.54179006550E+01 -0.44574022970E+00 -0.21517646935E+02  0.22193725723E+02  0.00000000000E+00 0. -1.
          1    1    5    5  503    0  0.14590270300E+01 -0.85416042423E+02 -0.68950982753E+02  0.10978281781E+03  0.00000000000E+00 0. -1.
         -2    1    5    5    0  503  0.10332242579E+03 -0.11955623739E+03 -0.13205044736E+03  0.20592847840E+03  0.00000000000E+00 0.  1.
         -3    1    6    6    0  502 -0.53583842125E+03  0.64905297097E+03 -0.15304498463E+04  0.17466165306E+04  0.00000000000E+00 0.  1.
<mgrwt>
<rscale>  0 0.24709724E+04</rscale>
<asrwt>0</asrwt>
<pdfrwt beam="1">  1        2 0.32226207E+00 0.24709724E+04</pdfrwt>
<pdfrwt beam="2">  1       -2 0.11210884E+00 0.24709724E+04</pdfrwt>
<totfact> 0.33181730E+00</totfact>
</mgrwt>
</event>
<event>
12    1  0.1562393E-007  0.2802065E+04  0.7818608E-02  0.8302628E-01
         -2   -1    0    0    0  501 -0.00000000000E+00  0.00000000000E+00  0.14083380295E+04  0.14083380295E+04  0.00000000000E+00 0.  1.
          2   -1    0    0  501    0  0.00000000000E+00 -0.00000000000E+00 -0.13937644096E+04  0.13937644096E+04  0.00000000000E+00 0. -1.
         23    2    1    2    0    0  0.44308243981E+03  0.93221709995E+03 -0.65019263714E+03  0.12231691513E+04  0.89674619532E+02 0.  0.
        254    2    1    2    0    0 -0.44308243981E+03 -0.93221709995E+03  0.66476625698E+03  0.15789332878E+04  0.99285718051E+03 0.  0.
        -24    2    4    4    0    0 -0.88927413744E+01 -0.96920787825E+03  0.56431044047E+03  0.11245433349E+04  0.81905108365E+02 0.  0.
         24    2    4    4    0    0 -0.43418969843E+03  0.36990778299E+02  0.10045581651E+03  0.45438995285E+03  0.80559582145E+02 0.  0.
         11    1    3    3    0    0  0.25132680918E+03  0.62030560060E+03 -0.39994196484E+03  0.77967799660E+03  0.00000000000E+00 0. -1.
        -11    1    3    3    0    0  0.19175563063E+03  0.31191149935E+03 -0.25025067230E+03  0.44349115470E+03  0.00000000000E+00 0.  1.
          4    1    6    6  502    0 -0.30202965382E+03  0.38837382603E+02  0.10507842567E+03  0.32213619730E+03  0.00000000000E+00 0. -1.
          3    1    5    5  503    0 -0.76518514194E+01 -0.35474884490E+03  0.16176449660E+03  0.38996544225E+03  0.00000000000E+00 0. -1.
         -4    1    5    5    0  503 -0.12408899550E+01 -0.61445903335E+03  0.40254594387E+03  0.73457789267E+03  0.00000000000E+00 0.  1.
         -3    1    6    6    0  502 -0.13216004461E+03 -0.18466043048E+01 -0.46226091596E+01  0.13225375554E+03  0.00000000000E+00 0.  1.
<mgrwt>
<rscale>  0 0.28020645E+04</rscale>
<asrwt>0</asrwt>
<pdfrwt beam="1">  1        2 0.21442529E+00 0.28020645E+04</pdfrwt>
<pdfrwt beam="2">  1       -2 0.21666739E+00 0.28020645E+04</pdfrwt>
<totfact> 0.13173718E+00</totfact>
</mgrwt>
</event>
<event>
12    1  0.1562393E-007  0.3849598E+04  0.7818608E-02  0.8035594E-01
         -2   -1    0    0    0  501 -0.00000000000E+00  0.00000000000E+00  0.21229700794E+04  0.21229700794E+04  0.00000000000E+00 0.  1.
          2   -1    0    0  501    0  0.00000000000E+00 -0.00000000000E+00 -0.17451263592E+04  0.17451263592E+04  0.00000000000E+00 0. -1.
         23    2    1    2    0    0 -0.13379643343E+04  0.31259858530E+03 -0.10180109061E+04  0.17126458292E+04  0.94567944111E+02 0.  0.
        254    2    1    2    0    0  0.13379643343E+04 -0.31259858530E+03  0.13958546263E+04  0.21554506093E+04  0.89982818135E+03 0.  0.
        -24    2    4    4    0    0  0.13176006432E+04 -0.40445118319E+03  0.90759726249E+03  0.16522660772E+04  0.81229208571E+02 0.  0.
         24    2    4    4    0    0  0.20363691081E+02  0.91852597888E+02  0.48825736380E+03  0.50318453210E+03  0.77122243181E+02 0.  0.
         13    1    3    3    0    0 -0.54778829016E+03  0.17518849178E+03 -0.41536672510E+03  0.70943113465E+03  0.00000000000E+00 0.  1.
        -13    1    3    3    0    0 -0.79017604416E+03  0.13741009353E+03 -0.60264418097E+03  0.10032146946E+04  0.00000000000E+00 0. -1.
          4    1    6    6  502    0  0.22070621743E+01 -0.46489202753E+01  0.17102357034E+03  0.17110097952E+03  0.00000000000E+00 0. -1.
          1    1    5    5  503    0  0.69323072748E+03 -0.20087061444E+03  0.42854266883E+03  0.83938469385E+03  0.00000000000E+00 0. -1.
         -2    1    5    5    0  503  0.62436991576E+03 -0.20358056875E+03  0.47905459366E+03  0.81288138334E+03  0.00000000000E+00 0.  1.
         -3    1    6    6    0  502  0.18156628907E+02  0.96501518164E+02  0.31723379346E+03  0.33208355258E+03  0.00000000000E+00 0.  1.
<mgrwt>
<rscale>  0 0.38495979E+04</rscale>
<asrwt>0</asrwt>
<pdfrwt beam="1">  1        2 0.26848098E+00 0.38495979E+04</pdfrwt>
<pdfrwt beam="2">  1       -2 0.32661078E+00 0.38495979E+04</pdfrwt>
<totfact> 0.16103715E-01</totfact>
</mgrwt>
</event>
<event>
12    1  0.1562393E-007  0.2382099E+04  0.7818608E-02  0.8446236E-01
          2   -1    0    0  501    0  0.00000000000E+00  0.00000000000E+00  0.31651569105E+04  0.31651569105E+04  0.00000000000E+00 0.  1.
         -2   -1    0    0    0  501 -0.00000000000E+00 -0.00000000000E+00 -0.44819241415E+03  0.44819241415E+03  0.00000000000E+00 0. -1.
         23    2    1    2    0    0  0.47847974842E+03 -0.37551783478E+03 -0.74068678353E+02  0.61946393007E+03  0.91065238435E+02 0.  0.
        254    2    1    2    0    0 -0.47847974842E+03  0.37551783478E+03  0.27910331747E+04  0.29938853946E+04  0.89639670890E+03 0.  0.
        -24    2    4    4    0    0  0.11963911016E+03  0.17169344120E+03  0.13016437807E+03  0.25782825119E+03  0.75766004004E+02 0.  0.
         24    2    4    4    0    0 -0.59811885858E+03  0.20382439359E+03  0.26608687966E+04  0.27360571434E+04  0.80593961443E+02 0.  0.
         11    1    3    3    0    0  0.13677110924E+03 -0.58005360697E+02 -0.18753950581E+02  0.14974200765E+03  0.00000000000E+00 0.  1.
        -11    1    3    3    0    0  0.34170863918E+03 -0.31751247408E+03 -0.55314727772E+02  0.46972192242E+03  0.00000000000E+00 0. -1.
          4    1    6    6  502    0 -0.36237103751E+03  0.16024193891E+03  0.17328461983E+04  0.17775674937E+04  0.00000000000E+00 0. -1.
          1    1    5    5  503    0  0.11135848771E+03  0.11415100789E+03  0.69977719006E+02  0.17414949481E+03  0.00000000000E+00 0. -1.
         -2    1    5    5    0  503  0.82806224516E+01  0.57542433304E+02  0.60186659064E+02  0.83678756372E+02  0.00000000000E+00 0.  1.
         -3    1    6    6    0  502 -0.23574782107E+03  0.43582454676E+02  0.92802259837E+03  0.95848964970E+03  0.00000000000E+00 0.  1.
<mgrwt>
<rscale>  0 0.23820993E+04</rscale>
<asrwt>0</asrwt>
<pdfrwt beam="1">  1        2 0.48694720E+00 0.23820993E+04</pdfrwt>
<pdfrwt beam="2">  1       -2 0.68952681E-01 0.23820993E+04</pdfrwt>
<totfact> 0.23658996E+00</totfact>
</mgrwt>
</event>
<event>
12    1  0.1562393E-007  0.1156077E+04  0.7818608E-02  0.9152195E-01
         -1   -1    0    0    0  501 -0.00000000000E+00  0.00000000000E+00  0.24161478754E+03  0.24161478754E+03  0.00000000000E+00 0.  1.
          1   -1    0    0  501    0  0.00000000000E+00 -0.00000000000E+00 -0.13828978314E+04  0.13828978314E+04  0.00000000000E+00 0. -1.
         23    2    1    2    0    0  0.71915911241E+02 -0.19792986398E+03 -0.23335076631E+03  0.32814156907E+03  0.94213480308E+02 0.  0.
        254    2    1    2    0    0 -0.71915911241E+02  0.19792986398E+03 -0.90793227752E+03  0.12963710498E+04  0.90104869399E+03 0.  0.
        -24    2    4    4    0    0  0.30092037582E+02 -0.50969860908E+02 -0.99700433582E+03  0.10020660376E+04  0.81334129336E+02 0.  0.
         24    2    4    4    0    0 -0.10200794882E+03  0.24889972488E+03  0.89072058304E+02  0.29430501224E+03  0.79529327862E+02 0.  0.
         13    1    3    3    0    0  0.77378714958E+02 -0.93430159314E+02 -0.15796556645E+03  0.19917274006E+03  0.00000000000E+00 0. -1.
        -13    1    3    3    0    0 -0.54628037170E+01 -0.10449970466E+03 -0.75385199852E+02  0.12896882901E+03  0.00000000000E+00 0.  1.
          4    1    6    6  502    0 -0.89636303699E+02  0.24963089981E+03  0.75173259180E+02  0.27568328201E+03  0.00000000000E+00 0. -1.
          1    1    5    5  503    0  0.19217933740E+02 -0.25571830076E+02 -0.91448912546E+03  0.91504841842E+03  0.00000000000E+00 0. -1.
         -2    1    5    5    0  503  0.10874103841E+02 -0.25398030832E+02 -0.82515210357E+02  0.87017619163E+02  0.00000000000E+00 0.  1.
         -3    1    6    6    0  502 -0.12371645124E+02 -0.73117492980E+00  0.13898799124E+02  0.18621730235E+02  0.00000000000E+00 0.  1.
<mgrwt>
<rscale>  0 0.11560771E+04</rscale>
<asrwt>0</asrwt>
<pdfrwt beam="1">  1        1 0.21275352E+00 0.11560771E+04</pdfrwt>
<pdfrwt beam="2">  1       -1 0.37171505E-01 0.11560771E+04</pdfrwt>
<totfact> 0.54565461E+01</totfact>
</mgrwt>
</event>
<event>
12    1  0.1562393E-007  0.2503156E+04  0.7818608E-02  0.8401862E-01
          2   -1    0    0  501    0  0.00000000000E+00  0.00000000000E+00  0.51256482927E+03  0.51256482927E+03  0.00000000000E+00 0. -1.
         -2   -1    0    0    0  501 -0.00000000000E+00 -0.00000000000E+00 -0.30560974192E+04  0.30560974192E+04  0.00000000000E+00 0.  1.
         23    2    1    2    0    0 -0.64955238269E+03 -0.22633414399E+03  0.96220132743E+02  0.70137221919E+03  0.97566558328E+02 0.  0.
        254    2    1    2    0    0  0.64955238269E+03  0.22633414399E+03 -0.26397527227E+04  0.28672900293E+04  0.88312639674E+03 0.  0.
        -24    2    4    4    0    0 -0.20471540516E+03 -0.32715241919E+02 -0.51324915730E+03  0.55936344247E+03  0.80523779972E+02 0.  0.
         24    2    4    4    0    0  0.85426778785E+03  0.25904938591E+03 -0.21265035654E+04  0.23079265869E+04  0.87336583997E+02 0.  0.
         13    1    3    3    0    0 -0.40625673166E+03 -0.15617785291E+03  0.10603745329E+03  0.44797320820E+03  0.00000000000E+00 0. -1.
        -13    1    3    3    0    0 -0.24329565103E+03 -0.70156291078E+02 -0.98173205483E+01  0.25339901099E+03  0.00000000000E+00 0.  1.
          2    1    6    6  502    0  0.42250349513E+03  0.11021828970E+03 -0.11429006789E+04  0.12234701617E+04  0.00000000000E+00 0. -1.
          1    1    5    5  503    0 -0.57490442524E+02  0.21964202591E+02 -0.10176802422E+03  0.11892984457E+03  0.00000000000E+00 0. -1.
         -2    1    5    5    0  503 -0.14722496263E+03 -0.54679444510E+02 -0.41148113308E+03  0.44043359790E+03  0.00000000000E+00 0.  1.
         -1    1    6    6    0  502  0.43176429273E+03  0.14883109621E+03 -0.98360288648E+03  0.10844564251E+04  0.00000000000E+00 0.  1.
<mgrwt>
<rscale>  0 0.25031564E+04</rscale>
<asrwt>0</asrwt>
<pdfrwt beam="1">  1        2 0.78856127E-01 0.25031564E+04</pdfrwt>
<pdfrwt beam="2">  1       -2 0.47016884E+00 0.25031564E+04</pdfrwt>
<totfact> 0.13616484E-01</totfact>
</mgrwt>
</event>
<event>
12    1  0.1562393E-007  0.3625486E+04  0.7818608E-02  0.8084679E-01
          1   -1    0    0  501    0  0.00000000000E+00  0.00000000000E+00  0.23397932439E+04  0.23397932439E+04  0.00000000000E+00 0. -1.
         -1   -1    0    0    0  501 -0.00000000000E+00 -0.00000000000E+00 -0.14044133343E+04  0.14044133343E+04  0.00000000000E+00 0.  1.
         23    2    1    2    0    0 -0.15521198663E+04 -0.71039624291E+02  0.11526750983E+04  0.19366957534E+04  0.89486597862E+02 0.  0.
        254    2    1    2    0    0  0.15521198663E+04  0.71039624291E+02 -0.21729518873E+03  0.18075108249E+04  0.89763883343E+03 0.  0.
        -24    2    4    4    0    0  0.41292875766E+03 -0.31740286357E+03  0.14764899244E+03  0.54730461282E+03  0.80544258290E+02 0.  0.
         24    2    4    4    0    0  0.11391911087E+04  0.38844248786E+03 -0.36494418117E+03  0.12602062121E+04  0.79318932552E+02 0.  0.
         13    1    3    3    0    0 -0.11367405941E+03 -0.24520330412E+02  0.10338658211E+03  0.15560149018E+03  0.00000000000E+00 0.  1.
        -13    1    3    3    0    0 -0.14384458069E+04 -0.46519293878E+02  0.10492885162E+04  0.17810942632E+04  0.00000000000E+00 0. -1.
          4    1    6    6  502    0  0.68616303862E+03  0.27350826775E+03 -0.23355077429E+03  0.77470797870E+03  0.00000000000E+00 0. -1.
          3    1    5    5  503    0  0.10044995231E+02  0.44417939834E+01  0.20672039826E+00  0.10985180759E+02  0.00000000000E+00 0. -1.
         -4    1    5    5    0  503  0.40288376243E+03 -0.32184465755E+03  0.14744227204E+03  0.53631943206E+03  0.00000000000E+00 0.  1.
         -3    1    6    6    0  502  0.45302807007E+03  0.11493422010E+03 -0.13139340688E+03  0.48549823335E+03  0.00000000000E+00 0.  1.
<mgrwt>
<rscale>  0 0.36254858E+04</rscale>
<asrwt>0</asrwt>
<pdfrwt beam="1">  1        1 0.35996819E+00 0.36254858E+04</pdfrwt>
<pdfrwt beam="2">  1       -1 0.21606359E+00 0.36254858E+04</pdfrwt>
<totfact> 0.16503943E-01</totfact>
</mgrwt>
</event>
<event>
12    1  0.1562393E-007  0.2296717E+04  0.7818608E-02  0.8479217E-01
         -1   -1    0    0    0  501 -0.00000000000E+00  0.00000000000E+00  0.86957724498E+03  0.86957724498E+03  0.00000000000E+00 0.  1.
          1   -1    0    0  501    0  0.00000000000E+00 -0.00000000000E+00 -0.15165151693E+04  0.15165151693E+04  0.00000000000E+00 0. -1.
         23    2    1    2    0    0  0.32722876631E+03 -0.43693819648E+03  0.55911168675E+03  0.78688305195E+03  0.92657466728E+02 0.  0.
        254    2    1    2    0    0 -0.32722876631E+03  0.43693819648E+03 -0.12060496110E+04  0.15992093623E+04  0.89717404507E+03 0.  0.
        -24    2    4    4    0    0 -0.16351221203E+03  0.14153101185E+03 -0.12297855832E+04  0.12511585666E+04  0.79106936253E+02 0.  0.
         24    2    4    4    0    0 -0.16371655427E+03  0.29540718464E+03  0.23735972171E+02  0.34805079568E+03  0.80668736959E+02 0.  0.
         11    1    3    3    0    0  0.17379034193E+03 -0.29227711680E+03  0.30619603498E+03  0.45758606599E+03  0.00000000000E+00 0.  1.
        -11    1    3    3    0    0  0.15343842438E+03 -0.14466107968E+03  0.25291565177E+03  0.32929698596E+03  0.00000000000E+00 0. -1.
          2    1    6    6  502    0 -0.10574400459E+02  0.63780395961E+02 -0.18349073496E+02  0.67204503958E+02  0.00000000000E+00 0. -1.
          1    1    5    5  503    0 -0.18510559535E+02  0.45632730393E+02 -0.16217710229E+03  0.16948864093E+03  0.00000000000E+00 0. -1.
         -2    1    5    5    0  503 -0.14500165250E+03  0.95898281453E+02 -0.10676084809E+04  0.10816699257E+04  0.00000000000E+00 0.  1.
         -1    1    6    6    0  502 -0.15314215382E+03  0.23162678867E+03  0.42085045666E+02  0.28084629172E+03  0.00000000000E+00 0.  1.
<mgrwt>
<rscale>  0 0.22967169E+04</rscale>
<asrwt>0</asrwt>
<pdfrwt beam="1">  1        1 0.23331002E+00 0.22967169E+04</pdfrwt>
<pdfrwt beam="2">  1       -1 0.13378112E+00 0.22967169E+04</pdfrwt>
<totfact> 0.27160549E+00</totfact>
</mgrwt>
</event>
<event>
12    1  0.1562393E-007  0.2260982E+04  0.7818608E-02  0.8493466E-01
          1   -1    0    0  501    0  0.00000000000E+00  0.00000000000E+00  0.20330380999E+04  0.20330380999E+04  0.00000000000E+00 0. -1.
         -1   -1    0    0    0  501 -0.00000000000E+00 -0.00000000000E+00 -0.62862098819E+03  0.62862098819E+03  0.00000000000E+00 0.  1.
         23    2    1    2    0    0 -0.46440814168E+02  0.93930561356E+03  0.44332166329E+03  0.10436732053E+04  0.90927869726E+02 0.  0.
        254    2    1    2    0    0  0.46440814168E+02 -0.93930561356E+03  0.96109544838E+03  0.16179858827E+04  0.89984558170E+03 0.  0.
        -24    2    4    4    0    0  0.33656424395E+03 -0.93905889999E+03  0.71931140858E+03  0.12320813656E+04  0.74219141349E+02 0.  0.
         24    2    4    4    0    0 -0.29012342978E+03 -0.24671356721E+00  0.24178403980E+03  0.38590451714E+03  0.79316511982E+02 0.  0.
         11    1    3    3    0    0 -0.24228626701E+02  0.65257175256E+03  0.26155406932E+03  0.70345394290E+03  0.00000000000E+00 0.  1.
        -11    1    3    3    0    0 -0.22212187468E+02  0.28673386100E+03  0.18176759397E+03  0.34021926243E+03  0.00000000000E+00 0. -1.
          2    1    6    6  502    0 -0.18429343673E+03 -0.34121575138E+02  0.17399799370E+03  0.25574138211E+03  0.00000000000E+00 0. -1.
          1    1    5    5  503    0  0.25261394956E+03 -0.62753630287E+03  0.45852153012E+03  0.81722555792E+03  0.00000000000E+00 0. -1.
         -2    1    5    5    0  503  0.83950294393E+02 -0.31152259712E+03  0.26078987845E+03  0.41485580766E+03  0.00000000000E+00 0.  1.
         -1    1    6    6    0  502 -0.10582999305E+03  0.33874861570E+02  0.67786046098E+02  0.13016313503E+03  0.00000000000E+00 0.  1.
<mgrwt>
<rscale>  0 0.22609825E+04</rscale>
<asrwt>0</asrwt>
<pdfrwt beam="1">  1        1 0.31277509E+00 0.22609825E+04</pdfrwt>
<pdfrwt beam="2">  1       -1 0.96710922E-01 0.22609825E+04</pdfrwt>
<totfact> 0.26392313E+00</totfact>
</mgrwt>
</event>
<event>
12    1  0.1562393E-007  0.1972838E+04  0.7818608E-02  0.8619426E-01
          1   -1    0    0  501    0  0.00000000000E+00  0.00000000000E+00  0.29125260090E+04  0.29125260090E+04  0.00000000000E+00 0. -1.
         -1   -1    0    0    0  501 -0.00000000000E+00 -0.00000000000E+00 -0.33408186042E+03  0.33408186042E+03  0.00000000000E+00 0.  1.
         23    2    1    2    0    0 -0.22168619079E+03  0.78956229543E+02  0.22373512593E+04  0.22514333796E+04  0.88502835377E+02 0.  0.
        254    2    1    2    0    0  0.22168619079E+03 -0.78956229543E+02  0.34109288920E+03  0.99517448976E+03  0.90479227043E+03 0.  0.
        -24    2    4    4    0    0  0.57363037463E+02  0.18682191894E+03  0.56324712764E+03  0.60172294836E+03  0.81426238565E+02 0.  0.
         24    2    4    4    0    0  0.16432315332E+03 -0.26577814848E+03 -0.22215423844E+03  0.39345154140E+03  0.88382616208E+02 0.  0.
         13    1    3    3    0    0 -0.18736113815E+02  0.40156940569E+02  0.34471039756E+03  0.34754694651E+03  0.00000000000E+00 0.  1.
        -13    1    3    3    0    0 -0.20295007697E+03  0.38799288974E+02  0.18926408618E+04  0.19038864331E+04  0.00000000000E+00 0. -1.
          2    1    6    6  502    0  0.76790818238E+02 -0.50675196616E+02 -0.73006980419E+02  0.11745137082E+03  0.00000000000E+00 0. -1.
          1    1    5    5  503    0  0.75584914830E+02  0.11865426337E+03  0.35578780618E+03  0.38259231121E+03  0.00000000000E+00 0. -1.
         -2    1    5    5    0  503 -0.18221877367E+02  0.68167655564E+02  0.20745932145E+03  0.21913063715E+03  0.00000000000E+00 0.  1.
         -1    1    6    6    0  502  0.87532335084E+02 -0.21510295186E+03 -0.14914725802E+03  0.27600017058E+03  0.00000000000E+00 0.  1.
<mgrwt>
<rscale>  0 0.19728377E+04</rscale>
<asrwt>0</asrwt>
<pdfrwt beam="1">  1        1 0.44808091E+00 0.19728377E+04</pdfrwt>
<pdfrwt beam="2">  1       -1 0.51397211E-01 0.19728377E+04</pdfrwt>
<totfact> 0.24540145E+00</totfact>
</mgrwt>
</event>
<event>
12    1  0.1562393E-007  0.1780241E+04  0.7818608E-02  0.8716878E-01
          2   -1    0    0  501    0  0.00000000000E+00  0.00000000000E+00  0.81787630893E+03  0.81787630893E+03  0.00000000000E+00 0. -1.
         -2   -1    0    0    0  501 -0.00000000000E+00 -0.00000000000E+00 -0.96874640886E+03  0.96874640886E+03  0.00000000000E+00 0.  1.
         23    2    1    2    0    0 -0.32415046835E+03 -0.36228359476E+02  0.53846551717E+03  0.63669616500E+03  0.95136077166E+02 0.  0.
        254    2    1    2    0    0  0.32415046835E+03  0.36228359476E+02 -0.68933561710E+03  0.11499265528E+04  0.86067500466E+03 0.  0.
        -24    2    4    4    0    0 -0.27507692721E+03 -0.92665642717E+02 -0.19347127330E+03  0.35757519464E+03  0.78578934892E+02 0.  0.
         24    2    4    4    0    0  0.59922739557E+03  0.12889400219E+03 -0.49586434380E+03  0.79235135814E+03  0.79070170770E+02 0.  0.
         11    1    3    3    0    0 -0.26484123451E+03 -0.59168819283E+02  0.47373855849E+03  0.54595792005E+03  0.00000000000E+00 0. -1.
        -11    1    3    3    0    0 -0.59309233847E+02  0.22940459807E+02  0.64726958685E+02  0.90738244948E+02  0.00000000000E+00 0.  1.
          2    1    6    6  502    0  0.13416241917E+02  0.13545672516E+02 -0.58094150562E+01  0.19930632062E+02  0.00000000000E+00 0. -1.
          3    1    5    5  503    0 -0.55441092548E+00 -0.13132063244E+02 -0.17677324195E+02  0.22028305591E+02  0.00000000000E+00 0. -1.
         -4    1    5    5    0  503 -0.27452251629E+03 -0.79533579473E+02 -0.17579394910E+03  0.33554688905E+03  0.00000000000E+00 0.  1.
         -1    1    6    6    0  502  0.58581115365E+03  0.11534832968E+03 -0.49005492874E+03  0.77242072608E+03  0.00000000000E+00 0.  1.
<mgrwt>
<rscale>  0 0.17802413E+04</rscale>
<asrwt>0</asrwt>
<pdfrwt beam="1">  1        2 0.12582712E+00 0.17802413E+04</pdfrwt>
<pdfrwt beam="2">  1       -2 0.14903791E+00 0.17802413E+04</pdfrwt>
<totfact> 0.96337792E+00</totfact>
</mgrwt>
</event>
<event>
12    1  0.1562393E-007  0.1413446E+04  0.7818608E-02  0.8944143E-01
          1   -1    0    0  501    0  0.00000000000E+00  0.00000000000E+00  0.29783947712E+03  0.29783947712E+03  0.00000000000E+00 0. -1.
         -1   -1    0    0    0  501 -0.00000000000E+00 -0.00000000000E+00 -0.16769349534E+04  0.16769349534E+04  0.00000000000E+00 0.  1.
         23    2    1    2    0    0  0.39340157291E+03 -0.10517589962E+03 -0.43613124385E+03  0.60327011982E+03  0.88868488118E+02 0.  0.
        254    2    1    2    0    0 -0.39340157291E+03  0.10517589962E+03 -0.94296423243E+03  0.13715043107E+04  0.90885409344E+03 0.  0.
        -24    2    4    4    0    0  0.26880042138E+02  0.43468299341E+03 -0.53650855534E+03  0.69561265775E+03  0.79772791306E+02 0.  0.
         24    2    4    4    0    0 -0.42028161505E+03 -0.32950709379E+03 -0.40645567708E+03  0.67589165294E+03  0.80073392996E+02 0.  0.
         11    1    3    3    0    0  0.25723231555E+03 -0.68958167442E+02 -0.34350273311E+03  0.43464677690E+03  0.00000000000E+00 0.  1.
        -11    1    3    3    0    0  0.13616925737E+03 -0.36217732182E+02 -0.92628510736E+02  0.16862334292E+03  0.00000000000E+00 0. -1.
          2    1    6    6  502    0 -0.32784618005E+03 -0.23956016844E+03 -0.26714561359E+03  0.48604420677E+03  0.00000000000E+00 0. -1.
          3    1    5    5  503    0  0.32630122085E+02  0.42569573502E+03 -0.53554275752E+03  0.68489972172E+03  0.00000000000E+00 0. -1.
         -4    1    5    5    0  503 -0.57500799467E+01  0.89872583996E+01 -0.96579782303E+00  0.10712936029E+02  0.00000000000E+00 0.  1.
         -1    1    6    6    0  502 -0.92435435004E+02 -0.89946925346E+02 -0.13931006350E+03  0.18984744617E+03  0.00000000000E+00 0.  1.
<mgrwt>
<rscale>  0 0.14134460E+04</rscale>
<asrwt>0</asrwt>
<pdfrwt beam="1">  1        1 0.45821458E-01 0.14134460E+04</pdfrwt>
<pdfrwt beam="2">  1       -1 0.25798999E+00 0.14134460E+04</pdfrwt>
<totfact> 0.53374972E+00</totfact>
</mgrwt>
</event>
<event>
12    1  0.1562393E-007  0.1717745E+04  0.7818608E-02  0.8751308E-01
         -1   -1    0    0    0  501 -0.00000000000E+00  0.00000000000E+00  0.81464596889E+03  0.81464596889E+03  0.00000000000E+00 0.  1.
          1   -1    0    0  501    0  0.00000000000E+00 -0.00000000000E+00 -0.90550015151E+03  0.90550015151E+03  0.00000000000E+00 0. -1.
         23    2    1    2    0    0 -0.40116455534E+02 -0.35526893834E+03 -0.54121883402E+03  0.65547826411E+03  0.94385273573E+02 0.  0.
        254    2    1    2    0    0  0.40116455534E+02  0.35526893834E+03  0.45036465140E+03  0.10646678563E+04  0.89602677217E+03 0.  0.
        -24    2    4    4    0    0  0.26659163877E+03 -0.20948004641E+03  0.13585093007E+03  0.37491071299E+03  0.84555164303E+02 0.  0.
         24    2    4    4    0    0 -0.22647518324E+03  0.56474898475E+03  0.31451372134E+03  0.68975714330E+03  0.81324113453E+02 0.  0.
         13    1    3    3    0    0 -0.18639040951E+02 -0.33113534618E+03 -0.52021098589E+03  0.61694205658E+03  0.00000000000E+00 0. -1.
        -13    1    3    3    0    0 -0.21477414582E+02 -0.24133592162E+02 -0.21007848134E+02  0.38536207532E+02  0.00000000000E+00 0.  1.
          2    1    6    6  502    0 -0.62153023371E+02  0.14244030135E+03  0.12125148529E+03  0.19711458710E+03  0.00000000000E+00 0. -1.
          3    1    5    5  503    0  0.23391076759E+02 -0.49005259192E+02  0.21982045975E+01  0.54346021049E+02  0.00000000000E+00 0. -1.
         -4    1    5    5    0  503  0.24320056201E+03 -0.16047478722E+03  0.13365272547E+03  0.32056469194E+03  0.00000000000E+00 0.  1.
         -1    1    6    6    0  502 -0.16432215987E+03  0.42230868340E+03  0.19326223604E+03  0.49264255620E+03  0.00000000000E+00 0.  1.
<mgrwt>
<rscale>  0 0.17177451E+04</rscale>
<asrwt>0</asrwt>
<pdfrwt beam="1">  1        1 0.13930771E+00 0.17177451E+04</pdfrwt>
<pdfrwt beam="2">  1       -1 0.12533015E+00 0.17177451E+04</pdfrwt>
<totfact> 0.95152786E+00</totfact>
</mgrwt>
</event>
<event>
12    1  0.1562393E-007  0.1627287E+04  0.7818608E-02  0.8803958E-01
         -2   -1    0    0    0  501 -0.00000000000E+00  0.00000000000E+00  0.45352531256E+03  0.45352531256E+03  0.00000000000E+00 0.  1.
          2   -1    0    0  501    0  0.00000000000E+00 -0.00000000000E+00 -0.14597102293E+04  0.14597102293E+04  0.00000000000E+00 0. -1.
         23    2    1    2    0    0  0.35371309037E+03 -0.24721795650E+03 -0.78415725570E+03  0.89980449349E+03  0.92281398628E+02 0.  0.
        254    2    1    2    0    0 -0.35371309037E+03  0.24721795650E+03 -0.22202766100E+03  0.10134310483E+04  0.88967215262E+03 0.  0.
        -24    2    4    4    0    0 -0.57492239930E+03  0.34522844157E+03 -0.24420301728E+01  0.67541421098E+03  0.80373819125E+02 0.  0.
         24    2    4    4    0    0  0.22120930893E+03 -0.98010485069E+02 -0.21958563083E+03  0.33801683735E+03  0.86590527903E+02 0.  0.
         11    1    3    3    0    0  0.89176661233E+02 -0.63845277516E+02 -0.29015908305E+03  0.31019508353E+03  0.00000000000E+00 0.  1.
        -11    1    3    3    0    0  0.26453642914E+03 -0.18337267898E+03 -0.49399817264E+03  0.58960940996E+03  0.00000000000E+00 0. -1.
          2    1    6    6  502    0  0.19543840560E+01 -0.12398467574E+01  0.75051946515E+01  0.78539661177E+01  0.00000000000E+00 0. -1.
          1    1    5    5  503    0 -0.23635165542E+03  0.10396919200E+03  0.20684228537E+02  0.25903577980E+03  0.00000000000E+00 0. -1.
         -2    1    5    5    0  503 -0.33857074387E+03  0.24125924957E+03 -0.23126258709E+02  0.41637843118E+03  0.00000000000E+00 0.  1.
         -1    1    6    6    0  502  0.21925492487E+03 -0.96770638312E+02 -0.22709082548E+03  0.33016287123E+03  0.00000000000E+00 0.  1.
<mgrwt>
<rscale>  0 0.16272867E+04</rscale>
<asrwt>0</asrwt>
<pdfrwt beam="1">  1        2 0.22457081E+00 0.16272867E+04</pdfrwt>
<pdfrwt beam="2">  1       -2 0.69773125E-01 0.16272867E+04</pdfrwt>
<totfact> 0.23967439E+01</totfact>
</mgrwt>
</event>
<event>
12    1  0.1562393E-007  0.1686571E+04  0.7818608E-02  0.8769061E-01
          2   -1    0    0  501    0  0.00000000000E+00  0.00000000000E+00  0.10403622379E+04  0.10403622379E+04  0.00000000000E+00 0.  1.
         -2   -1    0    0    0  501 -0.00000000000E+00 -0.00000000000E+00 -0.68354120974E+03  0.68354120974E+03  0.00000000000E+00 0. -1.
         23    2    1    2    0    0 -0.21949997620E+03  0.20503731116E+02  0.70752577369E+03  0.74668390178E+03  0.91342685492E+02 0.  0.
        254    2    1    2    0    0  0.21949997620E+03 -0.20503731116E+02 -0.35070474555E+03  0.97721954584E+03  0.88507829014E+03 0.  0.
        -24    2    4    4    0    0  0.36686636837E+03  0.21594034204E+03 -0.49208098052E+03  0.65474897335E+03  0.73016184252E+02 0.  0.
         24    2    4    4    0    0 -0.14736639217E+03 -0.23644407315E+03  0.14137623497E+03  0.32247057249E+03  0.79858481298E+02 0.  0.
         11    1    3    3    0    0 -0.34742202056E+02  0.37422775063E+02  0.19631521389E+03  0.20284759772E+03  0.00000000000E+00 0. -1.
        -11    1    3    3    0    0 -0.18475777414E+03 -0.16919043947E+02  0.51121055981E+03  0.54383630406E+03  0.00000000000E+00 0.  1.
          4    1    6    6  502    0 -0.81210052311E+01 -0.36699118115E+02 -0.56875784072E+01  0.38014793758E+02  0.00000000000E+00 0. -1.
          1    1    5    5  503    0  0.27572319954E+02  0.23758529598E+01 -0.14644864315E+02  0.31310534262E+02  0.00000000000E+00 0. -1.
         -2    1    5    5    0  503  0.33929404841E+03  0.21356448908E+03 -0.47743611620E+03  0.62343843909E+03  0.00000000000E+00 0.  1.
         -3    1    6    6    0  502 -0.13924538694E+03 -0.19974495504E+03  0.14706381338E+03  0.28445577873E+03  0.00000000000E+00 0.  1.
<mgrwt>
<rscale>  0 0.16865710E+04</rscale>
<asrwt>0</asrwt>
<pdfrwt beam="1">  1        2 0.16005573E+00 0.16865710E+04</pdfrwt>
<pdfrwt beam="2">  1       -2 0.10516019E+00 0.16865710E+04</pdfrwt>
<totfact> 0.16563770E+01</totfact>
</mgrwt>
</event>
<event>
12    1  0.1562393E-007  0.1991369E+04  0.7818608E-02  0.8610667E-01
         -2   -1    0    0    0  501 -0.00000000000E+00  0.00000000000E+00  0.42152602849E+03  0.42152602849E+03  0.00000000000E+00 0.  1.
          2   -1    0    0  501    0  0.00000000000E+00 -0.00000000000E+00 -0.23519003039E+04  0.23519003039E+04  0.00000000000E+00 0. -1.
         23    2    1    2    0    0 -0.31520614961E+03  0.34943230561E+03 -0.16521800811E+04  0.17203471404E+04  0.91855375360E+02 0.  0.
        254    2    1    2    0    0  0.31520614961E+03 -0.34943230561E+03 -0.27819419429E+03  0.10530791920E+04  0.90006995394E+03 0.  0.
        -24    2    4    4    0    0  0.24417019862E+03  0.22851882241E+03  0.96211109062E+02  0.35636190380E+03  0.76793820587E+02 0.  0.
         24    2    4    4    0    0  0.71035950991E+02 -0.57795112802E+03 -0.37440530335E+03  0.69671728823E+03  0.78498635790E+02 0.  0.
         11    1    3    3    0    0 -0.17192938009E+02  0.65984698222E+02 -0.23312262044E+03  0.24289037379E+03  0.00000000000E+00 0.  1.
        -11    1    3    3    0    0 -0.29801321160E+03  0.28344760739E+03 -0.14190574607E+04  0.14774567666E+04  0.00000000000E+00 0. -1.
          4    1    6    6  502    0  0.36504718641E+02 -0.80448737407E+02 -0.67111021538E+02  0.11094360299E+03  0.00000000000E+00 0. -1.
          3    1    5    5  503    0  0.83933860512E+01  0.81830466761E+01 -0.11237630063E+02  0.16238704127E+02  0.00000000000E+00 0. -1.
         -4    1    5    5    0  503  0.23577681256E+03  0.22033577574E+03  0.10744873912E+03  0.34012319967E+03  0.00000000000E+00 0.  1.
         -3    1    6    6    0  502  0.34531232349E+02 -0.49750239062E+03 -0.30729428181E+03  0.58577368523E+03  0.00000000000E+00 0.  1.
<mgrwt>
<rscale>  0 0.19913686E+04</rscale>
<asrwt>0</asrwt>
<pdfrwt beam="1">  1        2 0.36183081E+00 0.19913686E+04</pdfrwt>
<pdfrwt beam="2">  1       -2 0.64850159E-01 0.19913686E+04</pdfrwt>
<totfact> 0.86417612E+00</totfact>
</mgrwt>
</event>
<event>
12    1  0.1562393E-007  0.2147457E+04  0.7818608E-02  0.8540622E-01
         -2   -1    0    0    0  501 -0.00000000000E+00  0.00000000000E+00  0.71093657075E+03  0.71093657075E+03  0.00000000000E+00 0.  1.
          2   -1    0    0  501    0  0.00000000000E+00 -0.00000000000E+00 -0.16216534677E+04  0.16216534677E+04  0.00000000000E+00 0. -1.
         23    2    1    2    0    0  0.62903002726E+03 -0.62140850270E+03 -0.40747924048E+03  0.97779511827E+03  0.90645791189E+02 0.  0.
        254    2    1    2    0    0 -0.62903002726E+03  0.62140850270E+03 -0.50323765643E+03  0.13547949201E+04  0.89464732402E+03 0.  0.
        -24    2    4    4    0    0 -0.20670526148E+03 -0.21932536584E+03 -0.94668981300E+02  0.32587557278E+03  0.80012447080E+02 0.  0.
         24    2    4    4    0    0 -0.42232476578E+03  0.84073386854E+03 -0.40856867513E+03  0.10289193474E+04  0.80963050789E+02 0.  0.
         11    1    3    3    0    0  0.56491697733E+03 -0.56710261957E+03 -0.33852101729E+03  0.86909898835E+03  0.00000000000E+00 0.  1.
        -11    1    3    3    0    0  0.64113049935E+02 -0.54305883124E+02 -0.68958223188E+02  0.10869612992E+03  0.00000000000E+00 0. -1.
          2    1    6    6  502    0 -0.21010834323E+03  0.50623531041E+03 -0.23054311531E+03  0.59461738405E+03  0.00000000000E+00 0. -1.
          3    1    5    5  503    0 -0.13625594236E+03 -0.94841289241E+02 -0.29174640138E+02  0.16855773966E+03  0.00000000000E+00 0. -1.
         -4    1    5    5    0  503 -0.70449319119E+02 -0.12448407660E+03 -0.65494341162E+02  0.15731783311E+03  0.00000000000E+00 0.  1.
         -1    1    6    6    0  502 -0.21221642256E+03  0.33449855813E+03 -0.17802555982E+03  0.43430196331E+03  0.00000000000E+00 0.  1.
<mgrwt>
<rscale>  0 0.21474569E+04</rscale>
<asrwt>0</asrwt>
<pdfrwt beam="1">  1        2 0.24948515E+00 0.21474569E+04</pdfrwt>
<pdfrwt beam="2">  1       -2 0.10937486E+00 0.21474569E+04</pdfrwt>
<totfact> 0.66326819E+00</totfact>
</mgrwt>
</event>
<event>
12    1  0.1562393E-007  0.1645392E+04  0.7818608E-02  0.8793137E-01
         -2   -1    0    0    0  501 -0.00000000000E+00  0.00000000000E+00  0.21077881542E+03  0.21077881542E+03  0.00000000000E+00 0.  1.
          2   -1    0    0  501    0  0.00000000000E+00 -0.00000000000E+00 -0.32110859672E+04  0.32110859672E+04  0.00000000000E+00 0. -1.
         23    2    1    2    0    0 -0.11512352314E+03  0.45525904406E+03 -0.36291731888E+03  0.60063833905E+03  0.92429493197E+02 0.  0.
        254    2    1    2    0    0  0.11512352314E+03 -0.45525904406E+03 -0.26373898329E+04  0.28212264435E+04  0.88486117128E+03 0.  0.
        -24    2    4    4    0    0  0.24137888613E+03 -0.37408200512E+03 -0.26101404476E+04  0.26492184892E+04  0.85582324857E+02 0.  0.
         24    2    4    4    0    0 -0.12625536299E+03 -0.81177038948E+02 -0.27249385266E+02  0.17200795430E+03  0.79461179249E+02 0.  0.
         13    1    3    3    0    0 -0.80625912455E+01  0.20851813436E+03 -0.13979651322E+03  0.25117301376E+03  0.00000000000E+00 0. -1.
        -13    1    3    3    0    0 -0.10706093190E+03  0.24674090971E+03 -0.22312080566E+03  0.34946532529E+03  0.00000000000E+00 0.  1.
          2    1    6    6  502    0 -0.28392646735E+01  0.22008030570E+01 -0.22715750624E+02  0.22998049578E+02  0.00000000000E+00 0. -1.
          1    1    5    5  503    0  0.12687412848E+03 -0.19719666449E+03 -0.16219829745E+04  0.16388448183E+04  0.00000000000E+00 0. -1.
         -2    1    5    5    0  503  0.11450475765E+03 -0.17688534062E+03 -0.98815747311E+03  0.10103736709E+04  0.00000000000E+00 0.  1.
         -1    1    6    6    0  502 -0.12341609832E+03 -0.83377842005E+02 -0.45336346424E+01  0.14900990472E+03  0.00000000000E+00 0.  1.
<mgrwt>
<rscale>  0 0.16453922E+04</rscale>
<asrwt>0</asrwt>
<pdfrwt beam="1">  1        2 0.49401322E+00 0.16453922E+04</pdfrwt>
<pdfrwt beam="2">  1       -2 0.32427511E-01 0.16453922E+04</pdfrwt>
<totfact> 0.10877767E+01</totfact>
</mgrwt>
</event>
<event>
12    1  0.1562393E-007  0.1711446E+04  0.7818608E-02  0.8754863E-01
          2   -1    0    0  501    0  0.00000000000E+00  0.00000000000E+00  0.84663021535E+03  0.84663021535E+03  0.00000000000E+00 0. -1.
         -2   -1    0    0    0  501 -0.00000000000E+00 -0.00000000000E+00 -0.86491330823E+03  0.86491330823E+03  0.00000000000E+00 0.  1.
         23    2    1    2    0    0 -0.37286447927E+03 -0.18180852545E+03  0.44413405352E+03  0.61463419890E+03  0.91857939957E+02 0.  0.
        254    2    1    2    0    0  0.37286447927E+03  0.18180852545E+03 -0.46241714640E+03  0.10969093247E+04  0.90404545762E+03 0.  0.
        -24    2    4    4    0    0  0.54528659690E+03 -0.70779580906E+02 -0.53567064188E+03  0.77233559144E+03  0.84923538519E+02 0.  0.
         24    2    4    4    0    0 -0.17242211763E+03  0.25258810636E+03  0.73253495481E+02  0.32457373323E+03  0.80323692533E+02 0.  0.
         11    1    3    3    0    0 -0.21660965090E+03 -0.14003865894E+03  0.22503981792E+03  0.34230612982E+03  0.00000000000E+00 0.  1.
        -11    1    3    3    0    0 -0.15625482837E+03 -0.41769866510E+02  0.21909423560E+03  0.27232806908E+03  0.00000000000E+00 0. -1.
          4    1    6    6  502    0 -0.14802043514E+03  0.17847979315E+03  0.25922628575E+02  0.23331752711E+03  0.00000000000E+00 0. -1.
          1    1    5    5  503    0  0.24840414315E+03 -0.66607197203E+02 -0.21387971545E+03  0.33449315349E+03  0.00000000000E+00 0. -1.
         -2    1    5    5    0  503  0.29688245376E+03 -0.41723837029E+01 -0.32179092643E+03  0.43784243795E+03  0.00000000000E+00 0.  1.
         -3    1    6    6    0  502 -0.24401682495E+02  0.74108313205E+02  0.47330866906E+02  0.91256206127E+02  0.00000000000E+00 0.  1.
<mgrwt>
<rscale>  0 0.17114459E+04</rscale>
<asrwt>0</asrwt>
<pdfrwt beam="1">  1        2 0.13025080E+00 0.17114459E+04</pdfrwt>
<pdfrwt beam="2">  1       -2 0.13306359E+00 0.17114459E+04</pdfrwt>
<totfact> 0.12416441E+01</totfact>
</mgrwt>
</event>
<event>
12    1  0.1562393E-007  0.1256219E+04  0.7818608E-02  0.9065023E-01
         -2   -1    0    0    0  501 -0.00000000000E+00  0.00000000000E+00  0.32945598934E+03  0.32945598934E+03  0.00000000000E+00 0. -1.
          2   -1    0    0  501    0  0.00000000000E+00 -0.00000000000E+00 -0.11974943655E+04  0.11974943655E+04  0.00000000000E+00 0.  1.
         23    2    1    2    0    0  0.54406027192E+02 -0.36430153436E+02 -0.55042266231E+03  0.56180490126E+03  0.91501191331E+02 0.  0.
        254    2    1    2    0    0 -0.54406027192E+02  0.36430153436E+02 -0.31761571381E+03  0.96514545354E+03  0.90903181075E+03 0.  0.
        -24    2    4    4    0    0 -0.13824197352E+03 -0.19897671035E+03  0.23881515346E+03  0.35013157142E+03  0.82806191053E+02 0.  0.
         24    2    4    4    0    0  0.83835946326E+02  0.23540686379E+03 -0.55643086727E+03  0.61501388212E+03  0.78625108828E+02 0.  0.
         13    1    3    3    0    0  0.46770313578E+02 -0.44752316735E+02 -0.54576074229E+03  0.54958622610E+03  0.00000000000E+00 0.  1.
        -13    1    3    3    0    0  0.76357136146E+01  0.83221632996E+01 -0.46619200161E+01  0.12218675158E+02  0.00000000000E+00 0. -1.
          2    1    6    6  502    0  0.97817015292E+02  0.21216698119E+03 -0.51472262346E+03  0.56526310289E+03  0.00000000000E+00 0. -1.
          3    1    5    5  503    0 -0.11176910449E+03 -0.19432321633E+03  0.18769284826E+03  0.29237381964E+03  0.00000000000E+00 0. -1.
         -4    1    5    5    0  503 -0.26472869031E+02 -0.46534940198E+01  0.51122305201E+02  0.57757751778E+02  0.00000000000E+00 0.  1.
         -3    1    6    6    0  502 -0.13981068965E+02  0.23239882591E+02 -0.41708243808E+02  0.49750779228E+02  0.00000000000E+00 0.  1.
<mgrwt>
<rscale>  0 0.12562192E+04</rscale>
<asrwt>0</asrwt>
<pdfrwt beam="1">  1        2 0.18422991E+00 0.12562192E+04</pdfrwt>
<pdfrwt beam="2">  1       -2 0.50685536E-01 0.12562192E+04</pdfrwt>
<totfact> 0.68749521E+01</totfact>
</mgrwt>
</event>
<event>
12    1  0.1562393E-007  0.1291805E+04  0.7818608E-02  0.9036089E-01
          1   -1    0    0  501    0  0.00000000000E+00  0.00000000000E+00  0.16467952903E+04  0.16467952903E+04  0.00000000000E+00 0. -1.
         -1   -1    0    0    0  501 -0.00000000000E+00 -0.00000000000E+00 -0.25333445307E+03  0.25333445307E+03  0.00000000000E+00 0.  1.
         23    2    1    2    0    0 -0.72078295303E+02  0.44155652831E+02  0.81863696136E+03  0.82802191848E+03  0.91152732508E+02 0.  0.
        254    2    1    2    0    0  0.72078295303E+02 -0.44155652831E+02  0.57482387584E+03  0.10721078249E+04  0.90102591393E+03 0.  0.
        -24    2    4    4    0    0 -0.39002327014E+02  0.41433905134E+03  0.22990290389E+03  0.48213083737E+03  0.79979798377E+02 0.  0.
         24    2    4    4    0    0  0.11108062232E+03 -0.45849470417E+03  0.34492097195E+03  0.58997698750E+03  0.80907789995E+02 0.  0.
         13    1    3    3    0    0 -0.15939593347E+02  0.37646525087E+02  0.11375776961E+03  0.12088077446E+03  0.00000000000E+00 0.  1.
        -13    1    3    3    0    0 -0.56138701957E+02  0.65091277438E+01  0.70487919175E+03  0.70714114402E+03  0.00000000000E+00 0. -1.
          2    1    6    6  502    0  0.71171465208E+01 -0.15173486715E+03  0.80879076510E+02  0.17209168690E+03  0.00000000000E+00 0. -1.
          1    1    5    5  503    0 -0.13344200425E+02  0.83730103371E+01  0.16353779451E+02  0.22707291548E+02  0.00000000000E+00 0. -1.
         -2    1    5    5    0  503 -0.25658126589E+02  0.40596604100E+03  0.21354912444E+03  0.45942354582E+03  0.00000000000E+00 0.  1.
         -1    1    6    6    0  502  0.10396347580E+03 -0.30675983702E+03  0.26404189544E+03  0.41788530060E+03  0.00000000000E+00 0.  1.
<mgrwt>
<rscale>  0 0.12918049E+04</rscale>
<asrwt>0</asrwt>
<pdfrwt beam="1">  1        1 0.25335311E+00 0.12918049E+04</pdfrwt>
<pdfrwt beam="2">  1       -1 0.38974532E-01 0.12918049E+04</pdfrwt>
<totfact> 0.32545705E+01</totfact>
</mgrwt>
</event>
<event>
12    1  0.1958114E-007  0.1991635E+04  0.7818608E-02  0.8610541E-01
          1   -1    0    0  501    0  0.00000000000E+00  0.00000000000E+00  0.11647192908E+04  0.11647192908E+04  0.00000000000E+00 0. -1.
         -1   -1    0    0    0  501 -0.00000000000E+00 -0.00000000000E+00 -0.85140941504E+03  0.85140941504E+03  0.00000000000E+00 0.  1.
         23    2    1    2    0    0 -0.51447003567E+02 -0.53275453759E+03  0.71205972373E+03  0.89620378187E+03  0.98376709567E+02 0.  0.
        254    2    1    2    0    0  0.51447003567E+02  0.53275453759E+03 -0.39874984798E+03  0.11199249240E+04  0.89930873595E+03 0.  0.
        -24    2    4    4    0    0  0.36298875211E+03  0.14999289717E+03  0.10023510556E+03  0.41307732216E+03  0.79543034483E+02 0.  0.
         24    2    4    4    0    0 -0.31154174854E+03  0.38276164042E+03 -0.49898495353E+03  0.70684760181E+03  0.84159454977E+02 0.  0.
         13    1    3    3    0    0 -0.53509507248E+02 -0.48064384112E+03  0.58603744720E+03  0.75981685879E+03  0.00000000000E+00 0. -1.
        -13    1    3    3    0    0  0.20625036812E+01 -0.52110696472E+02  0.12602227652E+03  0.13638692308E+03  0.00000000000E+00 0.  1.
          4    1    6    6  502    0 -0.29201331718E+03  0.36997109780E+03 -0.49437999458E+03  0.68305341641E+03  0.00000000000E+00 0. -1.
          1    1    5    5  503    0  0.33053776820E+03  0.15669887273E+03  0.80649113920E+02  0.37458514719E+03  0.00000000000E+00 0. -1.
         -2    1    5    5    0  503  0.32450983912E+02 -0.67059755624E+01  0.19585991639E+02  0.38492174965E+02  0.00000000000E+00 0.  1.
         -3    1    6    6    0  502 -0.19528431358E+02  0.12790542617E+02 -0.46049589502E+01  0.23794185396E+02  0.00000000000E+00 0.  1.
<mgrwt>
<rscale>  0 0.19916355E+04</rscale>
<asrwt>0</asrwt>
<pdfrwt beam="1">  1        1 0.17918758E+00 0.19916355E+04</pdfrwt>
<pdfrwt beam="2">  1       -1 0.13098606E+00 0.19916355E+04</pdfrwt>
<totfact> 0.52398320E+00</totfact>
</mgrwt>
</event>
<event>
12    1  0.1562393E-007  0.2303219E+04  0.7818608E-02  0.8476653E-01
          2   -1    0    0  501    0  0.00000000000E+00  0.00000000000E+00  0.26583891785E+04  0.26583891785E+04  0.00000000000E+00 0.  1.
         -2   -1    0    0    0  501 -0.00000000000E+00 -0.00000000000E+00 -0.49887528476E+03  0.49887528476E+03  0.00000000000E+00 0. -1.
         23    2    1    2    0    0 -0.40436288753E+03 -0.16696829123E+03 -0.27375764429E+03  0.52398218711E+03  0.90699115291E+02 0.  0.
        254    2    1    2    0    0  0.40436288753E+03  0.16696829123E+03  0.24332715380E+04  0.26332822761E+04  0.90662970004E+03 0.  0.
        -24    2    4    4    0    0  0.94094847286E+02 -0.43978366055E+02  0.21554153650E+04  0.21594191157E+04  0.80545543421E+02 0.  0.
         24    2    4    4    0    0  0.31026804025E+03  0.21094665728E+03  0.27785617296E+03  0.47386316039E+03  0.81101744159E+02 0.  0.
         13    1    3    3    0    0 -0.28155614225E+03 -0.14042045700E+03 -0.23430908755E+03  0.39229136429E+03  0.00000000000E+00 0.  1.
        -13    1    3    3    0    0 -0.12280674528E+03 -0.26547834230E+02 -0.39448556742E+02  0.13169082283E+03  0.00000000000E+00 0. -1.
          4    1    6    6  502    0  0.11995962859E+03  0.12051728932E+03  0.15425180738E+03  0.22958299065E+03  0.00000000000E+00 0. -1.
          3    1    5    5  503    0  0.53988438849E+02 -0.63627599907E+02  0.16183903233E+04  0.16205401759E+04  0.00000000000E+00 0. -1.
         -4    1    5    5    0  503  0.40106408437E+02  0.19649233852E+02  0.53702504172E+03  0.53887893986E+03  0.00000000000E+00 0.  1.
         -3    1    6    6    0  502  0.19030841165E+03  0.90429367966E+02  0.12360436558E+03  0.24428016974E+03  0.00000000000E+00 0.  1.
<mgrwt>
<rscale>  0 0.23032192E+04</rscale>
<asrwt>0</asrwt>
<pdfrwt beam="1">  1        2 0.40898294E+00 0.23032192E+04</pdfrwt>
<pdfrwt beam="2">  1       -2 0.76750046E-01 0.23032192E+04</pdfrwt>
<totfact> 0.38655393E+00</totfact>
</mgrwt>
</event>
<event>
12    1  0.1562393E-007  0.1057058E+04  0.7818608E-02  0.9248087E-01
          2   -1    0    0  501    0  0.00000000000E+00  0.00000000000E+00  0.15594449535E+04  0.15594449535E+04  0.00000000000E+00 0. -1.
         -2   -1    0    0    0  501 -0.00000000000E+00 -0.00000000000E+00 -0.17912969959E+03  0.17912969959E+03  0.00000000000E+00 0.  1.
         23    2    1    2    0    0 -0.49522547588E+02 -0.31129298352E+01  0.26985190009E+02  0.10757287396E+03  0.91550803818E+02 0.  0.
        254    2    1    2    0    0  0.49522547588E+02  0.31129298352E+01  0.13533300639E+04  0.16310017791E+04  0.90895674738E+03 0.  0.
        -24    2    4    4    0    0  0.24185589805E+03  0.11301118181E+03  0.21541909656E+02  0.27847376107E+03  0.76274367258E+02 0.  0.
         24    2    4    4    0    0 -0.19233335046E+03 -0.10989825197E+03  0.13317881542E+04  0.13525280180E+04  0.81256435797E+02 0.  0.
         11    1    3    3    0    0  0.23443001504E+02 -0.44246443265E+00 -0.10276234918E+02  0.25600216764E+02  0.00000000000E+00 0.  1.
        -11    1    3    3    0    0 -0.72965549092E+02 -0.26704654026E+01  0.37261424927E+02  0.81972657193E+02  0.00000000000E+00 0. -1.
          4    1    6    6  502    0 -0.78272366343E+02 -0.64347451660E+02  0.39793935473E+03  0.41063717307E+03  0.00000000000E+00 0. -1.
          1    1    5    5  503    0  0.19915197838E+03  0.11519103123E+03  0.36966638158E+02  0.23301720217E+03  0.00000000000E+00 0. -1.
         -2    1    5    5    0  503  0.42703919664E+02 -0.21798494207E+01 -0.15424728501E+02  0.45456558905E+02  0.00000000000E+00 0.  1.
         -3    1    6    6    0  502 -0.11406098412E+03 -0.45550800311E+02  0.93384879951E+03  0.94189084498E+03  0.00000000000E+00 0.  1.
<mgrwt>
<rscale>  0 0.10570580E+04</rscale>
<asrwt>0</asrwt>
<pdfrwt beam="1">  1        2 0.23991460E+00 0.10570580E+04</pdfrwt>
<pdfrwt beam="2">  1       -2 0.27558416E-01 0.10570580E+04</pdfrwt>
<totfact> 0.14031965E+02</totfact>
</mgrwt>
</event>
<event>
12    1  0.1562393E-007  0.2232252E+04  0.7818608E-02  0.8505123E-01
         -2   -1    0    0    0  501 -0.00000000000E+00  0.00000000000E+00  0.63869406072E+03  0.63869406072E+03  0.00000000000E+00 0.  1.
          2   -1    0    0  501    0  0.00000000000E+00 -0.00000000000E+00 -0.19504446078E+04  0.19504446078E+04  0.00000000000E+00 0. -1.
         23    2    1    2    0    0 -0.69240169885E+03  0.61696196861E+03 -0.34239798827E+03  0.99283614508E+03  0.91788045660E+02 0.  0.
        254    2    1    2    0    0  0.69240169885E+03 -0.61696196861E+03 -0.96935255882E+03  0.15963025235E+04  0.86514460053E+03 0.  0.
        -24    2    4    4    0    0 -0.10147242932E+03 -0.15107647351E+03  0.64642080388E+02  0.20961966255E+03  0.81492635313E+02 0.  0.
         24    2    4    4    0    0  0.79387412816E+03 -0.46588549510E+03 -0.10339946392E+04  0.13866828609E+04  0.80368009312E+02 0.  0.
         13    1    3    3    0    0 -0.10888060965E+03  0.65666541953E+02 -0.24871750938E+02  0.12955958431E+03  0.00000000000E+00 0. -1.
        -13    1    3    3    0    0 -0.58352108919E+03  0.55129542665E+03 -0.31752623734E+03  0.86327656077E+03  0.00000000000E+00 0.  1.
          2    1    6    6  502    0  0.72644878624E+03 -0.44392652848E+03 -0.97550666959E+03  0.12947632464E+04  0.00000000000E+00 0. -1.
          3    1    5    5  503    0 -0.77350543353E+02 -0.93771183822E+02  0.80070194105E+02  0.14555884534E+03  0.00000000000E+00 0. -1.
         -2    1    5    5    0  503 -0.24121885962E+02 -0.57305289687E+02 -0.15428113717E+02  0.64060817208E+02  0.00000000000E+00 0.  1.
         -1    1    6    6    0  502  0.67425341920E+02 -0.21958966612E+02 -0.58487969617E+02  0.91919614543E+02  0.00000000000E+00 0.  1.
<mgrwt>
<rscale>  0 0.22322521E+04</rscale>
<asrwt>0</asrwt>
<pdfrwt beam="1">  1        2 0.30006840E+00 0.22322521E+04</pdfrwt>
<pdfrwt beam="2">  1       -2 0.98260625E-01 0.22322521E+04</pdfrwt>
<totfact> 0.55873971E+00</totfact>
</mgrwt>
</event>
<event>
12    1  0.1562393E-007  0.1655088E+04  0.7818608E-02  0.8787402E-01
         -1   -1    0    0    0  501 -0.00000000000E+00  0.00000000000E+00  0.33270381353E+03  0.33270381353E+03  0.00000000000E+00 0.  1.
          1   -1    0    0  501    0  0.00000000000E+00 -0.00000000000E+00 -0.20583745416E+04  0.20583745416E+04  0.00000000000E+00 0. -1.
         23    2    1    2    0    0  0.24897157371E+03 -0.21698061548E+03 -0.13029898049E+04  0.13472574469E+04  0.90844728756E+02 0.  0.
        254    2    1    2    0    0 -0.24897157371E+03  0.21698061548E+03 -0.42268092324E+03  0.10438209082E+04  0.89545267522E+03 0.  0.
        -24    2    4    4    0    0 -0.52265725818E+03  0.33007945056E+03 -0.17064986911E+03  0.64631241739E+03  0.80469309865E+02 0.  0.
         24    2    4    4    0    0  0.27368568447E+03 -0.11309883508E+03 -0.25203105413E+03  0.39750849084E+03  0.82450880279E+02 0.  0.
         11    1    3    3    0    0  0.44779924789E+02 -0.74045503081E+00 -0.19115868414E+03  0.19633500060E+03  0.00000000000E+00 0.  1.
        -11    1    3    3    0    0  0.20419164892E+03 -0.21624016045E+03 -0.11118311207E+04  0.11509224463E+04  0.00000000000E+00 0. -1.
          2    1    6    6  502    0  0.17197812952E+03 -0.10023783346E+03 -0.20139392452E+03  0.28316711166E+03  0.00000000000E+00 0. -1.
          3    1    5    5  503    0 -0.47884273958E+03  0.32469182187E+03 -0.15058529077E+03  0.59782194526E+03  0.00000000000E+00 0. -1.
         -4    1    5    5    0  503 -0.43814518599E+02  0.53876286907E+01 -0.20064578346E+02  0.48490472128E+02  0.00000000000E+00 0.  1.
         -1    1    6    6    0  502  0.10170755496E+03 -0.12861001619E+02 -0.50637129608E+02  0.11434137918E+03  0.00000000000E+00 0.  1.
<mgrwt>
<rscale>  0 0.16550880E+04</rscale>
<asrwt>0</asrwt>
<pdfrwt beam="1">  1        1 0.31667300E+00 0.16550880E+04</pdfrwt>
<pdfrwt beam="2">  1       -1 0.51185203E-01 0.16550880E+04</pdfrwt>
<totfact> 0.99763245E+00</totfact>
</mgrwt>
</event>
<event>
12    1  0.1562393E-007  0.1260604E+04  0.7818608E-02  0.9061404E-01
          1   -1    0    0  501    0  0.00000000000E+00  0.00000000000E+00  0.94180603082E+03  0.94180603082E+03  0.00000000000E+00 0. -1.
         -1   -1    0    0    0  501 -0.00000000000E+00 -0.00000000000E+00 -0.42182837269E+03  0.42182837269E+03  0.00000000000E+00 0.  1.
         23    2    1    2    0    0 -0.18129854407E+03 -0.11819411097E+03  0.37249942323E+03  0.44055821267E+03  0.92177592135E+02 0.  0.
        254    2    1    2    0    0  0.18129854407E+03  0.11819411097E+03  0.14747823490E+03  0.92307619084E+03  0.88514451609E+03 0.  0.
        -24    2    4    4    0    0 -0.21471240889E+03  0.23408007156E+03  0.33015544446E+03  0.46467186494E+03  0.77604291971E+02 0.  0.
         24    2    4    4    0    0  0.39601095296E+03 -0.11588596059E+03 -0.18267720956E+03  0.45840432590E+03  0.80680433727E+02 0.  0.
         11    1    3    3    0    0 -0.86159794433E+02 -0.67070405139E+02  0.10250971234E+03  0.14976712105E+03  0.00000000000E+00 0.  1.
        -11    1    3    3    0    0 -0.95138749638E+02 -0.51123705830E+02  0.26998971089E+03  0.29079109162E+03  0.00000000000E+00 0. -1.
          2    1    6    6  502    0  0.54476900802E+02  0.11883607616E+02 -0.22598407956E+02  0.60163451473E+02  0.00000000000E+00 0. -1.
          1    1    5    5  503    0 -0.48743686310E+02  0.93345795586E+02  0.14341626785E+03  0.17792585644E+03  0.00000000000E+00 0. -1.
         -2    1    5    5    0  503 -0.16596872258E+03  0.14073427597E+03  0.18673917661E+03  0.28674600850E+03  0.00000000000E+00 0.  1.
         -1    1    6    6    0  502  0.34153405215E+03 -0.12776956820E+03 -0.16007880160E+03  0.39824087442E+03  0.00000000000E+00 0.  1.
<mgrwt>
<rscale>  0 0.12606038E+04</rscale>
<asrwt>0</asrwt>
<pdfrwt beam="1">  1        1 0.14489324E+00 0.12606038E+04</pdfrwt>
<pdfrwt beam="2">  1       -1 0.64896673E-01 0.12606038E+04</pdfrwt>
<totfact> 0.39924235E+01</totfact>
</mgrwt>
</event>
<event>
12    1  0.1562393E-007  0.2231808E+04  0.7818608E-02  0.8505305E-01
          1   -1    0    0  501    0  0.00000000000E+00  0.00000000000E+00  0.22354872361E+04  0.22354872361E+04  0.00000000000E+00 0. -1.
         -1   -1    0    0    0  501 -0.00000000000E+00 -0.00000000000E+00 -0.55703346734E+03  0.55703346734E+03  0.00000000000E+00 0.  1.
         23    2    1    2    0    0  0.65638490344E+03  0.26310483696E+02 -0.12181876885E+03  0.67472242373E+03  0.94218647985E+02 0.  0.
        254    2    1    2    0    0 -0.65638490344E+03 -0.26310483696E+02  0.18002725376E+04  0.21177982797E+04  0.90141830515E+03 0.  0.
        -24    2    4    4    0    0 -0.61401935270E+03  0.94523794670E+02  0.18545852388E+04  0.19575522013E+04  0.81053683696E+02 0.  0.
         24    2    4    4    0    0 -0.42365550737E+02 -0.12083427837E+03 -0.54312701218E+02  0.16024607837E+03  0.79581237757E+02 0.  0.
         11    1    3    3    0    0  0.38917132865E+03  0.61869432890E+02 -0.73814723225E+02  0.40091241330E+03  0.00000000000E+00 0.  1.
        -11    1    3    3    0    0  0.26721357479E+03 -0.35558949194E+02 -0.48004045620E+02  0.27381001044E+03  0.00000000000E+00 0. -1.
          2    1    6    6  502    0  0.16038089753E+02 -0.26120668278E+02  0.93535782250E+01  0.32046826049E+02  0.00000000000E+00 0. -1.
          1    1    5    5  503    0 -0.31841830109E+03  0.32991385382E+02  0.83752193396E+03  0.89661677200E+03  0.00000000000E+00 0. -1.
         -2    1    5    5    0  503 -0.29560105161E+03  0.61532409288E+02  0.10170633048E+04  0.10609354293E+04  0.00000000000E+00 0.  1.
         -1    1    6    6    0  502 -0.58403640489E+02 -0.94713610088E+02 -0.63666279443E+02  0.12819925232E+03  0.00000000000E+00 0.  1.
<mgrwt>
<rscale>  0 0.22318075E+04</rscale>
<asrwt>0</asrwt>
<pdfrwt beam="1">  1        1 0.34392111E+00 0.22318075E+04</pdfrwt>
<pdfrwt beam="2">  1       -1 0.85697458E-01 0.22318075E+04</pdfrwt>
<totfact> 0.25190536E+00</totfact>
</mgrwt>
</event>
<event>
12    1  0.1562393E-007  0.1458008E+04  0.7818608E-02  0.8912868E-01
         -1   -1    0    0    0  501 -0.00000000000E+00  0.00000000000E+00  0.40494895223E+03  0.40494895223E+03  0.00000000000E+00 0.  1.
          1   -1    0    0  501    0  0.00000000000E+00 -0.00000000000E+00 -0.13123795391E+04  0.13123795391E+04  0.00000000000E+00 0. -1.
         23    2    1    2    0    0  0.23251233830E+03  0.28823537393E+03 -0.70306692020E-01  0.38139127175E+03  0.91201310167E+02 0.  0.
        254    2    1    2    0    0 -0.23251233830E+03 -0.28823537393E+03 -0.90736028020E+03  0.13359372196E+04  0.90790085273E+03 0.  0.
        -24    2    4    4    0    0 -0.23256217785E+03 -0.41911064327E+02  0.11979230187E+03  0.27663568541E+03  0.79595244677E+02 0.  0.
         24    2    4    4    0    0  0.49839558054E-01 -0.24632430960E+03 -0.10271525821E+04  0.10593015342E+04  0.80010283727E+02 0.  0.
         11    1    3    3    0    0  0.23528236833E+03  0.25102401259E+03 -0.13942418719E+01  0.34405347209E+03  0.00000000000E+00 0.  1.
        -11    1    3    3    0    0 -0.27700300342E+01  0.37211361335E+02  0.13239351798E+01  0.37337799656E+02  0.00000000000E+00 0. -1.
          2    1    6    6  502    0  0.27779298025E+02 -0.20877482359E+03 -0.78962793416E+03  0.81723368186E+03  0.00000000000E+00 0. -1.
          3    1    5    5  503    0 -0.20239708648E+03 -0.58889003689E+02  0.84193961708E+02  0.22698263934E+03  0.00000000000E+00 0. -1.
         -4    1    5    5    0  503 -0.30165091373E+02  0.16977939362E+02  0.35598340160E+02  0.49653046077E+02  0.00000000000E+00 0.  1.
         -1    1    6    6    0  502 -0.27729458467E+02 -0.37549486013E+02 -0.23752464791E+03  0.24206785233E+03  0.00000000000E+00 0.  1.
<mgrwt>
<rscale>  0 0.14580078E+04</rscale>
<asrwt>0</asrwt>
<pdfrwt beam="1">  1        1 0.20190454E+00 0.14580078E+04</pdfrwt>
<pdfrwt beam="2">  1       -1 0.62299839E-01 0.14580078E+04</pdfrwt>
<totfact> 0.22480530E+01</totfact>
</mgrwt>
</event>
<event>
12    1  0.1562393E-007  0.2981172E+04  0.7818608E-02  0.8249128E-01
         -2   -1    0    0    0  501 -0.00000000000E+00  0.00000000000E+00  0.15675275687E+04  0.15675275687E+04  0.00000000000E+00 0.  1.
          2   -1    0    0  501    0  0.00000000000E+00 -0.00000000000E+00 -0.14174211600E+04  0.14174211600E+04  0.00000000000E+00 0. -1.
         23    2    1    2    0    0 -0.72021269852E+03 -0.44861064526E+03 -0.96596506395E+03  0.12889816541E+04  0.91800641294E+02 0.  0.
        254    2    1    2    0    0  0.72021269852E+03  0.44861064526E+03  0.11160714727E+04  0.16959670746E+04  0.95432224309E+03 0.  0.
        -24    2    4    4    0    0 -0.21915746570E+03  0.25181451785E+02  0.29023714113E+03  0.37310871187E+03  0.79425515398E+02 0.  0.
         24    2    4    4    0    0  0.93937016422E+03  0.42342919348E+03  0.82583433161E+03  0.13228583627E+04  0.79014664642E+02 0.  0.
         11    1    3    3    0    0 -0.30076519114E+02 -0.40678226652E+02 -0.42418225128E+02  0.66019852685E+02  0.00000000000E+00 0.  1.
        -11    1    3    3    0    0 -0.69013617940E+03 -0.40793241861E+03 -0.92354683882E+03  0.12229618014E+04  0.00000000000E+00 0. -1.
          4    1    6    6  502    0  0.53848462962E+03  0.28423684085E+03  0.49799295003E+03  0.78660870598E+03  0.00000000000E+00 0. -1.
          3    1    5    5  503    0 -0.17194176841E+03  0.52228991206E+02  0.23114565376E+03  0.29278004116E+03  0.00000000000E+00 0. -1.
         -4    1    5    5    0  503 -0.47215697287E+02 -0.27047539422E+02  0.59091487370E+02  0.80328670714E+02  0.00000000000E+00 0.  1.
         -3    1    6    6    0  502  0.40088553459E+03  0.13919235262E+03  0.32784138158E+03  0.53624965674E+03  0.00000000000E+00 0.  1.
<mgrwt>
<rscale>  0 0.29811721E+04</rscale>
<asrwt>0</asrwt>
<pdfrwt beam="1">  1        2 0.21806480E+00 0.29811721E+04</pdfrwt>
<pdfrwt beam="2">  1       -2 0.24115809E+00 0.29811721E+04</pdfrwt>
<totfact> 0.88345995E-01</totfact>
</mgrwt>
</event>
<event>
12    1  0.1562393E-007  0.1114601E+04  0.7818608E-02  0.9191076E-01
          2   -1    0    0  501    0  0.00000000000E+00  0.00000000000E+00  0.14065563817E+04  0.14065563817E+04  0.00000000000E+00 0. -1.
         -2   -1    0    0    0  501 -0.00000000000E+00 -0.00000000000E+00 -0.22081156037E+03  0.22081156037E+03  0.00000000000E+00 0.  1.
         23    2    1    2    0    0  0.16220247557E+03  0.27817183047E+02  0.22251935504E+03  0.29310861778E+03  0.96510930445E+02 0.  0.
        254    2    1    2    0    0 -0.16220247557E+03 -0.27817183047E+02  0.96322546630E+03  0.13342593243E+04  0.90849392227E+03 0.  0.
        -24    2    4    4    0    0 -0.31281682359E+03 -0.39975650831E+03  0.53580864200E+03  0.74257020683E+03  0.81608701576E+02 0.  0.
         24    2    4    4    0    0  0.15061434802E+03  0.37193932527E+03  0.42741682429E+03  0.59168911747E+03  0.79920751571E+02 0.  0.
         13    1    3    3    0    0  0.25991229838E+02 -0.82073948353E+01 -0.27625925409E+01  0.27395935392E+02  0.00000000000E+00 0. -1.
        -13    1    3    3    0    0  0.13621124573E+03  0.36024577882E+02  0.22528194758E+03  0.26571268239E+03  0.00000000000E+00 0.  1.
          4    1    6    6  502    0  0.13680621819E+03  0.27696873692E+03  0.36019592496E+03  0.47451946949E+03  0.00000000000E+00 0. -1.
          3    1    5    5  503    0 -0.26516403426E+03 -0.37592512650E+03  0.49224033903E+03  0.67374491995E+03  0.00000000000E+00 0. -1.
         -2    1    5    5    0  503 -0.47652789326E+02 -0.23831381817E+02  0.43568302972E+02  0.68825286877E+02  0.00000000000E+00 0.  1.
         -3    1    6    6    0  502  0.13808129827E+02  0.94970588342E+02  0.67220899331E+02  0.11716964797E+03  0.00000000000E+00 0.  1.
<mgrwt>
<rscale>  0 0.11146011E+04</rscale>
<asrwt>0</asrwt>
<pdfrwt beam="1">  1        2 0.21639328E+00 0.11146011E+04</pdfrwt>
<pdfrwt beam="2">  1       -2 0.33971010E-01 0.11146011E+04</pdfrwt>
<totfact> 0.11532088E+02</totfact>
</mgrwt>
</event>
<event>
12    1  0.1562393E-007  0.1762744E+04  0.7818608E-02  0.8726367E-01
         -2   -1    0    0    0  501 -0.00000000000E+00  0.00000000000E+00  0.69109463290E+03  0.69109463290E+03  0.00000000000E+00 0. -1.
          2   -1    0    0  501    0  0.00000000000E+00 -0.00000000000E+00 -0.11240373385E+04  0.11240373385E+04  0.00000000000E+00 0.  1.
         23    2    1    2    0    0 -0.33305891007E+03 -0.15547406190E+03 -0.70631608487E+03  0.80141510304E+03  0.91012824009E+02 0.  0.
        254    2    1    2    0    0  0.33305891007E+03  0.15547406190E+03  0.27337337924E+03  0.10137168684E+04  0.90431657249E+03 0.  0.
        -24    2    4    4    0    0  0.89956166987E+02  0.33250257512E+01 -0.32428842897E+03  0.34609600457E+03  0.80723549508E+02 0.  0.
         24    2    4    4    0    0  0.24310274308E+03  0.15214903615E+03  0.59766180820E+03  0.66762086382E+03  0.79181487244E+02 0.  0.
         13    1    3    3    0    0 -0.12783569550E+02 -0.29573032225E+02 -0.38968265438E+02  0.50561938221E+02  0.00000000000E+00 0. -1.
        -13    1    3    3    0    0 -0.32027534052E+03 -0.12590102968E+03 -0.66734781944E+03  0.75085316482E+03  0.00000000000E+00 0.  1.
          2    1    6    6  502    0  0.18617652158E+03  0.11383600812E+03  0.36708127776E+03  0.42704683398E+03  0.00000000000E+00 0. -1.
          3    1    5    5  503    0  0.21837222503E+01  0.58926983065E+01 -0.15731940156E+03  0.15744486858E+03  0.00000000000E+00 0. -1.
         -4    1    5    5    0  503  0.87772444736E+02 -0.25676725554E+01 -0.16696902741E+03  0.18865113599E+03  0.00000000000E+00 0.  1.
         -1    1    6    6    0  502  0.56926221507E+02  0.38313028030E+02  0.23058053044E+03  0.24057402984E+03  0.00000000000E+00 0.  1.
<mgrwt>
<rscale>  0 0.17627435E+04</rscale>
<asrwt>0</asrwt>
<pdfrwt beam="1">  1        2 0.17292882E+00 0.17627435E+04</pdfrwt>
<pdfrwt beam="2">  1       -2 0.10632225E+00 0.17627435E+04</pdfrwt>
<totfact> 0.14223751E+01</totfact>
</mgrwt>
</event>
<event>
12    1  0.1562393E-007  0.1765660E+04  0.7818608E-02  0.8724777E-01
         -2   -1    0    0    0  501 -0.00000000000E+00  0.00000000000E+00  0.25488005527E+03  0.25488005527E+03  0.00000000000E+00 0.  1.
          2   -1    0    0  501    0  0.00000000000E+00 -0.00000000000E+00 -0.30578646303E+04  0.30578646303E+04  0.00000000000E+00 0. -1.
         23    2    1    2    0    0  0.33782819540E+03 -0.54611270793E+03 -0.85008095423E+03  0.10703185591E+04  0.10284556315E+03 0.  0.
        254    2    1    2    0    0 -0.33782819540E+03  0.54611270793E+03 -0.19529036208E+04  0.22424261264E+04  0.89569827568E+03 0.  0.
        -24    2    4    4    0    0 -0.15288182117E+03  0.50819388186E+03 -0.38349207477E+03  0.65975440604E+03  0.81091504299E+02 0.  0.
         24    2    4    4    0    0 -0.18494637423E+03  0.37918826075E+02 -0.15694115460E+04  0.15826717204E+04  0.78448550490E+02 0.  0.
         13    1    3    3    0    0  0.14211658911E+03 -0.20478365811E+03 -0.41154801475E+03  0.48114991424E+03  0.00000000000E+00 0.  1.
        -13    1    3    3    0    0  0.19571160629E+03 -0.34132904982E+03 -0.43853293948E+03  0.58916864487E+03  0.00000000000E+00 0. -1.
          4    1    6    6  502    0 -0.15800044914E+03  0.96240357470E+01 -0.13941467481E+04  0.14031043865E+04  0.00000000000E+00 0. -1.
          1    1    5    5  503    0 -0.13105203006E+03  0.39982469915E+03 -0.26278001980E+03  0.49607233690E+03  0.00000000000E+00 0. -1.
         -2    1    5    5    0  503 -0.21829791111E+02  0.10836918271E+03 -0.12071205497E+03  0.16368206914E+03  0.00000000000E+00 0.  1.
         -3    1    6    6    0  502 -0.26945925094E+02  0.28294790328E+02 -0.17526479784E+03  0.17956733389E+03  0.00000000000E+00 0.  1.
<mgrwt>
<rscale>  0 0.17656599E+04</rscale>
<asrwt>0</asrwt>
<pdfrwt beam="1">  1        2 0.47044074E+00 0.17656599E+04</pdfrwt>
<pdfrwt beam="2">  1       -2 0.39212314E-01 0.17656599E+04</pdfrwt>
<totfact> 0.93613169E+00</totfact>
</mgrwt>
</event>
<event>
12    1  0.1562393E-007  0.1588193E+04  0.7818608E-02  0.8827835E-01
         -1   -1    0    0    0  501 -0.00000000000E+00  0.00000000000E+00  0.33414407336E+03  0.33414407336E+03  0.00000000000E+00 0.  1.
          1   -1    0    0  501    0  0.00000000000E+00 -0.00000000000E+00 -0.18871775161E+04  0.18871775161E+04  0.00000000000E+00 0. -1.
         23    2    1    2    0    0 -0.47507554192E+03  0.16351006236E+02 -0.86290503839E+03  0.98942359398E+03  0.91595944798E+02 0.  0.
        254    2    1    2    0    0  0.47507554192E+03 -0.16351006236E+02 -0.69012840440E+03  0.12318979955E+04  0.90295699281E+03 0.  0.
        -24    2    4    4    0    0  0.39666133482E+03 -0.86503527777E+02  0.10508990247E+03  0.42584239766E+03  0.73991791331E+02 0.  0.
         24    2    4    4    0    0  0.78414207104E+02  0.70152521541E+02 -0.79521830687E+03  0.80605559786E+03  0.79267314251E+02 0.  0.
         13    1    3    3    0    0 -0.14838872911E+03 -0.17070132111E+02 -0.19983169289E+03  0.24948609143E+03  0.00000000000E+00 0. -1.
        -13    1    3    3    0    0 -0.32668681282E+03  0.33421138347E+02 -0.66307334550E+03  0.73993750255E+03  0.00000000000E+00 0.  1.
          2    1    6    6  502    0  0.82384749887E+02  0.59635318774E+02 -0.48092287651E+03  0.49155918403E+03  0.00000000000E+00 0. -1.
          3    1    5    5  503    0  0.73364720719E+02 -0.41086908639E+02  0.44196730798E+01  0.84202433562E+02  0.00000000000E+00 0. -1.
         -4    1    5    5    0  503  0.32329661410E+03 -0.45416619139E+02  0.10067022939E+03  0.34163996410E+03  0.00000000000E+00 0.  1.
         -1    1    6    6    0  502 -0.39705427837E+01  0.10517202766E+02 -0.31429543036E+03  0.31449641383E+03  0.00000000000E+00 0.  1.
<mgrwt>
<rscale>  0 0.15881929E+04</rscale>
<asrwt>0</asrwt>
<pdfrwt beam="1">  1        1 0.29033500E+00 0.15881929E+04</pdfrwt>
<pdfrwt beam="2">  1       -1 0.51406781E-01 0.15881929E+04</pdfrwt>
<totfact> 0.12998827E+01</totfact>
</mgrwt>
</event>
<event>
12    1  0.1562393E-007  0.2057857E+04  0.7818608E-02  0.8580038E-01
         -2   -1    0    0    0  501 -0.00000000000E+00  0.00000000000E+00  0.10611926051E+04  0.10611926051E+04  0.00000000000E+00 0.  1.
          2   -1    0    0  501    0  0.00000000000E+00 -0.00000000000E+00 -0.99764499275E+03  0.99764499275E+03  0.00000000000E+00 0. -1.
         23    2    1    2    0    0 -0.13712895316E+03  0.79359172257E+03 -0.16847320318E+03  0.82772515314E+03  0.90296938055E+02 0.  0.
        254    2    1    2    0    0  0.13712895316E+03 -0.79359172257E+03  0.23202081548E+03  0.12311124447E+04  0.90178269038E+03 0.  0.
        -24    2    4    4    0    0  0.81724595925E+01 -0.60840616377E+03  0.55651081345E+03  0.82792751716E+03  0.74396498309E+02 0.  0.
         24    2    4    4    0    0  0.12895649357E+03 -0.18518555880E+03 -0.32448999797E+03  0.40318492752E+03  0.79629508180E+02 0.  0.
         13    1    3    3    0    0 -0.14799797273E+02  0.10041738208E+03  0.87292897629E+01  0.10187681347E+03  0.00000000000E+00 0. -1.
        -13    1    3    3    0    0 -0.12232915589E+03  0.69317434049E+03 -0.17720249294E+03  0.72584833967E+03  0.00000000000E+00 0.  1.
          4    1    6    6  502    0  0.12686273260E+03 -0.19100513119E+03 -0.29813411001E+03  0.37611309551E+03  0.00000000000E+00 0. -1.
          3    1    5    5  503    0  0.14438226111E+02 -0.45251190536E+03  0.36953526945E+03  0.58440722295E+03  0.00000000000E+00 0. -1.
         -2    1    5    5    0  503 -0.62657665187E+01 -0.15589425842E+03  0.18697554400E+03  0.24352029421E+03  0.00000000000E+00 0.  1.
         -3    1    6    6    0  502  0.20937609683E+01  0.58195723948E+01 -0.26355887962E+02  0.27071832005E+02  0.00000000000E+00 0.  1.
<mgrwt>
<rscale>  0 0.20578566E+04</rscale>
<asrwt>0</asrwt>
<pdfrwt beam="1">  1        2 0.15348385E+00 0.20578566E+04</pdfrwt>
<pdfrwt beam="2">  1       -2 0.16326040E+00 0.20578566E+04</pdfrwt>
<totfact> 0.55705877E+00</totfact>
</mgrwt>
</event>
<event>
12    1  0.1562393E-007  0.1487897E+04  0.7818608E-02  0.8892542E-01
         -1   -1    0    0    0  501 -0.00000000000E+00  0.00000000000E+00  0.12985959588E+04  0.12985959588E+04  0.00000000000E+00 0.  1.
          1   -1    0    0  501    0  0.00000000000E+00 -0.00000000000E+00 -0.42619812489E+03  0.42619812489E+03  0.00000000000E+00 0. -1.
         23    2    1    2    0    0  0.82761501979E+01 -0.70939141734E+02  0.80899540418E+03  0.81834444282E+03  0.10056444013E+03 0.  0.
        254    2    1    2    0    0 -0.82761501979E+01  0.70939141734E+02  0.63402429703E+02  0.90644964084E+03  0.90140458552E+03 0.  0.
        -24    2    4    4    0    0  0.34296943664E+03  0.55538431753E+02  0.30798428585E+03  0.47044924099E+03  0.75865777190E+02 0.  0.
         24    2    4    4    0    0 -0.35124558684E+03  0.15400709981E+02 -0.24458185614E+03  0.43600039985E+03  0.81642024585E+02 0.  0.
         11    1    3    3    0    0  0.10710880858E+02 -0.21537990549E+02  0.33329045671E+02  0.41102716346E+02  0.00000000000E+00 0. -1.
        -11    1    3    3    0    0 -0.24347306597E+01 -0.49401151186E+02  0.77566635851E+03  0.77724172648E+03  0.00000000000E+00 0.  1.
          4    1    6    6  502    0 -0.31477161631E+03 -0.35363114460E+01 -0.23741405745E+03  0.39428303363E+03  0.00000000000E+00 0. -1.
          3    1    5    5  503    0  0.32530072954E+03  0.66174896092E+02  0.30248178634E+03  0.44910456753E+03  0.00000000000E+00 0. -1.
         -4    1    5    5    0  503  0.17668707095E+02 -0.10636464339E+02  0.55024995102E+01  0.21344673455E+02  0.00000000000E+00 0.  1.
         -3    1    6    6    0  502 -0.36473970528E+02  0.18937021427E+02 -0.71677986897E+01  0.41717366223E+02  0.00000000000E+00 0.  1.
<mgrwt>
<rscale>  0 0.14878967E+04</rscale>
<asrwt>0</asrwt>
<pdfrwt beam="1">  1        1 0.65568943E-01 0.14878967E+04</pdfrwt>
<pdfrwt beam="2">  1       -1 0.19978399E+00 0.14878967E+04</pdfrwt>
<totfact> 0.80571628E+00</totfact>
</mgrwt>
</event>
<event>
12    1  0.1562393E-007  0.1583106E+04  0.7818608E-02  0.8830994E-01
          2   -1    0    0  501    0  0.00000000000E+00  0.00000000000E+00  0.71256155554E+03  0.71256155554E+03  0.00000000000E+00 0. -1.
         -2   -1    0    0    0  501 -0.00000000000E+00 -0.00000000000E+00 -0.87930090322E+03  0.87930090322E+03  0.00000000000E+00 0.  1.
         23    2    1    2    0    0 -0.14910542590E+03  0.39829222934E+03 -0.36780754730E+03  0.56973057440E+03  0.91877133027E+02 0.  0.
        254    2    1    2    0    0  0.14910542590E+03 -0.39829222934E+03  0.20106819962E+03  0.10221318844E+04  0.90744478629E+03 0.  0.
        -24    2    4    4    0    0 -0.37442193813E+03 -0.23148746621E+03  0.85465564339E+02  0.45503928974E+03  0.77318547273E+02 0.  0.
         24    2    4    4    0    0  0.52352736403E+03 -0.16680476312E+03  0.11560263528E+03  0.56709259463E+03  0.79531828315E+02 0.  0.
         11    1    3    3    0    0 -0.93645719367E+02  0.22943955325E+03 -0.15427630305E+03  0.29191301279E+03  0.00000000000E+00 0. -1.
        -11    1    3    3    0    0 -0.55459706532E+02  0.16885267609E+03 -0.21353124425E+03  0.27781756161E+03  0.00000000000E+00 0.  1.
          2    1    6    6  502    0  0.19142496465E+03 -0.41310703065E+02  0.74943553772E+01  0.19597514292E+03  0.00000000000E+00 0. -1.
          1    1    5    5  503    0 -0.87152274811E+02 -0.90391076621E+02  0.84125887422E+01  0.12584449685E+03  0.00000000000E+00 0. -1.
         -2    1    5    5    0  503 -0.28726966332E+03 -0.14109638959E+03  0.77052975597E+02  0.32919479289E+03  0.00000000000E+00 0.  1.
         -1    1    6    6    0  502  0.33210239937E+03 -0.12549406006E+03  0.10810827991E+03  0.37111745171E+03  0.00000000000E+00 0.  1.
<mgrwt>
<rscale>  0 0.15831058E+04</rscale>
<asrwt>0</asrwt>
<pdfrwt beam="1">  1        2 0.10962486E+00 0.15831058E+04</pdfrwt>
<pdfrwt beam="2">  1       -2 0.13527706E+00 0.15831058E+04</pdfrwt>
<totfact> 0.15088400E+01</totfact>
</mgrwt>
</event>
<event>
12    1  0.1562393E-007  0.2578238E+04  0.7818608E-02  0.8375631E-01
         -2   -1    0    0    0  501 -0.00000000000E+00  0.00000000000E+00  0.65817091922E+03  0.65817091922E+03  0.00000000000E+00 0. -1.
          2   -1    0    0  501    0  0.00000000000E+00 -0.00000000000E+00 -0.25249177846E+04  0.25249177846E+04  0.00000000000E+00 0.  1.
         23    2    1    2    0    0  0.19061794175E+03  0.72616469248E+02  0.57555899480E+03  0.61728188888E+03  0.90335056955E+02 0.  0.
        254    2    1    2    0    0 -0.19061794175E+03 -0.72616469248E+02 -0.24423058602E+04  0.25658068149E+04  0.75953824497E+03 0.  0.
        -24    2    4    4    0    0 -0.21466878892E+03  0.25972824328E+03 -0.18467841232E+04  0.18789871901E+04  0.80248449350E+02 0.  0.
         24    2    4    4    0    0  0.24050847169E+02 -0.33234471253E+03 -0.59552173702E+03  0.68681962485E+03  0.77740636949E+02 0.  0.
         11    1    3    3    0    0  0.63002417383E+02  0.65598089277E+02  0.30082773592E+03  0.31427653525E+03  0.00000000000E+00 0. -1.
        -11    1    3    3    0    0  0.12761552437E+03  0.70183799713E+01  0.27473125888E+03  0.30300535362E+03  0.00000000000E+00 0.  1.
          4    1    6    6  502    0 -0.25537655968E+02 -0.16482447378E+03 -0.31229050436E+03  0.35404044704E+03  0.00000000000E+00 0. -1.
          3    1    5    5  503    0 -0.16422593625E+02  0.67747934976E+02 -0.42282554141E+03  0.42853345581E+03  0.00000000000E+00 0. -1.
         -4    1    5    5    0  503 -0.19824619530E+03  0.19198030830E+03 -0.14239585817E+04  0.14504537343E+04  0.00000000000E+00 0.  1.
         -3    1    6    6    0  502  0.49588503137E+02 -0.16752023875E+03 -0.28323123266E+03  0.33277917781E+03  0.00000000000E+00 0.  1.
<mgrwt>
<rscale>  0 0.25782377E+04</rscale>
<asrwt>0</asrwt>
<pdfrwt beam="1">  1        2 0.38844888E+00 0.25782377E+04</pdfrwt>
<pdfrwt beam="2">  1       -2 0.10125707E+00 0.25782377E+04</pdfrwt>
<totfact> 0.23918209E+00</totfact>
</mgrwt>
</event>
<event>
12    1  0.1562393E-007  0.1822447E+04  0.7818608E-02  0.8694453E-01
         -1   -1    0    0    0  501 -0.00000000000E+00  0.00000000000E+00  0.12089802613E+04  0.12089802613E+04  0.00000000000E+00 0.  1.
          1   -1    0    0  501    0  0.00000000000E+00 -0.00000000000E+00 -0.68680037920E+03  0.68680037920E+03  0.00000000000E+00 0. -1.
         23    2    1    2    0    0  0.36605743396E+03 -0.19886043591E+02 -0.40466544001E+03  0.55331808528E+03  0.89516956293E+02 0.  0.
        254    2    1    2    0    0 -0.36605743396E+03  0.19886043591E+02  0.92684532206E+03  0.13424625552E+04  0.89931638556E+03 0.  0.
        -24    2    4    4    0    0  0.14844397594E+03 -0.11641666510E+03  0.74757208839E+03  0.77550943824E+03  0.83441042370E+02 0.  0.
         24    2    4    4    0    0 -0.51450140990E+03  0.13630270869E+03  0.17927323367E+03  0.56695311694E+03  0.77503647084E+02 0.  0.
         13    1    3    3    0    0  0.12475131786E+03 -0.39954321643E+02 -0.18291063341E+03  0.22497897444E+03  0.00000000000E+00 0. -1.
        -13    1    3    3    0    0  0.24130611611E+03  0.20068278053E+02 -0.22175480660E+03  0.32833911084E+03  0.00000000000E+00 0.  1.
          2    1    6    6  502    0 -0.50948920452E+02  0.39105795237E+02  0.20718127638E+02  0.67485528294E+02  0.00000000000E+00 0. -1.
          1    1    5    5  503    0  0.25825374295E+02 -0.39356995007E+02  0.33427765449E+03  0.33757587785E+03  0.00000000000E+00 0. -1.
         -2    1    5    5    0  503  0.12261860164E+03 -0.77059670096E+02  0.41329443390E+03  0.43793356039E+03  0.00000000000E+00 0.  1.
         -1    1    6    6    0  502 -0.46355248945E+03  0.97196913457E+02  0.15855510603E+03  0.49946758864E+03  0.00000000000E+00 0.  1.
<mgrwt>
<rscale>  0 0.18224468E+04</rscale>
<asrwt>0</asrwt>
<pdfrwt beam="1">  1        1 0.10566160E+00 0.18224468E+04</pdfrwt>
<pdfrwt beam="2">  1       -1 0.18599696E+00 0.18224468E+04</pdfrwt>
<totfact> 0.49798472E+00</totfact>
</mgrwt>
</event>
<event>
12    1  0.1562393E-007  0.2076494E+04  0.7818608E-02  0.8571669E-01
         -2   -1    0    0    0  501 -0.00000000000E+00  0.00000000000E+00  0.77528787984E+03  0.77528787984E+03  0.00000000000E+00 0. -1.
          2   -1    0    0  501    0  0.00000000000E+00 -0.00000000000E+00 -0.13903956112E+04  0.13903956112E+04  0.00000000000E+00 0.  1.
         23    2    1    2    0    0  0.41375101916E+03 -0.35888338900E+03  0.42467272410E+03  0.69902710640E+03  0.91130566379E+02 0.  0.
        254    2    1    2    0    0 -0.41375101916E+03  0.35888338900E+03 -0.10397804555E+04  0.14666563847E+04  0.87746815459E+03 0.  0.
        -24    2    4    4    0    0 -0.20945732383E+03  0.19649438884E+03 -0.11386033717E+04  0.11770432723E+04  0.80813435808E+02 0.  0.
         24    2    4    4    0    0 -0.20429369533E+03  0.16238900016E+03  0.98822916226E+02  0.28961311238E+03  0.77483448366E+02 0.  0.
         11    1    3    3    0    0  0.34150794379E+03 -0.28980937876E+03  0.29935245590E+03  0.53872910126E+03  0.00000000000E+00 0. -1.
        -11    1    3    3    0    0  0.72243075367E+02 -0.69074010240E+02  0.12532026821E+03  0.16029800514E+03  0.00000000000E+00 0.  1.
          2    1    6    6  502    0 -0.10388294837E+03  0.93642722322E+02  0.12503242550E+02  0.14041708400E+03  0.00000000000E+00 0. -1.
          3    1    5    5  503    0 -0.32670918909E+01  0.11547881108E+02 -0.12312229796E+02  0.17193558388E+02  0.00000000000E+00 0. -1.
         -4    1    5    5    0  503 -0.20619023194E+03  0.18494650773E+03 -0.11262911419E+04  0.11598497139E+04  0.00000000000E+00 0.  1.
         -1    1    6    6    0  502 -0.10041074696E+03  0.68746277834E+02  0.86319673677E+02  0.14919602838E+03  0.00000000000E+00 0.  1.
<mgrwt>
<rscale>  0 0.20764940E+04</rscale>
<asrwt>0</asrwt>
<pdfrwt beam="1">  1        2 0.21390702E+00 0.20764940E+04</pdfrwt>
<pdfrwt beam="2">  1       -2 0.11927506E+00 0.20764940E+04</pdfrwt>
<totfact> 0.72956138E+00</totfact>
</mgrwt>
</event>
<event>
12    1  0.1562393E-007  0.1044752E+04  0.7818608E-02  0.9260779E-01
         -1   -1    0    0    0  501 -0.00000000000E+00  0.00000000000E+00  0.42752570402E+03  0.42752570402E+03  0.00000000000E+00 0.  1.
          1   -1    0    0  501    0  0.00000000000E+00 -0.00000000000E+00 -0.63826977336E+03  0.63826977336E+03  0.00000000000E+00 0. -1.
         23    2    1    2    0    0  0.10265225817E+03 -0.28051196927E+02  0.41210115636E+01  0.13889431943E+03  0.89164418212E+02 0.  0.
        254    2    1    2    0    0 -0.10265225817E+03  0.28051196927E+02 -0.21486508090E+03  0.92690115795E+03  0.89535154987E+03 0.  0.
        -24    2    4    4    0    0 -0.16238997656E+03 -0.20923455250E+03  0.26463640471E+03  0.38240371740E+03  0.77785435215E+02 0.  0.
         24    2    4    4    0    0  0.59737718389E+02  0.23728574943E+03 -0.47950148561E+03  0.54449744055E+03  0.81747575977E+02 0.  0.
         13    1    3    3    0    0  0.40659829156E+02 -0.51638238805E+02  0.23489796069E+02  0.69796131220E+02  0.00000000000E+00 0. -1.
        -13    1    3    3    0    0  0.61992429018E+02  0.23587041878E+02 -0.19368784505E+02  0.69098188206E+02  0.00000000000E+00 0.  1.
          2    1    6    6  502    0 -0.16413012962E+02  0.12515231568E+02 -0.40419963986E+02  0.45384925959E+02  0.00000000000E+00 0. -1.
          1    1    5    5  503    0 -0.20222210801E+02 -0.24919476461E+02  0.77000250084E+02  0.83420361002E+02  0.00000000000E+00 0. -1.
         -2    1    5    5    0  503 -0.14216776576E+03 -0.18431507604E+03  0.18763615463E+03  0.29898335640E+03  0.00000000000E+00 0.  1.
         -1    1    6    6    0  502  0.76150731352E+02  0.22477051786E+03 -0.43908152163E+03  0.49911251459E+03  0.00000000000E+00 0.  1.
<mgrwt>
<rscale>  0 0.10447521E+04</rscale>
<asrwt>0</asrwt>
<pdfrwt beam="1">  1        1 0.98195349E-01 0.10447521E+04</pdfrwt>
<pdfrwt beam="2">  1       -1 0.65773186E-01 0.10447521E+04</pdfrwt>
<totfact> 0.73328745E+01</totfact>
</mgrwt>
</event>
<event>
12    1  0.1562393E-007  0.2874305E+04  0.7818608E-02  0.8280564E-01
         -2   -1    0    0    0  501 -0.00000000000E+00  0.00000000000E+00  0.12641209584E+04  0.12641209584E+04  0.00000000000E+00 0.  1.
          2   -1    0    0  501    0  0.00000000000E+00 -0.00000000000E+00 -0.16338680861E+04  0.16338680861E+04  0.00000000000E+00 0. -1.
         23    2    1    2    0    0  0.26433082781E+03  0.97090977383E+02 -0.14412149182E+04  0.14713538140E+04  0.92109505974E+02 0.  0.
        254    2    1    2    0    0 -0.26433082781E+03 -0.97090977383E+02  0.10714677905E+04  0.14266352306E+04  0.89885894926E+03 0.  0.
        -24    2    4    4    0    0  0.26441439256E+03 -0.70164689519E+02  0.77540954929E+02  0.29764806208E+03  0.87998377963E+02 0.  0.
         24    2    4    4    0    0 -0.52874522037E+03 -0.26926287864E+02  0.99392683554E+03  0.11289871685E+04  0.80155718192E+02 0.  0.
         13    1    3    3    0    0  0.32311928706E+02  0.36551519237E+01 -0.36542024255E+03  0.36686424538E+03  0.00000000000E+00 0.  1.
        -13    1    3    3    0    0  0.23201889910E+03  0.93435825460E+02 -0.10757946756E+04  0.11044895686E+04  0.00000000000E+00 0. -1.
          4    1    6    6  502    0 -0.40275070270E+03  0.11725645668E+02  0.77404415487E+03  0.87263392839E+03  0.00000000000E+00 0. -1.
          1    1    5    5  503    0  0.22302389930E+03 -0.48770709742E+02  0.95833701012E+02  0.24759309368E+03  0.00000000000E+00 0. -1.
         -2    1    5    5    0  503  0.41390493257E+02 -0.21393979777E+02 -0.18292746083E+02  0.50054968405E+02  0.00000000000E+00 0.  1.
         -3    1    6    6    0  502 -0.12599451767E+03 -0.38651933532E+02  0.21988268067E+03  0.25635324010E+03  0.00000000000E+00 0.  1.
<mgrwt>
<rscale>  0 0.28743047E+04</rscale>
<asrwt>0</asrwt>
<pdfrwt beam="1">  1        2 0.25136432E+00 0.28743047E+04</pdfrwt>
<pdfrwt beam="2">  1       -2 0.19448015E+00 0.28743047E+04</pdfrwt>
<totfact> 0.13359366E+00</totfact>
</mgrwt>
</event>
<event>
12    1  0.1562393E-007  0.1539977E+04  0.7818608E-02  0.8858295E-01
         -2   -1    0    0    0  501 -0.00000000000E+00  0.00000000000E+00  0.70153769489E+03  0.70153769489E+03  0.00000000000E+00 0.  1.
          2   -1    0    0  501    0  0.00000000000E+00 -0.00000000000E+00 -0.84511817706E+03  0.84511817706E+03  0.00000000000E+00 0. -1.
         23    2    1    2    0    0  0.25692894047E+03  0.31547250429E+03 -0.33764850433E+03  0.53639078173E+03  0.90405623867E+02 0.  0.
        254    2    1    2    0    0 -0.25692894047E+03 -0.31547250429E+03  0.19406802216E+03  0.10102650902E+04  0.90412265422E+03 0.  0.
        -24    2    4    4    0    0 -0.45161125951E+03 -0.25247252814E+03  0.43742333298E+03  0.68239165606E+03  0.81388530196E+02 0.  0.
         24    2    4    4    0    0  0.19468231904E+03 -0.62999976157E+02 -0.24335531083E+03  0.32787343416E+03  0.80056100178E+02 0.  0.
         13    1    3    3    0    0  0.25246745931E+03  0.27801490413E+03 -0.28413968552E+03  0.47092193177E+03  0.00000000000E+00 0. -1.
        -13    1    3    3    0    0  0.44614811522E+01  0.37457600161E+02 -0.53508818815E+02  0.65468849958E+02  0.00000000000E+00 0.  1.
          4    1    6    6  502    0  0.20118772152E+03 -0.58760724493E+02 -0.24172755799E+03  0.31993989174E+03  0.00000000000E+00 0. -1.
          1    1    5    5  503    0 -0.36949504406E+03 -0.18910692483E+03  0.38515503002E+03  0.56624412911E+03  0.00000000000E+00 0. -1.
         -2    1    5    5    0  503 -0.82116215451E+02 -0.63365603308E+02  0.52268302960E+02  0.11614752695E+03  0.00000000000E+00 0.  1.
         -3    1    6    6    0  502 -0.65054024778E+01 -0.42392516638E+01 -0.16277528399E+01  0.79335424228E+01  0.00000000000E+00 0.  1.
<mgrwt>
<rscale>  0 0.15399770E+04</rscale>
<asrwt>0</asrwt>
<pdfrwt beam="1">  1        2 0.13001818E+00 0.15399770E+04</pdfrwt>
<pdfrwt beam="2">  1       -2 0.10792888E+00 0.15399770E+04</pdfrwt>
<totfact> 0.21201996E+01</totfact>
</mgrwt>
</event>
<event>
12    1  0.1562393E-007  0.2039858E+04  0.7818608E-02  0.8588209E-01
          2   -1    0    0  501    0  0.00000000000E+00  0.00000000000E+00  0.13013686451E+04  0.13013686451E+04  0.00000000000E+00 0. -1.
         -2   -1    0    0    0  501 -0.00000000000E+00 -0.00000000000E+00 -0.79935464224E+03  0.79935464224E+03  0.00000000000E+00 0.  1.
         23    2    1    2    0    0  0.86024319256E+02  0.46536816833E+03 -0.46710826228E+03  0.67078920236E+03  0.88319362019E+02 0.  0.
        254    2    1    2    0    0 -0.86024319256E+02 -0.46536816833E+03  0.96912226517E+03  0.14299340850E+04  0.93890670837E+03 0.  0.
        -24    2    4    4    0    0 -0.48377432532E+03 -0.32005598698E+03  0.37140234482E+03  0.69333438517E+03  0.79368981902E+02 0.  0.
         24    2    4    4    0    0  0.39775000606E+03 -0.14531218136E+03  0.59771992034E+03  0.73659969983E+03  0.77390679272E+02 0.  0.
         11    1    3    3    0    0  0.69341532882E+02  0.18930211485E+03 -0.15899452471E+03  0.25675435294E+03  0.00000000000E+00 0. -1.
        -11    1    3    3    0    0  0.16682786374E+02  0.27606605348E+03 -0.30811373757E+03  0.41403484941E+03  0.00000000000E+00 0.  1.
          2    1    6    6  502    0  0.31497356488E+03 -0.14402042681E+03  0.50431594000E+03  0.61178819640E+03  0.00000000000E+00 0. -1.
          3    1    5    5  503    0 -0.33372783504E+03 -0.19311991799E+03  0.21024711896E+03  0.43917356664E+03  0.00000000000E+00 0. -1.
         -4    1    5    5    0  503 -0.15004649028E+03 -0.12693606899E+03  0.16115522586E+03  0.25416081854E+03  0.00000000000E+00 0.  1.
         -1    1    6    6    0  502  0.82776441185E+02 -0.12917545430E+01  0.93403980346E+02  0.12481150343E+03  0.00000000000E+00 0.  1.
<mgrwt>
<rscale>  0 0.20398579E+04</rscale>
<asrwt>0</asrwt>
<pdfrwt beam="1">  1        2 0.20021056E+00 0.20398579E+04</pdfrwt>
<pdfrwt beam="2">  1       -2 0.12297764E+00 0.20398579E+04</pdfrwt>
<totfact> 0.76342015E+00</totfact>
</mgrwt>
</event>
<event>
12    1  0.1562393E-007  0.1702781E+04  0.7818608E-02  0.8759780E-01
          4   -1    0    0  501    0  0.00000000000E+00  0.00000000000E+00  0.33896157852E+03  0.33896157852E+03  0.00000000000E+00 0. -1.
         -4   -1    0    0    0  501 -0.00000000000E+00 -0.00000000000E+00 -0.21384898470E+04  0.21384898470E+04  0.00000000000E+00 0.  1.
         23    2    1    2    0    0 -0.92965059262E+02  0.39919405092E+03  0.19935720747E+01  0.42039833015E+03  0.93447253221E+02 0.  0.
        254    2    1    2    0    0  0.92965059262E+02 -0.39919405092E+03 -0.18015218405E+04  0.20570530953E+04  0.90442694709E+03 0.  0.
        -24    2    4    4    0    0 -0.24153034364E+02 -0.74708381347E+02  0.81632782676E+02  0.14087123284E+03  0.83762054190E+02 0.  0.
         24    2    4    4    0    0  0.11711809363E+03 -0.32448566957E+03 -0.18831546232E+04  0.19161818625E+04  0.80461156309E+02 0.  0.
         13    1    3    3    0    0 -0.76165733082E+02  0.22359258474E+03 -0.38709393887E+02  0.23936014710E+03  0.00000000000E+00 0.  1.
        -13    1    3    3    0    0 -0.16799326181E+02  0.17560146618E+03  0.40702965961E+02  0.18103818305E+03  0.00000000000E+00 0. -1.
          2    1    6    6  502    0  0.33013693087E+02 -0.56117061654E+02 -0.22058570351E+03  0.22999365455E+03  0.00000000000E+00 0. -1.
          1    1    5    5  503    0 -0.16595313542E+01  0.13850424869E+02 -0.51365419153E+01  0.14865139630E+02  0.00000000000E+00 0. -1.
         -2    1    5    5    0  503 -0.22493503010E+02 -0.88558806216E+02  0.86769324591E+02  0.12600609321E+03  0.00000000000E+00 0.  1.
         -1    1    6    6    0  502  0.84104400539E+02 -0.26836860792E+03 -0.16625689197E+04  0.16861882079E+04  0.00000000000E+00 0.  1.
<mgrwt>
<rscale>  0 0.17027811E+04</rscale>
<asrwt>0</asrwt>
<pdfrwt beam="1">  1        4 0.52147934E-01 0.17027811E+04</pdfrwt>
<pdfrwt beam="2">  1       -4 0.32899845E+00 0.17027811E+04</pdfrwt>
<totfact> 0.13708813E-01</totfact>
</mgrwt>
</event>
<event>
12    1  0.1562393E-007  0.1725577E+04  0.7818608E-02  0.8746910E-01
         -1   -1    0    0    0  501 -0.00000000000E+00  0.00000000000E+00  0.88119812336E+03  0.88119812336E+03  0.00000000000E+00 0.  1.
          1   -1    0    0  501    0  0.00000000000E+00 -0.00000000000E+00 -0.84476369065E+03  0.84476369065E+03  0.00000000000E+00 0. -1.
         23    2    1    2    0    0 -0.21467056164E+03  0.41057744911E+03  0.43521632011E+03  0.64233563061E+03  0.92328355933E+02 0.  0.
        254    2    1    2    0    0  0.21467056164E+03 -0.41057744911E+03 -0.39878188740E+03  0.10836261834E+04  0.89474097921E+03 0.  0.
        -24    2    4    4    0    0 -0.25425375829E+03 -0.32129053579E+03 -0.42917923842E+03  0.59853858109E+03  0.78619541900E+02 0.  0.
         24    2    4    4    0    0  0.46892431993E+03 -0.89286913328E+02  0.30397351021E+02  0.48508760231E+03  0.80770119838E+02 0.  0.
         11    1    3    3    0    0 -0.98059398241E+02  0.16471185978E+03  0.12108407528E+03  0.22673110863E+03  0.00000000000E+00 0. -1.
        -11    1    3    3    0    0 -0.11661116340E+03  0.24586558933E+03  0.31413224483E+03  0.41560452198E+03  0.00000000000E+00 0.  1.
          4    1    6    6  502    0  0.33362618895E+03 -0.57040936630E+02  0.57686851293E+02  0.34334803802E+03  0.00000000000E+00 0. -1.
          3    1    5    5  503    0 -0.22122506916E+03 -0.29980696117E+03 -0.41219081061E+03  0.55563118122E+03  0.00000000000E+00 0. -1.
         -4    1    5    5    0  503 -0.33028689133E+02 -0.21483574611E+02 -0.16988427810E+02  0.42907399867E+02  0.00000000000E+00 0.  1.
         -3    1    6    6    0  502  0.13529813098E+03 -0.32245976697E+02 -0.27289500272E+02  0.14173956429E+03  0.00000000000E+00 0.  1.
<mgrwt>
<rscale>  0 0.17255772E+04</rscale>
<asrwt>0</asrwt>
<pdfrwt beam="1">  1        1 0.12996364E+00 0.17255772E+04</pdfrwt>
<pdfrwt beam="2">  1       -1 0.13556894E+00 0.17255772E+04</pdfrwt>
<totfact> 0.87565285E+00</totfact>
</mgrwt>
</event>
<event>
12    1  0.1562393E-007  0.3985395E+04  0.7818608E-02  0.8007499E-01
          2   -1    0    0  501    0  0.00000000000E+00  0.00000000000E+00  0.19689337621E+04  0.19689337621E+04  0.00000000000E+00 0. -1.
         -2   -1    0    0    0  501 -0.00000000000E+00 -0.00000000000E+00 -0.20167479387E+04  0.20167479387E+04  0.00000000000E+00 0.  1.
         23    2    1    2    0    0 -0.12166845955E+04  0.28355074068E+03  0.13906411004E+04  0.18715528065E+04  0.90026716412E+02 0.  0.
        254    2    1    2    0    0  0.12166845955E+04 -0.28355074068E+03 -0.14384552770E+04  0.21141288944E+04  0.91633234709E+03 0.  0.
        -24    2    4    4    0    0  0.13076604860E+04 -0.25851847353E+03 -0.10271071061E+04  0.16846661833E+04  0.79645425609E+02 0.  0.
         24    2    4    4    0    0 -0.90975890468E+02 -0.25032267149E+02 -0.41134817095E+03  0.42946271109E+03  0.79546687078E+02 0.  0.
         13    1    3    3    0    0 -0.11228233158E+04  0.24765476698E+03  0.13072500080E+04  0.17409674510E+04  0.00000000000E+00 0.  1.
        -13    1    3    3    0    0 -0.93861279749E+02  0.35895973704E+02  0.83391092439E+02  0.13058535547E+03  0.00000000000E+00 0. -1.
          2    1    6    6  502    0 -0.11621856392E+02  0.49254907426E+01 -0.21754427777E+03  0.21791016680E+03  0.00000000000E+00 0. -1.
          1    1    5    5  503    0  0.11579974741E+03 -0.18739355644E+02 -0.11993905127E+03  0.16776805706E+03  0.00000000000E+00 0. -1.
         -2    1    5    5    0  503  0.11918607386E+04 -0.23977911789E+03 -0.90716805482E+03  0.15168981262E+04  0.00000000000E+00 0.  1.
         -1    1    6    6    0  502 -0.79354034076E+02 -0.29957757892E+02 -0.19380389319E+03  0.21155254429E+03  0.00000000000E+00 0.  1.
<mgrwt>
<rscale>  0 0.39853949E+04</rscale>
<asrwt>0</asrwt>
<pdfrwt beam="1">  1        2 0.30291289E+00 0.39853949E+04</pdfrwt>
<pdfrwt beam="2">  1       -2 0.31026891E+00 0.39853949E+04</pdfrwt>
<totfact> 0.15095014E-01</totfact>
</mgrwt>
</event>
<event>
12    1  0.1562393E-007  0.1988194E+04  0.7818608E-02  0.8612160E-01
          1   -1    0    0  501    0  0.00000000000E+00  0.00000000000E+00  0.29587992961E+04  0.29587992961E+04  0.00000000000E+00 0. -1.
         -1   -1    0    0    0  501 -0.00000000000E+00 -0.00000000000E+00 -0.33399662903E+03  0.33399662903E+03  0.00000000000E+00 0.  1.
         23    2    1    2    0    0  0.57465272213E+03 -0.22322159153E+03  0.23569405611E+03  0.66626392373E+03  0.91116946785E+02 0.  0.
        254    2    1    2    0    0 -0.57465272213E+03  0.22322159153E+03  0.23891086110E+04  0.26265320014E+04  0.90043143516E+03 0.  0.
        -24    2    4    4    0    0 -0.60969964366E+02  0.10282611919E+02  0.18354088995E+04  0.18381484922E+04  0.78999888248E+02 0.  0.
         24    2    4    4    0    0 -0.51368275777E+03  0.21293897961E+03  0.55369971141E+03  0.78838350915E+03  0.75843275375E+02 0.  0.
         13    1    3    3    0    0  0.58826275125E+02 -0.11958732849E+02  0.51833428743E+02  0.79311072819E+02  0.00000000000E+00 0. -1.
        -13    1    3    3    0    0  0.51582644701E+03 -0.21126285868E+03  0.18386062737E+03  0.58695285091E+03  0.00000000000E+00 0.  1.
          4    1    6    6  502    0 -0.15222258941E+03  0.37244064606E+02  0.19059740704E+03  0.24675130931E+03  0.00000000000E+00 0. -1.
          1    1    5    5  503    0  0.16907218063E+02  0.14181854054E+02  0.35097971298E+03  0.35167277109E+03  0.00000000000E+00 0. -1.
         -4    1    5    5    0  503 -0.77877182428E+02 -0.38992421350E+01  0.14844291866E+04  0.14864757211E+04  0.00000000000E+00 0.  1.
         -3    1    6    6    0  502 -0.36146016836E+03  0.17569491500E+03  0.36310230438E+03  0.54163219985E+03  0.00000000000E+00 0.  1.
<mgrwt>
<rscale>  0 0.19881941E+04</rscale>
<asrwt>0</asrwt>
<pdfrwt beam="1">  1        1 0.45519988E+00 0.19881941E+04</pdfrwt>
<pdfrwt beam="2">  1       -1 0.51384099E-01 0.19881941E+04</pdfrwt>
<totfact> 0.22700090E+00</totfact>
</mgrwt>
</event>
<event>
12    1  0.2639898E-007  0.2274910E+04  0.7818608E-02  0.8487880E-01
         -1   -1    0    0    0  501 -0.00000000000E+00  0.00000000000E+00  0.68398782177E+03  0.68398782177E+03  0.00000000000E+00 0.  1.
          1   -1    0    0  501    0  0.00000000000E+00 -0.00000000000E+00 -0.18915591028E+04  0.18915591028E+04  0.00000000000E+00 0. -1.
         23    2    1    2    0    0 -0.90007277566E+03 -0.74963340611E+02 -0.14815992506E+03  0.92024950553E+03  0.95693704628E+02 0.  0.
        254    2    1    2    0    0  0.90007277566E+03  0.74963340611E+02 -0.10594113560E+04  0.16552974191E+04  0.89549238994E+03 0.  0.
        -24    2    4    4    0    0  0.39127392288E+03 -0.27940655788E+03 -0.81163674106E+02  0.49437348693E+03  0.81573863942E+02 0.  0.
         24    2    4    4    0    0  0.50879885279E+03  0.35436989849E+03 -0.97824768191E+03  0.11609239322E+04  0.79508185289E+02 0.  0.
         13    1    3    3    0    0 -0.93727751931E+02  0.26760500333E+01 -0.43763629302E+02  0.10347612273E+03  0.00000000000E+00 0. -1.
        -13    1    3    3    0    0 -0.80634502373E+03 -0.77639390644E+02 -0.10439629576E+03  0.81677338280E+03  0.00000000000E+00 0.  1.
          2    1    6    6  502    0  0.95910409021E+02  0.58704968481E+02 -0.12632813076E+03  0.16912680599E+03  0.00000000000E+00 0. -1.
          3    1    5    5  503    0  0.37934500880E+01  0.23883389642E+01  0.59043328394E+01  0.74132026046E+01  0.00000000000E+00 0. -1.
         -4    1    5    5    0  503  0.38748047279E+03 -0.28179489684E+03 -0.87068006945E+02  0.48696028433E+03  0.00000000000E+00 0.  1.
         -1    1    6    6    0  502  0.41288844376E+03  0.29566493001E+03 -0.85191955115E+03  0.99179712616E+03  0.00000000000E+00 0.  1.
<mgrwt>
<rscale>  0 0.22749096E+04</rscale>
<asrwt>0</asrwt>
<pdfrwt beam="1">  1        1 0.29100909E+00 0.22749096E+04</pdfrwt>
<pdfrwt beam="2">  1       -1 0.10522890E+00 0.22749096E+04</pdfrwt>
<totfact> 0.27083862E+00</totfact>
</mgrwt>
</event>
<event>
12    1  0.1562393E-007  0.3053490E+04  0.7818608E-02  0.8228619E-01
          2   -1    0    0  501    0  0.00000000000E+00  0.00000000000E+00  0.13693836373E+04  0.13693836373E+04  0.00000000000E+00 0. -1.
         -2   -1    0    0    0  501 -0.00000000000E+00 -0.00000000000E+00 -0.17021891125E+04  0.17021891125E+04  0.00000000000E+00 0.  1.
         23    2    1    2    0    0 -0.10116358334E+04  0.38734223793E+03  0.72559658031E+03  0.13066950576E+04  0.86720860514E+02 0.  0.
        254    2    1    2    0    0  0.10116358334E+04 -0.38734223793E+03 -0.10584020555E+04  0.17648776922E+04  0.90616625883E+03 0.  0.
        -24    2    4    4    0    0  0.59660384818E+03 -0.25667554757E+03 -0.41345545938E+02  0.65564732177E+03  0.79658445803E+02 0.  0.
         24    2    4    4    0    0  0.41503198518E+03 -0.13066669036E+03 -0.10170565096E+04  0.11092303704E+04  0.81625598266E+02 0.  0.
         11    1    3    3    0    0 -0.99367753383E+03  0.37677237821E+03  0.69542475011E+03  0.12700267908E+04  0.00000000000E+00 0. -1.
        -11    1    3    3    0    0 -0.17958299534E+02  0.10569859716E+02  0.30171830197E+02  0.36668266854E+02  0.00000000000E+00 0.  1.
          2    1    6    6  502    0 -0.22223804509E+01 -0.69381341231E+01 -0.21555963898E+02  0.22753818571E+02  0.00000000000E+00 0. -1.
          1    1    5    5  503    0  0.56679626144E+02 -0.41321593522E+02 -0.23882020854E+02  0.74097267365E+02  0.00000000000E+00 0. -1.
         -2    1    5    5    0  503  0.53992422204E+03 -0.21535395405E+03 -0.17463525084E+02  0.58155005440E+03  0.00000000000E+00 0.  1.
         -1    1    6    6    0  502  0.41725436563E+03 -0.12372855624E+03 -0.99550054569E+03  0.10864765519E+04  0.00000000000E+00 0.  1.
<mgrwt>
<rscale>  0 0.30534898E+04</rscale>
<asrwt>0</asrwt>
<pdfrwt beam="1">  1        2 0.21067441E+00 0.30534898E+04</pdfrwt>
<pdfrwt beam="2">  1       -2 0.26187525E+00 0.30534898E+04</pdfrwt>
<totfact> 0.69784050E-01</totfact>
</mgrwt>
</event>
<event>
12    1  0.1562393E-007  0.2061750E+04  0.7818608E-02  0.8578283E-01
         -4   -1    0    0    0  501 -0.00000000000E+00  0.00000000000E+00  0.30091981584E+04  0.30091981584E+04  0.00000000000E+00 0.  1.
          4   -1    0    0  501    0  0.00000000000E+00 -0.00000000000E+00 -0.35315154933E+03  0.35315154933E+03  0.00000000000E+00 0. -1.
         23    2    1    2    0    0  0.50440452529E+03 -0.48995060466E+03  0.18062933123E+04  0.19406128651E+04  0.93846906068E+02 0.  0.
        254    2    1    2    0    0 -0.50440452529E+03  0.48995060466E+03  0.84975329676E+03  0.14217368427E+04  0.89709501410E+03 0.  0.
        -24    2    4    4    0    0  0.19746522756E+03  0.35487461526E+03  0.23664609248E+03  0.47666586805E+03  0.79249403927E+02 0.  0.
         24    2    4    4    0    0 -0.70186975285E+03  0.13507598941E+03  0.61310720428E+03  0.94507097463E+03  0.79950173670E+02 0.  0.
         13    1    3    3    0    0 -0.12153614335E+01 -0.12563820558E+02  0.19004579316E+02  0.22814484991E+02  0.00000000000E+00 0. -1.
        -13    1    3    3    0    0  0.50561988672E+03 -0.47738678411E+03  0.17872887330E+04  0.19177983801E+04  0.00000000000E+00 0.  1.
          2    1    6    6  502    0 -0.38069807043E+03  0.10616103272E+03  0.30701677604E+03  0.50046027461E+03  0.00000000000E+00 0. -1.
          1    1    5    5  503    0  0.19817024675E+03  0.30512569946E+03  0.21278439401E+03  0.42148586869E+03  0.00000000000E+00 0. -1.
         -2    1    5    5    0  503 -0.70501919329E+00  0.49748915798E+02  0.23861698471E+02  0.55179999358E+02  0.00000000000E+00 0.  1.
         -1    1    6    6    0  502 -0.32117168242E+03  0.28914956688E+02  0.30609042824E+03  0.44461070002E+03  0.00000000000E+00 0.  1.
<mgrwt>
<rscale>  0 0.20617497E+04</rscale>
<asrwt>0</asrwt>
<pdfrwt beam="1">  1        4 0.54331009E-01 0.20617497E+04</pdfrwt>
<pdfrwt beam="2">  1       -4 0.46295355E+00 0.20617497E+04</pdfrwt>
<totfact> 0.14237800E-02</totfact>
</mgrwt>
</event>
<event>
12    1  0.1562393E-007  0.2041091E+04  0.7818608E-02  0.8587647E-01
         -1   -1    0    0    0  501 -0.00000000000E+00  0.00000000000E+00  0.38528509609E+03  0.38528509609E+03  0.00000000000E+00 0.  1.
          1   -1    0    0  501    0  0.00000000000E+00 -0.00000000000E+00 -0.27032258639E+04  0.27032258639E+04  0.00000000000E+00 0. -1.
         23    2    1    2    0    0  0.18605979782E+03 -0.23707027494E+03 -0.20903647376E+04  0.21137399475E+04  0.86320714404E+02 0.  0.
        254    2    1    2    0    0 -0.18605979782E+03  0.23707027494E+03 -0.22757603027E+03  0.97477101256E+03  0.89864738010E+03 0.  0.
        -24    2    4    4    0    0  0.14246069263E+03  0.15009611453E+03 -0.49015735574E+03  0.53802380724E+03  0.79946802467E+02 0.  0.
         24    2    4    4    0    0 -0.32852049044E+03  0.86974160412E+02  0.26258132548E+03  0.43674720532E+03  0.79428909397E+02 0.  0.
         13    1    3    3    0    0  0.64559004960E+02 -0.14902119845E+03 -0.11717212751E+04  0.11829226219E+04  0.00000000000E+00 0. -1.
        -13    1    3    3    0    0  0.12150079286E+03 -0.88049076495E+02 -0.91864346245E+03  0.93081732560E+03  0.00000000000E+00 0.  1.
          4    1    6    6  502    0 -0.70553873404E+01 -0.10335038636E+02  0.49909159891E+01  0.13472221663E+02  0.00000000000E+00 0. -1.
          1    1    5    5  503    0  0.10287406049E+03  0.68070111625E+02 -0.21132756908E+03  0.24469563517E+03  0.00000000000E+00 0. -1.
         -2    1    5    5    0  503  0.39586632132E+02  0.82026002908E+02 -0.27882978667E+03  0.29332817207E+03  0.00000000000E+00 0.  1.
         -3    1    6    6    0  502 -0.32146510310E+03  0.97309199048E+02  0.25759040949E+03  0.42327498366E+03  0.00000000000E+00 0.  1.
<mgrwt>
<rscale>  0 0.20410905E+04</rscale>
<asrwt>0</asrwt>
<pdfrwt beam="1">  1        1 0.41588089E+00 0.20410905E+04</pdfrwt>
<pdfrwt beam="2">  1       -1 0.59274632E-01 0.20410905E+04</pdfrwt>
<totfact> 0.26057074E+00</totfact>
</mgrwt>
</event>
<event>
12    1  0.1562393E-007  0.2040820E+04  0.7818608E-02  0.8587770E-01
         -2   -1    0    0    0  501 -0.00000000000E+00  0.00000000000E+00  0.80173512736E+03  0.80173512736E+03  0.00000000000E+00 0.  1.
          2   -1    0    0  501    0  0.00000000000E+00 -0.00000000000E+00 -0.12987282805E+04  0.12987282805E+04  0.00000000000E+00 0. -1.
         23    2    1    2    0    0  0.17264161163E+03  0.24133591296E+03  0.58476506427E+03  0.66199117720E+03  0.90741332034E+02 0.  0.
        254    2    1    2    0    0 -0.17264161163E+03 -0.24133591296E+03 -0.10817582174E+04  0.14384722306E+04  0.90052949337E+03 0.  0.
        -24    2    4    4    0    0  0.12677005002E+03 -0.51200096302E+03 -0.54130111971E+03  0.75933800032E+03  0.73291642203E+02 0.  0.
         24    2    4    4    0    0 -0.29941166165E+03  0.27066505006E+03 -0.54045709767E+03  0.67913423030E+03  0.78882925184E+02 0.  0.
         11    1    3    3    0    0  0.99419468432E+02  0.17068693443E+03  0.46257080431E+03  0.50298112220E+03  0.00000000000E+00 0. -1.
        -11    1    3    3    0    0  0.73222143200E+02  0.70648978530E+02  0.12219425996E+03  0.15901005500E+03  0.00000000000E+00 0.  1.
          4    1    6    6  502    0 -0.28921437941E+03  0.23679586577E+03 -0.51091382027E+03  0.63304831651E+03  0.00000000000E+00 0. -1.
          1    1    5    5  503    0  0.12195976068E+03 -0.42221561392E+03 -0.41621715084E+03  0.60529077683E+03  0.00000000000E+00 0. -1.
         -2    1    5    5    0  503  0.48102893380E+01 -0.89785349099E+02 -0.12508396887E+03  0.15404722349E+03  0.00000000000E+00 0.  1.
         -3    1    6    6    0  502 -0.10197282241E+02  0.33869184289E+02 -0.29543277403E+02  0.46085913783E+02  0.00000000000E+00 0.  1.
<mgrwt>
<rscale>  0 0.20408195E+04</rscale>
<asrwt>0</asrwt>
<pdfrwt beam="1">  1        2 0.19980435E+00 0.20408195E+04</pdfrwt>
<pdfrwt beam="2">  1       -2 0.12334387E+00 0.20408195E+04</pdfrwt>
<totfact> 0.76039320E+00</totfact>
</mgrwt>
</event>
<event>
12    1  0.1562393E-007  0.1522538E+04  0.7818608E-02  0.8869602E-01
         -2   -1    0    0    0  501 -0.00000000000E+00  0.00000000000E+00  0.12450734521E+03  0.12450734521E+03  0.00000000000E+00 0.  1.
          2   -1    0    0  501    0  0.00000000000E+00 -0.00000000000E+00 -0.46545870503E+04  0.46545870503E+04  0.00000000000E+00 0. -1.
         23    2    1    2    0    0  0.28519713284E+03  0.35744799233E+03 -0.92172851951E+03  0.10333231712E+04  0.95219958943E+02 0.  0.
        254    2    1    2    0    0 -0.28519713284E+03 -0.35744799233E+03 -0.36083511856E+04  0.37457712244E+04  0.89526382417E+03 0.  0.
        -24    2    4    4    0    0 -0.50425423237E+03  0.36646671660E+02 -0.14071641552E+04  0.14974098523E+04  0.80684550604E+02 0.  0.
         24    2    4    4    0    0  0.21905709953E+03 -0.39409466399E+03 -0.22011870304E+04  0.22483613721E+04  0.81288987689E+02 0.  0.
         11    1    3    3    0    0  0.55732758894E+02  0.67376399724E+02 -0.27187211503E+03  0.28558740621E+03  0.00000000000E+00 0. -1.
        -11    1    3    3    0    0  0.22946437394E+03  0.29007159261E+03 -0.64985640448E+03  0.74773576495E+03  0.00000000000E+00 0.  1.
          4    1    6    6  502    0  0.12734880559E+03 -0.15176162380E+03 -0.88329234057E+03  0.90523735432E+03  0.00000000000E+00 0. -1.
          3    1    5    5  503    0 -0.38190005901E+03  0.43683571645E+02 -0.11498748011E+04  0.12124223553E+04  0.00000000000E+00 0. -1.
         -4    1    5    5    0  503 -0.12235417336E+03 -0.70368999846E+01 -0.25728935408E+03  0.28498749696E+03  0.00000000000E+00 0.  1.
         -3    1    6    6    0  502  0.91708293937E+02 -0.24233304019E+03 -0.13178946898E+04  0.13431240178E+04  0.00000000000E+00 0.  1.
<mgrwt>
<rscale>  0 0.15225377E+04</rscale>
<asrwt>0</asrwt>
<pdfrwt beam="1">  1        2 0.71609036E+00 0.15225377E+04</pdfrwt>
<pdfrwt beam="2">  1       -2 0.19154975E-01 0.15225377E+04</pdfrwt>
<totfact> 0.19827244E+00</totfact>
</mgrwt>
</event>
<event>
12    1  0.1562393E-007  0.1381467E+04  0.7818608E-02  0.8967344E-01
          1   -1    0    0  501    0  0.00000000000E+00  0.00000000000E+00  0.25592129177E+04  0.25592129177E+04  0.00000000000E+00 0. -1.
         -1   -1    0    0    0  501 -0.00000000000E+00 -0.00000000000E+00 -0.18642939062E+03  0.18642939062E+03  0.00000000000E+00 0.  1.
         23    2    1    2    0    0 -0.23711489357E+03  0.54151800436E+02  0.12895895501E+04  0.13154903380E+04  0.91201598073E+02 0.  0.
        254    2    1    2    0    0  0.23711489357E+03 -0.54151800436E+02  0.10831939770E+04  0.14301519703E+04  0.90159279948E+03 0.  0.
        -24    2    4    4    0    0 -0.30277527010E+03  0.76474142696E+02  0.18505136038E+03  0.37134777531E+03  0.78319892547E+02 0.  0.
         24    2    4    4    0    0  0.53989016366E+03 -0.13062594313E+03  0.89814261658E+03  0.10588041949E+04  0.76561332792E+02 0.  0.
         13    1    3    3    0    0 -0.58452944726E+02  0.55869108550E+02  0.42774043232E+03  0.43531595592E+03  0.00000000000E+00 0.  1.
        -13    1    3    3    0    0 -0.17866194884E+03 -0.17173081147E+01  0.86184911779E+03  0.88017438213E+03  0.00000000000E+00 0. -1.
          4    1    6    6  502    0  0.82614535505E+02 -0.22886187420E+02  0.91934188622E+02  0.12570136868E+03  0.00000000000E+00 0. -1.
          3    1    5    5  503    0 -0.44177771968E+02 -0.16335915042E+02  0.30494033916E+02  0.56110816790E+02  0.00000000000E+00 0. -1.
         -4    1    5    5    0  503 -0.25859749813E+03  0.92810057738E+02  0.15455732646E+03  0.31523695853E+03  0.00000000000E+00 0.  1.
         -1    1    6    6    0  502  0.45727562816E+03 -0.10773975571E+03  0.80620842796E+03  0.93310282627E+03  0.00000000000E+00 0.  1.
<mgrwt>
<rscale>  0 0.13814666E+04</rscale>
<asrwt>0</asrwt>
<pdfrwt beam="1">  1        1 0.39372504E+00 0.13814666E+04</pdfrwt>
<pdfrwt beam="2">  1       -1 0.28681447E-01 0.13814666E+04</pdfrwt>
<totfact> 0.13337884E+01</totfact>
</mgrwt>
</event>
<event>
12    1  0.1562393E-007  0.1650210E+04  0.7818608E-02  0.8790282E-01
          2   -1    0    0  501    0  0.00000000000E+00  0.00000000000E+00  0.15960931527E+04  0.15960931527E+04  0.00000000000E+00 0. -1.
         -2   -1    0    0    0  501 -0.00000000000E+00 -0.00000000000E+00 -0.42654043895E+03  0.42654043895E+03  0.00000000000E+00 0.  1.
         23    2    1    2    0    0 -0.37725837431E+02  0.41275584044E+03  0.90625965092E+03  0.10007183691E+04  0.91324020908E+02 0.  0.
        254    2    1    2    0    0  0.37725837431E+02 -0.41275584044E+03  0.26329306281E+03  0.10219152225E+04  0.89621250965E+03 0.  0.
        -24    2    4    4    0    0 -0.32695431839E+03 -0.44799160059E+03 -0.58110049987E+01  0.56042201610E+03  0.80271214244E+02 0.  0.
         24    2    4    4    0    0  0.36468015582E+03  0.35235760150E+02  0.26910406781E+03  0.46149320642E+03  0.79534932051E+02 0.  0.
         13    1    3    3    0    0  0.14286099475E+02  0.19726426985E+02  0.27928015884E+02  0.37056694821E+02  0.00000000000E+00 0.  1.
        -13    1    3    3    0    0 -0.52011936907E+02  0.39302941345E+03  0.87833163503E+03  0.96366167430E+03  0.00000000000E+00 0. -1.
          4    1    6    6  502    0  0.31505300675E+03  0.29580416304E+02  0.19360319689E+03  0.37096576114E+03  0.00000000000E+00 0. -1.
          1    1    5    5  503    0 -0.29015820262E+03 -0.34429256240E+03 -0.89486184805E+01  0.45034345653E+03  0.00000000000E+00 0. -1.
         -2    1    5    5    0  503 -0.36796115771E+02 -0.10369903819E+03  0.31376134818E+01  0.11007855956E+03  0.00000000000E+00 0.  1.
         -3    1    6    6    0  502  0.49627149066E+02  0.56553438462E+01  0.75500870925E+02  0.90527445280E+02  0.00000000000E+00 0.  1.
<mgrwt>
<rscale>  0 0.16502100E+04</rscale>
<asrwt>0</asrwt>
<pdfrwt beam="1">  1        2 0.24555279E+00 0.16502100E+04</pdfrwt>
<pdfrwt beam="2">  1       -2 0.65621607E-01 0.16502100E+04</pdfrwt>
<totfact> 0.22897081E+01</totfact>
</mgrwt>
</event>
<event>
12    1  0.1562393E-007  0.1996386E+04  0.7818608E-02  0.8608312E-01
          2   -1    0    0  501    0  0.00000000000E+00  0.00000000000E+00  0.20777632764E+04  0.20777632764E+04  0.00000000000E+00 0. -1.
         -2   -1    0    0    0  501 -0.00000000000E+00 -0.00000000000E+00 -0.47954920349E+03  0.47954920349E+03  0.00000000000E+00 0.  1.
         23    2    1    2    0    0 -0.26276375398E+03  0.41592377727E+03  0.14301826429E+04  0.15151932207E+04  0.91382302632E+02 0.  0.
        254    2    1    2    0    0  0.26276375398E+03 -0.41592377727E+03  0.16803143006E+03  0.10421192592E+04  0.90318359706E+03 0.  0.
        -24    2    4    4    0    0  0.14539912911E+03  0.16599008624E+03  0.34550490157E+03  0.41774862137E+03  0.80291084009E+02 0.  0.
         24    2    4    4    0    0  0.11736462487E+03 -0.58191386350E+03 -0.17747347150E+03  0.62437063783E+03  0.77095139868E+02 0.  0.
         13    1    3    3    0    0 -0.26870371074E+03  0.40240234327E+03  0.14051608024E+04  0.14861380187E+04  0.00000000000E+00 0. -1.
        -13    1    3    3    0    0  0.59399567563E+01  0.13521433994E+02  0.25021840484E+02  0.29055202025E+02  0.00000000000E+00 0.  1.
          4    1    6    6  502    0  0.10594106674E+03 -0.33396414484E+03 -0.10036741825E+03  0.36445737516E+03  0.00000000000E+00 0. -1.
          3    1    5    5  503    0  0.12861152270E+03  0.15523535307E+03  0.25492774648E+03  0.32500322235E+03  0.00000000000E+00 0. -1.
         -4    1    5    5    0  503  0.16787606407E+02  0.10754733169E+02  0.90577155089E+02  0.92745399015E+02  0.00000000000E+00 0.  1.
         -3    1    6    6    0  502  0.11423558130E+02 -0.24794971866E+03 -0.77106053250E+02  0.25991326267E+03  0.00000000000E+00 0.  1.
<mgrwt>
<rscale>  0 0.19963865E+04</rscale>
<asrwt>0</asrwt>
<pdfrwt beam="1">  1        2 0.31965588E+00 0.19963865E+04</pdfrwt>
<pdfrwt beam="2">  1       -2 0.73776801E-01 0.19963865E+04</pdfrwt>
<totfact> 0.93050761E+00</totfact>
</mgrwt>
</event>
<event>
12    1  0.1562393E-007  0.1482753E+04  0.7818608E-02  0.8896003E-01
         -2   -1    0    0    0  501 -0.00000000000E+00  0.00000000000E+00  0.30776008691E+03  0.30776008691E+03  0.00000000000E+00 0.  1.
          2   -1    0    0  501    0  0.00000000000E+00 -0.00000000000E+00 -0.17859345184E+04  0.17859345184E+04  0.00000000000E+00 0. -1.
         23    2    1    2    0    0  0.28731221979E+03  0.20553451988E+03 -0.89243581574E+03  0.96419616713E+03  0.91868454774E+02 0.  0.
        254    2    1    2    0    0 -0.28731221979E+03 -0.20553451988E+03 -0.58573861580E+03  0.11294984382E+04  0.89882381222E+03 0.  0.
        -24    2    4    4    0    0 -0.13057612550E+02  0.93750732175E+02 -0.69144845938E+03  0.70262034171E+03  0.81330631208E+02 0.  0.
         24    2    4    4    0    0 -0.27425460724E+03 -0.29928525205E+03  0.10570984359E+03  0.42687809651E+03  0.79139664925E+02 0.  0.
         13    1    3    3    0    0  0.22186709418E+01  0.29997849417E+02 -0.66753880679E+02  0.73217989976E+02  0.00000000000E+00 0.  1.
        -13    1    3    3    0    0  0.28509354885E+03  0.17553667046E+03 -0.82568193506E+03  0.89097817715E+03  0.00000000000E+00 0. -1.
          4    1    6    6  502    0 -0.12711978355E+03 -0.99381552509E+02  0.70855774289E+02  0.17622903592E+03  0.00000000000E+00 0. -1.
          1    1    5    5  503    0 -0.11189259916E+02 -0.11237639131E+02 -0.16778998085E+03  0.16853771609E+03  0.00000000000E+00 0. -1.
         -2    1    5    5    0  503 -0.18683526337E+01  0.10498837131E+03 -0.52365847853E+03  0.53408262562E+03  0.00000000000E+00 0.  1.
         -3    1    6    6    0  502 -0.14713482369E+03 -0.19990369954E+03  0.34854069297E+02  0.25064906060E+03  0.00000000000E+00 0.  1.
<mgrwt>
<rscale>  0 0.14827533E+04</rscale>
<asrwt>0</asrwt>
<pdfrwt beam="1">  1        2 0.27475915E+00 0.14827533E+04</pdfrwt>
<pdfrwt beam="2">  1       -2 0.47347707E-01 0.14827533E+04</pdfrwt>
<totfact> 0.35930281E+01</totfact>
</mgrwt>
</event>
<event>
12    1  0.1562393E-007  0.2048017E+04  0.7818608E-02  0.8584494E-01
          1   -1    0    0  501    0  0.00000000000E+00  0.00000000000E+00  0.17242319975E+04  0.17242319975E+04  0.00000000000E+00 0. -1.
         -1   -1    0    0    0  501 -0.00000000000E+00 -0.00000000000E+00 -0.60815099420E+03  0.60815099420E+03  0.00000000000E+00 0.  1.
         23    2    1    2    0    0 -0.93628031022E+02  0.20521651016E+03 -0.45224171420E+03  0.51370233020E+03  0.92127584133E+02 0.  0.
        254    2    1    2    0    0  0.93628031022E+02 -0.20521651016E+03  0.15683227175E+04  0.18186806615E+04  0.89279514899E+03 0.  0.
        -24    2    4    4    0    0 -0.21019339270E+03  0.22011266474E+03  0.26414753631E+03  0.41141034538E+03  0.82787099430E+02 0.  0.
         24    2    4    4    0    0  0.30382142372E+03 -0.42532917490E+03  0.13041751812E+04  0.14072703161E+04  0.79526567141E+02 0.  0.
         13    1    3    3    0    0 -0.64455877963E+02  0.14790786800E+03 -0.39840705074E+03  0.42983656859E+03  0.00000000000E+00 0.  1.
        -13    1    3    3    0    0 -0.29172153060E+02  0.57308642166E+02 -0.53834663460E+02  0.83865761613E+02  0.00000000000E+00 0. -1.
          2    1    6    6  502    0  0.18940168807E+03 -0.32028051473E+03  0.96360557284E+03  0.10329512610E+04  0.00000000000E+00 0. -1.
          3    1    5    5  503    0 -0.28200794422E+02  0.36778091585E+00  0.38061250540E+02  0.47371709506E+02  0.00000000000E+00 0. -1.
         -2    1    5    5    0  503 -0.18199259828E+03  0.21974488382E+03  0.22608628577E+03  0.36403863587E+03  0.00000000000E+00 0.  1.
         -1    1    6    6    0  502  0.11441973565E+03 -0.10504866016E+03  0.34056960836E+03  0.37431905515E+03  0.00000000000E+00 0.  1.
<mgrwt>
<rscale>  0 0.20480170E+04</rscale>
<asrwt>0</asrwt>
<pdfrwt beam="1">  1        1 0.26526646E+00 0.20480170E+04</pdfrwt>
<pdfrwt beam="2">  1       -1 0.93561692E-01 0.20480170E+04</pdfrwt>
<totfact> 0.46958720E+00</totfact>
</mgrwt>
</event>
<event>
12    1  0.1562393E-007  0.1256656E+04  0.7818608E-02  0.9064662E-01
         -2   -1    0    0    0  501 -0.00000000000E+00  0.00000000000E+00  0.19008080849E+03  0.19008080849E+03  0.00000000000E+00 0.  1.
          2   -1    0    0  501    0  0.00000000000E+00 -0.00000000000E+00 -0.20769897160E+04  0.20769897160E+04  0.00000000000E+00 0. -1.
         23    2    1    2    0    0  0.48312721925E+02 -0.17191395226E+03 -0.45727793550E+02  0.20623764908E+03  0.92490057383E+02 0.  0.
        254    2    1    2    0    0 -0.48312721925E+02  0.17191395226E+03 -0.18411811140E+04  0.20608328754E+04  0.90840284010E+03 0.  0.
        -24    2    4    4    0    0 -0.33955189194E+03  0.37702202607E+03 -0.13809248418E+04  0.14733399880E+04  0.79600289763E+02 0.  0.
         24    2    4    4    0    0  0.29123917002E+03 -0.20510807381E+03 -0.46025627222E+03  0.58749288745E+03  0.80140380512E+02 0.  0.
         11    1    3    3    0    0  0.36539340982E+02 -0.32550388862E+02  0.18525414320E+02  0.52324394217E+02  0.00000000000E+00 0.  1.
        -11    1    3    3    0    0  0.11773380944E+02 -0.13936356340E+03 -0.64253207869E+02  0.15391325487E+03  0.00000000000E+00 0. -1.
          2    1    6    6  502    0  0.12541951073E+03 -0.75354831894E+02 -0.12942892145E+03  0.19534648722E+03  0.00000000000E+00 0. -1.
          3    1    5    5  503    0 -0.66286054406E+02  0.10756729050E+03 -0.42071458277E+03  0.43927818424E+03  0.00000000000E+00 0. -1.
         -4    1    5    5    0  503 -0.27326583754E+03  0.26945473557E+03 -0.96021025900E+03  0.10340618038E+04  0.00000000000E+00 0.  1.
         -1    1    6    6    0  502  0.16581965929E+03 -0.12975324192E+03 -0.33082735076E+03  0.39214640022E+03  0.00000000000E+00 0.  1.
<mgrwt>
<rscale>  0 0.12566557E+04</rscale>
<asrwt>0</asrwt>
<pdfrwt beam="1">  1        2 0.31953691E+00 0.12566557E+04</pdfrwt>
<pdfrwt beam="2">  1       -2 0.29243198E-01 0.12566557E+04</pdfrwt>
<totfact> 0.64088060E+01</totfact>
</mgrwt>
</event>
<event>
12    1  0.1562393E-007  0.1202158E+04  0.7818608E-02  0.9110970E-01
         -2   -1    0    0    0  501 -0.00000000000E+00  0.00000000000E+00  0.34717403573E+03  0.34717403573E+03  0.00000000000E+00 0.  1.
          2   -1    0    0  501    0  0.00000000000E+00 -0.00000000000E+00 -0.10406772519E+04  0.10406772519E+04  0.00000000000E+00 0. -1.
         23    2    1    2    0    0 -0.67313386286E+02  0.14632104084E+03 -0.36642834357E+03  0.41076246796E+03  0.92277489928E+02 0.  0.
        254    2    1    2    0    0  0.67313386286E+02 -0.14632104084E+03 -0.32707487264E+03  0.97708881972E+03  0.90652283498E+03 0.  0.
        -24    2    4    4    0    0 -0.37658090499E+03  0.75703753733E+02 -0.25751777564E+03  0.46953714337E+03  0.81274152746E+02 0.  0.
         24    2    4    4    0    0  0.44389429128E+03 -0.22202479458E+03 -0.69557097005E+02  0.50755167635E+03  0.80208248863E+02 0.  0.
         11    1    3    3    0    0 -0.73812138348E+02  0.59268234568E+02 -0.14975730892E+03  0.17716717239E+03  0.00000000000E+00 0.  1.
        -11    1    3    3    0    0  0.64987520622E+01  0.87052806275E+02 -0.21667103464E+03  0.23359529557E+03  0.00000000000E+00 0. -1.
          4    1    6    6  502    0  0.41818098384E+03 -0.22688026295E+03 -0.72361866377E+02  0.48123406849E+03  0.00000000000E+00 0. -1.
          3    1    5    5  503    0 -0.24662233899E+03  0.19374696446E+02 -0.13258956155E+03  0.28067409710E+03  0.00000000000E+00 0. -1.
         -4    1    5    5    0  503 -0.12995856600E+03  0.56329057287E+02 -0.12492821409E+03  0.18886304627E+03  0.00000000000E+00 0.  1.
         -3    1    6    6    0  502  0.25713307432E+02  0.48554683790E+01  0.28047693715E+01  0.26317607861E+02  0.00000000000E+00 0.  1.
<mgrwt>
<rscale>  0 0.12021583E+04</rscale>
<asrwt>0</asrwt>
<pdfrwt beam="1">  1        2 0.16010419E+00 0.12021583E+04</pdfrwt>
<pdfrwt beam="2">  1       -2 0.53411390E-01 0.12021583E+04</pdfrwt>
<totfact> 0.77339209E+01</totfact>
</mgrwt>
</event>
<event>
12    1  0.1562393E-007  0.1517858E+04  0.7818608E-02  0.8872664E-01
          2   -1    0    0  501    0  0.00000000000E+00  0.00000000000E+00  0.14295547252E+04  0.14295547252E+04  0.00000000000E+00 0.  1.
         -2   -1    0    0    0  501 -0.00000000000E+00 -0.00000000000E+00 -0.40290391126E+03  0.40290391126E+03  0.00000000000E+00 0. -1.
         23    2    1    2    0    0  0.40742770023E+03 -0.21570217850E+03  0.44456665968E+03  0.64708270891E+03  0.92475707897E+02 0.  0.
        254    2    1    2    0    0 -0.40742770023E+03  0.21570217850E+03  0.58208415421E+03  0.11853759275E+04  0.92399641027E+03 0.  0.
        -24    2    4    4    0    0 -0.42874528947E+03 -0.27820015802E+03  0.19805732256E+03  0.55427660133E+03  0.82328589185E+02 0.  0.
         24    2    4    4    0    0  0.21317589244E+02  0.49390233652E+03  0.38402683166E+03  0.63109932617E+03  0.80098654362E+02 0.  0.
         11    1    3    3    0    0  0.34429111133E+03 -0.15505213398E+03  0.39513707151E+03  0.54654445278E+03  0.00000000000E+00 0.  1.
        -11    1    3    3    0    0  0.63136588902E+02 -0.60650044517E+02  0.49429588172E+02  0.10053825613E+03  0.00000000000E+00 0. -1.
          2    1    6    6  502    0 -0.84766132449E+01  0.42345026785E+03  0.31216407417E+03  0.52614483891E+03  0.00000000000E+00 0. -1.
          3    1    5    5  503    0 -0.24019463848E+03 -0.10732381447E+03  0.94203150050E+02  0.27943890027E+03  0.00000000000E+00 0. -1.
         -4    1    5    5    0  503 -0.18855065099E+03 -0.17087634355E+03  0.10385417251E+03  0.27483770106E+03  0.00000000000E+00 0.  1.
         -1    1    6    6    0  502  0.29794202489E+02  0.70452068675E+02  0.71862757486E+02  0.10495448726E+03  0.00000000000E+00 0.  1.
<mgrwt>
<rscale>  0 0.15178580E+04</rscale>
<asrwt>0</asrwt>
<pdfrwt beam="1">  1        2 0.21993149E+00 0.15178580E+04</pdfrwt>
<pdfrwt beam="2">  1       -2 0.61985218E-01 0.15178580E+04</pdfrwt>
<totfact> 0.32455524E+01</totfact>
</mgrwt>
</event>
<event>
12    1  0.1562393E-007  0.2675471E+04  0.7818608E-02  0.8343008E-01
          1   -1    0    0  501    0  0.00000000000E+00  0.00000000000E+00  0.12119277321E+04  0.12119277321E+04  0.00000000000E+00 0. -1.
         -1   -1    0    0    0  501 -0.00000000000E+00 -0.00000000000E+00 -0.14766036436E+04  0.14766036436E+04  0.00000000000E+00 0.  1.
         23    2    1    2    0    0  0.54356912190E+03 -0.16188300715E+03 -0.11376020873E+04  0.12745302942E+04  0.92819521388E+02 0.  0.
        254    2    1    2    0    0 -0.54356912190E+03  0.16188300715E+03  0.87292617572E+03  0.14140010815E+04  0.95693544817E+03 0.  0.
        -24    2    4    4    0    0  0.22375533419E+03 -0.14205608360E+03  0.28326322762E+03  0.39641447184E+03  0.81608804048E+02 0.  0.
         24    2    4    4    0    0 -0.76732445609E+03  0.30393909075E+03  0.58966294809E+03  0.10175866097E+04  0.81328494441E+02 0.  0.
         11    1    3    3    0    0  0.11364814886E+03 -0.11454079863E+02 -0.16647058283E+03  0.20188995179E+03  0.00000000000E+00 0. -1.
        -11    1    3    3    0    0  0.42992097303E+03 -0.15042892728E+03 -0.97113150446E+03  0.10726403424E+04  0.00000000000E+00 0.  1.
          4    1    6    6  502    0 -0.58850051268E+03  0.26868264374E+03  0.45268120883E+03  0.78958438010E+03  0.00000000000E+00 0. -1.
          1    1    5    5  503    0  0.22594658798E+03 -0.14467283460E+03  0.28592157103E+03  0.39208829933E+03  0.00000000000E+00 0. -1.
         -2    1    5    5    0  503 -0.21912537955E+01  0.26167509984E+01 -0.26583434029E+01  0.43261725152E+01  0.00000000000E+00 0.  1.
         -3    1    6    6    0  502 -0.17882394340E+03  0.35256447005E+02  0.13698173927E+03  0.22800222956E+03  0.00000000000E+00 0.  1.
<mgrwt>
<rscale>  0 0.26754715E+04</rscale>
<asrwt>0</asrwt>
<pdfrwt beam="1">  1        1 0.18645042E+00 0.26754715E+04</pdfrwt>
<pdfrwt beam="2">  1       -1 0.22716979E+00 0.26754715E+04</pdfrwt>
<totfact> 0.90326970E-01</totfact>
</mgrwt>
</event>
<event>
12    1  0.1562393E-007  0.1861924E+04  0.7818608E-02  0.8674045E-01
         -2   -1    0    0    0  501 -0.00000000000E+00  0.00000000000E+00  0.70653275985E+03  0.70653275985E+03  0.00000000000E+00 0.  1.
          2   -1    0    0  501    0  0.00000000000E+00 -0.00000000000E+00 -0.12266802781E+04  0.12266802781E+04  0.00000000000E+00 0. -1.
         23    2    1    2    0    0 -0.47217400353E+03 -0.40026037557E+03 -0.55624476889E+03  0.83893586219E+03  0.10605885205E+03 0.  0.
        254    2    1    2    0    0  0.47217400353E+03  0.40026037557E+03  0.36097250629E+02  0.10942771758E+04  0.90165562609E+03 0.  0.
        -24    2    4    4    0    0  0.26149185393E+03 -0.25324979741E+03  0.13444081906E+03  0.39620697727E+03  0.79951144144E+02 0.  0.
         24    2    4    4    0    0  0.21068214960E+03  0.65351017298E+03 -0.98343568431E+02  0.69807019850E+03  0.78536808137E+02 0.  0.
         13    1    3    3    0    0 -0.41817833343E+03 -0.31585982924E+03 -0.49853235156E+03  0.72330840990E+03  0.00000000000E+00 0. -1.
        -13    1    3    3    0    0 -0.53995670093E+02 -0.84400546329E+02 -0.57712417328E+02  0.11562745229E+03  0.00000000000E+00 0.  1.
          2    1    6    6  502    0  0.16311788066E+03  0.44678302690E+03 -0.99566344926E+02  0.48593824007E+03  0.00000000000E+00 0. -1.
          1    1    5    5  503    0  0.22582535221E+03 -0.24486558108E+03  0.10516277578E+03  0.34930710257E+03  0.00000000000E+00 0. -1.
         -2    1    5    5    0  503  0.35666501724E+02 -0.83842163322E+01  0.29278043284E+02  0.46899874704E+02  0.00000000000E+00 0.  1.
         -1    1    6    6    0  502  0.47564268939E+02  0.20672714608E+03  0.12227764949E+01  0.21213195843E+03  0.00000000000E+00 0.  1.
<mgrwt>
<rscale>  0 0.18619235E+04</rscale>
<asrwt>0</asrwt>
<pdfrwt beam="1">  1        2 0.18872004E+00 0.18619235E+04</pdfrwt>
<pdfrwt beam="2">  1       -2 0.10869735E+00 0.18619235E+04</pdfrwt>
<totfact> 0.11601835E+01</totfact>
</mgrwt>
</event>
<event>
12    1  0.1562393E-007  0.1612174E+04  0.7818608E-02  0.8813104E-01
          1   -1    0    0  501    0  0.00000000000E+00  0.00000000000E+00  0.14804816881E+04  0.14804816881E+04  0.00000000000E+00 0. -1.
         -1   -1    0    0    0  501 -0.00000000000E+00 -0.00000000000E+00 -0.43889505619E+03  0.43889505619E+03  0.00000000000E+00 0.  1.
         23    2    1    2    0    0 -0.43245860516E+03 -0.10564867224E+03 -0.33870033009E+02  0.45538060144E+03  0.89678458458E+02 0.  0.
        254    2    1    2    0    0  0.43245860516E+03  0.10564867224E+03  0.10754566649E+04  0.14639961428E+04  0.88797273664E+03 0.  0.
        -24    2    4    4    0    0  0.67041059288E+03  0.81912054085E+01  0.53955935124E+03  0.86431854909E+03  0.80030006266E+02 0.  0.
         24    2    4    4    0    0 -0.23795198772E+03  0.97457466830E+02  0.53589731364E+03  0.59967759372E+03  0.79424047642E+02 0.  0.
         11    1    3    3    0    0  0.13909789290E+01  0.37638295438E+00  0.67669070855E+01  0.69186355601E+01  0.00000000000E+00 0. -1.
        -11    1    3    3    0    0 -0.43384958409E+03 -0.10602505519E+03 -0.40636940095E+02  0.44846196588E+03  0.00000000000E+00 0.  1.
          2    1    6    6  502    0 -0.22673939821E+03  0.75829848994E+02  0.44028783322E+03  0.50101327006E+03  0.00000000000E+00 0. -1.
          1    1    5    5  503    0  0.31069708402E+03  0.43257763267E+02  0.24302320802E+03  0.39681757992E+03  0.00000000000E+00 0. -1.
         -2    1    5    5    0  503  0.35971350886E+03 -0.35066557858E+02  0.29653614322E+03  0.46750096917E+03  0.00000000000E+00 0.  1.
         -1    1    6    6    0  502 -0.11212589514E+02  0.21627617836E+02  0.95609480417E+02  0.98664323656E+02  0.00000000000E+00 0.  1.
<mgrwt>
<rscale>  0 0.16121738E+04</rscale>
<asrwt>0</asrwt>
<pdfrwt beam="1">  1        1 0.22776641E+00 0.16121738E+04</pdfrwt>
<pdfrwt beam="2">  1       -1 0.67522317E-01 0.16121738E+04</pdfrwt>
<totfact> 0.14369997E+01</totfact>
</mgrwt>
</event>
<event>
12    1  0.1562393E-007  0.1714773E+04  0.7818608E-02  0.8752984E-01
          2   -1    0    0  501    0  0.00000000000E+00  0.00000000000E+00  0.72614651513E+03  0.72614651513E+03  0.00000000000E+00 0. -1.
         -2   -1    0    0    0  501 -0.00000000000E+00 -0.00000000000E+00 -0.10123455682E+04  0.10123455682E+04  0.00000000000E+00 0.  1.
         23    2    1    2    0    0  0.11227577954E+03  0.56974793616E+03  0.10865078229E+03  0.59574363427E+03  0.76726291800E+02 0.  0.
        254    2    1    2    0    0 -0.11227577954E+03 -0.56974793616E+03 -0.39484983541E+03  0.11427484491E+04  0.90152596412E+03 0.  0.
        -24    2    4    4    0    0 -0.25319974917E+03 -0.54274902859E+03  0.10818524189E+03  0.61377498267E+03  0.79555400633E+02 0.  0.
         24    2    4    4    0    0  0.14092396963E+03 -0.26998907574E+02 -0.50303507730E+03  0.52897346643E+03  0.78613821753E+02 0.  0.
         13    1    3    3    0    0  0.39404341934E+02  0.17143396526E+03 -0.22059949243E+01  0.17591808612E+03  0.00000000000E+00 0.  1.
        -13    1    3    3    0    0  0.72871437609E+02  0.39831397090E+03  0.11085677721E+03  0.41982554816E+03  0.00000000000E+00 0. -1.
          4    1    6    6  502    0  0.10840330885E+02 -0.16825639341E+02 -0.17184994989E+03  0.17301161866E+03  0.00000000000E+00 0. -1.
          3    1    5    5  503    0 -0.22772716361E+03 -0.52364875341E+03  0.93172622781E+02  0.57857481420E+03  0.00000000000E+00 0. -1.
         -4    1    5    5    0  503 -0.25472585569E+02 -0.19100275177E+02  0.15012619113E+02  0.35200168466E+02  0.00000000000E+00 0.  1.
         -3    1    6    6    0  502  0.13008363875E+03 -0.10173268232E+02 -0.33118512741E+03  0.35596184778E+03  0.00000000000E+00 0.  1.
<mgrwt>
<rscale>  0 0.17147725E+04</rscale>
<asrwt>0</asrwt>
<pdfrwt beam="1">  1        2 0.11171485E+00 0.17147725E+04</pdfrwt>
<pdfrwt beam="2">  1       -2 0.15574547E+00 0.17147725E+04</pdfrwt>
<totfact> 0.10065039E+01</totfact>
</mgrwt>
</event>
<event>
12    1  0.1562393E-007  0.2307645E+04  0.7818608E-02  0.8474913E-01
          2   -1    0    0  501    0  0.00000000000E+00  0.00000000000E+00  0.24545119593E+04  0.24545119593E+04  0.00000000000E+00 0.  1.
         -2   -1    0    0    0  501 -0.00000000000E+00 -0.00000000000E+00 -0.54239143732E+03  0.54239143732E+03  0.00000000000E+00 0. -1.
         23    2    1    2    0    0  0.38256805718E+03 -0.92545659160E+03  0.69982246744E+03  0.12251670207E+04  0.91948470950E+02 0.  0.
        254    2    1    2    0    0 -0.38256805718E+03  0.92545659160E+03  0.12122980545E+04  0.17717363759E+04  0.81642819124E+03 0.  0.
        -24    2    4    4    0    0 -0.57632189233E+03  0.38441474349E+03  0.79279263462E+03  0.10557595417E+04  0.78653861182E+02 0.  0.
         24    2    4    4    0    0  0.19375383515E+03  0.54104184811E+03  0.41950541988E+03  0.71597683416E+03  0.79819795235E+02 0.  0.
         11    1    3    3    0    0  0.26604072498E+03 -0.67934374181E+03  0.46141122035E+03  0.86324150801E+03  0.00000000000E+00 0. -1.
        -11    1    3    3    0    0  0.11652733220E+03 -0.24611284980E+03  0.23841124709E+03  0.36192551267E+03  0.00000000000E+00 0.  1.
          2    1    6    6  502    0  0.17583576041E+03  0.52670361199E+03  0.38979608208E+03  0.67843636041E+03  0.00000000000E+00 0. -1.
          3    1    5    5  503    0 -0.49158944080E+03  0.29308971248E+03  0.66283159428E+03  0.87573253921E+03  0.00000000000E+00 0. -1.
         -4    1    5    5    0  503 -0.84732451527E+02  0.91325031015E+02  0.12996104034E+03  0.18002700252E+03  0.00000000000E+00 0.  1.
         -1    1    6    6    0  502  0.17918074738E+02  0.14338236125E+02  0.29709337800E+02  0.37540473758E+02  0.00000000000E+00 0.  1.
<mgrwt>
<rscale>  0 0.23076449E+04</rscale>
<asrwt>0</asrwt>
<pdfrwt beam="1">  1        2 0.37761722E+00 0.23076449E+04</pdfrwt>
<pdfrwt beam="2">  1       -2 0.83444838E-01 0.23076449E+04</pdfrwt>
<totfact> 0.42107094E+00</totfact>
</mgrwt>
</event>
<event>
12    1  0.1562393E-007  0.2195519E+04  0.7818608E-02  0.8520295E-01
          2   -1    0    0  501    0  0.00000000000E+00  0.00000000000E+00  0.15109795844E+04  0.15109795844E+04  0.00000000000E+00 0. -1.
         -2   -1    0    0    0  501 -0.00000000000E+00 -0.00000000000E+00 -0.79754617974E+03  0.79754617974E+03  0.00000000000E+00 0.  1.
         23    2    1    2    0    0 -0.75849107099E+03  0.40060874471E+03 -0.10609206940E+03  0.86970868198E+03  0.96651917773E+02 0.  0.
        254    2    1    2    0    0  0.75849107099E+03 -0.40060874471E+03  0.81952547404E+03  0.14388170821E+04  0.81411087827E+03 0.  0.
        -24    2    4    4    0    0  0.38916066505E+03  0.54950006454E+02 -0.31766048819E+02  0.40234494269E+03  0.80042767463E+02 0.  0.
         24    2    4    4    0    0  0.36933040595E+03 -0.45555875117E+03  0.85129152285E+03  0.10364721394E+04  0.75090042127E+02 0.  0.
         13    1    3    3    0    0 -0.59121569196E+02  0.59218264120E+02  0.36819669057E+01  0.83759892728E+02  0.00000000000E+00 0. -1.
        -13    1    3    3    0    0 -0.69936950179E+03  0.34139048059E+03 -0.10977403630E+03  0.78594878925E+03  0.00000000000E+00 0.  1.
          4    1    6    6  502    0  0.49132038588E+02 -0.10815892748E+03  0.17054558906E+03  0.20784154724E+03  0.00000000000E+00 0. -1.
          3    1    5    5  503    0  0.22897463394E+03  0.12065865091E+02  0.15784651685E+02  0.22983499150E+03  0.00000000000E+00 0. -1.
         -4    1    5    5    0  503  0.16018603111E+03  0.42884141363E+02 -0.47550700505E+02  0.17250995119E+03  0.00000000000E+00 0.  1.
         -3    1    6    6    0  502  0.32019836736E+03 -0.34739982369E+03  0.68074593379E+03  0.82863059220E+03  0.00000000000E+00 0.  1.
<mgrwt>
<rscale>  0 0.21955191E+04</rscale>
<asrwt>0</asrwt>
<pdfrwt beam="1">  1        2 0.23245840E+00 0.21955191E+04</pdfrwt>
<pdfrwt beam="2">  1       -2 0.12269941E+00 0.21955191E+04</pdfrwt>
<totfact> 0.57488759E+00</totfact>
</mgrwt>
</event>
<event>
12    1  0.1562393E-007  0.1895418E+04  0.7818608E-02  0.8657140E-01
          2   -1    0    0  501    0  0.00000000000E+00  0.00000000000E+00  0.12062915211E+04  0.12062915211E+04  0.00000000000E+00 0. -1.
         -2   -1    0    0    0  501 -0.00000000000E+00 -0.00000000000E+00 -0.74455699123E+03  0.74455699123E+03  0.00000000000E+00 0.  1.
         23    2    1    2    0    0 -0.52324939084E+02 -0.41980061958E+03  0.79231651737E+03  0.90282516908E+03  0.91418612827E+02 0.  0.
        254    2    1    2    0    0  0.52324939084E+02  0.41980061958E+03 -0.33058198748E+03  0.10480233433E+04  0.90005445288E+03 0.  0.
        -24    2    4    4    0    0  0.10189872237E+03  0.69148770978E+03 -0.27643788841E+03  0.75568745204E+03  0.78147403139E+02 0.  0.
         24    2    4    4    0    0 -0.49573783291E+02 -0.27168709020E+03 -0.54144099064E+02  0.29233589123E+03  0.79102811994E+02 0.  0.
         11    1    3    3    0    0 -0.41249622198E+02 -0.22494305595E+03  0.51724733799E+03  0.56554904156E+03  0.00000000000E+00 0. -1.
        -11    1    3    3    0    0 -0.11075316885E+02 -0.19485756363E+03  0.27506917938E+03  0.33727612752E+03  0.00000000000E+00 0.  1.
          2    1    6    6  502    0  0.14621446443E+02 -0.31817290883E+02  0.89341968308E+01  0.36137882730E+02  0.00000000000E+00 0. -1.
          3    1    5    5  503    0 -0.71481693095E+01  0.18650756602E+03 -0.77191705209E+02  0.20197704785E+03  0.00000000000E+00 0. -1.
         -4    1    5    5    0  503  0.10904689168E+03  0.50498014377E+03 -0.19924618320E+03  0.55371040419E+03  0.00000000000E+00 0.  1.
         -1    1    6    6    0  502 -0.64195229734E+02 -0.23986979932E+03 -0.63078295895E+02  0.25619800850E+03  0.00000000000E+00 0.  1.
<mgrwt>
<rscale>  0 0.18954185E+04</rscale>
<asrwt>0</asrwt>
<pdfrwt beam="1">  1        2 0.18558331E+00 0.18954185E+04</pdfrwt>
<pdfrwt beam="2">  1       -2 0.11454723E+00 0.18954185E+04</pdfrwt>
<totfact> 0.10475777E+01</totfact>
</mgrwt>
</event>
<event>
12    1  0.1562393E-007  0.1456749E+04  0.7818608E-02  0.8913735E-01
          1   -1    0    0  501    0  0.00000000000E+00  0.00000000000E+00  0.15981033628E+04  0.15981033628E+04  0.00000000000E+00 0. -1.
         -1   -1    0    0    0  501 -0.00000000000E+00 -0.00000000000E+00 -0.33197446998E+03  0.33197446998E+03  0.00000000000E+00 0.  1.
         23    2    1    2    0    0 -0.59607140646E+01 -0.20943949723E+03  0.89958399826E+03  0.92825337385E+03  0.92209126588E+02 0.  0.
        254    2    1    2    0    0  0.59607140646E+01  0.20943949723E+03  0.36654489454E+03  0.10018244589E+04  0.90851343062E+03 0.  0.
        -24    2    4    4    0    0  0.21872147713E+03  0.47803678158E+03  0.37305997349E+03  0.64961586378E+03  0.80428711000E+02 0.  0.
         24    2    4    4    0    0 -0.21276076307E+03 -0.26859728435E+03 -0.65150789565E+01  0.35220859511E+03  0.81220716296E+02 0.  0.
         11    1    3    3    0    0  0.23934011318E+02 -0.91741445071E+02  0.24914445880E+03  0.26657511323E+03  0.00000000000E+00 0.  1.
        -11    1    3    3    0    0 -0.29894725382E+02 -0.11769805216E+03  0.65043953946E+03  0.66167826062E+03  0.00000000000E+00 0. -1.
          2    1    6    6  502    0 -0.20911764617E+03 -0.26318445014E+03  0.80535883395E+01  0.33624560223E+03  0.00000000000E+00 0. -1.
          1    1    5    5  503    0  0.11590182561E+03  0.29612753372E+03  0.26729473789E+03  0.41541693069E+03  0.00000000000E+00 0. -1.
         -2    1    5    5    0  503  0.10281965152E+03  0.18190924787E+03  0.10576523561E+03  0.23419893309E+03  0.00000000000E+00 0.  1.
         -1    1    6    6    0  502 -0.36431168979E+01 -0.54128342100E+01 -0.14568667296E+02  0.15962992880E+02  0.00000000000E+00 0.  1.
<mgrwt>
<rscale>  0 0.14567491E+04</rscale>
<asrwt>0</asrwt>
<pdfrwt beam="1">  1        1 0.24586205E+00 0.14567491E+04</pdfrwt>
<pdfrwt beam="2">  1       -1 0.51072996E-01 0.14567491E+04</pdfrwt>
<totfact> 0.20940025E+01</totfact>
</mgrwt>
</event>
<event>
12    1  0.1562393E-007  0.1245274E+04  0.7818608E-02  0.9074126E-01
          1   -1    0    0  501    0  0.00000000000E+00  0.00000000000E+00  0.19224301373E+04  0.19224301373E+04  0.00000000000E+00 0. -1.
         -1   -1    0    0    0  501 -0.00000000000E+00 -0.00000000000E+00 -0.20165967037E+03  0.20165967037E+03  0.00000000000E+00 0.  1.
         23    2    1    2    0    0 -0.14391839074E+03 -0.23184789674E+03  0.27903641807E+03  0.40097382172E+03  0.91938744197E+02 0.  0.
        254    2    1    2    0    0  0.14391839074E+03  0.23184789674E+03  0.14417340489E+04  0.17231159860E+04  0.90336353866E+03 0.  0.
        -24    2    4    4    0    0  0.29062742541E+03  0.23429987278E+03  0.14990073793E+04  0.15469474426E+04  0.81624360089E+02 0.  0.
         24    2    4    4    0    0 -0.14670903467E+03 -0.24519760471E+01 -0.57273330420E+02  0.17616854337E+03  0.78902270291E+02 0.  0.
         11    1    3    3    0    0 -0.39655818497E+02 -0.99467479385E+02  0.16781776959E+03  0.19907075924E+03  0.00000000000E+00 0. -1.
        -11    1    3    3    0    0 -0.10426257225E+03 -0.13238041735E+03  0.11121864848E+03  0.20190306248E+03  0.00000000000E+00 0.  1.
          4    1    6    6  502    0 -0.11818658080E+03 -0.12524447310E+02 -0.75548394818E+02  0.14082787232E+03  0.00000000000E+00 0. -1.
          1    1    5    5  503    0  0.20751463464E+03  0.17505597325E+03  0.12203858919E+04  0.12502194377E+04  0.00000000000E+00 0. -1.
         -2    1    5    5    0  503  0.83112790773E+02  0.59243899531E+02  0.27862148742E+03  0.29672800487E+03  0.00000000000E+00 0.  1.
         -3    1    6    6    0  502 -0.28522453866E+02  0.10072471263E+02  0.18275064398E+02  0.35340671055E+02  0.00000000000E+00 0.  1.
<mgrwt>
<rscale>  0 0.12452737E+04</rscale>
<asrwt>0</asrwt>
<pdfrwt beam="1">  1        1 0.29575847E+00 0.12452737E+04</pdfrwt>
<pdfrwt beam="2">  1       -1 0.31024566E-01 0.12452737E+04</pdfrwt>
<totfact> 0.31954746E+01</totfact>
</mgrwt>
</event>
<event>
12    1  0.1562393E-007  0.1204392E+04  0.7818608E-02  0.9109021E-01
         -1   -1    0    0    0  501 -0.00000000000E+00  0.00000000000E+00  0.14051538263E+03  0.14051538263E+03  0.00000000000E+00 0.  1.
          1   -1    0    0  501    0  0.00000000000E+00 -0.00000000000E+00 -0.25807866932E+04  0.25807866932E+04  0.00000000000E+00 0. -1.
         23    2    1    2    0    0  0.58636153354E+02 -0.24637763526E+03 -0.41509067609E+03  0.49477570836E+03  0.91447222864E+02 0.  0.
        254    2    1    2    0    0 -0.58636153354E+02  0.24637763526E+03 -0.20251806344E+04  0.22265263674E+04  0.88990051414E+03 0.  0.
        -24    2    4    4    0    0 -0.42152446771E+03  0.28595756422E+03 -0.85784957738E+03  0.10007691171E+04  0.78602309212E+02 0.  0.
         24    2    4    4    0    0  0.36288831436E+03 -0.39579928959E+02 -0.11673310571E+04  0.12257572503E+04  0.81021851013E+02 0.  0.
         13    1    3    3    0    0  0.17888631178E+02 -0.12225658087E+03 -0.12082936604E+03  0.17281901050E+03  0.00000000000E+00 0.  1.
        -13    1    3    3    0    0  0.40747522176E+02 -0.12412105439E+03 -0.29426131005E+03  0.32195669786E+03  0.00000000000E+00 0. -1.
          4    1    6    6  502    0  0.29823075417E+03 -0.39215023399E+02 -0.10444684545E+04  0.10869193868E+04  0.00000000000E+00 0. -1.
          3    1    5    5  503    0 -0.35391659866E+03  0.25477623603E+03 -0.67818948460E+03  0.80629328800E+03  0.00000000000E+00 0. -1.
         -4    1    5    5    0  503 -0.67607869051E+02  0.31181328194E+02 -0.17966009278E+03  0.19447582915E+03  0.00000000000E+00 0.  1.
         -3    1    6    6    0  502  0.64657560187E+02 -0.36490556037E+00 -0.12286260252E+03  0.13883786351E+03  0.00000000000E+00 0.  1.
<mgrwt>
<rscale>  0 0.12043923E+04</rscale>
<asrwt>0</asrwt>
<pdfrwt beam="1">  1        1 0.39704409E+00 0.12043923E+04</pdfrwt>
<pdfrwt beam="2">  1       -1 0.21617752E-01 0.12043923E+04</pdfrwt>
<totfact> 0.21282046E+01</totfact>
</mgrwt>
</event>
<event>
12    1  0.1562393E-007  0.1777764E+04  0.7818608E-02  0.8718214E-01
         -2   -1    0    0    0  501 -0.00000000000E+00  0.00000000000E+00  0.96834285304E+03  0.96834285304E+03  0.00000000000E+00 0. -1.
          2   -1    0    0  501    0  0.00000000000E+00 -0.00000000000E+00 -0.81594166513E+03  0.81594166513E+03  0.00000000000E+00 0.  1.
         23    2    1    2    0    0  0.24563606545E+03  0.43967073428E+03  0.42748401286E+03  0.67003263022E+03  0.11204335354E+03 0.  0.
        254    2    1    2    0    0 -0.24563606545E+03 -0.43967073428E+03 -0.27508282494E+03  0.11142518879E+04  0.95511218083E+03 0.  0.
        -24    2    4    4    0    0 -0.33620583630E+03 -0.70326246540E+03 -0.14379187101E+03  0.79599444660E+03  0.72928713443E+02 0.  0.
         24    2    4    4    0    0  0.90569770848E+02  0.26359173111E+03 -0.13129095394E+03  0.31825744135E+03  0.79793485237E+02 0.  0.
         11    1    3    3    0    0  0.17556002840E+03  0.27222183162E+03  0.33617574684E+03  0.46684063871E+03  0.00000000000E+00 0. -1.
        -11    1    3    3    0    0  0.70076037052E+02  0.16744890267E+03  0.91308266018E+02  0.20319199152E+03  0.00000000000E+00 0.  1.
          4    1    6    6  502    0  0.83962420418E+02  0.19573554088E+03 -0.13106444653E+03  0.25007994552E+03  0.00000000000E+00 0. -1.
          1    1    5    5  503    0 -0.10126820987E+03 -0.18885812909E+03 -0.82072894443E+01  0.21445279866E+03  0.00000000000E+00 0. -1.
         -2    1    5    5    0  503 -0.23493762643E+03 -0.51440433631E+03 -0.13558458156E+03  0.58154164794E+03  0.00000000000E+00 0.  1.
         -3    1    6    6    0  502  0.66073504294E+01  0.67856190233E+02 -0.22650741190E+00  0.68177495834E+02  0.00000000000E+00 0.  1.
<mgrwt>
<rscale>  0 0.17777641E+04</rscale>
<asrwt>0</asrwt>
<pdfrwt beam="1">  1        2 0.12552949E+00 0.17777641E+04</pdfrwt>
<pdfrwt beam="2">  1       -2 0.14897582E+00 0.17777641E+04</pdfrwt>
<totfact> 0.96770576E+00</totfact>
</mgrwt>
</event>
<event>
12    1  0.1562393E-007  0.1928276E+04  0.7818608E-02  0.8640908E-01
          2   -1    0    0  501    0  0.00000000000E+00  0.00000000000E+00  0.17729357908E+04  0.17729357908E+04  0.00000000000E+00 0. -1.
         -2   -1    0    0    0  501 -0.00000000000E+00 -0.00000000000E+00 -0.52430692338E+03  0.52430692338E+03  0.00000000000E+00 0.  1.
         23    2    1    2    0    0 -0.27832111096E+02 -0.26154278009E+02  0.13787513704E+04  0.13822655208E+04  0.90796233071E+02 0.  0.
        254    2    1    2    0    0  0.27832111096E+02  0.26154278009E+02 -0.13012250290E+03  0.91497719346E+03  0.90487166279E+03 0.  0.
        -24    2    4    4    0    0 -0.16396481416E+03  0.35868191603E+03  0.15416588527E+03  0.43054014950E+03  0.77849360841E+02 0.  0.
         24    2    4    4    0    0  0.19179692526E+03 -0.33252763802E+03 -0.28428838817E+03  0.48443704396E+03  0.80614336975E+02 0.  0.
         13    1    3    3    0    0  0.95173624772E+01  0.10963610345E+00  0.15096590685E+02  0.17846547535E+02  0.00000000000E+00 0.  1.
        -13    1    3    3    0    0 -0.37349473573E+02 -0.26263914112E+02  0.13636547797E+04  0.13644189732E+04  0.00000000000E+00 0. -1.
          4    1    6    6  502    0  0.18143608310E+03 -0.25136583251E+03 -0.21560415093E+03  0.37760956542E+03  0.00000000000E+00 0. -1.
          3    1    5    5  503    0 -0.15879917053E+03  0.27155988000E+03  0.12525515122E+03  0.33860123729E+03  0.00000000000E+00 0. -1.
         -4    1    5    5    0  503 -0.51656436357E+01  0.87122036028E+02  0.28910734050E+02  0.91938912215E+02  0.00000000000E+00 0.  1.
         -3    1    6    6    0  502  0.10360842156E+02 -0.81161805513E+02 -0.68684237241E+02  0.10682747853E+03  0.00000000000E+00 0.  1.
<mgrwt>
<rscale>  0 0.19282764E+04</rscale>
<asrwt>0</asrwt>
<pdfrwt beam="1">  1        2 0.27275935E+00 0.19282764E+04</pdfrwt>
<pdfrwt beam="2">  1       -2 0.80662604E-01 0.19282764E+04</pdfrwt>
<totfact> 0.11324825E+01</totfact>
</mgrwt>
</event>
<event>
12    1  0.1562393E-007  0.1652924E+04  0.7818608E-02  0.8788679E-01
         -1   -1    0    0    0  501 -0.00000000000E+00  0.00000000000E+00  0.10031465910E+04  0.10031465910E+04  0.00000000000E+00 0.  1.
          1   -1    0    0  501    0  0.00000000000E+00 -0.00000000000E+00 -0.68089687484E+03  0.68089687484E+03  0.00000000000E+00 0. -1.
         23    2    1    2    0    0  0.47661679300E+03  0.15847395495E+03  0.42277474805E+03  0.66283326965E+03  0.91279209059E+02 0.  0.
        254    2    1    2    0    0 -0.47661679300E+03 -0.15847395495E+03 -0.10052503186E+03  0.10212101962E+04  0.88345199138E+03 0.  0.
        -24    2    4    4    0    0  0.38926841874E+02  0.29492548553E+03  0.57552822073E+02  0.31299995034E+03  0.78487582151E+02 0.  0.
         24    2    4    4    0    0 -0.51554363487E+03 -0.45339944048E+03 -0.15807785394E+03  0.70821024588E+03  0.72227781227E+02 0.  0.
         11    1    3    3    0    0  0.17414398914E+03  0.71446943132E+02  0.10484756360E+03  0.21546184402E+03  0.00000000000E+00 0. -1.
        -11    1    3    3    0    0  0.30247280386E+03  0.87027011815E+02  0.31792718445E+03  0.44737142563E+03  0.00000000000E+00 0.  1.
          2    1    6    6  502    0 -0.16215516593E+03 -0.18783206735E+03 -0.63877174637E+02  0.25623324687E+03  0.00000000000E+00 0. -1.
          1    1    5    5  503    0 -0.15222833774E+02  0.15811460056E+03  0.46186726686E+02  0.16542422828E+03  0.00000000000E+00 0. -1.
         -2    1    5    5    0  503  0.54149675649E+02  0.13681088497E+03  0.11366095387E+02  0.14757572206E+03  0.00000000000E+00 0.  1.
         -1    1    6    6    0  502 -0.35338846894E+03 -0.26556737313E+03 -0.94200679300E+02  0.45197699901E+03  0.00000000000E+00 0.  1.
<mgrwt>
<rscale>  0 0.16529239E+04</rscale>
<asrwt>0</asrwt>
<pdfrwt beam="1">  1        1 0.10475337E+00 0.16529239E+04</pdfrwt>
<pdfrwt beam="2">  1       -1 0.15433025E+00 0.16529239E+04</pdfrwt>
<totfact> 0.87656652E+00</totfact>
</mgrwt>
</event>
<event>
12    1  0.1562393E-007  0.2427529E+04  0.7818608E-02  0.8429268E-01
         -1   -1    0    0    0  501 -0.00000000000E+00  0.00000000000E+00  0.10050496480E+04  0.10050496480E+04  0.00000000000E+00 0.  1.
          1   -1    0    0  501    0  0.00000000000E+00 -0.00000000000E+00 -0.14658222883E+04  0.14658222883E+04  0.00000000000E+00 0. -1.
         23    2    1    2    0    0 -0.54697300718E+03 -0.76564034789E+03  0.23855596664E+03  0.97571061637E+03  0.98578115087E+02 0.  0.
        254    2    1    2    0    0  0.54697300718E+03  0.76564034789E+03 -0.69932860691E+03  0.14951613199E+04  0.92793440458E+03 0.  0.
        -24    2    4    4    0    0  0.37841066132E+01 -0.16368372727E+03  0.40564972156E+02  0.18651565829E+03  0.79598315213E+02 0.  0.
         24    2    4    4    0    0  0.54318890057E+03  0.92932407516E+03 -0.73989357906E+03  0.13086456616E+04  0.80084586276E+02 0.  0.
         13    1    3    3    0    0 -0.42991884240E+02 -0.25152841879E+02  0.51336743335E+01  0.50073168237E+02  0.00000000000E+00 0. -1.
        -13    1    3    3    0    0 -0.50398112294E+03 -0.74048750601E+03  0.23342229231E+03  0.92563744814E+03  0.00000000000E+00 0.  1.
          4    1    6    6  502    0  0.42317804716E+03  0.69202599955E+03 -0.59345659794E+03  0.10050723244E+04  0.00000000000E+00 0. -1.
          3    1    5    5  503    0 -0.36585749331E+02 -0.87657789951E+02  0.30947039218E+02  0.99900572719E+02  0.00000000000E+00 0. -1.
         -2    1    5    5    0  503  0.40369855944E+02 -0.76025937318E+02  0.96179329376E+01  0.86615085568E+02  0.00000000000E+00 0.  1.
         -3    1    6    6    0  502  0.12001085341E+03  0.23729807561E+03 -0.14643698112E+03  0.30357333721E+03  0.00000000000E+00 0.  1.
<mgrwt>
<rscale>  0 0.24275289E+04</rscale>
<asrwt>0</asrwt>
<pdfrwt beam="1">  1        1 0.22551112E+00 0.24275289E+04</pdfrwt>
<pdfrwt beam="2">  1       -1 0.15462302E+00 0.24275289E+04</pdfrwt>
<totfact> 0.19845817E+00</totfact>
</mgrwt>
</event>
<event>
12    1  0.1562393E-007  0.1541240E+04  0.7818608E-02  0.8857483E-01
         -2   -1    0    0    0  501 -0.00000000000E+00  0.00000000000E+00  0.33709138024E+03  0.33709138024E+03  0.00000000000E+00 0.  1.
          2   -1    0    0  501    0  0.00000000000E+00 -0.00000000000E+00 -0.17617032980E+04  0.17617032980E+04  0.00000000000E+00 0. -1.
         23    2    1    2    0    0  0.23179382582E+03  0.43115860476E+03 -0.56370789237E+03  0.75209295106E+03  0.90835560047E+02 0.  0.
        254    2    1    2    0    0 -0.23179382582E+03 -0.43115860476E+03 -0.86090402541E+03  0.13467017272E+04  0.91259173837E+03 0.  0.
        -24    2    4    4    0    0  0.27093049340E+00 -0.59018732481E+03 -0.86905822756E+03  0.10536500176E+04  0.81209636380E+02 0.  0.
         24    2    4    4    0    0 -0.23206475631E+03  0.15902872005E+03  0.81542021439E+01  0.29305170956E+03  0.81661671187E+02 0.  0.
         13    1    3    3    0    0  0.77266923776E+02  0.75841920884E+02 -0.95642503523E+02  0.14446336198E+03  0.00000000000E+00 0.  1.
        -13    1    3    3    0    0  0.15452690205E+03  0.35531668388E+03 -0.46806538885E+03  0.60762958909E+03  0.00000000000E+00 0. -1.
          4    1    6    6  502    0 -0.18060585102E+03  0.86121456862E+02 -0.15630593236E+02  0.20069801743E+03  0.00000000000E+00 0. -1.
          3    1    5    5  503    0  0.39930080080E+02 -0.32207300277E+03 -0.46071986858E+03  0.56354966748E+03  0.00000000000E+00 0. -1.
         -4    1    5    5    0  503 -0.39659149586E+02 -0.26811432204E+03 -0.40833835897E+03  0.49010035017E+03  0.00000000000E+00 0.  1.
         -3    1    6    6    0  502 -0.51458905292E+02  0.72907263184E+02  0.23784795380E+02  0.92353692130E+02  0.00000000000E+00 0.  1.
<mgrwt>
<rscale>  0 0.15412398E+04</rscale>
<asrwt>0</asrwt>
<pdfrwt beam="1">  1        2 0.27103127E+00 0.15412398E+04</pdfrwt>
<pdfrwt beam="2">  1       -2 0.51860214E-01 0.15412398E+04</pdfrwt>
<totfact> 0.30644667E+01</totfact>
</mgrwt>
</event>
<event>
12    1  0.1562393E-007  0.1390282E+04  0.7818608E-02  0.8960883E-01
         -2   -1    0    0    0  501 -0.00000000000E+00  0.00000000000E+00  0.29465099370E+03  0.29465099370E+03  0.00000000000E+00 0.  1.
          2   -1    0    0  501    0  0.00000000000E+00 -0.00000000000E+00 -0.16399777754E+04  0.16399777754E+04  0.00000000000E+00 0. -1.
         23    2    1    2    0    0 -0.21451820294E+03  0.49629606795E+02  0.64498020527E+02  0.24741868654E+03  0.92600510444E+02 0.  0.
        254    2    1    2    0    0  0.21451820294E+03 -0.49629606795E+02 -0.14098248022E+04  0.16872100825E+04  0.90032812489E+03 0.  0.
        -24    2    4    4    0    0 -0.29504582354E+03  0.10335848118E+03 -0.85598427683E+03  0.91509089380E+03  0.83350153704E+02 0.  0.
         24    2    4    4    0    0  0.50956402647E+03 -0.15298808798E+03 -0.55384052537E+03  0.77211918874E+03  0.79798884293E+02 0.  0.
         13    1    3    3    0    0 -0.21675648148E+03  0.30178051552E+02  0.54978817751E+02  0.22564741846E+03  0.00000000000E+00 0. -1.
        -13    1    3    3    0    0  0.22382785384E+01  0.19451555243E+02  0.95192027756E+01  0.21771268077E+02  0.00000000000E+00 0.  1.
          2    1    6    6  502    0  0.23263090693E+03 -0.10844567744E+03 -0.28605285958E+03  0.38432257583E+03  0.00000000000E+00 0. -1.
          3    1    5    5  503    0 -0.10679733290E+02 -0.21648429352E+01 -0.56389253756E+01  0.12269503962E+02  0.00000000000E+00 0. -1.
         -4    1    5    5    0  503 -0.28436609025E+03  0.10552332412E+03 -0.85034535145E+03  0.90282138984E+03  0.00000000000E+00 0.  1.
         -1    1    6    6    0  502  0.27693311954E+03 -0.44542410532E+02 -0.26778766579E+03  0.38779661291E+03  0.00000000000E+00 0.  1.
<mgrwt>
<rscale>  0 0.13902821E+04</rscale>
<asrwt>0</asrwt>
<pdfrwt beam="1">  1        2 0.25230428E+00 0.13902821E+04</pdfrwt>
<pdfrwt beam="2">  1       -2 0.45330920E-01 0.13902821E+04</pdfrwt>
<totfact> 0.47602355E+01</totfact>
</mgrwt>
</event>
<event>
12    1  0.1562393E-007  0.2087986E+04  0.7818608E-02  0.8566554E-01
         -2   -1    0    0    0  501 -0.00000000000E+00  0.00000000000E+00  0.43939034970E+03  0.43939034970E+03  0.00000000000E+00 0.  1.
          2   -1    0    0  501    0  0.00000000000E+00 -0.00000000000E+00 -0.24805299220E+04  0.24805299220E+04  0.00000000000E+00 0. -1.
         23    2    1    2    0    0  0.23736053860E+03 -0.81111916638E+03 -0.74156866898E+03  0.11280166570E+04  0.90791850949E+02 0.  0.
        254    2    1    2    0    0 -0.23736053860E+03  0.81111916638E+03 -0.12995709033E+04  0.17919036147E+04  0.89876565602E+03 0.  0.
        -24    2    4    4    0    0 -0.20538366955E+03  0.20384594992E+03  0.54530101495E+02  0.30550720356E+03  0.81397152566E+02 0.  0.
         24    2    4    4    0    0 -0.31976869058E+02  0.60727321647E+03 -0.13541010048E+04  0.14863964112E+04  0.77340030760E+02 0.  0.
         11    1    3    3    0    0  0.23200363337E+03 -0.70695238175E+03 -0.67241192205E+03  0.10028684604E+04  0.00000000000E+00 0. -1.
        -11    1    3    3    0    0  0.53569052342E+01 -0.10416678463E+03 -0.69156746931E+02  0.12514819655E+03  0.00000000000E+00 0.  1.
          4    1    6    6  502    0 -0.48456384365E+02  0.56012815420E+03 -0.12635506463E+04  0.13829865531E+04  0.00000000000E+00 0. -1.
          3    1    5    5  503    0 -0.21108769242E+03  0.20040782739E+03  0.59635254604E+02  0.29711559158E+03  0.00000000000E+00 0. -1.
         -4    1    5    5    0  503  0.57040228684E+01  0.34381225241E+01 -0.51051531089E+01  0.83916119810E+01  0.00000000000E+00 0.  1.
         -3    1    6    6    0  502  0.16479515307E+02  0.47145062266E+02 -0.90550358524E+02  0.10340985809E+03  0.00000000000E+00 0.  1.
<mgrwt>
<rscale>  0 0.20879855E+04</rscale>
<asrwt>0</asrwt>
<pdfrwt beam="1">  1        2 0.38161999E+00 0.20879855E+04</pdfrwt>
<pdfrwt beam="2">  1       -2 0.67598515E-01 0.20879855E+04</pdfrwt>
<totfact> 0.66124325E+00</totfact>
</mgrwt>
</event>
<event>
12    1  0.1562393E-007  0.1125367E+04  0.7818608E-02  0.9180815E-01
         -1   -1    0    0    0  501 -0.00000000000E+00  0.00000000000E+00  0.74092845282E+03  0.74092845282E+03  0.00000000000E+00 0.  1.
          1   -1    0    0  501    0  0.00000000000E+00 -0.00000000000E+00 -0.42731857266E+03  0.42731857266E+03  0.00000000000E+00 0. -1.
         23    2    1    2    0    0 -0.84773477074E+02  0.61540406125E+02 -0.98232358668E+02  0.17033115067E+03  0.91593343630E+02 0.  0.
        254    2    1    2    0    0  0.84773477074E+02 -0.61540406125E+02  0.41184223882E+03  0.99791587482E+03  0.90291101418E+03 0.  0.
        -24    2    4    4    0    0 -0.15463661141E+03  0.21168318955E+03  0.53909378846E+03  0.60469417266E+03  0.79439759355E+02 0.  0.
         24    2    4    4    0    0  0.23941008848E+03 -0.27322359568E+03 -0.12725154963E+03  0.39322170216E+03  0.80386730616E+02 0.  0.
         13    1    3    3    0    0 -0.75384100007E+02  0.84692883449E+02 -0.73167230421E+02  0.13494106361E+03  0.00000000000E+00 0. -1.
        -13    1    3    3    0    0 -0.93893770672E+01 -0.23152477324E+02 -0.25065128247E+02  0.35390087058E+02  0.00000000000E+00 0.  1.
          4    1    6    6  502    0  0.25779021249E+02 -0.66450067201E+01  0.46495372303E+01  0.27024659985E+02  0.00000000000E+00 0. -1.
          1    1    5    5  503    0 -0.15618447800E+03  0.16502179162E+03  0.45000863489E+03  0.50411660790E+03  0.00000000000E+00 0. -1.
         -2    1    5    5    0  503  0.15478665934E+01  0.46661397929E+02  0.89085153568E+02  0.10057756476E+03  0.00000000000E+00 0.  1.
         -1    1    6    6    0  502  0.21363106724E+03 -0.26657858896E+03 -0.13190108686E+03  0.36619704217E+03  0.00000000000E+00 0.  1.
<mgrwt>
<rscale>  0 0.11253666E+04</rscale>
<asrwt>0</asrwt>
<pdfrwt beam="1">  1        1 0.65741319E-01 0.11253666E+04</pdfrwt>
<pdfrwt beam="2">  1       -1 0.11398899E+00 0.11253666E+04</pdfrwt>
<totfact> 0.38316592E+01</totfact>
</mgrwt>
</event>
<event>
12    1  0.1562393E-007  0.2253741E+04  0.7818608E-02  0.8496387E-01
         -2   -1    0    0    0  501 -0.00000000000E+00  0.00000000000E+00  0.48704779115E+03  0.48704779115E+03  0.00000000000E+00 0.  1.
          2   -1    0    0  501    0  0.00000000000E+00 -0.00000000000E+00 -0.26072124476E+04  0.26072124476E+04  0.00000000000E+00 0. -1.
         23    2    1    2    0    0  0.20518717271E+03  0.28086185370E+03 -0.21271269511E+04  0.21572634706E+04  0.90174601481E+02 0.  0.
        254    2    1    2    0    0 -0.20518717271E+03 -0.28086185370E+03  0.69622946853E+01  0.93699676812E+03  0.87001684652E+03 0.  0.
        -24    2    4    4    0    0 -0.50725746733E+03 -0.30880520184E+03  0.10460874358E+03  0.60841456808E+03  0.80959907189E+02 0.  0.
         24    2    4    4    0    0  0.30207029462E+03  0.27943348140E+02 -0.97646448891E+02  0.32858220005E+03  0.80025868374E+02 0.  0.
         11    1    3    3    0    0  0.14913938531E+03  0.14453856395E+03 -0.10769365923E+04  0.10967800037E+04  0.00000000000E+00 0. -1.
        -11    1    3    3    0    0  0.56047787398E+02  0.13632328974E+03 -0.10501903588E+04  0.10604834669E+04  0.00000000000E+00 0.  1.
          4    1    6    6  502    0  0.83177681114E+02 -0.24391326721E+02 -0.44029559255E+02  0.97221733902E+02  0.00000000000E+00 0. -1.
          3    1    5    5  503    0 -0.57746276313E+02 -0.52079875805E+02 -0.94712973741E+01  0.78336781692E+02  0.00000000000E+00 0. -1.
         -4    1    5    5    0  503 -0.44951119102E+03 -0.25672532603E+03  0.11408004095E+03  0.53007778639E+03  0.00000000000E+00 0.  1.
         -3    1    6    6    0  502  0.21889261351E+03  0.52334674861E+02 -0.53616889636E+02  0.23136046614E+03  0.00000000000E+00 0.  1.
<mgrwt>
<rscale>  0 0.22537409E+04</rscale>
<asrwt>0</asrwt>
<pdfrwt beam="1">  1        2 0.40110961E+00 0.22537409E+04</pdfrwt>
<pdfrwt beam="2">  1       -2 0.74930428E-01 0.22537409E+04</pdfrwt>
<totfact> 0.43890041E+00</totfact>
</mgrwt>
</event>
<event>
12    1  0.1562393E-007  0.1021291E+04  0.7818608E-02  0.9285496E-01
         -2   -1    0    0    0  501 -0.00000000000E+00  0.00000000000E+00  0.41468149414E+03  0.41468149414E+03  0.00000000000E+00 0.  1.
          2   -1    0    0  501    0  0.00000000000E+00 -0.00000000000E+00 -0.62881729818E+03  0.62881729818E+03  0.00000000000E+00 0. -1.
         23    2    1    2    0    0  0.43066967106E+02 -0.44671045635E+02  0.13269185000E+02  0.10978931446E+03  0.89595515101E+02 0.  0.
        254    2    1    2    0    0 -0.43066967106E+02  0.44671045635E+02 -0.22740498904E+03  0.93370947786E+03  0.90346560202E+03 0.  0.
        -24    2    4    4    0    0  0.21743495065E+03  0.18537495687E+03  0.23562645859E+03  0.37874002382E+03  0.79261246895E+02 0.  0.
         24    2    4    4    0    0 -0.26050191775E+03 -0.14070391124E+03 -0.46303144763E+03  0.55496945404E+03  0.77033328032E+02 0.  0.
         11    1    3    3    0    0 -0.12412831208E+02 -0.42330752912E+02 -0.16115412361E+02  0.46964641341E+02  0.00000000000E+00 0. -1.
        -11    1    3    3    0    0  0.55479798314E+02 -0.23402927224E+01  0.29384597362E+02  0.62824673123E+02  0.00000000000E+00 0.  1.
          2    1    6    6  502    0 -0.24967739203E+03 -0.13575142419E+03 -0.39914597505E+03  0.48998444736E+03  0.00000000000E+00 0. -1.
          1    1    5    5  503    0  0.19211119050E+03  0.18383035480E+03  0.23244080464E+03  0.35316998248E+03  0.00000000000E+00 0. -1.
         -2    1    5    5    0  503  0.25323760141E+02  0.15446020745E+01  0.31856539506E+01  0.25570041344E+02  0.00000000000E+00 0.  1.
         -1    1    6    6    0  502 -0.10824525724E+02 -0.49524870445E+01 -0.63885472588E+02  0.64985006678E+02  0.00000000000E+00 0.  1.
<mgrwt>
<rscale>  0 0.10212911E+04</rscale>
<asrwt>0</asrwt>
<pdfrwt beam="1">  1        2 0.96741122E-01 0.10212911E+04</pdfrwt>
<pdfrwt beam="2">  1       -2 0.63797153E-01 0.10212911E+04</pdfrwt>
<totfact> 0.10621982E+02</totfact>
</mgrwt>
</event>
<event>
12    1  0.1562393E-007  0.1413067E+04  0.7818608E-02  0.8944414E-01
         -1   -1    0    0    0  501 -0.00000000000E+00  0.00000000000E+00  0.21071691811E+03  0.21071691811E+03  0.00000000000E+00 0.  1.
          1   -1    0    0  501    0  0.00000000000E+00 -0.00000000000E+00 -0.23690043830E+04  0.23690043830E+04  0.00000000000E+00 0. -1.
         23    2    1    2    0    0  0.23161552258E+02 -0.34589285908E+02  0.10509148055E+03  0.14312561354E+03  0.87794337879E+02 0.  0.
        254    2    1    2    0    0 -0.23161552258E+02  0.34589285908E+02 -0.22633789454E+04  0.24365956876E+04  0.90132203890E+03 0.  0.
        -24    2    4    4    0    0 -0.29304528229E+03 -0.32370877510E+03 -0.10159336605E+04  0.11085740158E+04  0.78436199550E+02 0.  0.
         24    2    4    4    0    0  0.26988373003E+03  0.35829806100E+03 -0.12474452850E+04  0.13280216718E+04  0.79417211888E+02 0.  0.
         13    1    3    3    0    0  0.13537992498E+02 -0.13706237665E+02  0.11606115817E+03  0.11764918456E+03  0.00000000000E+00 0.  1.
        -13    1    3    3    0    0  0.96235597602E+01 -0.20883048243E+02 -0.10969677620E+02  0.25476428977E+02  0.00000000000E+00 0. -1.
          4    1    6    6  502    0  0.79708132353E+01  0.51149184089E+02 -0.15182311358E+03  0.16040583129E+03  0.00000000000E+00 0. -1.
          3    1    5    5  503    0 -0.31099264544E+00  0.36722901094E+01 -0.39374702834E+01  0.53931533730E+01  0.00000000000E+00 0. -1.
         -4    1    5    5    0  503 -0.29273428964E+03 -0.32738106520E+03 -0.10119961902E+04  0.11031808624E+04  0.00000000000E+00 0.  1.
         -1    1    6    6    0  502  0.26191291679E+03  0.30714887691E+03 -0.10956221714E+04  0.11676158405E+04  0.00000000000E+00 0.  1.
<mgrwt>
<rscale>  0 0.14130666E+04</rscale>
<asrwt>0</asrwt>
<pdfrwt beam="1">  1        1 0.36446222E+00 0.14130666E+04</pdfrwt>
<pdfrwt beam="2">  1       -1 0.32417987E-01 0.14130666E+04</pdfrwt>
<totfact> 0.14500319E+01</totfact>
</mgrwt>
</event>
<event>
12    1  0.1562393E-007  0.2214557E+04  0.7818608E-02  0.8512394E-01
          2   -1    0    0  501    0  0.00000000000E+00  0.00000000000E+00  0.19272862904E+04  0.19272862904E+04  0.00000000000E+00 0. -1.
         -2   -1    0    0    0  501 -0.00000000000E+00 -0.00000000000E+00 -0.63616156600E+03  0.63616156600E+03  0.00000000000E+00 0.  1.
         23    2    1    2    0    0  0.48353945062E+03  0.62818879275E+03  0.10904214353E+04  0.13512076312E+04  0.91167957011E+02 0.  0.
        254    2    1    2    0    0 -0.48353945062E+03 -0.62818879275E+03  0.20070328903E+03  0.12122402251E+04  0.89488155282E+03 0.  0.
        -24    2    4    4    0    0 -0.11141978541E+03  0.20192961180E+03 -0.80162858349E+02  0.25678240991E+03  0.79505883279E+02 0.  0.
         24    2    4    4    0    0 -0.37211966521E+03 -0.83011840455E+03  0.28086614738E+03  0.95545781524E+03  0.80275981083E+02 0.  0.
         11    1    3    3    0    0  0.32372648160E+03  0.36477171240E+03  0.61929570275E+03  0.78827939495E+03  0.00000000000E+00 0. -1.
        -11    1    3    3    0    0  0.15981296902E+03  0.26341708036E+03  0.47112573259E+03  0.56292823628E+03  0.00000000000E+00 0.  1.
          4    1    6    6  502    0 -0.77222429083E+02 -0.24827743914E+03  0.60727486140E+02  0.26700714955E+03  0.00000000000E+00 0. -1.
          1    1    5    5  503    0  0.89695098653E+01  0.10980506010E+02  0.56865892641E+01  0.15276155175E+02  0.00000000000E+00 0. -1.
         -2    1    5    5    0  503 -0.12038929528E+03  0.19094910579E+03 -0.85849447613E+02  0.24150625473E+03  0.00000000000E+00 0.  1.
         -3    1    6    6    0  502 -0.29489723613E+03 -0.58184096541E+03  0.22013866124E+03  0.68845066569E+03  0.00000000000E+00 0.  1.
<mgrwt>
<rscale>  0 0.22145568E+04</rscale>
<asrwt>0</asrwt>
<pdfrwt beam="1">  1        2 0.29650558E+00 0.22145568E+04</pdfrwt>
<pdfrwt beam="2">  1       -2 0.97871011E-01 0.22145568E+04</pdfrwt>
<totfact> 0.58180226E+00</totfact>
</mgrwt>
</event>
<event>
12    1  0.1562393E-007  0.1220556E+04  0.7818608E-02  0.9095052E-01
         -2   -1    0    0    0  501 -0.00000000000E+00  0.00000000000E+00  0.57126422989E+03  0.57126422989E+03  0.00000000000E+00 0.  1.
          2   -1    0    0  501    0  0.00000000000E+00 -0.00000000000E+00 -0.65195596289E+03  0.65195596289E+03  0.00000000000E+00 0. -1.
         23    2    1    2    0    0 -0.17936359828E+03  0.19302879442E+03 -0.94516549922E+02  0.29432860597E+03  0.90909483663E+02 0.  0.
        254    2    1    2    0    0  0.17936359828E+03 -0.19302879442E+03  0.13824816918E+02  0.92889158681E+03  0.89062732870E+03 0.  0.
        -24    2    4    4    0    0  0.31729435667E+03 -0.24310594349E+02  0.37596833342E+03  0.49905068711E+03  0.80204032344E+02 0.  0.
         24    2    4    4    0    0 -0.13793075838E+03 -0.16871820007E+03 -0.36214351650E+03  0.42984089970E+03  0.78259487438E+02 0.  0.
         13    1    3    3    0    0 -0.50486439840E+01  0.13407584929E+02  0.15333880408E+02  0.20985233572E+02  0.00000000000E+00 0.  1.
        -13    1    3    3    0    0 -0.17431495430E+03  0.17962120949E+03 -0.10985043033E+03  0.27334337240E+03  0.00000000000E+00 0. -1.
          2    1    6    6  502    0 -0.38397826255E+02 -0.30032864719E+02 -0.14895906072E+03  0.15673279107E+03  0.00000000000E+00 0. -1.
          1    1    5    5  503    0  0.18212967052E+03 -0.40792220480E+02  0.26083700444E+03  0.32073535043E+03  0.00000000000E+00 0. -1.
         -2    1    5    5    0  503  0.13516468615E+03  0.16481626130E+02  0.11513132898E+03  0.17831533668E+03  0.00000000000E+00 0.  1.
         -1    1    6    6    0  502 -0.99532932129E+02 -0.13868533535E+03 -0.21318445578E+03  0.27310810864E+03  0.00000000000E+00 0.  1.
<mgrwt>
<rscale>  0 0.12205558E+04</rscale>
<asrwt>0</asrwt>
<pdfrwt beam="1">  1        2 0.10030092E+00 0.12205558E+04</pdfrwt>
<pdfrwt beam="2">  1       -2 0.87886805E-01 0.12205558E+04</pdfrwt>
<totfact> 0.49296247E+01</totfact>
</mgrwt>
</event>
<event>
12    1  0.1562393E-007  0.2000062E+04  0.7818608E-02  0.8606591E-01
         -2   -1    0    0    0  501 -0.00000000000E+00  0.00000000000E+00  0.41034717475E+03  0.41034717475E+03  0.00000000000E+00 0.  1.
          2   -1    0    0  501    0  0.00000000000E+00 -0.00000000000E+00 -0.24371130123E+04  0.24371130123E+04  0.00000000000E+00 0. -1.
         23    2    1    2    0    0 -0.74315821813E+02  0.78668552227E+03 -0.93549844953E+03  0.12278776110E+04  0.90161666657E+02 0.  0.
        254    2    1    2    0    0  0.74315821813E+02 -0.78668552227E+03 -0.10912673881E+04  0.16195825761E+04  0.89876930091E+03 0.  0.
        -24    2    4    4    0    0 -0.31121952042E+03 -0.60017479777E+03 -0.36384448288E+03  0.77171802333E+03  0.78093034512E+02 0.  0.
         24    2    4    4    0    0  0.38553534223E+03 -0.18651072450E+03 -0.72742290517E+03  0.84786455278E+03  0.79413263498E+02 0.  0.
         13    1    3    3    0    0 -0.79109041396E+02  0.46754853886E+03 -0.60082039343E+03  0.76540513572E+03  0.00000000000E+00 0. -1.
        -13    1    3    3    0    0  0.47932195827E+01  0.31913698341E+03 -0.33467805610E+03  0.46247247526E+03  0.00000000000E+00 0.  1.
          4    1    6    6  502    0  0.20502628150E+03 -0.14237045551E+03 -0.42769050104E+03  0.49520125948E+03  0.00000000000E+00 0. -1.
          3    1    5    5  503    0 -0.10084704090E+02 -0.11363747323E+02  0.29319923779E+01  0.15473609440E+02  0.00000000000E+00 0. -1.
         -4    1    5    5    0  503 -0.30113481633E+03 -0.58881105045E+03 -0.36677647526E+03  0.75624441389E+03  0.00000000000E+00 0.  1.
         -1    1    6    6    0  502  0.18050906073E+03 -0.44140268991E+02 -0.29973240414E+03  0.35266329330E+03  0.00000000000E+00 0.  1.
<mgrwt>
<rscale>  0 0.20000624E+04</rscale>
<asrwt>0</asrwt>
<pdfrwt beam="1">  1        2 0.37494045E+00 0.20000624E+04</pdfrwt>
<pdfrwt beam="2">  1       -2 0.63130337E-01 0.20000624E+04</pdfrwt>
<totfact> 0.81764678E+00</totfact>
</mgrwt>
</event>
<event>
12    1  0.1562393E-007  0.3307775E+04  0.7818608E-02  0.8160920E-01
          1   -1    0    0  501    0  0.00000000000E+00  0.00000000000E+00  0.21279020558E+04  0.21279020558E+04  0.00000000000E+00 0. -1.
         -1   -1    0    0    0  501 -0.00000000000E+00 -0.00000000000E+00 -0.12854650747E+04  0.12854650747E+04  0.00000000000E+00 0.  1.
         23    2    1    2    0    0 -0.74849104459E+03  0.57280308332E+03 -0.85410364314E+03  0.12750723035E+04  0.89297982907E+02 0.  0.
        254    2    1    2    0    0  0.74849104459E+03 -0.57280308332E+03  0.16965406242E+04  0.21382948270E+04  0.89761487377E+03 0.  0.
        -24    2    4    4    0    0 -0.91002038081E+02 -0.38372648978E+03  0.32538604392E+03  0.51749824903E+03  0.80006063958E+02 0.  0.
         24    2    4    4    0    0  0.83949308267E+03 -0.18907659354E+03  0.13711545803E+04  0.16207965780E+04  0.80112858727E+02 0.  0.
         11    1    3    3    0    0 -0.38541154868E+03  0.34695525829E+03 -0.44597365193E+03  0.68396820930E+03  0.00000000000E+00 0.  1.
        -11    1    3    3    0    0 -0.36307949591E+03  0.22584782503E+03 -0.40812999120E+03  0.59110409417E+03  0.00000000000E+00 0. -1.
          4    1    6    6  502    0  0.70133051499E+03 -0.18639449877E+03  0.11689780157E+04  0.13759058840E+04  0.00000000000E+00 0. -1.
          3    1    5    5  503    0 -0.81982606875E+02 -0.20576094312E+03  0.15023578744E+03  0.26763689090E+03  0.00000000000E+00 0. -1.
         -4    1    5    5    0  503 -0.90194312059E+01 -0.17796554667E+03  0.17515025648E+03  0.24986135813E+03  0.00000000000E+00 0.  1.
         -3    1    6    6    0  502  0.13816256768E+03 -0.26820947700E+01  0.20217656460E+03  0.24489069402E+03  0.00000000000E+00 0.  1.
<mgrwt>
<rscale>  0 0.33077749E+04</rscale>
<asrwt>0</asrwt>
<pdfrwt beam="1">  1        1 0.32736955E+00 0.33077749E+04</pdfrwt>
<pdfrwt beam="2">  1       -1 0.19776386E+00 0.33077749E+04</pdfrwt>
<totfact> 0.31543998E-01</totfact>
</mgrwt>
</event>
<event>
12    1  0.1562393E-007  0.2985108E+04  0.7818608E-02  0.8247996E-01
         -1   -1    0    0    0  501 -0.00000000000E+00  0.00000000000E+00  0.21935626379E+04  0.21935626379E+04  0.00000000000E+00 0.  1.
          1   -1    0    0  501    0  0.00000000000E+00 -0.00000000000E+00 -0.10155705125E+04  0.10155705125E+04  0.00000000000E+00 0. -1.
         23    2    1    2    0    0  0.93061109819E+03 -0.86881586383E+03  0.42319681893E+02  0.12769688034E+04  0.89332793854E+02 0.  0.
        254    2    1    2    0    0 -0.93061109819E+03  0.86881586383E+03  0.11356724436E+04  0.19321643470E+04  0.90698905355E+03 0.  0.
        -24    2    4    4    0    0 -0.89464259229E+03  0.10376062284E+04  0.98546714596E+03  0.16899827377E+04  0.88792482273E+02 0.  0.
         24    2    4    4    0    0 -0.35968505900E+02 -0.16879036459E+03  0.15020529761E+03  0.24218160922E+03  0.79412718227E+02 0.  0.
         13    1    3    3    0    0  0.25829437108E+02 -0.32524187906E+02  0.16300512044E+02  0.44617141473E+02  0.00000000000E+00 0.  1.
        -13    1    3    3    0    0  0.90478166108E+03 -0.83629167593E+03  0.26019169849E+02  0.12323516619E+04  0.00000000000E+00 0. -1.
          4    1    6    6  502    0 -0.20605432697E+02 -0.13191650222E+03  0.15185146187E+03  0.20220141910E+03  0.00000000000E+00 0. -1.
          3    1    5    5  503    0 -0.53106021144E+03  0.64212650200E+03  0.54977251601E+03  0.99829915962E+03  0.00000000000E+00 0. -1.
         -4    1    5    5    0  503 -0.36358238085E+03  0.39547972643E+03  0.43569462995E+03  0.69168357812E+03  0.00000000000E+00 0.  1.
         -3    1    6    6    0  502 -0.15363073203E+02 -0.36873862375E+02 -0.16461642633E+01  0.39980190113E+02  0.00000000000E+00 0.  1.
<mgrwt>
<rscale>  0 0.29851081E+04</rscale>
<asrwt>0</asrwt>
<pdfrwt beam="1">  1        1 0.15624162E+00 0.29851081E+04</pdfrwt>
<pdfrwt beam="2">  1       -1 0.33747117E+00 0.29851081E+04</pdfrwt>
<totfact> 0.23568209E-01</totfact>
</mgrwt>
</event>
<event>
12    1  0.1562393E-007  0.1638694E+04  0.7818608E-02  0.8797123E-01
          2   -1    0    0  501    0  0.00000000000E+00  0.00000000000E+00  0.43455829488E+04  0.43455829488E+04  0.00000000000E+00 0. -1.
         -2   -1    0    0    0  501 -0.00000000000E+00 -0.00000000000E+00 -0.15448554726E+03  0.15448554726E+03  0.00000000000E+00 0.  1.
         23    2    1    2    0    0  0.13022950641E+03 -0.33597627002E+03  0.26278760544E+03  0.45497653937E+03  0.90036367356E+02 0.  0.
        254    2    1    2    0    0 -0.13022950641E+03  0.33597627002E+03  0.39283097960E+04  0.40450919566E+04  0.89515993298E+03 0.  0.
        -24    2    4    4    0    0 -0.37694665364E+03 -0.15092462058E+03  0.16805452850E+04  0.17307671396E+04  0.80345603481E+02 0.  0.
         24    2    4    4    0    0  0.24671714723E+03  0.48690089060E+03  0.22477645111E+04  0.23143248170E+04  0.75579318495E+02 0.  0.
         13    1    3    3    0    0  0.24174684777E+01 -0.21458197155E+02 -0.54834744590E+01  0.22279292429E+02  0.00000000000E+00 0. -1.
        -13    1    3    3    0    0  0.12781203793E+03 -0.31451807287E+03  0.26827107990E+03  0.43269724694E+03  0.00000000000E+00 0.  1.
          2    1    6    6  502    0  0.18929212173E+03  0.29472442003E+03  0.14589787074E+04  0.15004375561E+04  0.00000000000E+00 0. -1.
          3    1    5    5  503    0 -0.13000345365E+03 -0.94129498195E+02  0.64390777198E+03  0.66361018619E+03  0.00000000000E+00 0. -1.
         -4    1    5    5    0  503 -0.24694319999E+03 -0.56795122381E+02  0.10366375130E+04  0.10671569534E+04  0.00000000000E+00 0.  1.
         -1    1    6    6    0  502  0.57425025502E+02  0.19217647057E+03  0.78878580371E+03  0.81388726094E+03  0.00000000000E+00 0.  1.
<mgrwt>
<rscale>  0 0.16386943E+04</rscale>
<asrwt>0</asrwt>
<pdfrwt beam="1">  1        2 0.66855113E+00 0.16386943E+04</pdfrwt>
<pdfrwt beam="2">  1       -2 0.23767011E-01 0.16386943E+04</pdfrwt>
<totfact> 0.26586293E+00</totfact>
</mgrwt>
</event>
<event>
12    1  0.1562393E-007  0.1327542E+04  0.7818608E-02  0.9008005E-01
          1   -1    0    0  501    0  0.00000000000E+00  0.00000000000E+00  0.21754764536E+04  0.21754764536E+04  0.00000000000E+00 0. -1.
         -1   -1    0    0    0  501 -0.00000000000E+00 -0.00000000000E+00 -0.20252668962E+03  0.20252668962E+03  0.00000000000E+00 0.  1.
         23    2    1    2    0    0  0.26737808268E+02 -0.26806143761E+03  0.93979730870E+03  0.98178721968E+03  0.90085062962E+02 0.  0.
        254    2    1    2    0    0 -0.26737808268E+02  0.26806143761E+03  0.10331524553E+04  0.13962159235E+04  0.89969053821E+03 0.  0.
        -24    2    4    4    0    0 -0.71874736813E+02  0.47444502342E+03  0.10632740362E+04  0.11692485272E+04  0.79538570555E+02 0.  0.
         24    2    4    4    0    0  0.45136928545E+02 -0.20638358580E+03 -0.30121580973E+02  0.22696739631E+03  0.77300469224E+02 0.  0.
         13    1    3    3    0    0  0.30626939320E+02 -0.19424787055E+03  0.52846909433E+03  0.56387040026E+03  0.00000000000E+00 0.  1.
        -13    1    3    3    0    0 -0.38891310512E+01 -0.73813567068E+02  0.41132821437E+03  0.41791681942E+03  0.00000000000E+00 0. -1.
          2    1    6    6  502    0  0.51561304315E+01 -0.72915275229E+02 -0.46570384999E+02  0.86671932029E+02  0.00000000000E+00 0. -1.
          3    1    5    5  503    0 -0.41034328259E+01  0.21572870525E+03  0.54201719321E+03  0.58338525021E+03  0.00000000000E+00 0. -1.
         -4    1    5    5    0  503 -0.67771303987E+02  0.25871631817E+03  0.52125684303E+03  0.58586327700E+03  0.00000000000E+00 0.  1.
         -1    1    6    6    0  502  0.39980798113E+02 -0.13346831057E+03  0.16448804026E+02  0.14029546428E+03  0.00000000000E+00 0.  1.
<mgrwt>
<rscale>  0 0.13275422E+04</rscale>
<asrwt>0</asrwt>
<pdfrwt beam="1">  1        1 0.33468867E+00 0.13275422E+04</pdfrwt>
<pdfrwt beam="2">  1       -1 0.31157954E-01 0.13275422E+04</pdfrwt>
<totfact> 0.21232978E+01</totfact>
</mgrwt>
</event>
<event>
12    1  0.1562393E-007  0.1842418E+04  0.7818608E-02  0.8684062E-01
         -1   -1    0    0    0  501 -0.00000000000E+00  0.00000000000E+00  0.99013412426E+03  0.99013412426E+03  0.00000000000E+00 0.  1.
          1   -1    0    0  501    0  0.00000000000E+00 -0.00000000000E+00 -0.85708191324E+03  0.85708191324E+03  0.00000000000E+00 0. -1.
         23    2    1    2    0    0 -0.27086330550E+03 -0.17518672680E+01  0.69897284634E+03  0.75507124777E+03  0.90551366541E+02 0.  0.
        254    2    1    2    0    0  0.27086330550E+03  0.17518672680E+01 -0.56592063532E+03  0.10921447897E+04  0.89394858742E+03 0.  0.
        -24    2    4    4    0    0 -0.17141310927E+01 -0.22159637796E+03 -0.67505655631E+03  0.71491393738E+03  0.79326481477E+02 0.  0.
         24    2    4    4    0    0  0.27257743659E+03  0.22334824523E+03  0.10913592099E+03  0.37723085235E+03  0.78800819348E+02 0.  0.
         13    1    3    3    0    0 -0.22099274563E+03 -0.31091014344E+02  0.49365210418E+03  0.54175349076E+03  0.00000000000E+00 0. -1.
        -13    1    3    3    0    0 -0.49870559873E+02  0.29339147076E+02  0.20532074216E+03  0.21331775700E+03  0.00000000000E+00 0.  1.
          2    1    6    6  502    0  0.15687018325E+03  0.16075297206E+03  0.98465590096E+02  0.24524527489E+03  0.00000000000E+00 0. -1.
          1    1    5    5  503    0  0.96422745797E+01 -0.22360812842E+03 -0.64412461563E+03  0.68190181773E+03  0.00000000000E+00 0. -1.
         -2    1    5    5    0  503 -0.11356405672E+02  0.20117504533E+01 -0.30931940676E+02  0.33012119648E+02  0.00000000000E+00 0.  1.
         -1    1    6    6    0  502  0.11570725334E+03  0.62595273167E+02  0.10670330899E+02  0.13198557747E+03  0.00000000000E+00 0.  1.
<mgrwt>
<rscale>  0 0.18424180E+04</rscale>
<asrwt>0</asrwt>
<pdfrwt beam="1">  1        1 0.13185876E+00 0.18424180E+04</pdfrwt>
<pdfrwt beam="2">  1       -1 0.15232833E+00 0.18424180E+04</pdfrwt>
<totfact> 0.62156772E+00</totfact>
</mgrwt>
</event>
<event>
12    1  0.1562393E-007  0.1699749E+04  0.7818608E-02  0.8761507E-01
          2   -1    0    0  501    0  0.00000000000E+00  0.00000000000E+00  0.12982389156E+04  0.12982389156E+04  0.00000000000E+00 0.  1.
         -2   -1    0    0    0  501 -0.00000000000E+00 -0.00000000000E+00 -0.55635908404E+03  0.55635908404E+03  0.00000000000E+00 0. -1.
         23    2    1    2    0    0  0.38281594802E+03  0.28880823787E+03  0.69372988309E+03  0.84785241073E+03  0.87374546393E+02 0.  0.
        254    2    1    2    0    0 -0.38281594802E+03 -0.28880823787E+03  0.48149948429E+02  0.10067455889E+04  0.88388914173E+03 0.  0.
        -24    2    4    4    0    0 -0.19795258442E+03 -0.40206565601E+03 -0.33137557454E+03  0.56259779272E+03  0.76579942212E+02 0.  0.
         24    2    4    4    0    0 -0.18486336359E+03  0.11325741814E+03  0.37952552297E+03  0.44414779615E+03  0.78904602416E+02 0.  0.
         11    1    3    3    0    0  0.12563422864E+03  0.76759942069E+02  0.28190048580E+03  0.31803133809E+03  0.00000000000E+00 0. -1.
        -11    1    3    3    0    0  0.25718171937E+03  0.21204829580E+03  0.41182939729E+03  0.52982107263E+03  0.00000000000E+00 0.  1.
          2    1    6    6  502    0 -0.17560951606E+02  0.40369124521E+02  0.11167226604E+03  0.12003644546E+03  0.00000000000E+00 0. -1.
          1    1    5    5  503    0 -0.49925152768E+02 -0.48451730669E+02 -0.34021791188E+02  0.77444001442E+02  0.00000000000E+00 0. -1.
         -2    1    5    5    0  503 -0.14802743166E+03 -0.35361392534E+03 -0.29735378335E+03  0.48515379128E+03  0.00000000000E+00 0.  1.
         -1    1    6    6    0  502 -0.16730241199E+03  0.72888293617E+02  0.26785325693E+03  0.32411135070E+03  0.00000000000E+00 0.  1.
<mgrwt>
<rscale>  0 0.16997494E+04</rscale>
<asrwt>0</asrwt>
<pdfrwt beam="1">  1        2 0.19972906E+00 0.16997494E+04</pdfrwt>
<pdfrwt beam="2">  1       -2 0.85593705E-01 0.16997494E+04</pdfrwt>
<totfact> 0.18701752E+01</totfact>
</mgrwt>
</event>
<event>
12    1  0.1562393E-007  0.2019088E+04  0.7818608E-02  0.8597748E-01
         -1   -1    0    0    0  501 -0.00000000000E+00  0.00000000000E+00  0.14978352075E+04  0.14978352075E+04  0.00000000000E+00 0.  1.
          1   -1    0    0  501    0  0.00000000000E+00 -0.00000000000E+00 -0.68043500875E+03  0.68043500875E+03  0.00000000000E+00 0. -1.
         23    2    1    2    0    0 -0.59848274738E+02 -0.37136515368E+03  0.10918005700E+04  0.11582840697E+04  0.89997823152E+02 0.  0.
        254    2    1    2    0    0  0.59848274738E+02  0.37136515368E+03 -0.27440037124E+03  0.10199861465E+04  0.90751434260E+03 0.  0.
        -24    2    4    4    0    0  0.42202315006E+03  0.17599349712E+03 -0.36474302755E+03  0.59040885149E+03  0.80423165511E+02 0.  0.
         24    2    4    4    0    0 -0.36217487532E+03  0.19537165656E+03  0.90342656304E+02  0.42957729505E+03  0.83869734545E+02 0.  0.
         13    1    3    3    0    0  0.88398162419E+01 -0.27603363526E+02  0.38574937959E+02  0.48250532304E+02  0.00000000000E+00 0. -1.
        -13    1    3    3    0    0 -0.68688090980E+02 -0.34376179016E+03  0.10532256320E+04  0.11100335374E+04  0.00000000000E+00 0.  1.
          4    1    6    6  502    0 -0.39430990173E+02  0.40781048346E+01  0.29697761483E+02  0.49531716730E+02  0.00000000000E+00 0. -1.
          1    1    5    5  503    0  0.21949717969E+03  0.11333076012E+03 -0.15186775602E+03  0.28997704806E+03  0.00000000000E+00 0. -1.
         -2    1    5    5    0  503  0.20252597037E+03  0.62662737000E+02 -0.21287527152E+03  0.30043180343E+03  0.00000000000E+00 0.  1.
         -1    1    6    6    0  502 -0.32274388515E+03  0.19129355173E+03  0.60644894820E+02  0.38004557832E+03  0.00000000000E+00 0.  1.
<mgrwt>
<rscale>  0 0.20190884E+04</rscale>
<asrwt>0</asrwt>
<pdfrwt beam="1">  1        1 0.10468231E+00 0.20190884E+04</pdfrwt>
<pdfrwt beam="2">  1       -1 0.23043619E+00 0.20190884E+04</pdfrwt>
<totfact> 0.24694336E+00</totfact>
</mgrwt>
</event>
<event>
12    1  0.1562393E-007  0.1508834E+04  0.7818608E-02  0.8878600E-01
         -1   -1    0    0    0  501 -0.00000000000E+00  0.00000000000E+00  0.44527875126E+03  0.44527875126E+03  0.00000000000E+00 0.  1.
          1   -1    0    0  501    0  0.00000000000E+00 -0.00000000000E+00 -0.12781764115E+04  0.12781764115E+04  0.00000000000E+00 0. -1.
         23    2    1    2    0    0 -0.39694037837E+03 -0.48130152780E+02  0.36160073546E+02  0.41150013462E+03  0.90258707497E+02 0.  0.
        254    2    1    2    0    0  0.39694037837E+03  0.48130152780E+02 -0.86905773374E+03  0.13119550281E+04  0.89782318727E+03 0.  0.
        -24    2    4    4    0    0  0.55136135052E+03  0.31688788187E+03 -0.44363104762E+03  0.77933027332E+03  0.78293677742E+02 0.  0.
         24    2    4    4    0    0 -0.15442097214E+03 -0.26875772909E+03 -0.42542668612E+03  0.53262475479E+03  0.81392324984E+02 0.  0.
         11    1    3    3    0    0 -0.21020524355E+03 -0.61549833609E+02  0.46823218118E+02  0.22397999953E+03  0.00000000000E+00 0.  1.
        -11    1    3    3    0    0 -0.18673513482E+03  0.13419680829E+02 -0.10663144573E+02  0.18752013509E+03  0.00000000000E+00 0. -1.
          4    1    6    6  502    0 -0.78057965580E+02 -0.13417855382E+03 -0.14540935045E+03  0.21269887045E+03  0.00000000000E+00 0. -1.
          1    1    5    5  503    0  0.33666437899E+03  0.16040861314E+03 -0.29021930406E+03  0.47254742799E+03  0.00000000000E+00 0. -1.
         -2    1    5    5    0  503  0.21469697153E+03  0.15647926873E+03 -0.15341174356E+03  0.30678284533E+03  0.00000000000E+00 0.  1.
         -3    1    6    6    0  502 -0.76363006561E+02 -0.13457917527E+03 -0.28001733568E+03  0.31992588433E+03  0.00000000000E+00 0.  1.
<mgrwt>
<rscale>  0 0.15088337E+04</rscale>
<asrwt>0</asrwt>
<pdfrwt beam="1">  1        1 0.19664252E+00 0.15088337E+04</pdfrwt>
<pdfrwt beam="2">  1       -1 0.68504424E-01 0.15088337E+04</pdfrwt>
<totfact> 0.19550702E+01</totfact>
</mgrwt>
</event>
<event>
12    1  0.1562393E-007  0.1478205E+04  0.7818608E-02  0.8899077E-01
         -1   -1    0    0    0  501 -0.00000000000E+00  0.00000000000E+00  0.25223565234E+03  0.25223565234E+03  0.00000000000E+00 0.  1.
          1   -1    0    0  501    0  0.00000000000E+00 -0.00000000000E+00 -0.21657222191E+04  0.21657222191E+04  0.00000000000E+00 0. -1.
         23    2    1    2    0    0 -0.16768065147E+02  0.87206722984E+01 -0.13527521354E+04  0.13560100188E+04  0.92019634660E+02 0.  0.
        254    2    1    2    0    0  0.16768065147E+02 -0.87206722984E+01 -0.56073443141E+03  0.10619478527E+04  0.90163901929E+03 0.  0.
        -24    2    4    4    0    0 -0.27206929192E+03  0.32393173839E+03 -0.39725791797E+03  0.58560960379E+03  0.78557519843E+02 0.  0.
         24    2    4    4    0    0  0.28883735706E+03 -0.33265241069E+03 -0.16347651344E+03  0.47633824888E+03  0.78031479091E+02 0.  0.
         11    1    3    3    0    0  0.15549587602E+02  0.16411302402E+02 -0.11727622791E+04  0.11729801719E+04  0.00000000000E+00 0. -1.
        -11    1    3    3    0    0 -0.32317652749E+02 -0.76906301036E+01 -0.17998985632E+03  0.18302984688E+03  0.00000000000E+00 0.  1.
          2    1    6    6  502    0  0.24891681598E+02 -0.60099320451E+02 -0.52667435547E+01  0.65263027199E+02  0.00000000000E+00 0. -1.
          3    1    5    5  503    0 -0.65738288138E+02  0.52429465347E+02 -0.11774198612E+03  0.14468429998E+03  0.00000000000E+00 0. -1.
         -4    1    5    5    0  503 -0.20633100378E+03  0.27150227304E+03 -0.27951593185E+03  0.44092530382E+03  0.00000000000E+00 0.  1.
         -1    1    6    6    0  502  0.26394567547E+03 -0.27255309024E+03 -0.15820976989E+03  0.41107522169E+03  0.00000000000E+00 0.  1.
<mgrwt>
<rscale>  0 0.14782048E+04</rscale>
<asrwt>0</asrwt>
<pdfrwt beam="1">  1        1 0.33318803E+00 0.14782048E+04</pdfrwt>
<pdfrwt beam="2">  1       -1 0.38805485E-01 0.14782048E+04</pdfrwt>
<totfact> 0.14360722E+01</totfact>
</mgrwt>
</event>
<event>
12    1  0.1562393E-007  0.2364314E+04  0.7818608E-02  0.8452986E-01
          2   -1    0    0  501    0  0.00000000000E+00  0.00000000000E+00  0.37291819946E+04  0.37291819946E+04  0.00000000000E+00 0. -1.
         -2   -1    0    0    0  501 -0.00000000000E+00 -0.00000000000E+00 -0.37474563526E+03  0.37474563526E+03  0.00000000000E+00 0.  1.
         23    2    1    2    0    0  0.75098749410E+03  0.53146245490E+03  0.21387576996E+04  0.23300788421E+04  0.92457317465E+02 0.  0.
        254    2    1    2    0    0 -0.75098749410E+03 -0.53146245490E+03  0.12156786597E+04  0.17738487877E+04  0.90676918827E+03 0.  0.
        -24    2    4    4    0    0 -0.74410172678E+03 -0.67460269050E+03  0.12511723601E+04  0.16064466688E+04  0.80389398598E+02 0.  0.
         24    2    4    4    0    0 -0.68857673150E+01  0.14314023560E+03 -0.35493700371E+02  0.16740211888E+03  0.78912139756E+02 0.  0.
         13    1    3    3    0    0  0.53941160186E+03  0.40396548827E+03  0.14684590376E+04  0.16157118979E+04  0.00000000000E+00 0. -1.
        -13    1    3    3    0    0  0.21157589224E+03  0.12749696664E+03  0.67029866204E+03  0.71436694423E+03  0.00000000000E+00 0.  1.
          2    1    6    6  502    0 -0.21334800323E+02  0.14421185089E+03 -0.21682058815E+02  0.14738501727E+03  0.00000000000E+00 0. -1.
          3    1    5    5  503    0 -0.33323769923E+03 -0.35154298861E+03  0.62813889211E+03  0.79321390861E+03  0.00000000000E+00 0. -1.
         -4    1    5    5    0  503 -0.41086402755E+03 -0.32305970189E+03  0.62303346795E+03  0.81323276023E+03  0.00000000000E+00 0.  1.
         -1    1    6    6    0  502  0.14449033008E+02 -0.10716152942E+01 -0.13811641555E+02  0.20017101605E+02  0.00000000000E+00 0.  1.
<mgrwt>
<rscale>  0 0.23643136E+04</rscale>
<asrwt>0</asrwt>
<pdfrwt beam="1">  1        2 0.57372028E+00 0.23643136E+04</pdfrwt>
<pdfrwt beam="2">  1       -2 0.57653177E-01 0.23643136E+04</pdfrwt>
<totfact> 0.14156342E+00</totfact>
</mgrwt>
</event>
<event>
12    1  0.1562393E-007  0.1061980E+04  0.7818608E-02  0.9243062E-01
         -2   -1    0    0    0  501 -0.00000000000E+00  0.00000000000E+00  0.46851693020E+03  0.46851693020E+03  0.00000000000E+00 0.  1.
          2   -1    0    0  501    0  0.00000000000E+00 -0.00000000000E+00 -0.60179374328E+03  0.60179374328E+03  0.00000000000E+00 0. -1.
         23    2    1    2    0    0  0.71666575706E+02 -0.10872157802E+03 -0.58822225780E+02  0.16532526691E+03  0.83161950639E+02 0.  0.
        254    2    1    2    0    0 -0.71666575706E+02  0.10872157802E+03 -0.74454587293E+02  0.90498540657E+03  0.89246771423E+03 0.  0.
        -24    2    4    4    0    0  0.33535715158E+03 -0.65582271252E+02 -0.24050617059E+03  0.42547666975E+03  0.80135666171E+02 0.  0.
         24    2    4    4    0    0 -0.40702372729E+03  0.17430384927E+03  0.16605158329E+03  0.47950873682E+03  0.79406258725E+02 0.  0.
         13    1    3    3    0    0  0.30339506127E+02 -0.62498825687E+02 -0.73988795627E+02  0.10149350089E+03  0.00000000000E+00 0. -1.
        -13    1    3    3    0    0  0.41327069579E+02 -0.46222752329E+02  0.15166569846E+02  0.63831766024E+02  0.00000000000E+00 0.  1.
          2    1    6    6  502    0 -0.39285178483E+03  0.15467571552E+03  0.16968568954E+03  0.45502783986E+03  0.00000000000E+00 0. -1.
          1    1    5    5  503    0  0.23137591977E+03 -0.81141875060E+02 -0.15628307605E+03  0.29076316823E+03  0.00000000000E+00 0. -1.
         -2    1    5    5    0  503  0.10398123182E+03  0.15559603808E+02 -0.84223094533E+02  0.13471350153E+03  0.00000000000E+00 0.  1.
         -1    1    6    6    0  502 -0.14171942465E+02  0.19628133747E+02 -0.36341062510E+01  0.24480896958E+02  0.00000000000E+00 0.  1.
<mgrwt>
<rscale>  0 0.10619803E+04</rscale>
<asrwt>0</asrwt>
<pdfrwt beam="1">  1        2 0.92583652E-01 0.10619803E+04</pdfrwt>
<pdfrwt beam="2">  1       -2 0.72079528E-01 0.10619803E+04</pdfrwt>
<totfact> 0.85781843E+01</totfact>
</mgrwt>
</event>
<event>
12    1  0.1562393E-007  0.1985311E+04  0.7818608E-02  0.8613519E-01
          2   -1    0    0  501    0  0.00000000000E+00  0.00000000000E+00  0.15373320370E+04  0.15373320370E+04  0.00000000000E+00 0. -1.
         -2   -1    0    0    0  501 -0.00000000000E+00 -0.00000000000E+00 -0.64095766491E+03  0.64095766491E+03  0.00000000000E+00 0.  1.
         23    2    1    2    0    0  0.74520120762E+03 -0.58312081032E+02  0.74586722621E+02  0.75688749430E+03  0.92684201526E+02 0.  0.
        254    2    1    2    0    0 -0.74520120762E+03  0.58312081032E+02  0.82178764948E+03  0.14214022076E+04  0.88674920715E+03 0.  0.
        -24    2    4    4    0    0 -0.19961982599E+03 -0.37743437010E+03  0.45293736494E+03  0.62771105602E+03  0.81019347212E+02 0.  0.
         24    2    4    4    0    0 -0.54558138162E+03  0.43574645113E+03  0.36885028454E+03  0.79369115161E+03  0.79756492460E+02 0.  0.
         13    1    3    3    0    0  0.55171124663E+03 -0.78716256169E+02  0.75013016415E+02  0.56232419588E+03  0.00000000000E+00 0. -1.
        -13    1    3    3    0    0  0.19348996099E+03  0.20404175137E+02 -0.42629379421E+00  0.19456329842E+03  0.00000000000E+00 0.  1.
          2    1    6    6  502    0 -0.48213223426E+03  0.35514841647E+03  0.29676956310E+03  0.66832182563E+03  0.00000000000E+00 0. -1.
          3    1    5    5  503    0 -0.77243291068E+02 -0.11449060670E+03  0.97994179889E+02  0.16934427752E+03  0.00000000000E+00 0. -1.
         -4    1    5    5    0  503 -0.12237653493E+03 -0.26294376340E+03  0.35494318505E+03  0.45836677849E+03  0.00000000000E+00 0.  1.
         -1    1    6    6    0  502 -0.63449147364E+02  0.80598034669E+02  0.72080721441E+02  0.12536932598E+03  0.00000000000E+00 0.  1.
<mgrwt>
<rscale>  0 0.19853108E+04</rscale>
<asrwt>0</asrwt>
<pdfrwt beam="1">  1        2 0.23651262E+00 0.19853108E+04</pdfrwt>
<pdfrwt beam="2">  1       -2 0.98608872E-01 0.19853108E+04</pdfrwt>
<totfact> 0.96051656E+00</totfact>
</mgrwt>
</event>
<event>
12    1  0.1562393E-007  0.1245812E+04  0.7818608E-02  0.9073676E-01
          2   -1    0    0  501    0  0.00000000000E+00  0.00000000000E+00  0.18352628125E+04  0.18352628125E+04  0.00000000000E+00 0. -1.
         -2   -1    0    0    0  501 -0.00000000000E+00 -0.00000000000E+00 -0.21142037878E+03  0.21142037878E+03  0.00000000000E+00 0.  1.
         23    2    1    2    0    0 -0.57568279185E+02  0.17823651010E+03  0.76830238001E+03  0.79776151781E+03  0.10513102244E+03 0.  0.
        254    2    1    2    0    0  0.57568279185E+02 -0.17823651010E+03  0.85554005373E+03  0.12489216735E+04  0.89037868496E+03 0.  0.
        -24    2    4    4    0    0 -0.17687466926E+03 -0.41018122792E+03  0.78204531867E+03  0.90362224125E+03  0.73518610362E+02 0.  0.
         24    2    4    4    0    0  0.23444294845E+03  0.23194471783E+03  0.73494735056E+02  0.34529943222E+03  0.71192510866E+02 0.  0.
         11    1    3    3    0    0 -0.65536014508E+01  0.12154416726E+03  0.30792655485E+03  0.33111130677E+03  0.00000000000E+00 0. -1.
        -11    1    3    3    0    0 -0.51014677734E+02  0.56692342832E+02  0.46037582515E+03  0.46665021104E+03  0.00000000000E+00 0.  1.
          2    1    6    6  502    0  0.11715891379E+03  0.94306445737E+02  0.79364224819E+00  0.15040128542E+03  0.00000000000E+00 0. -1.
          3    1    5    5  503    0 -0.16468420489E+02 -0.78517719742E+02  0.19087845822E+03  0.20705271551E+03  0.00000000000E+00 0. -1.
         -4    1    5    5    0  503 -0.16040624877E+03 -0.33166350818E+03  0.59116686045E+03  0.69656952574E+03  0.00000000000E+00 0.  1.
         -1    1    6    6    0  502  0.11728403466E+03  0.13763827209E+03  0.72701092808E+02  0.19489814680E+03  0.00000000000E+00 0.  1.
<mgrwt>
<rscale>  0 0.12458121E+04</rscale>
<asrwt>0</asrwt>
<pdfrwt beam="1">  1        2 0.28234811E+00 0.12458121E+04</pdfrwt>
<pdfrwt beam="2">  1       -2 0.32526213E-01 0.12458121E+04</pdfrwt>
<totfact> 0.71496327E+01</totfact>
</mgrwt>
</event>
<event>
12    1  0.1562393E-007  0.1175343E+04  0.7818608E-02  0.9134717E-01
         -2   -1    0    0    0  501 -0.00000000000E+00  0.00000000000E+00  0.24647031015E+03  0.24647031015E+03  0.00000000000E+00 0. -1.
          2   -1    0    0  501    0  0.00000000000E+00 -0.00000000000E+00 -0.14012142164E+04  0.14012142164E+04  0.00000000000E+00 0.  1.
         23    2    1    2    0    0  0.21860956930E+03  0.77099439115E+02 -0.28431361463E+03  0.37807859990E+03  0.91513545078E+02 0.  0.
        254    2    1    2    0    0 -0.21860956930E+03 -0.77099439115E+02 -0.87043029162E+03  0.12696059267E+04  0.89471551295E+03 0.  0.
        -24    2    4    4    0    0  0.29826520149E+03 -0.12443846828E+03 -0.12026044659E+03  0.35393501425E+03  0.79751843187E+02 0.  0.
         24    2    4    4    0    0 -0.51687477079E+03  0.47339029165E+02 -0.75016984503E+03  0.91567091240E+03  0.79359379174E+02 0.  0.
         13    1    3    3    0    0  0.10869214611E+03  0.44583053812E+02 -0.74839928693E+02  0.13929338190E+03  0.00000000000E+00 0.  1.
        -13    1    3    3    0    0  0.10991742319E+03  0.32516385303E+02 -0.20947368594E+03  0.23878521800E+03  0.00000000000E+00 0. -1.
          4    1    6    6  502    0 -0.64146793710E+02 -0.24114293655E+01 -0.14224866034E+03  0.15606187076E+03  0.00000000000E+00 0. -1.
          3    1    5    5  503    0  0.40659508456E+02  0.15569480324E+01 -0.37823066987E+02  0.55553614746E+02  0.00000000000E+00 0. -1.
         -4    1    5    5    0  503  0.25760569303E+03 -0.12599541631E+03 -0.82437379603E+02  0.29838139950E+03  0.00000000000E+00 0.  1.
         -3    1    6    6    0  502 -0.45272797708E+03  0.49750458531E+02 -0.60792118469E+03  0.75960904164E+03  0.00000000000E+00 0.  1.
<mgrwt>
<rscale>  0 0.11753428E+04</rscale>
<asrwt>0</asrwt>
<pdfrwt beam="1">  1        2 0.21557142E+00 0.11753428E+04</pdfrwt>
<pdfrwt beam="2">  1       -2 0.37918509E-01 0.11753428E+04</pdfrwt>
<totfact> 0.93663399E+01</totfact>
</mgrwt>
</event>
<event>
12    1  0.1562393E-007  0.2326263E+04  0.7818608E-02  0.8467637E-01
         -2   -1    0    0    0  501 -0.00000000000E+00  0.00000000000E+00  0.39413790710E+03  0.39413790710E+03  0.00000000000E+00 0. -1.
          2   -1    0    0  501    0  0.00000000000E+00 -0.00000000000E+00 -0.34324907620E+04  0.34324907620E+04  0.00000000000E+00 0.  1.
         23    2    1    2    0    0  0.34173884595E+03 -0.91670760840E+03 -0.10689941520E+04  0.14519227439E+04  0.90514524989E+02 0.  0.
        254    2    1    2    0    0 -0.34173884595E+03  0.91670760840E+03 -0.19693587030E+04  0.23747059252E+04  0.89650223209E+03 0.  0.
        -24    2    4    4    0    0 -0.37886608143E+03  0.93738459668E+03 -0.10847245344E+04  0.14849708936E+04  0.79258119750E+02 0.  0.
         24    2    4    4    0    0  0.37127235478E+02 -0.20676988280E+02 -0.88463416859E+03  0.88973503163E+03  0.85116654156E+02 0.  0.
         13    1    3    3    0    0  0.30305347691E+03 -0.80442137271E+03 -0.89212473319E+03  0.12388792089E+04  0.00000000000E+00 0.  1.
        -13    1    3    3    0    0  0.38685369046E+02 -0.11228623569E+03 -0.17686941877E+03  0.21304353498E+03  0.00000000000E+00 0. -1.
          2    1    6    6  502    0 -0.25319997462E+02  0.59260458947E+01 -0.31484009310E+03  0.31591217849E+03  0.00000000000E+00 0. -1.
          1    1    5    5  503    0 -0.80606940908E+02  0.29633806993E+03 -0.33214072373E+03  0.45236179212E+03  0.00000000000E+00 0. -1.
         -2    1    5    5    0  503 -0.29825914052E+03  0.64104652675E+03 -0.75258381067E+03  0.10326091015E+04  0.00000000000E+00 0.  1.
         -1    1    6    6    0  502  0.62447232940E+02 -0.26603034175E+02 -0.56979407549E+03  0.57382285315E+03  0.00000000000E+00 0.  1.
<mgrwt>
<rscale>  0 0.23262629E+04</rscale>
<asrwt>0</asrwt>
<pdfrwt beam="1">  1        2 0.52807550E+00 0.23262629E+04</pdfrwt>
<pdfrwt beam="2">  1       -2 0.60636601E-01 0.23262629E+04</pdfrwt>
<totfact> 0.20796778E+00</totfact>
</mgrwt>
</event>
<event>
12    1  0.1562393E-007  0.1904474E+04  0.7818608E-02  0.8652633E-01
         -2   -1    0    0    0  501 -0.00000000000E+00  0.00000000000E+00  0.77714804960E+03  0.77714804960E+03  0.00000000000E+00 0.  1.
          2   -1    0    0  501    0  0.00000000000E+00 -0.00000000000E+00 -0.11667729038E+04  0.11667729038E+04  0.00000000000E+00 0. -1.
         23    2    1    2    0    0 -0.14660701283E+02 -0.10465358990E+03 -0.91168270241E+03  0.92239867907E+03  0.92123087368E+02 0.  0.
        254    2    1    2    0    0  0.14660701283E+02  0.10465358990E+03  0.52205784818E+03  0.10215222744E+04  0.87166280759E+03 0.  0.
        -24    2    4    4    0    0  0.13267675209E+03 -0.35660659025E+03  0.17761695763E+03  0.42814563487E+03  0.83603350824E+02 0.  0.
         24    2    4    4    0    0 -0.11801605081E+03  0.46126018015E+03  0.34444089056E+03  0.59337663950E+03  0.82265224588E+02 0.  0.
         13    1    3    3    0    0 -0.44552225293E+02 -0.17225426809E+02 -0.30179046825E+03  0.30554721866E+03  0.00000000000E+00 0.  1.
        -13    1    3    3    0    0  0.29891524010E+02 -0.87428163089E+02 -0.60989223417E+03  0.61685146041E+03  0.00000000000E+00 0. -1.
          4    1    6    6  502    0 -0.12642439696E+02  0.18695553351E+03  0.16034994305E+03  0.24662584420E+03  0.00000000000E+00 0. -1.
          1    1    5    5  503    0  0.33763429586E+02 -0.12893725997E+03  0.21773970686E+02  0.13505144200E+03  0.00000000000E+00 0. -1.
         -2    1    5    5    0  503  0.98913322503E+02 -0.22766933028E+03  0.15584298694E+03  0.29309419287E+03  0.00000000000E+00 0.  1.
         -3    1    6    6    0  502 -0.10537361111E+03  0.27430464664E+03  0.18409094751E+03  0.34675079530E+03  0.00000000000E+00 0.  1.
<mgrwt>
<rscale>  0 0.19044740E+04</rscale>
<asrwt>0</asrwt>
<pdfrwt beam="1">  1        2 0.17950352E+00 0.19044740E+04</pdfrwt>
<pdfrwt beam="2">  1       -2 0.11956124E+00 0.19044740E+04</pdfrwt>
<totfact> 0.99513671E+00</totfact>
</mgrwt>
</event>
<event>
12    1  0.1562393E-007  0.2055897E+04  0.7818608E-02  0.8580924E-01
         -2   -1    0    0    0  501 -0.00000000000E+00  0.00000000000E+00  0.59426385576E+03  0.59426385576E+03  0.00000000000E+00 0.  1.
          2   -1    0    0  501    0  0.00000000000E+00 -0.00000000000E+00 -0.17781288916E+04  0.17781288916E+04  0.00000000000E+00 0. -1.
         23    2    1    2    0    0 -0.19071480862E+03 -0.38743181118E+03  0.33054118932E+03  0.55152435223E+03  0.91902593715E+02 0.  0.
        254    2    1    2    0    0  0.19071480862E+03  0.38743181118E+03 -0.15144062251E+04  0.18208683951E+04  0.91414438192E+03 0.  0.
        -24    2    4    4    0    0  0.29037576340E+03  0.54268771390E+03 -0.14948477125E+04  0.16184122432E+04  0.76553683877E+02 0.  0.
         24    2    4    4    0    0 -0.99660954773E+02 -0.15525590272E+03 -0.19558512605E+02  0.20245615189E+03  0.81050951790E+02 0.  0.
         11    1    3    3    0    0 -0.13845816069E+03 -0.30367836565E+03  0.20448973608E+03  0.39141699527E+03  0.00000000000E+00 0.  1.
        -11    1    3    3    0    0 -0.52256647931E+02 -0.83753445532E+02  0.12605145323E+03  0.16010735696E+03  0.00000000000E+00 0. -1.
          2    1    6    6  502    0 -0.77236137137E+02 -0.97046319236E+02  0.24056269907E+02  0.12634125644E+03  0.00000000000E+00 0. -1.
          3    1    5    5  503    0  0.25169716150E+03  0.51205956276E+03 -0.13611360264E+04  0.14758887964E+04  0.00000000000E+00 0. -1.
         -4    1    5    5    0  503  0.38678601894E+02  0.30628151140E+02 -0.13371168612E+03  0.14252344681E+03  0.00000000000E+00 0.  1.
         -1    1    6    6    0  502 -0.22424817636E+02 -0.58209583488E+02 -0.43614782511E+02  0.76114895450E+02  0.00000000000E+00 0.  1.
<mgrwt>
<rscale>  0 0.20558966E+04</rscale>
<asrwt>0</asrwt>
<pdfrwt beam="1">  1        2 0.27355829E+00 0.20558966E+04</pdfrwt>
<pdfrwt beam="2">  1       -2 0.91425210E-01 0.20558966E+04</pdfrwt>
<totfact> 0.83631706E+00</totfact>
</mgrwt>
</event>
<event>
12    1  0.1562393E-007  0.1409947E+04  0.7818608E-02  0.8946649E-01
         -2   -1    0    0    0  501 -0.00000000000E+00  0.00000000000E+00  0.24625038056E+03  0.24625038056E+03  0.00000000000E+00 0.  1.
          2   -1    0    0  501    0  0.00000000000E+00 -0.00000000000E+00 -0.20182219462E+04  0.20182219462E+04  0.00000000000E+00 0. -1.
         23    2    1    2    0    0  0.30949765870E+03 -0.25800136065E+03 -0.64599370615E+03  0.76738715513E+03  0.96029550831E+02 0.  0.
        254    2    1    2    0    0 -0.30949765870E+03  0.25800136065E+03 -0.11259778595E+04  0.14970851716E+04  0.90060222530E+03 0.  0.
        -24    2    4    4    0    0  0.98645404552E+02 -0.27714955000E+03 -0.28739055247E+03  0.41901073060E+03  0.80211431861E+02 0.  0.
         24    2    4    4    0    0 -0.40814306326E+03  0.53515091065E+03 -0.83858730698E+03  0.10780744410E+04  0.77772563730E+02 0.  0.
         11    1    3    3    0    0  0.10540981037E+03 -0.38919690454E+02 -0.14091616073E+03  0.18023133685E+03  0.00000000000E+00 0.  1.
        -11    1    3    3    0    0  0.20408784833E+03 -0.21908167019E+03 -0.50507754542E+03  0.58715581828E+03  0.00000000000E+00 0. -1.
          2    1    6    6  502    0 -0.47824518163E+02  0.57596072031E+02 -0.13647185943E+03  0.15565686771E+03  0.00000000000E+00 0. -1.
          3    1    5    5  503    0  0.36622696640E+02 -0.90802822780E+02 -0.15075501872E+03  0.17975942313E+03  0.00000000000E+00 0. -1.
         -4    1    5    5    0  503  0.62022707912E+02 -0.18634672722E+03 -0.13663553375E+03  0.23925130747E+03  0.00000000000E+00 0.  1.
         -1    1    6    6    0  502 -0.36031854509E+03  0.47755483862E+03 -0.70211544756E+03  0.92241757329E+03  0.00000000000E+00 0.  1.
<mgrwt>
<rscale>  0 0.14099474E+04</rscale>
<asrwt>0</asrwt>
<pdfrwt beam="1">  1        2 0.31049570E+00 0.14099474E+04</pdfrwt>
<pdfrwt beam="2">  1       -2 0.37884672E-01 0.14099474E+04</pdfrwt>
<totfact> 0.41770550E+01</totfact>
</mgrwt>
</event>
<event>
12    1  0.1562393E-007  0.2331917E+04  0.7818608E-02  0.8465442E-01
         -1   -1    0    0    0  501 -0.00000000000E+00  0.00000000000E+00  0.79423006896E+03  0.79423006896E+03  0.00000000000E+00 0.  1.
          1   -1    0    0  501    0  0.00000000000E+00 -0.00000000000E+00 -0.17116691249E+04  0.17116691249E+04  0.00000000000E+00 0. -1.
         23    2    1    2    0    0  0.23081503385E+03 -0.89360944024E+03 -0.59979672564E+01  0.92762068526E+03  0.92901822209E+02 0.  0.
        254    2    1    2    0    0 -0.23081503385E+03  0.89360944024E+03 -0.91144108865E+03  0.15782785086E+04  0.89912445244E+03 0.  0.
        -24    2    4    4    0    0  0.10489256622E+03 -0.14073087359E+03 -0.98036169975E+02  0.21806252970E+03  0.84454407849E+02 0.  0.
         24    2    4    4    0    0 -0.33570760007E+03  0.10343403138E+04 -0.81340491867E+03  0.13602159789E+04  0.77462699882E+02 0.  0.
         11    1    3    3    0    0  0.12924133344E+03 -0.48845395568E+03 -0.49429092119E+02  0.50767491984E+03  0.00000000000E+00 0. -1.
        -11    1    3    3    0    0  0.10157370041E+03 -0.40515548456E+03  0.43431124862E+02  0.41994576542E+03  0.00000000000E+00 0.  1.
          2    1    6    6  502    0 -0.23321464097E+03  0.59955210505E+03 -0.49260647575E+03  0.81025485828E+03  0.00000000000E+00 0. -1.
          1    1    5    5  503    0  0.61969560594E+02 -0.25391501738E+02 -0.12338226426E+02  0.68096891501E+02  0.00000000000E+00 0. -1.
         -2    1    5    5    0  503  0.42923005624E+02 -0.11533937185E+03 -0.85697943548E+02  0.14996563820E+03  0.00000000000E+00 0.  1.
         -1    1    6    6    0  502 -0.10249295910E+03  0.43478820879E+03 -0.32079844293E+03  0.54996112058E+03  0.00000000000E+00 0.  1.
<mgrwt>
<rscale>  0 0.23319169E+04</rscale>
<asrwt>0</asrwt>
<pdfrwt beam="1">  1        1 0.26333371E+00 0.23319169E+04</pdfrwt>
<pdfrwt beam="2">  1       -1 0.12218924E+00 0.23319169E+04</pdfrwt>
<totfact> 0.24974058E+00</totfact>
</mgrwt>
</event>
<event>
12    1  0.2899496E-007  0.2318693E+04  0.7818608E-02  0.8470587E-01
         -2   -1    0    0    0  501 -0.00000000000E+00  0.00000000000E+00  0.91527987129E+03  0.91527987129E+03  0.00000000000E+00 0.  1.
          2   -1    0    0  501    0  0.00000000000E+00 -0.00000000000E+00 -0.14684956807E+04  0.14684956807E+04  0.00000000000E+00 0. -1.
         23    2    1    2    0    0 -0.55108258407E+02 -0.65415695140E+03  0.52118709262E+03  0.84279989388E+03  0.87848952157E+02 0.  0.
        254    2    1    2    0    0  0.55108258407E+02  0.65415695140E+03 -0.10744029021E+04  0.15409756581E+04  0.88842903252E+03 0.  0.
        -24    2    4    4    0    0  0.14606153613E+02 -0.21488895483E+03 -0.19439190745E+03  0.30094827364E+03  0.79944024748E+02 0.  0.
         24    2    4    4    0    0  0.40502104794E+02  0.86904590623E+03 -0.88001099460E+03  0.12400273845E+04  0.79795714530E+02 0.  0.
         11    1    3    3    0    0  0.27087761654E+01 -0.13955790710E+02 -0.15147231429E+01  0.14296711120E+02  0.00000000000E+00 0. -1.
        -11    1    3    3    0    0 -0.57817034572E+02 -0.64020116069E+03  0.52270181577E+03  0.82850318276E+03  0.00000000000E+00 0.  1.
          2    1    6    6  502    0  0.27827614008E+02  0.15646084945E+03 -0.12909588423E+03  0.20474403736E+03  0.00000000000E+00 0. -1.
          3    1    5    5  503    0 -0.86647958496E+01  0.32909397755E+01 -0.14522962028E+02  0.17228621471E+02  0.00000000000E+00 0. -1.
         -4    1    5    5    0  503  0.23270949463E+02 -0.21817989461E+03 -0.17986894542E+03  0.28371965217E+03  0.00000000000E+00 0.  1.
         -1    1    6    6    0  502  0.12674490786E+02  0.71258505678E+03 -0.75091511038E+03  0.10352833471E+04  0.00000000000E+00 0.  1.
<mgrwt>
<rscale>  0 0.23186932E+04</rscale>
<asrwt>0</asrwt>
<pdfrwt beam="1">  1        2 0.22592241E+00 0.23186932E+04</pdfrwt>
<pdfrwt beam="2">  1       -2 0.14081229E+00 0.23186932E+04</pdfrwt>
<totfact> 0.42366090E+00</totfact>
</mgrwt>
</event>
<event>
12    1  0.1562393E-007  0.1705134E+04  0.7818608E-02  0.8758442E-01
         -1   -1    0    0    0  501 -0.00000000000E+00  0.00000000000E+00  0.22894697866E+03  0.22894697866E+03  0.00000000000E+00 0.  1.
          1   -1    0    0  501    0  0.00000000000E+00 -0.00000000000E+00 -0.31748425730E+04  0.31748425730E+04  0.00000000000E+00 0. -1.
         23    2    1    2    0    0  0.23428066852E+03 -0.48578585128E+03 -0.48961756177E+03  0.73433673749E+03  0.93004098188E+02 0.  0.
        254    2    1    2    0    0 -0.23428066852E+03  0.48578585128E+03 -0.24562780325E+04  0.26694528141E+04  0.89543354238E+03 0.  0.
        -24    2    4    4    0    0 -0.19758307190E+03 -0.19568911850E+03 -0.35183704441E+03  0.45583891561E+03  0.81648697220E+02 0.  0.
         24    2    4    4    0    0 -0.36697596618E+02  0.68147496978E+03 -0.21044409881E+04  0.22136138985E+04  0.75231450975E+02 0.  0.
         11    1    3    3    0    0  0.38077861666E+02 -0.10784369922E+03 -0.15571075534E+03  0.19319944705E+03  0.00000000000E+00 0. -1.
        -11    1    3    3    0    0  0.19620280686E+03 -0.37794215206E+03 -0.33390680643E+03  0.54113729044E+03  0.00000000000E+00 0.  1.
          2    1    6    6  502    0  0.33187317850E+00  0.34611809628E+03 -0.96076613084E+03  0.10212097752E+04  0.00000000000E+00 0. -1.
          1    1    5    5  503    0 -0.18579075310E+03 -0.18803131578E+03 -0.35379902329E+03  0.44164208193E+03  0.00000000000E+00 0. -1.
         -2    1    5    5    0  503 -0.11792318808E+02 -0.76578027218E+01  0.19619788758E+01  0.14196833679E+02  0.00000000000E+00 0.  1.
         -1    1    6    6    0  502 -0.37029469796E+02  0.33535687350E+03 -0.11436748573E+04  0.11924041234E+04  0.00000000000E+00 0.  1.
<mgrwt>
<rscale>  0 0.17051341E+04</rscale>
<asrwt>0</asrwt>
<pdfrwt beam="1">  1        1 0.48843727E+00 0.17051341E+04</pdfrwt>
<pdfrwt beam="2">  1       -1 0.35222616E-01 0.17051341E+04</pdfrwt>
<totfact> 0.32564116E+00</totfact>
</mgrwt>
</event>
<event>
12    1  0.1562393E-007  0.1102283E+04  0.7818608E-02  0.9202970E-01
         -2   -1    0    0    0  501 -0.00000000000E+00  0.00000000000E+00  0.39643369550E+03  0.39643369550E+03  0.00000000000E+00 0.  1.
          2   -1    0    0  501    0  0.00000000000E+00 -0.00000000000E+00 -0.76622352050E+03  0.76622352050E+03  0.00000000000E+00 0. -1.
         23    2    1    2    0    0 -0.10281734530E+03 -0.16578644091E+02  0.65806581382E+02  0.15471746656E+03  0.93598773349E+02 0.  0.
        254    2    1    2    0    0  0.10281734530E+03  0.16578644091E+02 -0.43559640638E+03  0.10079397494E+04  0.90296846640E+03 0.  0.
        -24    2    4    4    0    0  0.39214865510E+03  0.21687964332E+03 -0.18004336773E+02  0.45607887646E+03  0.82863973031E+02 0.  0.
         24    2    4    4    0    0 -0.28933130981E+03 -0.20030099923E+03 -0.41759206961E+03  0.55186087297E+03  0.79587620848E+02 0.  0.
         13    1    3    3    0    0 -0.92511335376E+02 -0.38083553732E+02  0.78990811460E+02  0.12746863353E+03  0.00000000000E+00 0.  1.
        -13    1    3    3    0    0 -0.10306009921E+02  0.21504909640E+02 -0.13184230078E+02  0.27248833037E+02  0.00000000000E+00 0. -1.
          4    1    6    6  502    0 -0.88259288102E+01 -0.19876813123E+02 -0.55318284176E+02  0.59439862747E+02  0.00000000000E+00 0. -1.
          3    1    5    5  503    0  0.43977175559E+02  0.16290525595E+02  0.22885753241E+02  0.52183626702E+02  0.00000000000E+00 0. -1.
         -4    1    5    5    0  503  0.34817147954E+03  0.20058911773E+03 -0.40890090014E+02  0.40389524976E+03  0.00000000000E+00 0.  1.
         -3    1    6    6    0  502 -0.28050538100E+03 -0.18042418611E+03 -0.36227378543E+03  0.49242101023E+03  0.00000000000E+00 0.  1.
<mgrwt>
<rscale>  0 0.11022828E+04</rscale>
<asrwt>0</asrwt>
<pdfrwt beam="1">  1        2 0.11788054E+00 0.11022828E+04</pdfrwt>
<pdfrwt beam="2">  1       -2 0.60989800E-01 0.11022828E+04</pdfrwt>
<totfact> 0.90600485E+01</totfact>
</mgrwt>
</event>
<event>
12    1  0.1562393E-007  0.1703493E+04  0.7818608E-02  0.8759375E-01
         -2   -1    0    0    0  501 -0.00000000000E+00  0.00000000000E+00  0.17432231172E+03  0.17432231172E+03  0.00000000000E+00 0.  1.
          2   -1    0    0  501    0  0.00000000000E+00 -0.00000000000E+00 -0.41616699145E+04  0.41616699145E+04  0.00000000000E+00 0. -1.
         23    2    1    2    0    0 -0.99799126463E+02 -0.62924151991E+03 -0.17510972509E+04  0.18648468121E+04  0.73534310242E+02 0.  0.
        254    2    1    2    0    0  0.99799126463E+02  0.62924151991E+03 -0.22362503519E+04  0.24711454141E+04  0.83656396352E+03 0.  0.
        -24    2    4    4    0    0  0.38935477893E+03  0.54735994005E+02 -0.93084502169E+03  0.10136208347E+04  0.79759445985E+02 0.  0.
         24    2    4    4    0    0 -0.28955565247E+03  0.57450552590E+03 -0.13054053302E+04  0.14575245794E+04  0.79973421393E+02 0.  0.
         11    1    3    3    0    0 -0.38296247480E+02 -0.10690902422E+03 -0.36814762538E+03  0.38526460530E+03  0.00000000000E+00 0. -1.
        -11    1    3    3    0    0 -0.61502878983E+02 -0.52233249569E+03 -0.13829496255E+04  0.14795822068E+04  0.00000000000E+00 0.  1.
          2    1    6    6  502    0 -0.21386714903E+03  0.37093798394E+03 -0.79857795490E+03  0.90612410596E+03  0.00000000000E+00 0. -1.
          3    1    5    5  503    0  0.33646499452E+03  0.18522396380E+02 -0.79088878867E+03  0.85968415581E+03  0.00000000000E+00 0. -1.
         -4    1    5    5    0  503  0.52889784413E+02  0.36213597625E+02 -0.13995623302E+03  0.15393667890E+03  0.00000000000E+00 0.  1.
         -1    1    6    6    0  502 -0.75688503443E+02  0.20356754196E+03 -0.50682737534E+03  0.55140047342E+03  0.00000000000E+00 0.  1.
<mgrwt>
<rscale>  0 0.17034928E+04</rscale>
<asrwt>0</asrwt>
<pdfrwt beam="1">  1        2 0.64025693E+00 0.17034928E+04</pdfrwt>
<pdfrwt beam="2">  1       -2 0.26818816E-01 0.17034928E+04</pdfrwt>
<totfact> 0.30729892E+00</totfact>
</mgrwt>
</event>
<event>
12    1  0.1562393E-007  0.1741957E+04  0.7818608E-02  0.8737790E-01
          2   -1    0    0  501    0  0.00000000000E+00  0.00000000000E+00  0.12115101432E+04  0.12115101432E+04  0.00000000000E+00 0. -1.
         -2   -1    0    0    0  501 -0.00000000000E+00 -0.00000000000E+00 -0.62616386888E+03  0.62616386888E+03  0.00000000000E+00 0.  1.
         23    2    1    2    0    0 -0.11698729284E+03  0.27028141271E+03  0.80242682752E+03  0.85941948680E+03  0.89302698843E+02 0.  0.
        254    2    1    2    0    0  0.11698729284E+03 -0.27028141271E+03 -0.21708055325E+03  0.97825452524E+03  0.90725954435E+03 0.  0.
        -24    2    4    4    0    0  0.24518890667E+03  0.17231345925E+03  0.18497586981E+03  0.36142141558E+03  0.81239393374E+02 0.  0.
         24    2    4    4    0    0 -0.12820161383E+03 -0.44259487196E+03 -0.40205642306E+03  0.61683310966E+03  0.80671205389E+02 0.  0.
         13    1    3    3    0    0 -0.83646333386E+02  0.25953739054E+03  0.71549986855E+03  0.76569995956E+03  0.00000000000E+00 0. -1.
        -13    1    3    3    0    0 -0.33340959454E+02  0.10744022174E+02  0.86926958968E+02  0.93719527235E+02  0.00000000000E+00 0.  1.
          2    1    6    6  502    0 -0.10123464812E+03 -0.30634969927E+03 -0.23267253456E+03  0.39778775818E+03  0.00000000000E+00 0. -1.
          1    1    5    5  503    0  0.91008570364E+02  0.98241010633E+02  0.11533623287E+03  0.17673794913E+03  0.00000000000E+00 0. -1.
         -2    1    5    5    0  503  0.15418033631E+03  0.74072448612E+02  0.69639636944E+02  0.18468346645E+03  0.00000000000E+00 0.  1.
         -1    1    6    6    0  502 -0.26966965712E+02 -0.13624517269E+03 -0.16938388850E+03  0.21904535148E+03  0.00000000000E+00 0.  1.
<mgrwt>
<rscale>  0 0.17419574E+04</rscale>
<asrwt>0</asrwt>
<pdfrwt beam="1">  1        2 0.18638618E+00 0.17419574E+04</pdfrwt>
<pdfrwt beam="2">  1       -2 0.96332903E-01 0.17419574E+04</pdfrwt>
<totfact> 0.15952778E+01</totfact>
</mgrwt>
</event>
<event>
12    1  0.1562393E-007  0.2808983E+04  0.7818608E-02  0.8300485E-01
          1   -1    0    0  501    0  0.00000000000E+00  0.00000000000E+00  0.15219506019E+04  0.15219506019E+04  0.00000000000E+00 0. -1.
         -1   -1    0    0    0  501 -0.00000000000E+00 -0.00000000000E+00 -0.12960973964E+04  0.12960973964E+04  0.00000000000E+00 0.  1.
         23    2    1    2    0    0 -0.84789924513E+03 -0.74825661546E+03  0.63721936544E+03  0.13015888799E+04  0.96249675550E+02 0.  0.
        254    2    1    2    0    0  0.84789924513E+03  0.74825661546E+03 -0.41136615995E+03  0.15164591185E+04  0.92282449467E+03 0.  0.
        -24    2    4    4    0    0  0.88438028861E+03  0.22647733548E+03 -0.16202326362E+03  0.93045665136E+03  0.77958730994E+02 0.  0.
         24    2    4    4    0    0 -0.36481043483E+02  0.52177927997E+03 -0.24934289633E+03  0.58600246710E+03  0.87421553169E+02 0.  0.
         11    1    3    3    0    0 -0.45869424974E+03 -0.37002910025E+03  0.28532508087E+03  0.65477656613E+03  0.00000000000E+00 0. -1.
        -11    1    3    3    0    0 -0.38920499539E+03 -0.37822751521E+03  0.35189428457E+03  0.64681231374E+03  0.00000000000E+00 0.  1.
          2    1    6    6  502    0  0.18329680714E+02  0.29280253167E+03 -0.11645501198E+03  0.31564389676E+03  0.00000000000E+00 0. -1.
          1    1    5    5  503    0  0.45564638298E+03  0.78029186066E+02 -0.70786060093E+02  0.46766745290E+03  0.00000000000E+00 0. -1.
         -4    1    5    5    0  503  0.42873390563E+03  0.14844814942E+03 -0.91237203529E+02  0.46278919846E+03  0.00000000000E+00 0.  1.
         -1    1    6    6    0  502 -0.54810724197E+02  0.22897674830E+03 -0.13288788435E+03  0.27035857034E+03  0.00000000000E+00 0.  1.
<mgrwt>
<rscale>  0 0.28089829E+04</rscale>
<asrwt>0</asrwt>
<pdfrwt beam="1">  1        1 0.23414625E+00 0.28089829E+04</pdfrwt>
<pdfrwt beam="2">  1       -1 0.19939960E+00 0.28089829E+04</pdfrwt>
<totfact> 0.83030784E-01</totfact>
</mgrwt>
</event>
<event>
12    1  0.1562393E-007  0.1185087E+04  0.7818608E-02  0.9126011E-01
         -2   -1    0    0    0  501 -0.00000000000E+00  0.00000000000E+00  0.54422262368E+03  0.54422262368E+03  0.00000000000E+00 0.  1.
          2   -1    0    0  501    0  0.00000000000E+00 -0.00000000000E+00 -0.64515460983E+03  0.64515460983E+03  0.00000000000E+00 0. -1.
         23    2    1    2    0    0 -0.10060628302E+03  0.39586715084E+02  0.18603617978E+03  0.23729518224E+03  0.10005404106E+03 0.  0.
        254    2    1    2    0    0  0.10060628302E+03 -0.39586715084E+02 -0.28696816593E+03  0.95208205126E+03  0.90134386994E+03 0.  0.
        -24    2    4    4    0    0  0.33822256930E+02  0.40519013174E+03 -0.27106142131E+03  0.49512946418E+03  0.79723925199E+02 0.  0.
         24    2    4    4    0    0  0.66784026090E+02 -0.44477684682E+03 -0.15906744623E+02  0.45695258708E+03  0.79158655284E+02 0.  0.
         11    1    3    3    0    0 -0.56366731323E+02 -0.30272231196E+02  0.70318197485E+02  0.95069791622E+02  0.00000000000E+00 0. -1.
        -11    1    3    3    0    0 -0.44239551698E+02  0.69858946280E+02  0.11571798230E+03  0.14222539062E+03  0.00000000000E+00 0.  1.
          4    1    6    6  502    0  0.78606604348E+02 -0.39691457868E+03  0.16266674700E+01  0.40462677502E+03  0.00000000000E+00 0. -1.
          3    1    5    5  503    0  0.13753591792E+02  0.37174633367E+03 -0.22491523458E+03  0.43470836273E+03  0.00000000000E+00 0. -1.
         -4    1    5    5    0  503  0.20068665138E+02  0.33443798073E+02 -0.46146186734E+02  0.60421101447E+02  0.00000000000E+00 0.  1.
         -3    1    6    6    0  502 -0.11822578258E+02 -0.47862268146E+02 -0.17533412093E+02  0.52325812066E+02  0.00000000000E+00 0.  1.
<mgrwt>
<rscale>  0 0.11850869E+04</rscale>
<asrwt>0</asrwt>
<pdfrwt beam="1">  1        2 0.99254556E-01 0.11850869E+04</pdfrwt>
<pdfrwt beam="2">  1       -2 0.83726557E-01 0.11850869E+04</pdfrwt>
<totfact> 0.55922681E+01</totfact>
</mgrwt>
</event>
<event>
12    1  0.1562393E-007  0.1042982E+04  0.7818608E-02  0.9262620E-01
         -4   -1    0    0    0  501 -0.00000000000E+00  0.00000000000E+00  0.27373765310E+03  0.27373765310E+03  0.00000000000E+00 0.  1.
          4   -1    0    0  501    0  0.00000000000E+00 -0.00000000000E+00 -0.99347928447E+03  0.99347928447E+03  0.00000000000E+00 0. -1.
         23    2    1    2    0    0  0.62196906401E+02  0.92433380030E+02 -0.13256053357E+03  0.19521225688E+03  0.90128493099E+02 0.  0.
        254    2    1    2    0    0 -0.62196906401E+02 -0.92433380030E+02 -0.58718109780E+03  0.10720046807E+04  0.88994382345E+03 0.  0.
        -24    2    4    4    0    0 -0.16161222994E+03  0.16835878701E+03 -0.71406800832E+03  0.75511741084E+03  0.76459071487E+02 0.  0.
         24    2    4    4    0    0  0.99415323539E+02 -0.26079216704E+03  0.12688691052E+03  0.31688726985E+03  0.80132969419E+02 0.  0.
         13    1    3    3    0    0  0.33118932104E+02  0.44251647860E+02 -0.12718950005E+03  0.13868035522E+03  0.00000000000E+00 0. -1.
        -13    1    3    3    0    0  0.29077974297E+02  0.48181732169E+02 -0.53710335157E+01  0.56531901658E+02  0.00000000000E+00 0.  1.
          2    1    6    6  502    0  0.11572667072E+02 -0.13359152815E+03  0.76059816166E+02  0.15416133968E+03  0.00000000000E+00 0. -1.
          1    1    5    5  503    0 -0.11116143211E+03  0.15771788626E+03 -0.59040260569E+03  0.62113366713E+03  0.00000000000E+00 0. -1.
         -2    1    5    5    0  503 -0.50450797830E+02  0.10640900753E+02 -0.12366540263E+03  0.13398374371E+03  0.00000000000E+00 0.  1.
         -1    1    6    6    0  502  0.87842656467E+02 -0.12720063889E+03  0.50827094350E+02  0.16272593017E+03  0.00000000000E+00 0.  1.
<mgrwt>
<rscale>  0 0.10429817E+04</rscale>
<asrwt>0</asrwt>
<pdfrwt beam="1">  1        4 0.15284297E+00 0.10429817E+04</pdfrwt>
<pdfrwt beam="2">  1       -4 0.42113486E-01 0.10429817E+04</pdfrwt>
<totfact> 0.30866254E+00</totfact>
</mgrwt>
</event>
<event>
12    1  0.1562393E-007  0.1324772E+04  0.7818608E-02  0.9010148E-01
         -1   -1    0    0    0  501 -0.00000000000E+00  0.00000000000E+00  0.90948614481E+03  0.90948614481E+03  0.00000000000E+00 0.  1.
          1   -1    0    0  501    0  0.00000000000E+00 -0.00000000000E+00 -0.48242093214E+03  0.48242093214E+03  0.00000000000E+00 0. -1.
         23    2    1    2    0    0  0.19175951638E+03  0.29312048350E+03  0.15344377841E+03  0.39360430195E+03  0.93209567152E+02 0.  0.
        254    2    1    2    0    0 -0.19175951638E+03 -0.29312048350E+03  0.27362143426E+03  0.99830277501E+03  0.89389507848E+03 0.  0.
        -24    2    4    4    0    0  0.99749820397E+02 -0.18877108120E+03  0.53675022612E+03  0.58309519878E+03  0.79464821348E+02 0.  0.
         24    2    4    4    0    0 -0.29150933677E+03 -0.10434940231E+03 -0.26312879185E+03  0.41520757623E+03  0.85405380807E+02 0.  0.
         11    1    3    3    0    0  0.50680912365E+02  0.98288991407E+02  0.95649602091E+02  0.14621260920E+03  0.00000000000E+00 0. -1.
        -11    1    3    3    0    0  0.14107860401E+03  0.19483149210E+03  0.57794176319E+02  0.24739169274E+03  0.00000000000E+00 0.  1.
          2    1    6    6  502    0 -0.19745408626E+03 -0.95509259599E+02 -0.22229559633E+03  0.31229067709E+03  0.00000000000E+00 0. -1.
          3    1    5    5  503    0  0.84878681487E+02 -0.17577488085E+03  0.52500393055E+03  0.56011635077E+03  0.00000000000E+00 0. -1.
         -4    1    5    5    0  503  0.14871138909E+02 -0.12996200352E+02  0.11746295567E+02  0.22978848004E+02  0.00000000000E+00 0.  1.
         -1    1    6    6    0  502 -0.94055250514E+02 -0.88401427065E+01 -0.40833195523E+02  0.10291689914E+03  0.00000000000E+00 0.  1.
<mgrwt>
<rscale>  0 0.13247719E+04</rscale>
<asrwt>0</asrwt>
<pdfrwt beam="1">  1        1 0.74218605E-01 0.13247719E+04</pdfrwt>
<pdfrwt beam="2">  1       -1 0.13992095E+00 0.13247719E+04</pdfrwt>
<totfact> 0.19172930E+01</totfact>
</mgrwt>
</event>
<event>
12    1  0.1562393E-007  0.2964103E+04  0.7818608E-02  0.8254056E-01
          1   -1    0    0  501    0  0.00000000000E+00  0.00000000000E+00  0.13870354035E+04  0.13870354035E+04  0.00000000000E+00 0. -1.
         -1   -1    0    0    0  501 -0.00000000000E+00 -0.00000000000E+00 -0.15835761990E+04  0.15835761990E+04  0.00000000000E+00 0.  1.
         23    2    1    2    0    0 -0.66989256735E+03  0.38173356279E+02 -0.12642970026E+04  0.14342454367E+04  0.91650449762E+02 0.  0.
        254    2    1    2    0    0  0.66989256735E+03 -0.38173356279E+02  0.10677562071E+04  0.15363661659E+04  0.87755593614E+03 0.  0.
        -24    2    4    4    0    0  0.61622598716E+03 -0.39323941129E+03  0.67742549064E+03  0.99996402958E+03  0.81554051091E+02 0.  0.
         24    2    4    4    0    0  0.53666580183E+02  0.35506605501E+03  0.39033071645E+03  0.53640213632E+03  0.80107293005E+02 0.  0.
         11    1    3    3    0    0 -0.41903512320E+03  0.11231724524E+01 -0.86641361930E+03  0.96242623390E+03  0.00000000000E+00 0.  1.
        -11    1    3    3    0    0 -0.25085744415E+03  0.37050183826E+02 -0.39788338329E+03  0.47181920277E+03  0.00000000000E+00 0. -1.
          4    1    6    6  502    0  0.71389085779E+02  0.32661138132E+03  0.35792468603E+03  0.48977696644E+03  0.00000000000E+00 0. -1.
          1    1    5    5  503    0  0.51927107111E+03 -0.35765936092E+03  0.55697137895E+03  0.84129648799E+03  0.00000000000E+00 0. -1.
         -2    1    5    5    0  503  0.96954916053E+02 -0.35580050374E+02  0.12045411169E+03  0.15866754159E+03  0.00000000000E+00 0.  1.
         -3    1    6    6    0  502 -0.17722505596E+02  0.28454673690E+02  0.32406030415E+02  0.46625169883E+02  0.00000000000E+00 0.  1.
<mgrwt>
<rscale>  0 0.29641027E+04</rscale>
<asrwt>0</asrwt>
<pdfrwt beam="1">  1        1 0.21339006E+00 0.29641027E+04</pdfrwt>
<pdfrwt beam="2">  1       -1 0.24362711E+00 0.29641027E+04</pdfrwt>
<totfact> 0.51404933E-01</totfact>
</mgrwt>
</event>
<event>
12    1  0.1562393E-007  0.1368723E+04  0.7818608E-02  0.8976775E-01
          4   -1    0    0  501    0  0.00000000000E+00  0.00000000000E+00  0.54261554605E+03  0.54261554605E+03  0.00000000000E+00 0. -1.
         -4   -1    0    0    0  501 -0.00000000000E+00 -0.00000000000E+00 -0.86313560804E+03  0.86313560804E+03  0.00000000000E+00 0.  1.
         23    2    1    2    0    0 -0.11080730846E+03  0.35049228621E+03  0.30113072080E+02  0.37998834680E+03  0.91439839744E+02 0.  0.
        254    2    1    2    0    0  0.11080730846E+03 -0.35049228621E+03 -0.35063313408E+03  0.10257628073E+04  0.89113559002E+03 0.  0.
        -24    2    4    4    0    0  0.35613647137E+03 -0.42976331310E+03 -0.46810665962E+03  0.73278536694E+03  0.79503821825E+02 0.  0.
         24    2    4    4    0    0 -0.24532916291E+03  0.79271026888E+02  0.11747352555E+03  0.29297744035E+03  0.74601993752E+02 0.  0.
         11    1    3    3    0    0 -0.70952332092E+02  0.10383533509E+03  0.33360166160E+02  0.13011114836E+03  0.00000000000E+00 0. -1.
        -11    1    3    3    0    0 -0.39854976365E+02  0.24665695112E+03 -0.32470940795E+01  0.24987719844E+03  0.00000000000E+00 0.  1.
          2    1    6    6  502    0 -0.81150346745E+02  0.56963177214E+02  0.67405791301E+02  0.11989046266E+03  0.00000000000E+00 0. -1.
          3    1    5    5  503    0  0.34857457416E+02 -0.19329165419E+02 -0.53809992560E+02  0.66963977425E+02  0.00000000000E+00 0. -1.
         -4    1    5    5    0  503  0.32127901396E+03 -0.41043414768E+03 -0.41429666706E+03  0.66582138951E+03  0.00000000000E+00 0.  1.
         -1    1    6    6    0  502 -0.16417881617E+03  0.22307849674E+02  0.50067734247E+02  0.17308697770E+03  0.00000000000E+00 0.  1.
<mgrwt>
<rscale>  0 0.13687232E+04</rscale>
<asrwt>0</asrwt>
<pdfrwt beam="1">  1        4 0.83479316E-01 0.13687232E+04</pdfrwt>
<pdfrwt beam="2">  1       -4 0.13279009E+00 0.13687232E+04</pdfrwt>
<totfact> 0.10052967E+00</totfact>
</mgrwt>
</event>
<event>
12    1  0.1562393E-007  0.1524803E+04  0.7818608E-02  0.8868125E-01
          1   -1    0    0  501    0  0.00000000000E+00  0.00000000000E+00  0.59020891825E+03  0.59020891825E+03  0.00000000000E+00 0. -1.
         -1   -1    0    0    0  501 -0.00000000000E+00 -0.00000000000E+00 -0.98483133933E+03  0.98483133933E+03  0.00000000000E+00 0.  1.
         23    2    1    2    0    0 -0.14710172062E+03 -0.42930335809E+03  0.78448694840E+02  0.46929340496E+03  0.90231994027E+02 0.  0.
        254    2    1    2    0    0  0.14710172062E+03  0.42930335809E+03 -0.47307111592E+03  0.11057468526E+04  0.89047152221E+03 0.  0.
        -24    2    4    4    0    0  0.44360698149E+03  0.15072156431E+03  0.17906556167E+01  0.47545017366E+03  0.80904370818E+02 0.  0.
         24    2    4    4    0    0 -0.29650526087E+03  0.27858179378E+03 -0.47486177154E+03  0.63029667895E+03  0.79101301358E+02 0.  0.
         11    1    3    3    0    0 -0.12151434137E+03 -0.41691229839E+03  0.73469000144E+02  0.44043080466E+03  0.00000000000E+00 0. -1.
        -11    1    3    3    0    0 -0.25587379247E+02 -0.12391059695E+02  0.49796946961E+01  0.28862600305E+02  0.00000000000E+00 0.  1.
          4    1    6    6  502    0 -0.97031485781E+02  0.12759616269E+03 -0.22903576032E+03  0.27955906258E+03  0.00000000000E+00 0. -1.
          1    1    5    5  503    0  0.18375893982E+03  0.98815470082E+02  0.21437088527E+02  0.20974125454E+03  0.00000000000E+00 0. -1.
         -2    1    5    5    0  503  0.25984804166E+03  0.51906094224E+02 -0.19646432910E+02  0.26570891912E+03  0.00000000000E+00 0.  1.
         -3    1    6    6    0  502 -0.19947377509E+03  0.15098563109E+03 -0.24582601122E+03  0.35073761637E+03  0.00000000000E+00 0.  1.
<mgrwt>
<rscale>  0 0.15248033E+04</rscale>
<asrwt>0</asrwt>
<pdfrwt beam="1">  1        1 0.90801373E-01 0.15248033E+04</pdfrwt>
<pdfrwt beam="2">  1       -1 0.15151251E+00 0.15248033E+04</pdfrwt>
<totfact> 0.11497772E+01</totfact>
</mgrwt>
</event>
<event>
12    1  0.1562393E-007  0.1393425E+04  0.7818608E-02  0.8958592E-01
         -1   -1    0    0    0  501 -0.00000000000E+00  0.00000000000E+00  0.15913670923E+03  0.15913670923E+03  0.00000000000E+00 0.  1.
          1   -1    0    0  501    0  0.00000000000E+00 -0.00000000000E+00 -0.30502595665E+04  0.30502595665E+04  0.00000000000E+00 0. -1.
         23    2    1    2    0    0 -0.89732119483E+02  0.37843421995E+03 -0.60020187726E+03  0.72098597520E+03  0.91182075362E+02 0.  0.
        254    2    1    2    0    0  0.89732119483E+02 -0.37843421995E+03 -0.22909209800E+04  0.24884103005E+04  0.89028230073E+03 0.  0.
        -24    2    4    4    0    0 -0.15526989405E+03 -0.17242003344E+02 -0.18654435872E+04  0.18737277420E+04  0.81054596209E+02 0.  0.
         24    2    4    4    0    0  0.24500201353E+03 -0.36119221661E+03 -0.42547739283E+03  0.61468255851E+03  0.79484790684E+02 0.  0.
         11    1    3    3    0    0 -0.52203951852E+02  0.33416456970E+03 -0.47633380492E+03  0.58419611941E+03  0.00000000000E+00 0.  1.
        -11    1    3    3    0    0 -0.37528167631E+02  0.44269650251E+02 -0.12386807234E+03  0.13678985578E+03  0.00000000000E+00 0. -1.
          2    1    6    6  502    0  0.24135630267E+03 -0.31708434733E+03 -0.37065311283E+03  0.54422337161E+03  0.00000000000E+00 0. -1.
          3    1    5    5  503    0 -0.11866352623E+03  0.65638386783E+01 -0.16258288909E+04  0.16301667703E+04  0.00000000000E+00 0. -1.
         -4    1    5    5    0  503 -0.36606367819E+02 -0.23805842022E+02 -0.23961469623E+03  0.24356097169E+03  0.00000000000E+00 0.  1.
         -1    1    6    6    0  502  0.36457108590E+01 -0.44107869277E+02 -0.54824279999E+02  0.70459186891E+02  0.00000000000E+00 0.  1.
<mgrwt>
<rscale>  0 0.13934249E+04</rscale>
<asrwt>0</asrwt>
<pdfrwt beam="1">  1        1 0.46927069E+00 0.13934249E+04</pdfrwt>
<pdfrwt beam="2">  1       -1 0.24482571E-01 0.13934249E+04</pdfrwt>
<totfact> 0.78455349E+00</totfact>
</mgrwt>
</event>
<event>
12    1  0.1844417E-007  0.1394685E+04  0.7818608E-02  0.8957675E-01
         -1   -1    0    0    0  501 -0.00000000000E+00  0.00000000000E+00  0.51267379820E+03  0.51267379820E+03  0.00000000000E+00 0.  1.
          1   -1    0    0  501    0  0.00000000000E+00 -0.00000000000E+00 -0.94852983350E+03  0.94852983350E+03  0.00000000000E+00 0. -1.
         23    2    1    2    0    0 -0.62429199340E+02  0.33856960159E+03 -0.35468682545E+03  0.50314465408E+03  0.93941570848E+02 0.  0.
        254    2    1    2    0    0  0.62429199340E+02 -0.33856960159E+03 -0.81169209847E+02  0.95805897762E+03  0.89037171109E+03 0.  0.
        -24    2    4    4    0    0  0.45261780244E+03 -0.28926396349E+03  0.21245429991E+02  0.54363414889E+03  0.80933329849E+02 0.  0.
         24    2    4    4    0    0 -0.39018860310E+03 -0.49305638100E+02 -0.10241463984E+03  0.41442482873E+03  0.81123290584E+02 0.  0.
         13    1    3    3    0    0 -0.20922374235E+02  0.61126011196E+01 -0.20159434827E+02  0.29690275321E+02  0.00000000000E+00 0.  1.
        -13    1    3    3    0    0 -0.41506825105E+02  0.33245700047E+03 -0.33452739062E+03  0.47345437876E+03  0.00000000000E+00 0. -1.
          2    1    6    6  502    0 -0.11859606256E+03 -0.43451509233E+01  0.53464300327E+01  0.11879600459E+03  0.00000000000E+00 0. -1.
          1    1    5    5  503    0  0.16707106335E+03 -0.11302393194E+03 -0.30858999367E+02  0.20405741163E+03  0.00000000000E+00 0. -1.
         -2    1    5    5    0  503  0.28554673909E+03 -0.17624003155E+03  0.52104429358E+02  0.33957673726E+03  0.00000000000E+00 0.  1.
         -1    1    6    6    0  502 -0.27159254054E+03 -0.44960487177E+02 -0.10776106987E+03  0.29562882414E+03  0.00000000000E+00 0.  1.
<mgrwt>
<rscale>  0 0.13946848E+04</rscale>
<asrwt>0</asrwt>
<pdfrwt beam="1">  1        1 0.14592767E+00 0.13946848E+04</pdfrwt>
<pdfrwt beam="2">  1       -1 0.78872892E-01 0.13946848E+04</pdfrwt>
<totfact> 0.26071626E+01</totfact>
</mgrwt>
</event>
<event>
12    1  0.1562393E-007  0.1853872E+04  0.7818608E-02  0.8678164E-01
         -1   -1    0    0    0  501 -0.00000000000E+00  0.00000000000E+00  0.17487973130E+04  0.17487973130E+04  0.00000000000E+00 0.  1.
          1   -1    0    0  501    0  0.00000000000E+00 -0.00000000000E+00 -0.49131473412E+03  0.49131473412E+03  0.00000000000E+00 0. -1.
         23    2    1    2    0    0 -0.37846364380E+03 -0.49149891990E+03  0.71737245845E+02  0.63034503288E+03  0.85922698336E+02 0.  0.
        254    2    1    2    0    0  0.37846364380E+03  0.49149891990E+03  0.11857453331E+04  0.16097670143E+04  0.89473567460E+03 0.  0.
        -24    2    4    4    0    0  0.59561905147E+03  0.55952205565E+03  0.75152694720E+03  0.11130845766E+04  0.79608649079E+02 0.  0.
         24    2    4    4    0    0 -0.21715540767E+03 -0.68023135749E+02  0.43421838587E+03  0.49668243770E+03  0.79776056628E+02 0.  0.
         11    1    3    3    0    0 -0.29236894826E+03 -0.40504281939E+03  0.26583928379E+02  0.50024593221E+03  0.00000000000E+00 0. -1.
        -11    1    3    3    0    0 -0.86094695544E+02 -0.86456100508E+02  0.45153317466E+02  0.13009910067E+03  0.00000000000E+00 0.  1.
          4    1    6    6  502    0 -0.16175533957E+03 -0.76193899159E+02  0.37344393888E+03  0.41404187667E+03  0.00000000000E+00 0. -1.
          3    1    5    5  503    0  0.56120689893E+03  0.49904475351E+03  0.69819715407E+03  0.10254160694E+04  0.00000000000E+00 0. -1.
         -2    1    5    5    0  503  0.34412152543E+02  0.60477302142E+02  0.53329793122E+02  0.87668507181E+02  0.00000000000E+00 0.  1.
         -3    1    6    6    0  502 -0.55400068099E+02  0.81707634100E+01  0.60774446989E+02  0.82640561028E+02  0.00000000000E+00 0.  1.
<mgrwt>
<rscale>  0 0.18538715E+04</rscale>
<asrwt>0</asrwt>
<pdfrwt beam="1">  1        1 0.75586883E-01 0.18538715E+04</pdfrwt>
<pdfrwt beam="2">  1       -1 0.26904574E+00 0.18538715E+04</pdfrwt>
<totfact> 0.22361607E+00</totfact>
</mgrwt>
</event>
<event>
12    1  0.1562393E-007  0.1404743E+04  0.7818608E-02  0.8950393E-01
         -1   -1    0    0    0  501 -0.00000000000E+00  0.00000000000E+00  0.42525888840E+03  0.42525888840E+03  0.00000000000E+00 0.  1.
          1   -1    0    0  501    0  0.00000000000E+00 -0.00000000000E+00 -0.11600592070E+04  0.11600592070E+04  0.00000000000E+00 0. -1.
         23    2    1    2    0    0  0.59859610775E+02 -0.35191794991E+03 -0.43055338510E+03  0.56582388937E+03  0.85738205520E+02 0.  0.
        254    2    1    2    0    0 -0.59859610775E+02  0.35191794991E+03 -0.30424693351E+03  0.10194942060E+04  0.90519214707E+03 0.  0.
        -24    2    4    4    0    0 -0.29719467399E+03  0.31022638679E+03  0.18038189261E+03  0.47270250839E+03  0.79655187809E+02 0.  0.
         24    2    4    4    0    0  0.23733506321E+03  0.41691563119E+02 -0.48462882612E+03  0.54679169765E+03  0.77781378535E+02 0.  0.
         13    1    3    3    0    0 -0.12595816840E+02 -0.72326650934E+02 -0.53404591752E+02  0.90784632276E+02  0.00000000000E+00 0.  1.
        -13    1    3    3    0    0  0.72455427615E+02 -0.27959129898E+03 -0.37714879335E+03  0.47503925709E+03  0.00000000000E+00 0. -1.
          2    1    6    6  502    0  0.43125443972E+01 -0.57480525052E+01 -0.25344555132E+00  0.71904368038E+01  0.00000000000E+00 0. -1.
          3    1    5    5  503    0 -0.16555966234E+02  0.48451394407E+02  0.36330649694E+02  0.62781794695E+02  0.00000000000E+00 0. -1.
         -4    1    5    5    0  503 -0.28063870775E+03  0.26177499239E+03  0.14405124291E+03  0.40992071369E+03  0.00000000000E+00 0.  1.
         -1    1    6    6    0  502  0.23302251882E+03  0.47439615624E+02 -0.48437538057E+03  0.53960126084E+03  0.00000000000E+00 0.  1.
<mgrwt>
<rscale>  0 0.14047427E+04</rscale>
<asrwt>0</asrwt>
<pdfrwt beam="1">  1        1 0.17847064E+00 0.14047427E+04</pdfrwt>
<pdfrwt beam="2">  1       -1 0.65424445E-01 0.14047427E+04</pdfrwt>
<totfact> 0.26395755E+01</totfact>
</mgrwt>
</event>
<event>
12    1  0.1562393E-007  0.1597608E+04  0.7818608E-02  0.8822019E-01
          1   -1    0    0  501    0  0.00000000000E+00  0.00000000000E+00  0.38463059511E+04  0.38463059511E+04  0.00000000000E+00 0. -1.
         -1   -1    0    0    0  501 -0.00000000000E+00 -0.00000000000E+00 -0.16589632489E+03  0.16589632489E+03  0.00000000000E+00 0.  1.
         23    2    1    2    0    0  0.51799024139E+03  0.46010439011E+02  0.16481354192E+04  0.17308519269E+04  0.95221752871E+02 0.  0.
        254    2    1    2    0    0 -0.51799024139E+03 -0.46010439011E+02  0.20322742070E+04  0.22813503491E+04  0.89665495710E+03 0.  0.
        -24    2    4    4    0    0 -0.17430778670E+03  0.21787648457E+03  0.11203141868E+03  0.31121487281E+03  0.80313705272E+02 0.  0.
         24    2    4    4    0    0 -0.34368245469E+03 -0.26388692358E+03  0.19202427883E+04  0.19701354763E+04  0.79671140379E+02 0.  0.
         13    1    3    3    0    0  0.16742785671E+03  0.41647077409E+02  0.66726556342E+03  0.68920961861E+03  0.00000000000E+00 0. -1.
        -13    1    3    3    0    0  0.35056238468E+03  0.43633616023E+01  0.98086985574E+03  0.10416423083E+04  0.00000000000E+00 0.  1.
          4    1    6    6  502    0 -0.82666767296E+02 -0.10311797668E+03  0.49882627398E+03  0.51603755982E+03  0.00000000000E+00 0. -1.
          1    1    5    5  503    0 -0.76408955210E+02  0.62134295594E+02  0.54967426260E+01  0.98636774606E+02  0.00000000000E+00 0. -1.
         -2    1    5    5    0  503 -0.97898831490E+02  0.15574218898E+03  0.10653467606E+03  0.21257809821E+03  0.00000000000E+00 0.  1.
         -3    1    6    6    0  502 -0.26101568740E+03 -0.16076894691E+03  0.14214165144E+04  0.14540979165E+04  0.00000000000E+00 0.  1.
<mgrwt>
<rscale>  0 0.15976082E+04</rscale>
<asrwt>0</asrwt>
<pdfrwt beam="1">  1        1 0.59173931E+00 0.15976082E+04</pdfrwt>
<pdfrwt beam="2">  1       -1 0.25522514E-01 0.15976082E+04</pdfrwt>
<totfact> 0.17140367E+00</totfact>
</mgrwt>
</event>
<event>
12    1  0.1562393E-007  0.1555325E+04  0.7818608E-02  0.8848474E-01
          1   -1    0    0  501    0  0.00000000000E+00  0.00000000000E+00  0.19030957571E+04  0.19030957571E+04  0.00000000000E+00 0. -1.
         -1   -1    0    0    0  501 -0.00000000000E+00 -0.00000000000E+00 -0.31777635845E+03  0.31777635845E+03  0.00000000000E+00 0.  1.
         23    2    1    2    0    0 -0.48022026636E+03 -0.83581447834E+02  0.28853382528E+03  0.57363117438E+03  0.90573689612E+02 0.  0.
        254    2    1    2    0    0  0.48022026636E+03  0.83581447834E+02  0.12967855733E+04  0.16472409411E+04  0.89115236199E+03 0.  0.
        -24    2    4    4    0    0  0.35582552202E+03  0.47332114912E+03  0.79524128550E+03  0.99466879126E+03  0.79451808090E+02 0.  0.
         24    2    4    4    0    0  0.12439474434E+03 -0.38973970129E+03  0.50154428782E+03  0.65257214986E+03  0.83262542310E+02 0.  0.
         13    1    3    3    0    0 -0.81905732331E+02 -0.48381551606E+02  0.68486128021E+02  0.11721635234E+03  0.00000000000E+00 0. -1.
        -13    1    3    3    0    0 -0.39831453403E+03 -0.35199896227E+02  0.22004769726E+03  0.45641482204E+03  0.00000000000E+00 0.  1.
          4    1    6    6  502    0  0.38452362458E+02 -0.93993637360E+02  0.18427014329E+03  0.21040169617E+03  0.00000000000E+00 0. -1.
          1    1    5    5  503    0  0.11711563112E+03  0.17799257025E+03  0.22806761390E+03  0.31210937606E+03  0.00000000000E+00 0. -1.
         -2    1    5    5    0  503  0.23870989091E+03  0.29532857887E+03  0.56717367160E+03  0.68255941519E+03  0.00000000000E+00 0.  1.
         -3    1    6    6    0  502  0.85942381880E+02 -0.29574606393E+03  0.31727414453E+03  0.44217045370E+03  0.00000000000E+00 0.  1.
<mgrwt>
<rscale>  0 0.15553248E+04</rscale>
<asrwt>0</asrwt>
<pdfrwt beam="1">  1        1 0.29278396E+00 0.15553248E+04</pdfrwt>
<pdfrwt beam="2">  1       -1 0.48888672E-01 0.15553248E+04</pdfrwt>
<totfact> 0.13992768E+01</totfact>
</mgrwt>
</event>
<event>
12    1  0.1562393E-007  0.2728532E+04  0.7818608E-02  0.8325806E-01
          2   -1    0    0  501    0  0.00000000000E+00  0.00000000000E+00  0.12790198587E+04  0.12790198587E+04  0.00000000000E+00 0. -1.
         -2   -1    0    0    0  501 -0.00000000000E+00 -0.00000000000E+00 -0.14551934305E+04  0.14551934305E+04  0.00000000000E+00 0.  1.
         23    2    1    2    0    0  0.13194987011E+03  0.90927720937E+03  0.72193528182E+03  0.11721449945E+04  0.92398729532E+02 0.  0.
        254    2    1    2    0    0 -0.13194987011E+03 -0.90927720937E+03 -0.89810885363E+03  0.15620682947E+04  0.88840420569E+03 0.  0.
        -24    2    4    4    0    0 -0.22509818102E+03  0.73616340276E+02 -0.43459182239E+02  0.25380132086E+03  0.80236234298E+02 0.  0.
         24    2    4    4    0    0  0.93148310909E+02 -0.98289354965E+03 -0.85464967139E+03  0.13082669739E+04  0.79875379982E+02 0.  0.
         11    1    3    3    0    0  0.96425949181E+02  0.81045645301E+03  0.61219128056E+03  0.10202528069E+04  0.00000000000E+00 0. -1.
        -11    1    3    3    0    0  0.35523920928E+02  0.98820756367E+02  0.10974400126E+03  0.15189218762E+03  0.00000000000E+00 0.  1.
          2    1    6    6  502    0  0.85100231701E+01 -0.62732949565E+02 -0.83060112519E+02  0.10443574937E+03  0.00000000000E+00 0. -1.
          1    1    5    5  503    0 -0.29641103959E+01 -0.11350645136E+02 -0.55182641348E+01  0.12964348596E+02  0.00000000000E+00 0. -1.
         -2    1    5    5    0  503 -0.22213407062E+03  0.84966985412E+02 -0.37940918104E+02  0.24083697226E+03  0.00000000000E+00 0.  1.
         -1    1    6    6    0  502  0.84638287739E+02 -0.92016060008E+03 -0.77158955887E+03  0.12038312245E+04  0.00000000000E+00 0.  1.
<mgrwt>
<rscale>  0 0.27285317E+04</rscale>
<asrwt>0</asrwt>
<pdfrwt beam="1">  1        2 0.19677229E+00 0.27285317E+04</pdfrwt>
<pdfrwt beam="2">  1       -2 0.22387591E+00 0.27285317E+04</pdfrwt>
<totfact> 0.13904059E+00</totfact>
</mgrwt>
</event>
<event>
12    1  0.1562393E-007  0.1004548E+04  0.7818608E-02  0.9303570E-01
          2   -1    0    0  501    0  0.00000000000E+00  0.00000000000E+00  0.62693143688E+03  0.62693143688E+03  0.00000000000E+00 0. -1.
         -2   -1    0    0    0  501 -0.00000000000E+00 -0.00000000000E+00 -0.40240342549E+03  0.40240342549E+03  0.00000000000E+00 0.  1.
         23    2    1    2    0    0  0.67538361989E+01 -0.30978065884E+02  0.40416512830E+02  0.10417835134E+03  0.90633214156E+02 0.  0.
        254    2    1    2    0    0 -0.67538361989E+01  0.30978065884E+02  0.18411149856E+03  0.92515651104E+03  0.90609727466E+03 0.  0.
        -24    2    4    4    0    0  0.64440848451E+02  0.45590538204E+03  0.10979765659E+03  0.48033564151E+03  0.81636161007E+02 0.  0.
         24    2    4    4    0    0 -0.71194684650E+02 -0.42492731616E+03  0.74313841971E+02  0.44482086953E+03  0.81921619364E+02 0.  0.
         11    1    3    3    0    0  0.11745461950E+02  0.86652936465E+01 -0.24167751936E+02  0.28233374294E+02  0.00000000000E+00 0.  1.
        -11    1    3    3    0    0 -0.49916257507E+01 -0.39643359530E+02  0.64584264766E+02  0.75944977041E+02  0.00000000000E+00 0. -1.
          4    1    6    6  502    0 -0.66663941421E+02 -0.41646010723E+03  0.57781175216E+02  0.42570149895E+03  0.00000000000E+00 0. -1.
          3    1    5    5  503    0  0.35351716719E+02  0.38497569724E+03  0.66445341648E+02  0.39226396057E+03  0.00000000000E+00 0. -1.
         -4    1    5    5    0  503  0.29089131733E+02  0.70929684808E+02  0.43352314942E+02  0.88071680935E+02  0.00000000000E+00 0.  1.
         -3    1    6    6    0  502 -0.45307432290E+01 -0.84672089302E+01  0.16532666756E+02  0.19119370579E+02  0.00000000000E+00 0.  1.
<mgrwt>
<rscale>  0 0.10045484E+04</rscale>
<asrwt>0</asrwt>
<pdfrwt beam="1">  1        2 0.96450991E-01 0.10045484E+04</pdfrwt>
<pdfrwt beam="2">  1       -2 0.61908219E-01 0.10045484E+04</pdfrwt>
<totfact> 0.11378396E+02</totfact>
</mgrwt>
</event>
<event>
12    1  0.1562393E-007  0.2056368E+04  0.7818608E-02  0.8580711E-01
          2   -1    0    0  501    0  0.00000000000E+00  0.00000000000E+00  0.16671560016E+04  0.16671560016E+04  0.00000000000E+00 0. -1.
         -2   -1    0    0    0  501 -0.00000000000E+00 -0.00000000000E+00 -0.63411145042E+03  0.63411145042E+03  0.00000000000E+00 0.  1.
         23    2    1    2    0    0 -0.80725094891E+03 -0.11978268632E+03  0.27121826307E+03  0.86488305798E+03  0.91985712502E+02 0.  0.
        254    2    1    2    0    0  0.80725094891E+03  0.11978268632E+03  0.76182628809E+03  0.14363843940E+04  0.90378030942E+03 0.  0.
        -24    2    4    4    0    0  0.61540253431E+03  0.19650240606E+02  0.95227227373E+03  0.11368819541E+04  0.81065917355E+02 0.  0.
         24    2    4    4    0    0  0.19184841460E+03  0.10013244572E+03 -0.19044598564E+03  0.29950243996E+03  0.81238643696E+02 0.  0.
         13    1    3    3    0    0 -0.41113516966E+03 -0.10617837869E+03  0.15162823474E+03  0.45088479393E+03  0.00000000000E+00 0.  1.
        -13    1    3    3    0    0 -0.39611577925E+03 -0.13604307629E+02  0.11959002833E+03  0.41399826405E+03  0.00000000000E+00 0. -1.
          4    1    6    6  502    0  0.71852873881E+02  0.78449696341E+01 -0.99232440416E+02  0.12276585952E+03  0.00000000000E+00 0. -1.
          3    1    5    5  503    0  0.53361356376E+03  0.40972004902E+02  0.79539963698E+03  0.95868802179E+03  0.00000000000E+00 0. -1.
         -4    1    5    5    0  503  0.81788970546E+02 -0.21321764296E+02  0.15687263675E+03  0.17819393227E+03  0.00000000000E+00 0.  1.
         -3    1    6    6    0  502  0.11999554072E+03  0.92287476083E+02 -0.91213545219E+02  0.17673658044E+03  0.00000000000E+00 0.  1.
<mgrwt>
<rscale>  0 0.20563684E+04</rscale>
<asrwt>0</asrwt>
<pdfrwt beam="1">  1        2 0.25648554E+00 0.20563684E+04</pdfrwt>
<pdfrwt beam="2">  1       -2 0.97555609E-01 0.20563684E+04</pdfrwt>
<totfact> 0.82846884E+00</totfact>
</mgrwt>
</event>
<event>
12    1  0.1562393E-007  0.1327294E+04  0.7818608E-02  0.9008196E-01
          2   -1    0    0  501    0  0.00000000000E+00  0.00000000000E+00  0.98764524764E+03  0.98764524764E+03  0.00000000000E+00 0. -1.
         -2   -1    0    0    0  501 -0.00000000000E+00 -0.00000000000E+00 -0.44593691040E+03  0.44593691040E+03  0.00000000000E+00 0.  1.
         23    2    1    2    0    0 -0.22788806168E+03 -0.22117995941E+03 -0.48219478273E+01  0.33085636476E+03  0.92677612278E+02 0.  0.
        254    2    1    2    0    0  0.22788806168E+03  0.22117995941E+03  0.54653028506E+03  0.11027257933E+04  0.90357914960E+03 0.  0.
        -24    2    4    4    0    0  0.19855439829E+03 -0.29629122734E+03  0.43176488425E+03  0.56565624086E+03  0.79584716370E+02 0.  0.
         24    2    4    4    0    0  0.29333663394E+02  0.51747118675E+03  0.11476540081E+03  0.53706955242E+03  0.81459891933E+02 0.  0.
         11    1    3    3    0    0 -0.32034244598E+02 -0.67225683231E+02  0.28053227690E+02  0.79576811300E+02  0.00000000000E+00 0. -1.
        -11    1    3    3    0    0 -0.19585381708E+03 -0.15395427618E+03 -0.32875175518E+02  0.25127955346E+03  0.00000000000E+00 0.  1.
          4    1    6    6  502    0  0.51533335088E+02  0.44563159262E+03  0.10902273539E+03  0.46165913594E+03  0.00000000000E+00 0. -1.
          3    1    5    5  503    0  0.20146724273E+03 -0.28729498615E+03  0.43154172035E+03  0.55619755066E+03  0.00000000000E+00 0. -1.
         -4    1    5    5    0  503 -0.29128444443E+01 -0.89962411858E+01  0.22316390486E+00  0.94586902031E+01  0.00000000000E+00 0.  1.
         -3    1    6    6    0  502 -0.22199671695E+02  0.71839594131E+02  0.57426654252E+01  0.75410416485E+02  0.00000000000E+00 0.  1.
<mgrwt>
<rscale>  0 0.13272942E+04</rscale>
<asrwt>0</asrwt>
<pdfrwt beam="1">  1        2 0.15194542E+00 0.13272942E+04</pdfrwt>
<pdfrwt beam="2">  1       -2 0.68605679E-01 0.13272942E+04</pdfrwt>
<totfact> 0.48763085E+01</totfact>
</mgrwt>
</event>
<event>
12    1  0.1562393E-007  0.1260337E+04  0.7818608E-02  0.9061624E-01
         -2   -1    0    0    0  501 -0.00000000000E+00  0.00000000000E+00  0.65106297207E+03  0.65106297207E+03  0.00000000000E+00 0.  1.
          2   -1    0    0  501    0  0.00000000000E+00 -0.00000000000E+00 -0.60994413932E+03  0.60994413932E+03  0.00000000000E+00 0. -1.
         23    2    1    2    0    0  0.27801192483E+03  0.98192175083E+01 -0.83570064517E+02  0.30423382862E+03  0.90483254858E+02 0.  0.
        254    2    1    2    0    0 -0.27801192483E+03 -0.98192175083E+01  0.12468889726E+03  0.95677328277E+03  0.90690724231E+03 0.  0.
        -24    2    4    4    0    0  0.25583449574E+03  0.13033372030E+03  0.24592069558E+03  0.38593401072E+03  0.77652458194E+02 0.  0.
         24    2    4    4    0    0 -0.53384642057E+03 -0.14015293781E+03 -0.12123179831E+03  0.57083927205E+03  0.80780436144E+02 0.  0.
         13    1    3    3    0    0  0.21700328888E+03 -0.27618753897E+02 -0.46566712196E+02  0.22365527411E+03  0.00000000000E+00 0.  1.
        -13    1    3    3    0    0  0.61008635954E+02  0.37437971406E+02 -0.37003352321E+02  0.80578554510E+02  0.00000000000E+00 0. -1.
          4    1    6    6  502    0 -0.74990958223E+02  0.43558460948E+01 -0.16899686479E+01  0.75136364062E+02  0.00000000000E+00 0. -1.
          1    1    5    5  503    0  0.44866633433E+01 -0.89240687940E+01  0.10146314439E+02  0.14237866711E+02  0.00000000000E+00 0. -1.
         -2    1    5    5    0  503  0.25134783239E+03  0.13925778909E+03  0.23577438114E+03  0.37169614401E+03  0.00000000000E+00 0.  1.
         -3    1    6    6    0  502 -0.45885546235E+03 -0.14450878390E+03 -0.11954182966E+03  0.49570290799E+03  0.00000000000E+00 0.  1.
<mgrwt>
<rscale>  0 0.12603365E+04</rscale>
<asrwt>0</asrwt>
<pdfrwt beam="1">  1        2 0.93837560E-01 0.12603365E+04</pdfrwt>
<pdfrwt beam="2">  1       -2 0.10016353E+00 0.12603365E+04</pdfrwt>
<totfact> 0.39323892E+01</totfact>
</mgrwt>
</event>
<event>
12    1  0.1562393E-007  0.2221614E+04  0.7818608E-02  0.8509485E-01
          2   -1    0    0  501    0  0.00000000000E+00  0.00000000000E+00  0.10724187561E+04  0.10724187561E+04  0.00000000000E+00 0. -1.
         -2   -1    0    0    0  501 -0.00000000000E+00 -0.00000000000E+00 -0.11505692330E+04  0.11505692330E+04  0.00000000000E+00 0.  1.
         23    2    1    2    0    0 -0.91443284852E+03 -0.38799861840E+02  0.19998558178E+03  0.94115797619E+03  0.89951317298E+02 0.  0.
        254    2    1    2    0    0  0.91443284852E+03  0.38799861840E+02 -0.27813605865E+03  0.12818300129E+04  0.85325005189E+03 0.  0.
        -24    2    4    4    0    0  0.58506536115E+02  0.32806906328E+03 -0.10623175952E+03  0.35861125043E+03  0.79148702817E+02 0.  0.
         24    2    4    4    0    0  0.85592631241E+03 -0.28926920144E+03 -0.17190429913E+03  0.92321876244E+03  0.80593250936E+02 0.  0.
         11    1    3    3    0    0 -0.58726867374E+03 -0.63639634101E+02  0.14793365874E+03  0.60894898438E+03  0.00000000000E+00 0. -1.
        -11    1    3    3    0    0 -0.32716417478E+03  0.24839772261E+02  0.52051923036E+02  0.33220899181E+03  0.00000000000E+00 0.  1.
          4    1    6    6  502    0  0.25570175202E+03 -0.53346021353E+02 -0.68669306403E+02  0.27008268664E+03  0.00000000000E+00 0. -1.
          3    1    5    5  503    0  0.37616545791E+00  0.21643367046E+03 -0.73321480713E+02  0.22851633365E+03  0.00000000000E+00 0. -1.
         -4    1    5    5    0  503  0.58130370657E+02  0.11163539282E+03 -0.32910278810E+02  0.13009491679E+03  0.00000000000E+00 0.  1.
         -3    1    6    6    0  502  0.60022456038E+03 -0.23592318008E+03 -0.10323499272E+03  0.65313607580E+03  0.00000000000E+00 0.  1.
<mgrwt>
<rscale>  0 0.22216139E+04</rscale>
<asrwt>0</asrwt>
<pdfrwt beam="1">  1        2 0.16498750E+00 0.22216139E+04</pdfrwt>
<pdfrwt beam="2">  1       -2 0.17701065E+00 0.22216139E+04</pdfrwt>
<totfact> 0.39327230E+00</totfact>
</mgrwt>
</event>
<event>
12    1  0.1562393E-007  0.1803183E+04  0.7818608E-02  0.8704608E-01
         -2   -1    0    0    0  501 -0.00000000000E+00  0.00000000000E+00  0.34152862723E+03  0.34152862723E+03  0.00000000000E+00 0.  1.
          2   -1    0    0  501    0  0.00000000000E+00 -0.00000000000E+00 -0.23800863593E+04  0.23800863593E+04  0.00000000000E+00 0. -1.
         23    2    1    2    0    0 -0.61509750098E+03 -0.24272651112E+03 -0.55666567063E+03  0.86887392327E+03  0.88340991434E+02 0.  0.
        254    2    1    2    0    0  0.61509750098E+03  0.24272651112E+03 -0.14818920615E+04  0.18527410633E+04  0.89408292168E+03 0.  0.
        -24    2    4    4    0    0 -0.85608815788E+02 -0.10830876026E+02 -0.88938577518E+03  0.89701266973E+03  0.78603405387E+02 0.  0.
         24    2    4    4    0    0  0.70070631677E+03  0.25355738714E+03 -0.59250628631E+03  0.95572839358E+03  0.84097396215E+02 0.  0.
         11    1    3    3    0    0 -0.60351983905E+03 -0.23150277789E+03 -0.55618225494E+03  0.85274171529E+03  0.00000000000E+00 0.  1.
        -11    1    3    3    0    0 -0.11577661930E+02 -0.11223733230E+02 -0.48341569266E+00  0.16132207974E+02  0.00000000000E+00 0. -1.
          4    1    6    6  502    0  0.58245090398E+03  0.23488299191E+03 -0.52309172712E+03  0.81733960531E+03  0.00000000000E+00 0. -1.
          3    1    5    5  503    0 -0.65941625222E+02 -0.24276229880E+02 -0.34382642993E+03  0.35093339424E+03  0.00000000000E+00 0. -1.
         -4    1    5    5    0  503 -0.19667190566E+02  0.13445353854E+02 -0.54555934525E+03  0.54607927549E+03  0.00000000000E+00 0.  1.
         -3    1    6    6    0  502  0.11825541278E+03  0.18674395235E+02 -0.69414559194E+02  0.13838878827E+03  0.00000000000E+00 0.  1.
<mgrwt>
<rscale>  0 0.18031834E+04</rscale>
<asrwt>0</asrwt>
<pdfrwt beam="1">  1        2 0.36616715E+00 0.18031834E+04</pdfrwt>
<pdfrwt beam="2">  1       -2 0.52542863E-01 0.18031834E+04</pdfrwt>
<totfact> 0.13175548E+01</totfact>
</mgrwt>
</event>
<event>
12    1  0.1562393E-007  0.1395256E+04  0.7818608E-02  0.8957260E-01
         -2   -1    0    0    0  501 -0.00000000000E+00  0.00000000000E+00  0.23636810288E+03  0.23636810288E+03  0.00000000000E+00 0.  1.
          2   -1    0    0  501    0  0.00000000000E+00 -0.00000000000E+00 -0.20590121207E+04  0.20590121207E+04  0.00000000000E+00 0. -1.
         23    2    1    2    0    0  0.19371273469E+02  0.12208443553E+03 -0.11569240820E+04  0.11668610112E+04  0.88382306853E+02 0.  0.
        254    2    1    2    0    0 -0.19371273469E+02 -0.12208443553E+03 -0.66571993577E+03  0.11285192124E+04  0.90282485800E+03 0.  0.
        -24    2    4    4    0    0  0.40551433980E+03  0.99209792335E+02 -0.32378810366E+03  0.53453703851E+03  0.81281281900E+02 0.  0.
         24    2    4    4    0    0 -0.42488561327E+03 -0.22129422786E+03 -0.34193183210E+03  0.59398217388E+03  0.79990783449E+02 0.  0.
         11    1    3    3    0    0  0.80229536322E+01  0.91850577478E+02 -0.10727479048E+04  0.10767028205E+04  0.00000000000E+00 0. -1.
        -11    1    3    3    0    0  0.11348319837E+02  0.30233858049E+02 -0.84176177249E+02  0.90158190708E+02  0.00000000000E+00 0.  1.
          4    1    6    6  502    0 -0.40781862315E+03 -0.22793432222E+03 -0.32577722626E+03  0.56956201224E+03  0.00000000000E+00 0. -1.
          1    1    5    5  503    0  0.25810177297E+03  0.97022910938E+02 -0.23606918494E+03  0.36298571671E+03  0.00000000000E+00 0. -1.
         -2    1    5    5    0  503  0.14741256683E+03  0.21868813978E+01 -0.87718918719E+02  0.17155132180E+03  0.00000000000E+00 0.  1.
         -3    1    6    6    0  502 -0.17066990117E+02  0.66400943586E+01 -0.16154605846E+02  0.24420161645E+02  0.00000000000E+00 0.  1.
<mgrwt>
<rscale>  0 0.13952559E+04</rscale>
<asrwt>0</asrwt>
<pdfrwt beam="1">  1        2 0.31677109E+00 0.13952559E+04</pdfrwt>
<pdfrwt beam="2">  1       -2 0.36364324E-01 0.13952559E+04</pdfrwt>
<totfact> 0.42963296E+01</totfact>
</mgrwt>
</event>
<event>
12    1  0.1562393E-007  0.2596214E+04  0.7818608E-02  0.8369488E-01
         -2   -1    0    0    0  501 -0.00000000000E+00  0.00000000000E+00  0.81502679822E+03  0.81502679822E+03  0.00000000000E+00 0.  1.
          2   -1    0    0  501    0  0.00000000000E+00 -0.00000000000E+00 -0.20675163350E+04  0.20675163350E+04  0.00000000000E+00 0. -1.
         23    2    1    2    0    0 -0.66578936341E+03  0.69748480591E+03 -0.12276107178E+04  0.15638853994E+04  0.94598821908E+02 0.  0.
        254    2    1    2    0    0  0.66578936341E+03 -0.69748480591E+03 -0.24878819036E+02  0.13186577339E+04  0.89915445423E+03 0.  0.
        -24    2    4    4    0    0 -0.78257426334E+01 -0.50709134025E+03 -0.26050486280E+03  0.57573416529E+03  0.80026095356E+02 0.  0.
         24    2    4    4    0    0  0.67361510604E+03 -0.19039346566E+03  0.23562604376E+03  0.74292356858E+03  0.80055064795E+02 0.  0.
         11    1    3    3    0    0 -0.19988154903E+03  0.17736840791E+03 -0.39996496980E+03  0.48102407719E+03  0.00000000000E+00 0. -1.
        -11    1    3    3    0    0 -0.46590781438E+03  0.52011639800E+03 -0.82764574798E+03  0.10828613222E+04  0.00000000000E+00 0.  1.
          2    1    6    6  502    0  0.34168044453E+03 -0.13612237202E+03  0.11012925262E+03  0.38393134624E+03  0.00000000000E+00 0. -1.
          3    1    5    5  503    0 -0.26345154580E+02 -0.47525663221E+03 -0.23425758633E+03  0.53050876561E+03  0.00000000000E+00 0. -1.
         -4    1    5    5    0  503  0.18519411947E+02 -0.31834708038E+02 -0.26247276469E+02  0.45225399686E+02  0.00000000000E+00 0.  1.
         -1    1    6    6    0  502  0.33193466151E+03 -0.54271093639E+02  0.12549679114E+03  0.35899222234E+03  0.00000000000E+00 0.  1.
<mgrwt>
<rscale>  0 0.25962136E+04</rscale>
<asrwt>0</asrwt>
<pdfrwt beam="1">  1        2 0.31807943E+00 0.25962136E+04</pdfrwt>
<pdfrwt beam="2">  1       -2 0.12538874E+00 0.25962136E+04</pdfrwt>
<totfact> 0.25790624E+00</totfact>
</mgrwt>
</event>
<event>
12    1  0.1562393E-007  0.2157421E+04  0.7818608E-02  0.8536362E-01
          2   -1    0    0  501    0  0.00000000000E+00  0.00000000000E+00  0.19870666468E+04  0.19870666468E+04  0.00000000000E+00 0. -1.
         -2   -1    0    0    0  501 -0.00000000000E+00 -0.00000000000E+00 -0.58559510356E+03  0.58559510356E+03  0.00000000000E+00 0.  1.
         23    2    1    2    0    0  0.18214013287E+03  0.64069331278E+03  0.12853222292E+04  0.14501905942E+04  0.85653824586E+02 0.  0.
        254    2    1    2    0    0 -0.18214013287E+03 -0.64069331278E+03  0.11614931397E+03  0.11224711561E+04  0.89598431013E+03 0.  0.
        -24    2    4    4    0    0  0.94403586525E+02  0.19525452189E+03  0.41095208144E+02  0.23510617857E+03  0.80930424468E+02 0.  0.
         24    2    4    4    0    0 -0.27654371940E+03 -0.83594783467E+03  0.75054105829E+02  0.88736497749E+03  0.80611869087E+02 0.  0.
         11    1    3    3    0    0  0.18540924009E+03  0.60757352837E+03  0.11854846191E+04  0.13449520292E+04  0.00000000000E+00 0. -1.
        -11    1    3    3    0    0 -0.32691072173E+01  0.33119784416E+02  0.99837610134E+02  0.10523856507E+03  0.00000000000E+00 0.  1.
          2    1    6    6  502    0 -0.26691051516E+02 -0.17265347412E+03  0.92008829459E+00  0.17470684279E+03  0.00000000000E+00 0. -1.
          1    1    5    5  503    0  0.97174483132E+02  0.11242050809E+03  0.25400366918E+02  0.15075287543E+03  0.00000000000E+00 0. -1.
         -2    1    5    5    0  503 -0.27708966069E+01  0.82834013800E+02  0.15694841226E+02  0.84353303144E+02  0.00000000000E+00 0.  1.
         -1    1    6    6    0  502 -0.24985266788E+03 -0.66329436055E+03  0.74134017535E+02  0.71265813469E+03  0.00000000000E+00 0.  1.
<mgrwt>
<rscale>  0 0.21574211E+04</rscale>
<asrwt>0</asrwt>
<pdfrwt beam="1">  1        2 0.30570256E+00 0.21574211E+04</pdfrwt>
<pdfrwt beam="2">  1       -2 0.90091555E-01 0.21574211E+04</pdfrwt>
<totfact> 0.65686203E+00</totfact>
</mgrwt>
</event>
<event>
12    1  0.1562393E-007  0.1333199E+04  0.7818608E-02  0.9003645E-01
          1   -1    0    0  501    0  0.00000000000E+00  0.00000000000E+00  0.16243517219E+04  0.16243517219E+04  0.00000000000E+00 0. -1.
         -1   -1    0    0    0  501 -0.00000000000E+00 -0.00000000000E+00 -0.27355819046E+03  0.27355819046E+03  0.00000000000E+00 0.  1.
         23    2    1    2    0    0  0.45071880480E+02 -0.37371078570E+03  0.54547248980E+03  0.66912013183E+03  0.92142758423E+02 0.  0.
        254    2    1    2    0    0 -0.45071880480E+02  0.37371078570E+03  0.80532104167E+03  0.12287897806E+04  0.84834610798E+03 0.  0.
        -24    2    4    4    0    0  0.20792965476E+02  0.50767930304E+03  0.12728536952E+03  0.52990350129E+03  0.80159423906E+02 0.  0.
         24    2    4    4    0    0 -0.65864845955E+02 -0.13396851735E+03  0.67803567215E+03  0.69888627927E+03  0.80149342326E+02 0.  0.
         13    1    3    3    0    0  0.45796835998E+02 -0.35897222669E+03  0.54518797092E+03  0.65436101149E+03  0.00000000000E+00 0. -1.
        -13    1    3    3    0    0 -0.72495551774E+00 -0.14738559007E+02  0.28451888021E+00  0.14759120336E+02  0.00000000000E+00 0.  1.
          4    1    6    6  502    0 -0.33350646858E+02 -0.10817972673E+03  0.59914875186E+03  0.60974941228E+03  0.00000000000E+00 0. -1.
          3    1    5    5  503    0  0.53007878615E+01  0.39262442078E+03  0.64507742166E+02  0.39792371498E+03  0.00000000000E+00 0. -1.
         -4    1    5    5    0  503  0.15492177614E+02  0.11505488226E+03  0.62777627352E+02  0.13197978631E+03  0.00000000000E+00 0.  1.
         -3    1    6    6    0  502 -0.32514199097E+02 -0.25788790611E+02  0.78886920286E+02  0.89136866987E+02  0.00000000000E+00 0.  1.
<mgrwt>
<rscale>  0 0.13331987E+04</rscale>
<asrwt>0</asrwt>
<pdfrwt beam="1">  1        1 0.24990026E+00 0.13331987E+04</pdfrwt>
<pdfrwt beam="2">  1       -1 0.42085877E-01 0.13331987E+04</pdfrwt>
<totfact> 0.29189936E+01</totfact>
</mgrwt>
</event>
<event>
12    1  0.1562393E-007  0.1296588E+04  0.7818608E-02  0.9032275E-01
         -1   -1    0    0    0  501 -0.00000000000E+00  0.00000000000E+00  0.24530342920E+03  0.24530342920E+03  0.00000000000E+00 0.  1.
          1   -1    0    0  501    0  0.00000000000E+00 -0.00000000000E+00 -0.17133280713E+04  0.17133280713E+04  0.00000000000E+00 0. -1.
         23    2    1    2    0    0  0.10223626313E+03  0.18606750974E+02  0.84382106325E+02  0.16079876204E+03  0.89092296668E+02 0.  0.
        254    2    1    2    0    0 -0.10223626313E+03 -0.18606750974E+02 -0.15524067484E+04  0.17978327384E+04  0.90079818950E+03 0.  0.
        -24    2    4    4    0    0  0.48643776297E+02  0.14024357115E+03 -0.15553365263E+04  0.15643781660E+04  0.78567551555E+02 0.  0.
         24    2    4    4    0    0 -0.15088003943E+03 -0.15885032212E+03  0.29297778465E+01  0.23345457243E+03  0.80586864023E+02 0.  0.
         11    1    3    3    0    0  0.41524999753E+02  0.19991362903E+02 -0.11319156361E+02  0.47456332516E+02  0.00000000000E+00 0. -1.
        -11    1    3    3    0    0  0.60711263382E+02 -0.13846119281E+01  0.95701262686E+02  0.11334242953E+03  0.00000000000E+00 0.  1.
          2    1    6    6  502    0 -0.43750483469E+02 -0.21988749378E+02 -0.28757551318E+02  0.56785620194E+02  0.00000000000E+00 0. -1.
          3    1    5    5  503    0  0.54744576018E+02  0.51596845072E+02 -0.54969841983E+03  0.55482209382E+03  0.00000000000E+00 0. -1.
         -4    1    5    5    0  503 -0.61007997203E+01  0.88646726076E+02 -0.10056381064E+04  0.10095560722E+04  0.00000000000E+00 0.  1.
         -1    1    6    6    0  502 -0.10712955596E+03 -0.13686157274E+03  0.31687329164E+02  0.17666895224E+03  0.00000000000E+00 0.  1.
<mgrwt>
<rscale>  0 0.12965882E+04</rscale>
<asrwt>0</asrwt>
<pdfrwt beam="1">  1        1 0.26358893E+00 0.12965882E+04</pdfrwt>
<pdfrwt beam="2">  1       -1 0.37738989E-01 0.12965882E+04</pdfrwt>
<totfact> 0.31073436E+01</totfact>
</mgrwt>
</event>
<event>
12    1  0.1562393E-007  0.1956431E+04  0.7818608E-02  0.8627266E-01
          1   -1    0    0  501    0  0.00000000000E+00  0.00000000000E+00  0.16455109356E+04  0.16455109356E+04  0.00000000000E+00 0. -1.
         -1   -1    0    0    0  501 -0.00000000000E+00 -0.00000000000E+00 -0.58152511343E+03  0.58152511343E+03  0.00000000000E+00 0.  1.
         23    2    1    2    0    0  0.55588912463E+03 -0.12589543436E+02 -0.17658922200E+03  0.59083444447E+03  0.93436459478E+02 0.  0.
        254    2    1    2    0    0 -0.55588912463E+03  0.12589543436E+02  0.12405750442E+04  0.16362016046E+04  0.91047132577E+03 0.  0.
        -24    2    4    4    0    0 -0.65911288216E+03 -0.16978738856E+03  0.46406906304E+03  0.82797343229E+03  0.83200724539E+02 0.  0.
         24    2    4    4    0    0  0.10322375753E+03  0.18237693199E+03  0.77650598116E+03  0.80822817229E+03  0.79716687456E+02 0.  0.
         11    1    3    3    0    0  0.36958175790E+03  0.28100738765E+02 -0.14258059606E+03  0.39712662170E+03  0.00000000000E+00 0.  1.
        -11    1    3    3    0    0  0.18630736673E+03 -0.40690282201E+02 -0.34008625945E+02  0.19370782277E+03  0.00000000000E+00 0. -1.
          4    1    6    6  502    0  0.10363876780E+03  0.16457571258E+03  0.59791088296E+03  0.62874763087E+03  0.00000000000E+00 0. -1.
          1    1    5    5  503    0 -0.57586003884E+03 -0.17575767634E+03  0.41307588207E+03  0.73016246786E+03  0.00000000000E+00 0. -1.
         -2    1    5    5    0  503 -0.83252843325E+02  0.59702877789E+01  0.50993180967E+02  0.97810964431E+02  0.00000000000E+00 0.  1.
         -3    1    6    6    0  502 -0.41501027079E+00  0.17801219412E+02  0.17859509820E+03  0.17948054142E+03  0.00000000000E+00 0.  1.
<mgrwt>
<rscale>  0 0.19564314E+04</rscale>
<asrwt>0</asrwt>
<pdfrwt beam="1">  1        1 0.25315553E+00 0.19564314E+04</pdfrwt>
<pdfrwt beam="2">  1       -1 0.89465403E-01 0.19564314E+04</pdfrwt>
<totfact> 0.59176017E+00</totfact>
</mgrwt>
</event>
<event>
12    1  0.1562393E-007  0.1265404E+04  0.7818608E-02  0.9057459E-01
          1   -1    0    0  501    0  0.00000000000E+00  0.00000000000E+00  0.42129061431E+03  0.42129061431E+03  0.00000000000E+00 0. -1.
         -1   -1    0    0    0  501 -0.00000000000E+00 -0.00000000000E+00 -0.95020411069E+03  0.95020411069E+03  0.00000000000E+00 0.  1.
         23    2    1    2    0    0  0.45900837603E+01  0.29888266212E+03 -0.10812512628E+03  0.33042013291E+03  0.90191500212E+02 0.  0.
        254    2    1    2    0    0 -0.45900837603E+01 -0.29888266212E+03 -0.42078837009E+03  0.10410745921E+04  0.90411367610E+03 0.  0.
        -24    2    4    4    0    0 -0.27640527456E+03  0.20445773218E+03 -0.55085187904E+02  0.35731941386E+03  0.80249271281E+02 0.  0.
         24    2    4    4    0    0  0.27181519080E+03 -0.50334039430E+03 -0.36570318219E+03  0.68375517823E+03  0.80915238397E+02 0.  0.
         13    1    3    3    0    0 -0.70876364553E+01  0.77195464238E+02 -0.71433002813E+02  0.10541370015E+03  0.00000000000E+00 0.  1.
        -13    1    3    3    0    0  0.11677720216E+02  0.22168719788E+03 -0.36692123468E+02  0.22500643275E+03  0.00000000000E+00 0. -1.
          2    1    6    6  502    0  0.14215089569E+02 -0.19008930943E+02 -0.37846445489E+02  0.44673948373E+02  0.00000000000E+00 0. -1.
          3    1    5    5  503    0 -0.64161052975E+01  0.13359292769E+02  0.12877859884E+02  0.19633552548E+02  0.00000000000E+00 0. -1.
         -4    1    5    5    0  503 -0.26998916927E+03  0.19109843941E+03 -0.67963047787E+02  0.33768586131E+03  0.00000000000E+00 0.  1.
         -1    1    6    6    0  502  0.25760010124E+03 -0.48433146336E+03 -0.32785673670E+03  0.63908122986E+03  0.00000000000E+00 0.  1.
<mgrwt>
<rscale>  0 0.12654044E+04</rscale>
<asrwt>0</asrwt>
<pdfrwt beam="1">  1        1 0.64813942E-01 0.12654044E+04</pdfrwt>
<pdfrwt beam="2">  1       -1 0.14618525E+00 0.12654044E+04</pdfrwt>
<totfact> 0.20615726E+01</totfact>
</mgrwt>
</event>
<event>
12    1  0.1562393E-007  0.2450248E+04  0.7818608E-02  0.8420928E-01
         -1   -1    0    0    0  501 -0.00000000000E+00  0.00000000000E+00  0.19959146245E+04  0.19959146245E+04  0.00000000000E+00 0.  1.
          1   -1    0    0  501    0  0.00000000000E+00 -0.00000000000E+00 -0.75200036772E+03  0.75200036772E+03  0.00000000000E+00 0. -1.
         23    2    1    2    0    0  0.15661318847E+02  0.70247621146E+03  0.14390204001E+04  0.16041139700E+04  0.93186974117E+02 0.  0.
        254    2    1    2    0    0 -0.15661318847E+02 -0.70247621146E+03 -0.19510614330E+03  0.11438010223E+04  0.88119025574E+03 0.  0.
        -24    2    4    4    0    0  0.36451594295E+03 -0.61115107381E+03 -0.20455063806E+03  0.74480850493E+03  0.80754181301E+02 0.  0.
         24    2    4    4    0    0 -0.38017726180E+03 -0.91325137653E+02  0.94444947576E+01  0.39899251734E+03  0.78935411945E+02 0.  0.
         11    1    3    3    0    0  0.11917990436E+02  0.50419490199E+03  0.93235561504E+03  0.10600195897E+04  0.00000000000E+00 0.  1.
        -11    1    3    3    0    0  0.37433284113E+01  0.19828130948E+03  0.50666478507E+03  0.54409438025E+03  0.00000000000E+00 0. -1.
          4    1    6    6  502    0 -0.35493647001E+03 -0.82361825101E+02  0.29458574526E+02  0.36555598148E+03  0.00000000000E+00 0. -1.
          1    1    5    5  503    0  0.14913531096E+03 -0.26482192464E+03 -0.12832131517E+03  0.32990658173E+03  0.00000000000E+00 0. -1.
         -2    1    5    5    0  503  0.21538063199E+03 -0.34632914918E+03 -0.76229322895E+02  0.41490192320E+03  0.00000000000E+00 0.  1.
         -3    1    6    6    0  502 -0.25240791784E+02 -0.89633125512E+01 -0.20014079769E+02  0.33436535867E+02  0.00000000000E+00 0.  1.
<mgrwt>
<rscale>  0 0.24502478E+04</rscale>
<asrwt>0</asrwt>
<pdfrwt beam="1">  1        1 0.11569236E+00 0.24502478E+04</pdfrwt>
<pdfrwt beam="2">  1       -1 0.30706379E+00 0.24502478E+04</pdfrwt>
<totfact> 0.64677411E-01</totfact>
</mgrwt>
</event>
<event>
12    1  0.1562393E-007  0.1423072E+04  0.7818608E-02  0.8937285E-01
          2   -1    0    0  501    0  0.00000000000E+00  0.00000000000E+00  0.14126017662E+04  0.14126017662E+04  0.00000000000E+00 0. -1.
         -2   -1    0    0    0  501 -0.00000000000E+00 -0.00000000000E+00 -0.35840482030E+03  0.35840482030E+03  0.00000000000E+00 0.  1.
         23    2    1    2    0    0 -0.70716543431E+01  0.28316819812E+03 -0.73242233227E+02  0.30269492665E+03  0.77624462432E+02 0.  0.
        254    2    1    2    0    0  0.70716543431E+01 -0.28316819812E+03  0.11274391791E+04  0.14683116599E+04  0.89698706297E+03 0.  0.
        -24    2    4    4    0    0 -0.97939379345E+02  0.20708917909E+02 -0.12128652289E+03  0.17646566785E+03  0.80054543823E+02 0.  0.
         24    2    4    4    0    0  0.10501103369E+03 -0.30387711603E+03  0.12487257020E+04  0.12918459920E+04  0.78622956886E+02 0.  0.
         11    1    3    3    0    0 -0.38683843881E+02  0.18956006729E+03 -0.34239891597E+02  0.19647348184E+03  0.00000000000E+00 0. -1.
        -11    1    3    3    0    0  0.31612189538E+02  0.93608130830E+02 -0.39002341630E+02  0.10622144481E+03  0.00000000000E+00 0.  1.
          4    1    6    6  502    0  0.44276856268E+02 -0.45279848689E+02  0.30146357159E+03  0.30804381133E+03  0.00000000000E+00 0. -1.
          1    1    5    5  503    0 -0.94562713519E+02 -0.10269600755E+02 -0.77345248941E+02  0.12259632548E+03  0.00000000000E+00 0. -1.
         -2    1    5    5    0  503 -0.33766658260E+01  0.30978518664E+02 -0.43941273952E+02  0.53869342369E+02  0.00000000000E+00 0.  1.
         -3    1    6    6    0  502  0.60734177420E+02 -0.25859726734E+03  0.94726213042E+03  0.98380218068E+03  0.00000000000E+00 0.  1.
<mgrwt>
<rscale>  0 0.14230717E+04</rscale>
<asrwt>0</asrwt>
<pdfrwt beam="1">  1        2 0.21732335E+00 0.14230717E+04</pdfrwt>
<pdfrwt beam="2">  1       -2 0.55139204E-01 0.14230717E+04</pdfrwt>
<totfact> 0.42762119E+01</totfact>
</mgrwt>
</event>
<event>
12    1  0.1562393E-007  0.1262096E+04  0.7818608E-02  0.9060175E-01
          1   -1    0    0  501    0  0.00000000000E+00  0.00000000000E+00  0.15866007381E+04  0.15866007381E+04  0.00000000000E+00 0. -1.
         -1   -1    0    0    0  501 -0.00000000000E+00 -0.00000000000E+00 -0.25099049064E+03  0.25099049064E+03  0.00000000000E+00 0.  1.
         23    2    1    2    0    0  0.59257689663E+02 -0.16547842047E+02  0.74673663682E+03  0.75473197595E+03  0.90661159800E+02 0.  0.
        254    2    1    2    0    0 -0.59257689663E+02  0.16547842047E+02  0.58887361065E+03  0.10828592528E+04  0.90665689606E+03 0.  0.
        -24    2    4    4    0    0 -0.32891174919E+03 -0.25824066538E+03  0.68785838831E+02  0.43101005541E+03  0.78530224925E+02 0.  0.
         24    2    4    4    0    0  0.26965405953E+03  0.27478850743E+03  0.52008777182E+03  0.65184919738E+03  0.78702287728E+02 0.  0.
         11    1    3    3    0    0  0.50574379785E+02 -0.26662038870E+01  0.72836144712E+03  0.73012004094E+03  0.00000000000E+00 0. -1.
        -11    1    3    3    0    0  0.86833098779E+01 -0.13881638160E+02  0.18375189694E+02  0.24611935006E+02  0.00000000000E+00 0.  1.
          2    1    6    6  502    0  0.33222773988E+02  0.61150894312E+02  0.58283618825E+02  0.90775353538E+02  0.00000000000E+00 0. -1.
          1    1    5    5  503    0 -0.14111887890E+03 -0.16015718049E+03  0.28573306791E+02  0.21536316840E+03  0.00000000000E+00 0. -1.
         -2    1    5    5    0  503 -0.18779287030E+03 -0.98083484892E+02  0.40212532040E+02  0.21564688701E+03  0.00000000000E+00 0.  1.
         -1    1    6    6    0  502  0.23643128554E+03  0.21363761312E+03  0.46180415299E+03  0.56107384384E+03  0.00000000000E+00 0.  1.
<mgrwt>
<rscale>  0 0.12620962E+04</rscale>
<asrwt>0</asrwt>
<pdfrwt beam="1">  1        1 0.24409241E+00 0.12620962E+04</pdfrwt>
<pdfrwt beam="2">  1       -1 0.38613923E-01 0.12620962E+04</pdfrwt>
<totfact> 0.36481427E+01</totfact>
</mgrwt>
</event>
<event>
12    1  0.1562393E-007  0.1458873E+04  0.7818608E-02  0.8912272E-01
          2   -1    0    0  501    0  0.00000000000E+00  0.00000000000E+00  0.19936300323E+04  0.19936300323E+04  0.00000000000E+00 0. -1.
         -2   -1    0    0    0  501 -0.00000000000E+00 -0.00000000000E+00 -0.26688879772E+03  0.26688879772E+03  0.00000000000E+00 0.  1.
         23    2    1    2    0    0 -0.59948178091E+02 -0.31628404207E+03  0.60808808259E+02  0.34076161293E+03  0.93762393084E+02 0.  0.
        254    2    1    2    0    0  0.59948178091E+02  0.31628404207E+03  0.16659324263E+04  0.19197572171E+04  0.89805765083E+03 0.  0.
        -24    2    4    4    0    0  0.11387054088E+03  0.61825799563E+03  0.11423103467E+04  0.13068403838E+04  0.88030740405E+02 0.  0.
         24    2    4    4    0    0 -0.53922362790E+02 -0.30197395356E+03  0.52362207965E+03  0.61291683334E+03  0.85971346750E+02 0.  0.
         13    1    3    3    0    0 -0.18380201377E+02 -0.61424469472E+02 -0.24753770246E+02  0.68728061183E+02  0.00000000000E+00 0.  1.
        -13    1    3    3    0    0 -0.41567976714E+02 -0.25485957260E+03  0.85562578505E+02  0.27203355175E+03  0.00000000000E+00 0. -1.
          2    1    6    6  502    0  0.14285855140E+02 -0.82354470069E+02  0.95281761278E+02  0.12674761706E+03  0.00000000000E+00 0. -1.
          1    1    5    5  503    0  0.17752157071E+01  0.24114656003E+03  0.41755999184E+03  0.48219411194E+03  0.00000000000E+00 0. -1.
         -2    1    5    5    0  503  0.11209532517E+03  0.37711143560E+03  0.72475035486E+03  0.82464627184E+03  0.00000000000E+00 0.  1.
         -1    1    6    6    0  502 -0.68208217930E+02 -0.21961948349E+03  0.42834031837E+03  0.48616921629E+03  0.00000000000E+00 0.  1.
<mgrwt>
<rscale>  0 0.14588729E+04</rscale>
<asrwt>0</asrwt>
<pdfrwt beam="1">  1        2 0.30671230E+00 0.14588729E+04</pdfrwt>
<pdfrwt beam="2">  1       -2 0.41059816E-01 0.14588729E+04</pdfrwt>
<totfact> 0.36691674E+01</totfact>
</mgrwt>
</event>
<event>
12    1  0.1562393E-007  0.1431284E+04  0.7818608E-02  0.8931480E-01
          1   -1    0    0  501    0  0.00000000000E+00  0.00000000000E+00  0.12010025835E+04  0.12010025835E+04  0.00000000000E+00 0. -1.
         -1   -1    0    0    0  501 -0.00000000000E+00 -0.00000000000E+00 -0.42642975053E+03  0.42642975053E+03  0.00000000000E+00 0.  1.
         23    2    1    2    0    0  0.31735839214E+03 -0.18700032106E+03 -0.32610745726E+00  0.37906322792E+03  0.89461473707E+02 0.  0.
        254    2    1    2    0    0 -0.31735839214E+03  0.18700032106E+03  0.77489894045E+03  0.12483691061E+04  0.90679192106E+03 0.  0.
        -24    2    4    4    0    0 -0.17834190119E+03 -0.29952335272E+03  0.61467486787E+03  0.71112712957E+03  0.79727841306E+02 0.  0.
         24    2    4    4    0    0 -0.13901649095E+03  0.48652367378E+03  0.16022407259E+03  0.53724197657E+03  0.83224503851E+02 0.  0.
         11    1    3    3    0    0  0.60290660777E+02 -0.22489944322E+02 -0.32645539707E+02  0.72156029792E+02  0.00000000000E+00 0. -1.
        -11    1    3    3    0    0  0.25706773137E+03 -0.16451037674E+03  0.32319432250E+02  0.30690719813E+03  0.00000000000E+00 0.  1.
          2    1    6    6  502    0 -0.85570807982E+02  0.20928710685E+03  0.10609423441E+03  0.24975876931E+03  0.00000000000E+00 0. -1.
          3    1    5    5  503    0  0.18123193732E+01  0.27829459832E+01  0.61977240942E+00  0.33783735281E+01  0.00000000000E+00 0. -1.
         -4    1    5    5    0  503 -0.18015422057E+03 -0.30230629870E+03  0.61405509546E+03  0.70774875604E+03  0.00000000000E+00 0.  1.
         -1    1    6    6    0  502 -0.53445682969E+02  0.27723656693E+03  0.54129838173E+02  0.28748320726E+03  0.00000000000E+00 0.  1.
<mgrwt>
<rscale>  0 0.14312837E+04</rscale>
<asrwt>0</asrwt>
<pdfrwt beam="1">  1        1 0.18476963E+00 0.14312837E+04</pdfrwt>
<pdfrwt beam="2">  1       -1 0.65604578E-01 0.14312837E+04</pdfrwt>
<totfact> 0.24438005E+01</totfact>
</mgrwt>
</event>
<event>
12    1  0.1562393E-007  0.1172635E+04  0.7818608E-02  0.9137152E-01
          2   -1    0    0  501    0  0.00000000000E+00  0.00000000000E+00  0.53962967586E+04  0.53962967586E+04  0.00000000000E+00 0. -1.
         -2   -1    0    0    0  501 -0.00000000000E+00 -0.00000000000E+00 -0.63704486226E+02  0.63704486226E+02  0.00000000000E+00 0.  1.
         23    2    1    2    0    0  0.23650962248E+00  0.20801568926E+03  0.58196241578E+03  0.62568441461E+03  0.97622489128E+02 0.  0.
        254    2    1    2    0    0 -0.23650962248E+00 -0.20801568926E+03  0.47506298566E+04  0.48343168302E+04  0.87112834742E+03 0.  0.
        -24    2    4    4    0    0 -0.20387666693E+03 -0.47675489869E+03  0.22889482002E+04  0.23483828494E+04  0.82202282152E+02 0.  0.
         24    2    4    4    0    0  0.20364015731E+03  0.26873920942E+03  0.24616816563E+04  0.24859339808E+04  0.79379490219E+02 0.  0.
         11    1    3    3    0    0  0.17107461910E+02 -0.27799489328E+01  0.30730467894E+02  0.35281085953E+02  0.00000000000E+00 0. -1.
        -11    1    3    3    0    0 -0.16870952287E+02  0.21079563819E+03  0.55123194789E+03  0.59040332865E+03  0.00000000000E+00 0.  1.
          4    1    6    6  502    0  0.20141527032E+03  0.27404581447E+03  0.23988437266E+04  0.24228331441E+04  0.00000000000E+00 0. -1.
          3    1    5    5  503    0 -0.18123989705E+03 -0.38053626026E+03  0.19646828766E+04  0.20093866107E+04  0.00000000000E+00 0. -1.
         -4    1    5    5    0  503 -0.22636769885E+02 -0.96218638425E+02  0.32426532364E+03  0.33899623869E+03  0.00000000000E+00 0.  1.
         -3    1    6    6    0  502  0.22248869933E+01 -0.53066050455E+01  0.62837929690E+02  0.63100836658E+02  0.00000000000E+00 0.  1.
<mgrwt>
<rscale>  0 0.11726352E+04</rscale>
<asrwt>0</asrwt>
<pdfrwt beam="1">  1        2 0.83019914E+00 0.11726352E+04</pdfrwt>
<pdfrwt beam="2">  1       -2 0.98006944E-02 0.11726352E+04</pdfrwt>
<totfact> 0.71346974E-01</totfact>
</mgrwt>
</event>
<event>
12    1  0.1562393E-007  0.2035074E+04  0.7818608E-02  0.8590396E-01
          1   -1    0    0  501    0  0.00000000000E+00  0.00000000000E+00  0.11898089198E+04  0.11898089198E+04  0.00000000000E+00 0. -1.
         -1   -1    0    0    0  501 -0.00000000000E+00 -0.00000000000E+00 -0.87020821854E+03  0.87020821854E+03  0.00000000000E+00 0.  1.
         23    2    1    2    0    0  0.18656029129E+03 -0.35974332327E+03 -0.58710632998E+03  0.71911464612E+03  0.90620255150E+02 0.  0.
        254    2    1    2    0    0 -0.18656029129E+03  0.35974332327E+03  0.90670703123E+03  0.13409024922E+04  0.90093387781E+03 0.  0.
        -24    2    4    4    0    0  0.78112454059E+02  0.22542123443E+03 -0.11289494503E+03  0.27588947356E+03  0.80333334273E+02 0.  0.
         24    2    4    4    0    0 -0.26467274535E+03  0.13432208884E+03  0.10196019763E+04  0.10650130186E+04  0.81058338348E+02 0.  0.
         11    1    3    3    0    0  0.13962825420E+03 -0.33332722128E+03 -0.51191556560E+03  0.62662638958E+03  0.00000000000E+00 0.  1.
        -11    1    3    3    0    0  0.46932037093E+02 -0.26416101987E+02 -0.75190764382E+02  0.92488256542E+02  0.00000000000E+00 0. -1.
          2    1    6    6  502    0 -0.24185921144E+03  0.11462907061E+03  0.97582833290E+03  0.10118678952E+04  0.00000000000E+00 0. -1.
          1    1    5    5  503    0  0.76685516359E+02  0.22558648783E+03 -0.92729638454E+02  0.25567306811E+03  0.00000000000E+00 0. -1.
         -2    1    5    5    0  503  0.14269376999E+01 -0.16525339777E+00 -0.20165306575E+02  0.20216405446E+02  0.00000000000E+00 0.  1.
         -1    1    6    6    0  502 -0.22813533911E+02  0.19693018225E+02  0.43773643356E+02  0.53145123473E+02  0.00000000000E+00 0.  1.
<mgrwt>
<rscale>  0 0.20350740E+04</rscale>
<asrwt>0</asrwt>
<pdfrwt beam="1">  1        1 0.18304753E+00 0.20350740E+04</pdfrwt>
<pdfrwt beam="2">  1       -1 0.13387819E+00 0.20350740E+04</pdfrwt>
<totfact> 0.47319408E+00</totfact>
</mgrwt>
</event>
<event>
12    1  0.1562393E-007  0.1572711E+04  0.7818608E-02  0.8837490E-01
          1   -1    0    0  501    0  0.00000000000E+00  0.00000000000E+00  0.76036678789E+03  0.76036678789E+03  0.00000000000E+00 0. -1.
         -1   -1    0    0    0  501 -0.00000000000E+00 -0.00000000000E+00 -0.81323292810E+03  0.81323292810E+03  0.00000000000E+00 0.  1.
         23    2    1    2    0    0  0.26555664748E+03  0.14360313486E+03 -0.44513074939E+03  0.54544070766E+03  0.90675179342E+02 0.  0.
        254    2    1    2    0    0 -0.26555664748E+03 -0.14360313486E+03  0.39226460918E+03  0.10281590083E+04  0.90116437426E+03 0.  0.
        -24    2    4    4    0    0 -0.29963963964E+03 -0.20997902700E+03 -0.20160151160E+03  0.42508248231E+03  0.78592886854E+02 0.  0.
         24    2    4    4    0    0  0.34082992156E+02  0.66375892136E+02  0.59386612079E+03  0.60307652602E+03  0.73870951067E+02 0.  0.
         13    1    3    3    0    0  0.10573484824E+03  0.13951705895E+02 -0.11891960105E+03  0.15973847296E+03  0.00000000000E+00 0. -1.
        -13    1    3    3    0    0  0.15982179924E+03  0.12965142897E+03 -0.32621114834E+03  0.38570223469E+03  0.00000000000E+00 0.  1.
          2    1    6    6  502    0  0.19505968033E+02 -0.10044113957E+02  0.22667046913E+03  0.22772981489E+03  0.00000000000E+00 0. -1.
          3    1    5    5  503    0 -0.31708204363E+02 -0.63110504948E+01  0.82905803644E+00  0.32340793427E+02  0.00000000000E+00 0. -1.
         -4    1    5    5    0  503 -0.26793143528E+03 -0.20366797650E+03 -0.20243056964E+03  0.39274168888E+03  0.00000000000E+00 0.  1.
         -1    1    6    6    0  502  0.14577024123E+02  0.76420006093E+02  0.36719565166E+03  0.37534671113E+03  0.00000000000E+00 0.  1.
<mgrwt>
<rscale>  0 0.15727114E+04</rscale>
<asrwt>0</asrwt>
<pdfrwt beam="1">  1        1 0.11697951E+00 0.15727114E+04</pdfrwt>
<pdfrwt beam="2">  1       -1 0.12511276E+00 0.15727114E+04</pdfrwt>
<totfact> 0.12875007E+01</totfact>
</mgrwt>
</event>
<event>
12    1  0.1562393E-007  0.2187256E+04  0.7818608E-02  0.8523751E-01
         -2   -1    0    0    0  501 -0.00000000000E+00  0.00000000000E+00  0.15062977397E+04  0.15062977397E+04  0.00000000000E+00 0.  1.
          2   -1    0    0  501    0  0.00000000000E+00 -0.00000000000E+00 -0.79401437891E+03  0.79401437891E+03  0.00000000000E+00 0. -1.
         23    2    1    2    0    0 -0.11329829285E+03 -0.26728115368E+03  0.11994764035E+04  0.12374875163E+04  0.91411115349E+02 0.  0.
        254    2    1    2    0    0  0.11329829285E+03  0.26728115368E+03 -0.48719304273E+03  0.10628246023E+04  0.89886781909E+03 0.  0.
        -24    2    4    4    0    0  0.42944402446E+03 -0.59313385314E+02 -0.81201382939E+02  0.44813794701E+03  0.79332888099E+02 0.  0.
         24    2    4    4    0    0 -0.31614573162E+03  0.32659453900E+03 -0.40599165979E+03  0.61468665534E+03  0.79989623746E+02 0.  0.
         13    1    3    3    0    0 -0.65196196889E+02 -0.56806775237E+02  0.28257177562E+03  0.29550695792E+03  0.00000000000E+00 0. -1.
        -13    1    3    3    0    0 -0.48102095957E+02 -0.21047437845E+03  0.91690462792E+03  0.94198055836E+03  0.00000000000E+00 0.  1.
          2    1    6    6  502    0 -0.32044834601E+03  0.32446125661E+03 -0.40471269762E+03  0.60971683355E+03  0.00000000000E+00 0. -1.
          1    1    5    5  503    0  0.32143950520E+03 -0.43444936618E+02 -0.24916238168E+02  0.32531774766E+03  0.00000000000E+00 0. -1.
         -2    1    5    5    0  503  0.10800451926E+03 -0.15868448696E+02 -0.56285144770E+02  0.12282019934E+03  0.00000000000E+00 0.  1.
         -1    1    6    6    0  502  0.43026143912E+01  0.21332823853E+01 -0.12789621695E+01  0.49698217841E+01  0.00000000000E+00 0.  1.
<mgrwt>
<rscale>  0 0.21872559E+04</rscale>
<asrwt>0</asrwt>
<pdfrwt beam="1">  1        2 0.12215606E+00 0.21872559E+04</pdfrwt>
<pdfrwt beam="2">  1       -2 0.23173811E+00 0.21872559E+04</pdfrwt>
<totfact> 0.26536272E+00</totfact>
</mgrwt>
</event>
<event>
12    1  0.1562393E-007  0.3402180E+04  0.7818608E-02  0.8137371E-01
         -2   -1    0    0    0  501 -0.00000000000E+00  0.00000000000E+00  0.11716588061E+04  0.11716588061E+04  0.00000000000E+00 0.  1.
          2   -1    0    0  501    0  0.00000000000E+00 -0.00000000000E+00 -0.24697524885E+04  0.24697524885E+04  0.00000000000E+00 0. -1.
         23    2    1    2    0    0  0.11633494421E+04  0.10546888167E+04 -0.77970537720E+03  0.17556250099E+04  0.92348664974E+02 0.  0.
        254    2    1    2    0    0 -0.11633494421E+04 -0.10546888167E+04 -0.51838830521E+03  0.18857862846E+04  0.90648389503E+03 0.  0.
        -24    2    4    4    0    0 -0.34128253333E+03 -0.35668016340E+03 -0.62335725476E+03  0.79939474033E+03  0.82238538935E+02 0.  0.
         24    2    4    4    0    0 -0.82206690873E+03 -0.69800865326E+03  0.10496894954E+03  0.10863915443E+04  0.78854452497E+02 0.  0.
         11    1    3    3    0    0  0.10532040081E+04  0.97967648289E+03 -0.69299713820E+03  0.15966370055E+04  0.00000000000E+00 0. -1.
        -11    1    3    3    0    0  0.11014543393E+03  0.75012333781E+02 -0.86708238998E+02  0.15898800440E+03  0.00000000000E+00 0.  1.
          2    1    6    6  502    0 -0.19932934678E+03 -0.17981118332E+03  0.59571455114E+02  0.27497819623E+03  0.00000000000E+00 0. -1.
          3    1    5    5  503    0 -0.88865577163E+02 -0.49119812847E+02 -0.10674019507E+03  0.14732045365E+03  0.00000000000E+00 0. -1.
         -4    1    5    5    0  503 -0.25241695617E+03 -0.30756035056E+03 -0.51661705969E+03  0.65207428668E+03  0.00000000000E+00 0.  1.
         -1    1    6    6    0  502 -0.62273756195E+03 -0.51819746994E+03  0.45397494431E+02  0.81141334807E+03  0.00000000000E+00 0.  1.
<mgrwt>
<rscale>  0 0.34021800E+04</rscale>
<asrwt>0</asrwt>
<pdfrwt beam="1">  1        2 0.37996192E+00 0.34021800E+04</pdfrwt>
<pdfrwt beam="2">  1       -2 0.18025520E+00 0.34021800E+04</pdfrwt>
<totfact> 0.54208130E-01</totfact>
</mgrwt>
</event>
<event>
12    1  0.1562393E-007  0.1807852E+04  0.7818608E-02  0.8702135E-01
          1   -1    0    0  501    0  0.00000000000E+00  0.00000000000E+00  0.15199639136E+04  0.15199639136E+04  0.00000000000E+00 0.  1.
         -1   -1    0    0    0  501 -0.00000000000E+00 -0.00000000000E+00 -0.53756680055E+03  0.53756680055E+03  0.00000000000E+00 0. -1.
         23    2    1    2    0    0  0.67125472836E+03 -0.13258949380E+03  0.30313245792E+03  0.75386750513E+03  0.90906787596E+02 0.  0.
        254    2    1    2    0    0 -0.67125472836E+03  0.13258949380E+03  0.67926465514E+03  0.13036632090E+04  0.87748185544E+03 0.  0.
        -24    2    4    4    0    0 -0.45311068627E+02 -0.22345494748E+03  0.50342028575E+03  0.55836545300E+03  0.79716927363E+02 0.  0.
         24    2    4    4    0    0 -0.62594365974E+03  0.35604444128E+03  0.17584436939E+03  0.74529775602E+03  0.77294201335E+02 0.  0.
         11    1    3    3    0    0  0.44919359243E+03 -0.85177521132E+02  0.24831063452E+03  0.52027710386E+03  0.00000000000E+00 0.  1.
        -11    1    3    3    0    0  0.22206113593E+03 -0.47411972671E+02  0.54821823400E+02  0.23359040127E+03  0.00000000000E+00 0. -1.
          4    1    6    6  502    0 -0.35751676566E+03  0.16761048815E+03  0.72670088118E+02  0.40148780202E+03  0.00000000000E+00 0. -1.
          3    1    5    5  503    0 -0.49602254696E+02 -0.22868129262E+03  0.49533479317E+03  0.54782485759E+03  0.00000000000E+00 0. -1.
         -4    1    5    5    0  503  0.42911860690E+01  0.52263451421E+01  0.80854925780E+01  0.10540595413E+02  0.00000000000E+00 0.  1.
         -3    1    6    6    0  502 -0.26842689408E+03  0.18843395313E+03  0.10317428127E+03  0.34380995400E+03  0.00000000000E+00 0.  1.
<mgrwt>
<rscale>  0 0.18078519E+04</rscale>
<asrwt>0</asrwt>
<pdfrwt beam="1">  1        1 0.23384060E+00 0.18078519E+04</pdfrwt>
<pdfrwt beam="2">  1       -1 0.82702585E-01 0.18078519E+04</pdfrwt>
<totfact> 0.86795829E+00</totfact>
</mgrwt>
</event>
<event>
12    1  0.1562393E-007  0.2935105E+04  0.7818608E-02  0.8262509E-01
         -2   -1    0    0    0  501 -0.00000000000E+00  0.00000000000E+00  0.20142360334E+04  0.20142360334E+04  0.00000000000E+00 0.  1.
          2   -1    0    0  501    0  0.00000000000E+00 -0.00000000000E+00 -0.10692440111E+04  0.10692440111E+04  0.00000000000E+00 0. -1.
         23    2    1    2    0    0  0.32759804292E+03 -0.38676984449E+03  0.17132530094E+04  0.17889067649E+04  0.89666878937E+02 0.  0.
        254    2    1    2    0    0 -0.32759804292E+03  0.38676984449E+03 -0.76826098708E+03  0.12945732796E+04  0.91037554981E+03 0.  0.
        -24    2    4    4    0    0 -0.62278352682E+03  0.14291974569E+03 -0.55167000730E+03  0.84797874587E+03  0.80266939164E+02 0.  0.
         24    2    4    4    0    0  0.29518548390E+03  0.24385009880E+03 -0.21659097978E+03  0.44659453374E+03  0.77056371921E+02 0.  0.
         11    1    3    3    0    0  0.74373952394E+02 -0.12540268288E+03  0.61003544038E+03  0.62721651460E+03  0.00000000000E+00 0. -1.
        -11    1    3    3    0    0  0.25322409052E+03 -0.26136716161E+03  0.11032175690E+04  0.11616902503E+04  0.00000000000E+00 0.  1.
          2    1    6    6  502    0  0.27077843109E+03  0.24177523688E+03 -0.21532310156E+03  0.42206665585E+03  0.00000000000E+00 0. -1.
          3    1    5    5  503    0 -0.48690949153E+03  0.81832510866E+02 -0.44578826003E+03  0.66521018149E+03  0.00000000000E+00 0. -1.
         -4    1    5    5    0  503 -0.13587403528E+03  0.61087234821E+02 -0.10588174727E+03  0.18276856438E+03  0.00000000000E+00 0.  1.
         -1    1    6    6    0  502  0.24407052808E+02  0.20748619179E+01 -0.12678782258E+01  0.24527877893E+02  0.00000000000E+00 0.  1.
<mgrwt>
<rscale>  0 0.29351046E+04</rscale>
<asrwt>0</asrwt>
<pdfrwt beam="1">  1        2 0.16449908E+00 0.29351046E+04</pdfrwt>
<pdfrwt beam="2">  1       -2 0.30988247E+00 0.29351046E+04</pdfrwt>
<totfact> 0.54152021E-01</totfact>
</mgrwt>
</event>
<event>
12    1  0.1562393E-007  0.2318076E+04  0.7818608E-02  0.8470828E-01
          2   -1    0    0  501    0  0.00000000000E+00  0.00000000000E+00  0.10815273440E+04  0.10815273440E+04  0.00000000000E+00 0. -1.
         -2   -1    0    0    0  501 -0.00000000000E+00 -0.00000000000E+00 -0.12421038520E+04  0.12421038520E+04  0.00000000000E+00 0.  1.
         23    2    1    2    0    0  0.35175373017E+03 -0.74294152558E+03 -0.60342766535E+03  0.10237829899E+04  0.91180403043E+02 0.  0.
        254    2    1    2    0    0 -0.35175373017E+03  0.74294152558E+03  0.44285115737E+03  0.12998482062E+04  0.90432041579E+03 0.  0.
        -24    2    4    4    0    0  0.92596558192E+02  0.76029023761E+03  0.26271293564E+03  0.81358828707E+03  0.79324941351E+02 0.  0.
         24    2    4    4    0    0 -0.44435028836E+03 -0.17348712025E+02  0.18013822173E+03  0.48625991911E+03  0.79061832959E+02 0.  0.
         13    1    3    3    0    0  0.20638234520E+03 -0.37362668032E+03 -0.35833731100E+03  0.55731157992E+03  0.00000000000E+00 0.  1.
        -13    1    3    3    0    0  0.14537138497E+03 -0.36931484526E+03 -0.24509035435E+03  0.46647140994E+03  0.00000000000E+00 0. -1.
          2    1    6    6  502    0 -0.18912345690E+03  0.28659288078E+02  0.92824743803E+02  0.21261577977E+03  0.00000000000E+00 0. -1.
          1    1    5    5  503    0  0.10015883571E+03  0.70305445701E+03  0.25836487316E+03  0.75569158363E+03  0.00000000000E+00 0. -1.
         -2    1    5    5    0  503 -0.75622775197E+01  0.57235780598E+02  0.43480624832E+01  0.57896703440E+02  0.00000000000E+00 0.  1.
         -1    1    6    6    0  502 -0.25522683145E+03 -0.46008000103E+02  0.87313477924E+02  0.27364413934E+03  0.00000000000E+00 0.  1.
<mgrwt>
<rscale>  0 0.23180762E+04</rscale>
<asrwt>0</asrwt>
<pdfrwt beam="1">  1        2 0.16638882E+00 0.23180762E+04</pdfrwt>
<pdfrwt beam="2">  1       -2 0.19109290E+00 0.23180762E+04</pdfrwt>
<totfact> 0.30857755E+00</totfact>
</mgrwt>
</event>
<event>
12    1  0.1562393E-007  0.1203902E+04  0.7818608E-02  0.9109448E-01
          1   -1    0    0  501    0  0.00000000000E+00  0.00000000000E+00  0.42245625131E+03  0.42245625131E+03  0.00000000000E+00 0. -1.
         -1   -1    0    0    0  501 -0.00000000000E+00 -0.00000000000E+00 -0.85771019296E+03  0.85771019296E+03  0.00000000000E+00 0.  1.
         23    2    1    2    0    0 -0.82627865945E+02  0.24214006556E+03 -0.11361489459E+03  0.29419930159E+03  0.90474909247E+02 0.  0.
        254    2    1    2    0    0  0.82627865945E+02 -0.24214006556E+03 -0.32163904705E+03  0.98596714268E+03  0.89622561572E+03 0.  0.
        -24    2    4    4    0    0  0.40386925629E+03 -0.33579403233E+03 -0.25239079793E+02  0.53194744041E+03  0.80393158180E+02 0.  0.
         24    2    4    4    0    0 -0.32124139035E+03  0.93653966768E+02 -0.29639996726E+03  0.45401970227E+03  0.79459757687E+02 0.  0.
         13    1    3    3    0    0 -0.68669769279E+02  0.24641159773E+03 -0.10140007874E+03  0.27516574765E+03  0.00000000000E+00 0. -1.
        -13    1    3    3    0    0 -0.13958096666E+02 -0.42715321672E+01 -0.12214815850E+02  0.19033553947E+02  0.00000000000E+00 0.  1.
          2    1    6    6  502    0 -0.18427374341E+03  0.13562505479E+02 -0.17141598015E+03  0.25204006094E+03  0.00000000000E+00 0. -1.
          1    1    5    5  503    0  0.34343051149E+03 -0.31654317791E+03 -0.12359584442E+02  0.46722249414E+03  0.00000000000E+00 0. -1.
         -2    1    5    5    0  503  0.60438744803E+02 -0.19250854426E+02 -0.12879495351E+02  0.64724946273E+02  0.00000000000E+00 0.  1.
         -1    1    6    6    0  502 -0.13696764694E+03  0.80091461289E+02 -0.12498398711E+03  0.20197964133E+03  0.00000000000E+00 0.  1.
<mgrwt>
<rscale>  0 0.12039020E+04</rscale>
<asrwt>0</asrwt>
<pdfrwt beam="1">  1        1 0.64993270E-01 0.12039020E+04</pdfrwt>
<pdfrwt beam="2">  1       -1 0.13195541E+00 0.12039020E+04</pdfrwt>
<totfact> 0.26948598E+01</totfact>
</mgrwt>
</event>
<event>
12    1  0.1562393E-007  0.2913469E+04  0.7818608E-02  0.8268881E-01
          2   -1    0    0  501    0  0.00000000000E+00  0.00000000000E+00  0.16104855784E+04  0.16104855784E+04  0.00000000000E+00 0. -1.
         -2   -1    0    0    0  501 -0.00000000000E+00 -0.00000000000E+00 -0.13176616080E+04  0.13176616080E+04  0.00000000000E+00 0.  1.
         23    2    1    2    0    0 -0.17161451234E+03  0.98994628598E+03 -0.72620425432E+03  0.12413048629E+04  0.63403104279E+02 0.  0.
        254    2    1    2    0    0  0.17161451234E+03 -0.98994628598E+03  0.10190282248E+04  0.16868423235E+04  0.89306960063E+03 0.  0.
        -24    2    4    4    0    0 -0.62581434392E+02  0.14825742756E+03  0.11964688805E+03  0.21514971437E+03  0.77957174250E+02 0.  0.
         24    2    4    4    0    0  0.23419594673E+03 -0.11382037135E+04  0.89938133671E+03  0.14716926091E+04  0.81467244926E+02 0.  0.
         11    1    3    3    0    0 -0.16088951674E+02  0.96096875479E+02 -0.94794654190E+02  0.13593928904E+03  0.00000000000E+00 0. -1.
        -11    1    3    3    0    0 -0.15552556066E+03  0.89384941051E+03 -0.63140960013E+03  0.11053655738E+04  0.00000000000E+00 0.  1.
          4    1    6    6  502    0  0.86058108098E+02 -0.29805913031E+03  0.20670956395E+03  0.37279228393E+03  0.00000000000E+00 0. -1.
          3    1    5    5  503    0  0.91883607393E+01 -0.66774100171E+00  0.20263518441E+02  0.22259425660E+02  0.00000000000E+00 0. -1.
         -4    1    5    5    0  503 -0.71769795132E+02  0.14892516856E+03  0.99383369607E+02  0.19289028871E+03  0.00000000000E+00 0.  1.
         -3    1    6    6    0  502  0.14813783863E+03 -0.84014458323E+03  0.69267177276E+03  0.10989003252E+04  0.00000000000E+00 0.  1.
<mgrwt>
<rscale>  0 0.29134687E+04</rscale>
<asrwt>0</asrwt>
<pdfrwt beam="1">  1        2 0.24776701E+00 0.29134687E+04</pdfrwt>
<pdfrwt beam="2">  1       -2 0.20271717E+00 0.29134687E+04</pdfrwt>
<totfact> 0.12109878E+00</totfact>
</mgrwt>
</event>
<event>
12    1  0.1562393E-007  0.1550417E+04  0.7818608E-02  0.8851601E-01
          2   -1    0    0  501    0  0.00000000000E+00  0.00000000000E+00  0.19275188410E+04  0.19275188410E+04  0.00000000000E+00 0. -1.
         -2   -1    0    0    0  501 -0.00000000000E+00 -0.00000000000E+00 -0.31177300054E+03  0.31177300054E+03  0.00000000000E+00 0.  1.
         23    2    1    2    0    0  0.46217670864E+03  0.11008854192E+03  0.26875818825E+03  0.55334216721E+03  0.90718207647E+02 0.  0.
        254    2    1    2    0    0 -0.46217670864E+03 -0.11008854192E+03  0.13469876522E+04  0.16859496743E+04  0.89572527713E+03 0.  0.
        -24    2    4    4    0    0 -0.12589660265E+03 -0.17240951182E+03 -0.59225612277E+02  0.23649257690E+03  0.82740990149E+02 0.  0.
         24    2    4    4    0    0 -0.33628010598E+03  0.62320969903E+02  0.14062132645E+04  0.14494570974E+04  0.80758399600E+02 0.  0.
         11    1    3    3    0    0  0.33396072523E+03  0.11371465814E+03  0.22195298259E+03  0.41680201050E+03  0.00000000000E+00 0. -1.
        -11    1    3    3    0    0  0.12821598340E+03 -0.36261162253E+01  0.46805205655E+02  0.13654015671E+03  0.00000000000E+00 0.  1.
          4    1    6    6  502    0 -0.19543635116E+02 -0.75598722329E+00  0.19320023669E+03  0.19418768408E+03  0.00000000000E+00 0. -1.
          3    1    5    5  503    0  0.22096397069E+01  0.43955151810E+01  0.67975918037E+01  0.83910854882E+01  0.00000000000E+00 0. -1.
         -4    1    5    5    0  503 -0.12810624236E+03 -0.17680502700E+03 -0.66023204081E+02  0.22810149141E+03  0.00000000000E+00 0.  1.
         -3    1    6    6    0  502 -0.31673647087E+03  0.63076957127E+02  0.12130130278E+04  0.12552694134E+04  0.00000000000E+00 0.  1.
<mgrwt>
<rscale>  0 0.15504171E+04</rscale>
<asrwt>0</asrwt>
<pdfrwt beam="1">  1        2 0.29654135E+00 0.15504171E+04</pdfrwt>
<pdfrwt beam="2">  1       -2 0.47965078E-01 0.15504171E+04</pdfrwt>
<totfact> 0.29062908E+01</totfact>
</mgrwt>
</event>
<event>
12    1  0.1562393E-007  0.1295882E+04  0.7818608E-02  0.9032837E-01
          2   -1    0    0  501    0  0.00000000000E+00  0.00000000000E+00  0.14131845217E+04  0.14131845217E+04  0.00000000000E+00 0. -1.
         -2   -1    0    0    0  501 -0.00000000000E+00 -0.00000000000E+00 -0.29707929150E+03  0.29707929150E+03  0.00000000000E+00 0.  1.
         23    2    1    2    0    0  0.91294474591E+02 -0.16819529970E+02  0.77368948678E+03  0.78407191117E+03  0.86923887767E+02 0.  0.
        254    2    1    2    0    0 -0.91294474591E+02  0.16819529970E+02  0.34241574344E+03  0.92619190205E+03  0.85554971824E+03 0.  0.
        -24    2    4    4    0    0 -0.10516223146E+03  0.37301404854E+03  0.39373670910E+03  0.55812382028E+03  0.79215070166E+02 0.  0.
         24    2    4    4    0    0  0.13867756869E+02 -0.35619451857E+03 -0.51320965662E+02  0.36806808177E+03  0.75983034672E+02 0.  0.
         11    1    3    3    0    0  0.59201003022E+02  0.11793227621E+00  0.18448745358E+03  0.19375343402E+03  0.00000000000E+00 0.  1.
        -11    1    3    3    0    0  0.32093471570E+02 -0.16937462246E+02  0.58920203320E+03  0.59031847715E+03  0.00000000000E+00 0. -1.
          4    1    6    6  502    0  0.22988159488E+02 -0.12147151040E+03 -0.49477188845E+02  0.13316071317E+03  0.00000000000E+00 0. -1.
          1    1    5    5  503    0 -0.66035743325E+02  0.11886502562E+03  0.16644539033E+03  0.21492715434E+03  0.00000000000E+00 0. -1.
         -2    1    5    5    0  503 -0.39126488135E+02  0.25414902292E+03  0.22729131877E+03  0.34319666594E+03  0.00000000000E+00 0.  1.
         -3    1    6    6    0  502 -0.91204026193E+01 -0.23472300817E+03 -0.18437768173E+01  0.23490736859E+03  0.00000000000E+00 0.  1.
<mgrwt>
<rscale>  0 0.12958825E+04</rscale>
<asrwt>0</asrwt>
<pdfrwt beam="1">  1        2 0.21741300E+00 0.12958825E+04</pdfrwt>
<pdfrwt beam="2">  1       -2 0.45704507E-01 0.12958825E+04</pdfrwt>
<totfact> 0.63272261E+01</totfact>
</mgrwt>
</event>
<event>
12    1  0.1562393E-007  0.3353265E+04  0.7818608E-02  0.8149473E-01
         -1   -1    0    0    0  501 -0.00000000000E+00  0.00000000000E+00  0.11369997896E+04  0.11369997896E+04  0.00000000000E+00 0.  1.
          1   -1    0    0  501    0  0.00000000000E+00 -0.00000000000E+00 -0.24723813952E+04  0.24723813952E+04  0.00000000000E+00 0. -1.
         23    2    1    2    0    0  0.92623554477E+03 -0.12495266333E+04 -0.57513391951E+03  0.16606353147E+04  0.87758368644E+02 0.  0.
        254    2    1    2    0    0 -0.92623554477E+03  0.12495266333E+04 -0.76024768610E+03  0.19487458702E+04  0.89465346962E+03 0.  0.
        -24    2    4    4    0    0 -0.50536299560E+03  0.36136523007E+03 -0.73063397648E+03  0.96241161580E+03  0.80209250181E+02 0.  0.
         24    2    4    4    0    0 -0.42087254916E+03  0.88816140320E+03 -0.29613709623E+02  0.98633425439E+03  0.77549395884E+02 0.  0.
         11    1    3    3    0    0  0.90980056395E+03 -0.12422589848E+04 -0.56641406534E+03  0.16406612523E+04  0.00000000000E+00 0.  1.
        -11    1    3    3    0    0  0.16434980816E+02 -0.72676484501E+01 -0.87198541678E+01  0.19974062309E+02  0.00000000000E+00 0. -1.
          4    1    6    6  502    0 -0.24816191819E+02  0.10930537922E+03 -0.89963997503E+00  0.11209067158E+03  0.00000000000E+00 0. -1.
          1    1    5    5  503    0 -0.24352423534E+03  0.14606444448E+03 -0.28304627241E+03  0.40094147636E+03  0.00000000000E+00 0. -1.
         -2    1    5    5    0  503 -0.26183876026E+03  0.21530078559E+03 -0.44758770407E+03  0.56147013944E+03  0.00000000000E+00 0.  1.
         -3    1    6    6    0  502 -0.39605635735E+03  0.77885602398E+03 -0.28714069648E+02  0.87424358281E+03  0.00000000000E+00 0.  1.
<mgrwt>
<rscale>  0 0.33532653E+04</rscale>
<asrwt>0</asrwt>
<pdfrwt beam="1">  1        1 0.38036637E+00 0.33532653E+04</pdfrwt>
<pdfrwt beam="2">  1       -1 0.17492305E+00 0.33532653E+04</pdfrwt>
<totfact> 0.26478257E-01</totfact>
</mgrwt>
</event>
<event>
12    1  0.1562393E-007  0.1513080E+04  0.7818608E-02  0.8875801E-01
         -2   -1    0    0    0  501 -0.00000000000E+00  0.00000000000E+00  0.38781402273E+03  0.38781402273E+03  0.00000000000E+00 0.  1.
          2   -1    0    0  501    0  0.00000000000E+00 -0.00000000000E+00 -0.14758440855E+04  0.14758440855E+04  0.00000000000E+00 0. -1.
         23    2    1    2    0    0 -0.58279248584E+02 -0.10699156497E+03  0.22478847628E+03  0.27162028387E+03  0.91673626257E+02 0.  0.
        254    2    1    2    0    0  0.58279248584E+02  0.10699156497E+03 -0.13128185391E+04  0.15920378244E+04  0.89232743539E+03 0.  0.
        -24    2    4    4    0    0 -0.13013905319E+03 -0.60872087138E+01 -0.13472108321E+04  0.13560079862E+04  0.82507001164E+02 0.  0.
         24    2    4    4    0    0  0.18841830178E+03  0.11307877368E+03  0.34392293068E+02  0.23602983814E+03  0.78987272189E+02 0.  0.
         13    1    3    3    0    0  0.87033252299E+01 -0.31589108152E+02  0.12693011421E+03  0.13109108862E+03  0.00000000000E+00 0.  1.
        -13    1    3    3    0    0 -0.66982573814E+02 -0.75402456819E+02  0.97858362072E+02  0.14052919525E+03  0.00000000000E+00 0. -1.
          2    1    6    6  502    0 -0.19396184400E+01  0.24805842302E+01  0.14658011864E+02  0.14992422407E+02  0.00000000000E+00 0. -1.
          1    1    5    5  503    0 -0.27748488438E+00  0.17446193887E+02 -0.30107351701E+03  0.30157869508E+03  0.00000000000E+00 0. -1.
         -2    1    5    5    0  503 -0.12986156831E+03 -0.23533402601E+02 -0.10461373151E+04  0.10544292912E+04  0.00000000000E+00 0.  1.
         -1    1    6    6    0  502  0.19035792022E+03  0.11059818945E+03  0.19734281204E+02  0.22103741573E+03  0.00000000000E+00 0.  1.
<mgrwt>
<rscale>  0 0.15130803E+04</rscale>
<asrwt>0</asrwt>
<pdfrwt beam="1">  1        2 0.22705294E+00 0.15130803E+04</pdfrwt>
<pdfrwt beam="2">  1       -2 0.59663695E-01 0.15130803E+04</pdfrwt>
<totfact> 0.33136258E+01</totfact>
</mgrwt>
</event>
<event>
12    1  0.1562393E-007  0.1501446E+04  0.7818608E-02  0.8883492E-01
          2   -1    0    0  501    0  0.00000000000E+00  0.00000000000E+00  0.12218343307E+04  0.12218343307E+04  0.00000000000E+00 0.  1.
         -2   -1    0    0    0  501 -0.00000000000E+00 -0.00000000000E+00 -0.46126155505E+03  0.46126155505E+03  0.00000000000E+00 0. -1.
         23    2    1    2    0    0 -0.16621691779E+03  0.44720851183E+03  0.18242339430E+03  0.51831755811E+03  0.88041350816E+02 0.  0.
        254    2    1    2    0    0  0.16621691779E+03 -0.44720851183E+03  0.57814938132E+03  0.11647783276E+04  0.89153145124E+03 0.  0.
        -24    2    4    4    0    0  0.45546773697E+03 -0.29904648114E+02  0.12775184869E+03  0.48057829991E+03  0.79308386094E+02 0.  0.
         24    2    4    4    0    0 -0.28925081918E+03 -0.41730386371E+03  0.45039753264E+03  0.68420002771E+03  0.86389753109E+02 0.  0.
         11    1    3    3    0    0 -0.29502639551E+02  0.18063935402E+02  0.95762752201E+01  0.35894519774E+02  0.00000000000E+00 0.  1.
        -11    1    3    3    0    0 -0.13671427824E+03  0.42914457642E+03  0.17284711908E+03  0.48242303834E+03  0.00000000000E+00 0. -1.
          4    1    6    6  502    0 -0.54788210815E+02 -0.65289670008E+02  0.37476280607E+02  0.93107253542E+02  0.00000000000E+00 0. -1.
          3    1    5    5  503    0  0.77025499702E+02  0.35511943724E+01 -0.71083785871E+01  0.77434279437E+02  0.00000000000E+00 0. -1.
         -4    1    5    5    0  503  0.37844223727E+03 -0.33455842487E+02  0.13486022727E+03  0.40314402047E+03  0.00000000000E+00 0.  1.
         -3    1    6    6    0  502 -0.23446260836E+03 -0.35201419370E+03  0.41292125203E+03  0.59109277416E+03  0.00000000000E+00 0.  1.
<mgrwt>
<rscale>  0 0.15014462E+04</rscale>
<asrwt>0</asrwt>
<pdfrwt beam="1">  1        2 0.18797451E+00 0.15014462E+04</pdfrwt>
<pdfrwt beam="2">  1       -2 0.70963317E-01 0.15014462E+04</pdfrwt>
<totfact> 0.32039230E+01</totfact>
</mgrwt>
</event>
<event>
12    1  0.1562393E-007  0.1625456E+04  0.7818608E-02  0.8805060E-01
          1   -1    0    0  501    0  0.00000000000E+00  0.00000000000E+00  0.42712431001E+03  0.42712431001E+03  0.00000000000E+00 0. -1.
         -1   -1    0    0    0  501 -0.00000000000E+00 -0.00000000000E+00 -0.15464505877E+04  0.15464505877E+04  0.00000000000E+00 0.  1.
         23    2    1    2    0    0 -0.55259464495E+02 -0.52969799519E+03 -0.19286475992E+03  0.57575780486E+03  0.10327952225E+03 0.  0.
        254    2    1    2    0    0  0.55259464495E+02  0.52969799519E+03 -0.92646151773E+03  0.13978170928E+04  0.90107053362E+03 0.  0.
        -24    2    4    4    0    0  0.43261008436E+03  0.48154899075E+03 -0.50372566647E+03  0.82393652969E+03  0.78044489327E+02 0.  0.
         24    2    4    4    0    0 -0.37735061987E+03  0.48149004440E+02 -0.42273585126E+03  0.57388056310E+03  0.76951178215E+02 0.  0.
         13    1    3    3    0    0 -0.57983110330E+02 -0.49878504917E+03 -0.15239556593E+03  0.52475992117E+03  0.00000000000E+00 0. -1.
        -13    1    3    3    0    0  0.27236458346E+01 -0.30912946027E+02 -0.40469193990E+02  0.50997883691E+02  0.00000000000E+00 0.  1.
          2    1    6    6  502    0 -0.23776341232E+03  0.55654944584E+02 -0.22738088795E+03  0.33366297562E+03  0.00000000000E+00 0. -1.
          3    1    5    5  503    0  0.36102283545E+03  0.35603086705E+03 -0.40491447359E+03  0.64888457905E+03  0.00000000000E+00 0. -1.
         -4    1    5    5    0  503  0.71587248911E+02  0.12551812370E+03 -0.98811192881E+02  0.17505195064E+03  0.00000000000E+00 0.  1.
         -1    1    6    6    0  502 -0.13958720754E+03 -0.75059401442E+01 -0.19535496330E+03  0.24021758748E+03  0.00000000000E+00 0.  1.
<mgrwt>
<rscale>  0 0.16254558E+04</rscale>
<asrwt>0</asrwt>
<pdfrwt beam="1">  1        1 0.65711432E-01 0.16254558E+04</pdfrwt>
<pdfrwt beam="2">  1       -1 0.23791548E+00 0.16254558E+04</pdfrwt>
<totfact> 0.44028558E+00</totfact>
</mgrwt>
</event>
<event>
12    1  0.1562393E-007  0.1285228E+04  0.7818608E-02  0.9041362E-01
         -2   -1    0    0    0  501 -0.00000000000E+00  0.00000000000E+00  0.14412187912E+04  0.14412187912E+04  0.00000000000E+00 0.  1.
          2   -1    0    0  501    0  0.00000000000E+00 -0.00000000000E+00 -0.28653020280E+03  0.28653020280E+03  0.00000000000E+00 0. -1.
         23    2    1    2    0    0  0.17257571829E+03 -0.93285719094E+02  0.63527317812E+03  0.66996418857E+03  0.82434211293E+02 0.  0.
        254    2    1    2    0    0 -0.17257571829E+03  0.93285719094E+02  0.51941541025E+03  0.10577848054E+04  0.90035088838E+03 0.  0.
        -24    2    4    4    0    0  0.31600019819E+03  0.35291801323E+02 -0.13204907989E+02  0.32827598689E+03  0.80555058640E+02 0.  0.
         24    2    4    4    0    0 -0.48857591649E+03  0.57993917770E+02  0.53262031824E+03  0.72950881852E+03  0.80180996642E+02 0.  0.
         13    1    3    3    0    0  0.16482608356E+03 -0.72840850216E+02  0.61222583034E+03  0.63819581213E+03  0.00000000000E+00 0.  1.
        -13    1    3    3    0    0  0.77496347300E+01 -0.20444868878E+02  0.23047347785E+02  0.31768376442E+02  0.00000000000E+00 0. -1.
          4    1    6    6  502    0 -0.38648921111E+03  0.18401015346E+02  0.44151864261E+03  0.58707002942E+03  0.00000000000E+00 0. -1.
          1    1    5    5  503    0  0.20890853058E+03  0.59038243186E+02  0.46456482457E+01  0.21714020897E+03  0.00000000000E+00 0. -1.
         -2    1    5    5    0  503  0.10709166762E+03 -0.23746441863E+02 -0.17850556234E+02  0.11113577791E+03  0.00000000000E+00 0.  1.
         -3    1    6    6    0  502 -0.10208670538E+03  0.39592902425E+02  0.91101675632E+02  0.14243878910E+03  0.00000000000E+00 0.  1.
<mgrwt>
<rscale>  0 0.12852279E+04</rscale>
<asrwt>0</asrwt>
<pdfrwt beam="1">  1        2 0.44081571E-01 0.12852279E+04</pdfrwt>
<pdfrwt beam="2">  1       -2 0.22172596E+00 0.12852279E+04</pdfrwt>
<totfact> 0.10929319E+01</totfact>
</mgrwt>
</event>
<event>
12    1  0.1562393E-007  0.1795176E+04  0.7818608E-02  0.8708869E-01
          1   -1    0    0  501    0  0.00000000000E+00  0.00000000000E+00  0.17793972354E+04  0.17793972354E+04  0.00000000000E+00 0. -1.
         -1   -1    0    0    0  501 -0.00000000000E+00 -0.00000000000E+00 -0.45277359125E+03  0.45277359125E+03  0.00000000000E+00 0.  1.
         23    2    1    2    0    0  0.28571934029E+03 -0.36071971839E+03  0.11042337841E+04  0.11997468418E+04  0.91137137757E+02 0.  0.
        254    2    1    2    0    0 -0.28571934029E+03  0.36071971839E+03  0.22238986002E+03  0.10324239848E+04  0.89704391080E+03 0.  0.
        -24    2    4    4    0    0 -0.19329125845E+03  0.56657903806E+03 -0.11873757321E+03  0.61560223421E+03  0.80586490852E+02 0.  0.
         24    2    4    4    0    0 -0.92428081838E+02 -0.20585931967E+03  0.34112743323E+03  0.41682175059E+03  0.80320833257E+02 0.  0.
         11    1    3    3    0    0  0.12278925056E+02 -0.76814460192E+01  0.91887869699E+01  0.17152563058E+02  0.00000000000E+00 0.  1.
        -11    1    3    3    0    0  0.27344041524E+03 -0.35303827237E+03  0.10950449971E+04  0.11825942788E+04  0.00000000000E+00 0. -1.
          2    1    6    6  502    0 -0.22356819946E+02 -0.12299909853E+03  0.22824268609E+03  0.26023706383E+03  0.00000000000E+00 0. -1.
          1    1    5    5  503    0 -0.18436644503E+03  0.56493727400E+03 -0.12051014672E+03  0.60635617014E+03  0.00000000000E+00 0. -1.
         -2    1    5    5    0  503 -0.89248134241E+01  0.16417640615E+01  0.17725735121E+01  0.92460640677E+01  0.00000000000E+00 0.  1.
         -1    1    6    6    0  502 -0.70071261892E+02 -0.82860221147E+02  0.11288474714E+03  0.15658468676E+03  0.00000000000E+00 0.  1.
<mgrwt>
<rscale>  0 0.17951758E+04</rscale>
<asrwt>0</asrwt>
<pdfrwt beam="1">  1        1 0.27375342E+00 0.17951758E+04</pdfrwt>
<pdfrwt beam="2">  1       -1 0.69657476E-01 0.17951758E+04</pdfrwt>
<totfact> 0.82778763E+00</totfact>
</mgrwt>
</event>
<event>
12    1  0.1562393E-007  0.1849230E+04  0.7818608E-02  0.8680549E-01
          2   -1    0    0  501    0  0.00000000000E+00  0.00000000000E+00  0.88889490483E+03  0.88889490483E+03  0.00000000000E+00 0. -1.
         -2   -1    0    0    0  501 -0.00000000000E+00 -0.00000000000E+00 -0.96177008328E+03  0.96177008328E+03  0.00000000000E+00 0.  1.
         23    2    1    2    0    0 -0.23812007281E+03  0.62078167474E+03  0.17858106224E+03  0.69428951080E+03  0.89864744238E+02 0.  0.
        254    2    1    2    0    0  0.23812007281E+03 -0.62078167474E+03 -0.25145624069E+03  0.11563754773E+04  0.91208713770E+03 0.  0.
        -24    2    4    4    0    0 -0.14256920966E+03 -0.50659994277E+02 -0.41334703780E+03  0.44733680653E+03  0.79762336060E+02 0.  0.
         24    2    4    4    0    0  0.38068928247E+03 -0.57012168046E+03  0.16189079711E+03  0.70903867078E+03  0.81019418378E+02 0.  0.
         11    1    3    3    0    0 -0.22290232373E+03  0.50577136212E+03  0.16856844793E+03  0.57784551422E+03  0.00000000000E+00 0. -1.
        -11    1    3    3    0    0 -0.15217749077E+02  0.11501031261E+03  0.10012614309E+02  0.11644399658E+03  0.00000000000E+00 0.  1.
          4    1    6    6  502    0  0.73070138835E+02 -0.11777322083E+03  0.17425509639E+00  0.13859944840E+03  0.00000000000E+00 0. -1.
          1    1    5    5  503    0 -0.49969804553E+02 -0.58967905075E+02 -0.16663528958E+03  0.18368863582E+03  0.00000000000E+00 0. -1.
         -2    1    5    5    0  503 -0.92599405105E+02  0.83079107985E+01 -0.24671174822E+03  0.26364817071E+03  0.00000000000E+00 0.  1.
         -3    1    6    6    0  502  0.30761914363E+03 -0.45234845963E+03  0.16171654201E+03  0.57043922237E+03  0.00000000000E+00 0.  1.
<mgrwt>
<rscale>  0 0.18492296E+04</rscale>
<asrwt>0</asrwt>
<pdfrwt beam="1">  1        2 0.13675306E+00 0.18492296E+04</pdfrwt>
<pdfrwt beam="2">  1       -2 0.14796463E+00 0.18492296E+04</pdfrwt>
<totfact> 0.87139227E+00</totfact>
</mgrwt>
</event>
<event>
12    1  0.1562393E-007  0.1398876E+04  0.7818608E-02  0.8954632E-01
          2   -1    0    0  501    0  0.00000000000E+00  0.00000000000E+00  0.17367080685E+04  0.17367080685E+04  0.00000000000E+00 0. -1.
         -2   -1    0    0    0  501 -0.00000000000E+00 -0.00000000000E+00 -0.28169020386E+03  0.28169020386E+03  0.00000000000E+00 0.  1.
         23    2    1    2    0    0 -0.29545890172E+03 -0.29817883213E+03  0.51503341755E+03  0.67033309132E+03  0.88771918938E+02 0.  0.
        254    2    1    2    0    0  0.29545890172E+03  0.29817883213E+03  0.93998444706E+03  0.13480651810E+04  0.87034613402E+03 0.  0.
        -24    2    4    4    0    0  0.33805747469E+03  0.73251490176E+02 -0.22709444513E+02  0.35536275894E+03  0.78219783703E+02 0.  0.
         24    2    4    4    0    0 -0.42598572970E+02  0.22492734196E+03  0.96269389157E+03  0.99270242207E+03  0.79193575116E+02 0.  0.
         11    1    3    3    0    0 -0.16304283376E+03 -0.22229145549E+03  0.35033249141E+03  0.44579065867E+03  0.00000000000E+00 0. -1.
        -11    1    3    3    0    0 -0.13241606797E+03 -0.75887376644E+02  0.16470092614E+03  0.22454243265E+03  0.00000000000E+00 0.  1.
          4    1    6    6  502    0 -0.58499236967E+02  0.12639398187E+03  0.63751059853E+03  0.65254682791E+03  0.00000000000E+00 0. -1.
          3    1    5    5  503    0  0.31056593906E+03  0.52676320869E+02 -0.15053871598E+01  0.31500518008E+03  0.00000000000E+00 0. -1.
         -4    1    5    5    0  503  0.27491535631E+02  0.20575169306E+02 -0.21204057353E+02  0.40357578862E+02  0.00000000000E+00 0.  1.
         -3    1    6    6    0  502  0.15900663997E+02  0.98533360090E+02  0.32518329304E+03  0.34015559416E+03  0.00000000000E+00 0.  1.
<mgrwt>
<rscale>  0 0.13988762E+04</rscale>
<asrwt>0</asrwt>
<pdfrwt beam="1">  1        2 0.26718585E+00 0.13988762E+04</pdfrwt>
<pdfrwt beam="2">  1       -2 0.43336956E-01 0.13988762E+04</pdfrwt>
<totfact> 0.45977558E+01</totfact>
</mgrwt>
</event>
<event>
12    1  0.1562393E-007  0.1700687E+04  0.7818608E-02  0.8760973E-01
         -2   -1    0    0    0  501 -0.00000000000E+00  0.00000000000E+00  0.25042488296E+03  0.25042488296E+03  0.00000000000E+00 0.  1.
          2   -1    0    0  501    0  0.00000000000E+00 -0.00000000000E+00 -0.28874275023E+04  0.28874275023E+04  0.00000000000E+00 0. -1.
         23    2    1    2    0    0 -0.71785543985E+01  0.50711512730E+00 -0.20887810359E+04  0.20908061754E+04  0.91719452959E+02 0.  0.
        254    2    1    2    0    0  0.71785543985E+01 -0.50711512730E+00 -0.54822158336E+03  0.10470462099E+04  0.89202414334E+03 0.  0.
        -24    2    4    4    0    0  0.16503516505E+03 -0.35870124333E+03 -0.50350000765E+03  0.64497494192E+03  0.81100125298E+02 0.  0.
         24    2    4    4    0    0 -0.15785661065E+03  0.35819412820E+03 -0.44721575711E+02  0.40207126794E+03  0.80246757972E+02 0.  0.
         11    1    3    3    0    0  0.15273749762E+02  0.30719744114E+02 -0.36369651808E+03  0.36531102827E+03  0.00000000000E+00 0.  1.
        -11    1    3    3    0    0 -0.22452304160E+02 -0.30212628987E+02 -0.17250845179E+04  0.17254951471E+04  0.00000000000E+00 0. -1.
          4    1    6    6  502    0 -0.11285727342E+03  0.19681925130E+03  0.62222155782E+01  0.22696541105E+03  0.00000000000E+00 0. -1.
          1    1    5    5  503    0  0.14195686999E+03 -0.34448196525E+03 -0.48722346611E+03  0.61335657104E+03  0.00000000000E+00 0. -1.
         -2    1    5    5    0  503  0.23078295055E+02 -0.14219278083E+02 -0.16276541548E+02  0.31618370872E+02  0.00000000000E+00 0.  1.
         -3    1    6    6    0  502 -0.44999337223E+02  0.16137487690E+03 -0.50943791289E+02  0.17510585689E+03  0.00000000000E+00 0.  1.
<mgrwt>
<rscale>  0 0.17006866E+04</rscale>
<asrwt>0</asrwt>
<pdfrwt beam="1">  1        2 0.44421962E+00 0.17006866E+04</pdfrwt>
<pdfrwt beam="2">  1       -2 0.38526905E-01 0.17006866E+04</pdfrwt>
<totfact> 0.12433729E+01</totfact>
</mgrwt>
</event>
<event>
12    1  0.1562393E-007  0.2523386E+04  0.7818608E-02  0.8394701E-01
          2   -1    0    0  501    0  0.00000000000E+00  0.00000000000E+00  0.13881971994E+04  0.13881971994E+04  0.00000000000E+00 0. -1.
         -2   -1    0    0    0  501 -0.00000000000E+00 -0.00000000000E+00 -0.11467172926E+04  0.11467172926E+04  0.00000000000E+00 0.  1.
         23    2    1    2    0    0 -0.34127371062E+03  0.41865006029E+03 -0.85745527585E+03  0.10173894220E+04  0.90089218776E+02 0.  0.
        254    2    1    2    0    0  0.34127371062E+03 -0.41865006029E+03  0.10989351826E+04  0.15175250700E+04  0.89637502419E+03 0.  0.
        -24    2    4    4    0    0  0.47100224095E+03 -0.44347544294E+03  0.32487587838E+03  0.72824133029E+03  0.79230797743E+02 0.  0.
         24    2    4    4    0    0 -0.12972853034E+03  0.24825382645E+02  0.77405930421E+03  0.78928373971E+03  0.79719659662E+02 0.  0.
         13    1    3    3    0    0  0.58202014607E+01  0.69444611683E+01 -0.12826672558E+02  0.15704261042E+02  0.00000000000E+00 0. -1.
        -13    1    3    3    0    0 -0.34709391208E+03  0.41170559912E+03 -0.84462860329E+03  0.10016851609E+04  0.00000000000E+00 0.  1.
          2    1    6    6  502    0 -0.70232719902E+02  0.39878896625E+01  0.60095445343E+03  0.60505767767E+03  0.00000000000E+00 0. -1.
          3    1    5    5  503    0  0.46158559293E+03 -0.44448576716E+03  0.31332181150E+03  0.71330176950E+03  0.00000000000E+00 0. -1.
         -4    1    5    5    0  503  0.94166480223E+01  0.10103242196E+01  0.11554066886E+02  0.14939560791E+02  0.00000000000E+00 0.  1.
         -1    1    6    6    0  502 -0.59495810436E+02  0.20837492982E+02  0.17310485078E+03  0.18422606204E+03  0.00000000000E+00 0.  1.
<mgrwt>
<rscale>  0 0.25233864E+04</rscale>
<asrwt>0</asrwt>
<pdfrwt beam="1">  1        2 0.21356880E+00 0.25233864E+04</pdfrwt>
<pdfrwt beam="2">  1       -2 0.17641805E+00 0.25233864E+04</pdfrwt>
<totfact> 0.25127663E+00</totfact>
</mgrwt>
</event>
<event>
12    1  0.1562393E-007  0.1878011E+04  0.7818608E-02  0.8665880E-01
         -2   -1    0    0    0  501 -0.00000000000E+00  0.00000000000E+00  0.12186798032E+04  0.12186798032E+04  0.00000000000E+00 0.  1.
          2   -1    0    0  501    0  0.00000000000E+00 -0.00000000000E+00 -0.72351368666E+03  0.72351368666E+03  0.00000000000E+00 0. -1.
         23    2    1    2    0    0 -0.17570917951E+03 -0.52127695272E+03 -0.28529854940E+03  0.63007440646E+03  0.11399613233E+03 0.  0.
        254    2    1    2    0    0  0.17570917951E+03  0.52127695272E+03  0.78046466596E+03  0.13121190834E+04  0.89996000859E+03 0.  0.
        -24    2    4    4    0    0  0.38320905525E+03 -0.58491356409E+02  0.48063377903E+03  0.62263931729E+03  0.80002944279E+02 0.  0.
         24    2    4    4    0    0 -0.20749987574E+03  0.57976830913E+03  0.29983088693E+03  0.68947976613E+03  0.79349205706E+02 0.  0.
         13    1    3    3    0    0 -0.12555434414E+03 -0.41024476124E+03 -0.16738442253E+03  0.46052383474E+03  0.00000000000E+00 0. -1.
        -13    1    3    3    0    0 -0.50154835376E+02 -0.11103219148E+03 -0.11791412686E+03  0.16955057172E+03  0.00000000000E+00 0.  1.
          2    1    6    6  502    0 -0.14738439513E+03  0.30787569085E+03  0.14485730648E+03  0.37080080931E+03  0.00000000000E+00 0. -1.
          3    1    5    5  503    0  0.29843029374E+03 -0.67734474570E+02  0.33388865807E+03  0.45291305485E+03  0.00000000000E+00 0. -1.
         -4    1    5    5    0  503  0.84778761508E+02  0.92431181605E+01  0.14674512096E+03  0.16972626244E+03  0.00000000000E+00 0.  1.
         -1    1    6    6    0  502 -0.60115480605E+02  0.27189261828E+03  0.15497358045E+03  0.31867895682E+03  0.00000000000E+00 0.  1.
<mgrwt>
<rscale>  0 0.18780112E+04</rscale>
<asrwt>0</asrwt>
<pdfrwt beam="1">  1        2 0.11130980E+00 0.18780112E+04</pdfrwt>
<pdfrwt beam="2">  1       -2 0.18748920E+00 0.18780112E+04</pdfrwt>
<totfact> 0.59355017E+00</totfact>
</mgrwt>
</event>
<event>
12    1  0.1562393E-007  0.1603402E+04  0.7818608E-02  0.8818461E-01
         -2   -1    0    0    0  501 -0.00000000000E+00  0.00000000000E+00  0.63875980256E+03  0.63875980256E+03  0.00000000000E+00 0.  1.
          2   -1    0    0  501    0  0.00000000000E+00 -0.00000000000E+00 -0.10062065789E+04  0.10062065789E+04  0.00000000000E+00 0. -1.
         23    2    1    2    0    0  0.83755233405E+02 -0.26132536020E+03  0.35728318770E+03  0.46120739574E+03  0.98767923272E+02 0.  0.
        254    2    1    2    0    0 -0.83755233405E+02  0.26132536020E+03 -0.72472996402E+03  0.11837589857E+04  0.89484408277E+03 0.  0.
        -24    2    4    4    0    0  0.44851737455E+02  0.15179191661E+03  0.18442040453E+03  0.25571023234E+03  0.79525926692E+02 0.  0.
         24    2    4    4    0    0 -0.12860697086E+03  0.10953344359E+03 -0.90915036855E+03  0.92804875336E+03  0.78630577815E+02 0.  0.
         13    1    3    3    0    0 -0.17489214151E+02 -0.94613001318E+02  0.10698458112E+03  0.14388604251E+03  0.00000000000E+00 0. -1.
        -13    1    3    3    0    0  0.10124444756E+03 -0.16671235888E+03  0.25029860657E+03  0.31732135323E+03  0.00000000000E+00 0.  1.
          4    1    6    6  502    0  0.53526099581E+01  0.67313459429E+01 -0.15441664752E+03  0.15465594874E+03  0.00000000000E+00 0. -1.
          1    1    5    5  503    0  0.10424969275E+02  0.13439659900E+03  0.16324677481E+03  0.21170884557E+03  0.00000000000E+00 0. -1.
         -2    1    5    5    0  503  0.34426768180E+02  0.17395317614E+02  0.21173629711E+02  0.44001386767E+02  0.00000000000E+00 0.  1.
         -3    1    6    6    0  502 -0.13395958082E+03  0.10280209764E+03 -0.75473372103E+03  0.77339280462E+03  0.00000000000E+00 0.  1.
<mgrwt>
<rscale>  0 0.16034018E+04</rscale>
<asrwt>0</asrwt>
<pdfrwt beam="1">  1        2 0.15480101E+00 0.16034018E+04</pdfrwt>
<pdfrwt beam="2">  1       -2 0.98270740E-01 0.16034018E+04</pdfrwt>
<totfact> 0.20599963E+01</totfact>
</mgrwt>
</event>
<event>
12    1  0.1562393E-007  0.1405880E+04  0.7818608E-02  0.8949573E-01
         -2   -1    0    0    0  501 -0.00000000000E+00  0.00000000000E+00  0.68875067601E+03  0.68875067601E+03  0.00000000000E+00 0.  1.
          2   -1    0    0  501    0  0.00000000000E+00 -0.00000000000E+00 -0.71742194898E+03  0.71742194898E+03  0.00000000000E+00 0. -1.
         23    2    1    2    0    0 -0.27536204434E+03  0.75513172098E+02  0.28628755202E+03  0.41414567793E+03  0.89607954351E+02 0.  0.
        254    2    1    2    0    0  0.27536204434E+03 -0.75513172098E+02 -0.31495882498E+03  0.99202694706E+03  0.89632131942E+03 0.  0.
        -24    2    4    4    0    0 -0.76304920556E+02  0.35905292795E+03 -0.11159634927E+03  0.39185203906E+03  0.79704638338E+02 0.  0.
         24    2    4    4    0    0  0.35166696489E+03 -0.43456610005E+03 -0.20336247571E+03  0.60017490800E+03  0.79600717093E+02 0.  0.
         13    1    3    3    0    0 -0.84157725645E+02  0.52176789040E+01  0.36662283496E+02  0.91944929115E+02  0.00000000000E+00 0. -1.
        -13    1    3    3    0    0 -0.19120431869E+03  0.70295493194E+02  0.24962526852E+03  0.32220074881E+03  0.00000000000E+00 0.  1.
          2    1    6    6  502    0  0.49206640183E+02 -0.10721115502E+03 -0.57401599176E+02  0.13118867629E+03  0.00000000000E+00 0. -1.
          1    1    5    5  503    0  0.42891142397E+00  0.18010724564E+03 -0.40757153327E+02  0.18466171624E+03  0.00000000000E+00 0. -1.
         -2    1    5    5    0  503 -0.76733831980E+02  0.17894568231E+03 -0.70839195943E+02  0.20719032282E+03  0.00000000000E+00 0.  1.
         -1    1    6    6    0  502  0.30246032471E+03 -0.32735494503E+03 -0.14596087653E+03  0.46898623172E+03  0.00000000000E+00 0.  1.
<mgrwt>
<rscale>  0 0.14058803E+04</rscale>
<asrwt>0</asrwt>
<pdfrwt beam="1">  1        2 0.11037261E+00 0.14058803E+04</pdfrwt>
<pdfrwt beam="2">  1       -2 0.10596164E+00 0.14058803E+04</pdfrwt>
<totfact> 0.27786775E+01</totfact>
</mgrwt>
</event>
<event>
12    1  0.1562393E-007  0.1145222E+04  0.7818608E-02  0.9162203E-01
         -2   -1    0    0    0  501 -0.00000000000E+00  0.00000000000E+00  0.76816090209E+03  0.76816090209E+03  0.00000000000E+00 0.  1.
          2   -1    0    0  501    0  0.00000000000E+00 -0.00000000000E+00 -0.42684209363E+03  0.42684209363E+03  0.00000000000E+00 0. -1.
         23    2    1    2    0    0  0.43954426574E+02 -0.17855059207E+03 -0.36163152734E+02  0.21109529242E+03  0.97165545957E+02 0.  0.
        254    2    1    2    0    0 -0.43954426574E+02  0.17855059207E+03  0.37748196119E+03  0.98390770329E+03  0.88981426828E+03 0.  0.
        -24    2    4    4    0    0 -0.17303918320E+03 -0.32625722502E+03  0.19112439308E+03  0.42359715667E+03  0.80744545956E+02 0.  0.
         24    2    4    4    0    0  0.12908475663E+03  0.50480781709E+03  0.18635756811E+03  0.56031054663E+03  0.87891745214E+02 0.  0.
         13    1    3    3    0    0  0.43115941860E+02 -0.19012234784E+03 -0.39730206922E+02  0.19895723393E+03  0.00000000000E+00 0. -1.
        -13    1    3    3    0    0  0.83848471378E+00  0.11571755772E+02  0.35670541879E+01  0.12138058487E+02  0.00000000000E+00 0.  1.
          2    1    6    6  502    0 -0.41318097942E+01  0.13415219303E+03  0.38832286994E+02  0.13972053987E+03  0.00000000000E+00 0. -1.
          1    1    5    5  503    0 -0.44247118920E+02 -0.16221868291E+03  0.10301267661E+03  0.19719107525E+03  0.00000000000E+00 0. -1.
         -2    1    5    5    0  503 -0.12879206428E+03 -0.16403854212E+03  0.88111716476E+02  0.22640608142E+03  0.00000000000E+00 0.  1.
         -1    1    6    6    0  502  0.13321656642E+03  0.37065562406E+03  0.14752528112E+03  0.42059000676E+03  0.00000000000E+00 0.  1.
<mgrwt>
<rscale>  0 0.11452221E+04</rscale>
<asrwt>0</asrwt>
<pdfrwt beam="1">  1        2 0.65668014E-01 0.11452221E+04</pdfrwt>
<pdfrwt beam="2">  1       -2 0.11817860E+00 0.11452221E+04</pdfrwt>
<totfact> 0.40329924E+01</totfact>
</mgrwt>
</event>
<event>
12    1  0.1562393E-007  0.4045936E+04  0.7818608E-02  0.7995343E-01
          1   -1    0    0  501    0  0.00000000000E+00  0.00000000000E+00  0.29113499021E+04  0.29113499021E+04  0.00000000000E+00 0. -1.
         -1   -1    0    0    0  501 -0.00000000000E+00 -0.00000000000E+00 -0.14056711363E+04  0.14056711363E+04  0.00000000000E+00 0.  1.
         23    2    1    2    0    0 -0.16463395423E+04 -0.97957563270E+03  0.53336866629E+03  0.19906414316E+04  0.90381779487E+02 0.  0.
        254    2    1    2    0    0  0.16463395423E+04  0.97957563270E+03  0.97231009957E+03  0.23263796068E+04  0.89255410843E+03 0.  0.
        -24    2    4    4    0    0  0.99066635563E+03  0.50757178297E+03  0.10216279046E+04  0.15129732172E+04  0.79469725834E+02 0.  0.
         24    2    4    4    0    0  0.65567318671E+03  0.47200384973E+03 -0.49317805080E+02  0.81340638964E+03  0.80639611078E+02 0.  0.
         13    1    3    3    0    0 -0.35473839221E+02 -0.70603498967E+01  0.88809411308E+01  0.37243964949E+02  0.00000000000E+00 0.  1.
        -13    1    3    3    0    0 -0.16108657031E+04 -0.97251528281E+03  0.52448772516E+03  0.19533974666E+04  0.00000000000E+00 0. -1.
          4    1    6    6  502    0  0.32580924304E+03  0.19575128573E+03 -0.48250413284E+02  0.38314270331E+03  0.00000000000E+00 0. -1.
          3    1    5    5  503    0  0.55709858449E+03  0.29500215246E+03  0.63030625215E+03  0.89144325355E+03  0.00000000000E+00 0. -1.
         -4    1    5    5    0  503  0.43356777114E+03  0.21256963052E+03  0.39132165249E+03  0.62152996364E+03  0.00000000000E+00 0.  1.
         -3    1    6    6    0  502  0.32986394367E+03  0.27625256400E+03 -0.10673917961E+01  0.43026368633E+03  0.00000000000E+00 0.  1.
<mgrwt>
<rscale>  0 0.40459365E+04</rscale>
<asrwt>0</asrwt>
<pdfrwt beam="1">  1        1 0.44789998E+00 0.40459365E+04</pdfrwt>
<pdfrwt beam="2">  1       -1 0.21625710E+00 0.40459365E+04</pdfrwt>
<totfact> 0.63014648E-02</totfact>
</mgrwt>
</event>
<event>
12    1  0.1562393E-007  0.1927955E+04  0.7818608E-02  0.8641065E-01
          1   -1    0    0  501    0  0.00000000000E+00  0.00000000000E+00  0.43938818075E+03  0.43938818075E+03  0.00000000000E+00 0. -1.
         -1   -1    0    0    0  501 -0.00000000000E+00 -0.00000000000E+00 -0.21148788809E+04  0.21148788809E+04  0.00000000000E+00 0.  1.
         23    2    1    2    0    0 -0.85305343881E+02  0.20846031858E+03 -0.16096210244E+04  0.16274040884E+04  0.82653000537E+02 0.  0.
        254    2    1    2    0    0  0.85305343881E+02 -0.20846031858E+03 -0.65869675748E+02  0.92686297329E+03  0.89666239520E+03 0.  0.
        -24    2    4    4    0    0  0.14202249211E+03  0.25823408531E+03  0.21524595008E+03  0.37328036080E+03  0.78435818657E+02 0.  0.
         24    2    4    4    0    0 -0.56717148232E+02 -0.46669440389E+03 -0.28111562583E+03  0.55358261250E+03  0.80045063868E+02 0.  0.
         11    1    3    3    0    0  0.13194595042E+02  0.54993430056E+01 -0.10225161196E+03  0.10324597939E+03  0.00000000000E+00 0. -1.
        -11    1    3    3    0    0 -0.98499938923E+02  0.20296097557E+03 -0.15073694125E+04  0.15241581090E+04  0.00000000000E+00 0.  1.
          2    1    6    6  502    0 -0.29789842278E+02 -0.42056055994E+03 -0.26418536712E+03  0.49754650785E+03  0.00000000000E+00 0. -1.
          3    1    5    5  503    0  0.12349013810E+03  0.14602086290E+03  0.13509519256E+03  0.23414230216E+03  0.00000000000E+00 0. -1.
         -4    1    5    5    0  503  0.18532354012E+02  0.11221322241E+03  0.80150757525E+02  0.13913805863E+03  0.00000000000E+00 0.  1.
         -1    1    6    6    0  502 -0.26927305955E+02 -0.46133843948E+02 -0.16930258713E+02  0.56036104642E+02  0.00000000000E+00 0.  1.
<mgrwt>
<rscale>  0 0.19279552E+04</rscale>
<asrwt>0</asrwt>
<pdfrwt beam="1">  1        1 0.67598182E-01 0.19279552E+04</pdfrwt>
<pdfrwt beam="2">  1       -1 0.32536598E+00 0.19279552E+04</pdfrwt>
<totfact> 0.11159456E+00</totfact>
</mgrwt>
</event>
<event>
12    1  0.1562393E-007  0.9730005E+03  0.7818608E-02  0.9338663E-01
          2   -1    0    0  501    0  0.00000000000E+00  0.00000000000E+00  0.65710336403E+03  0.65710336403E+03  0.00000000000E+00 0. -1.
         -2   -1    0    0    0  501 -0.00000000000E+00 -0.00000000000E+00 -0.36019063673E+03  0.36019063673E+03  0.00000000000E+00 0.  1.
         23    2    1    2    0    0 -0.12875574449E+02  0.12906070293E+02  0.13859247642E+03  0.16890198898E+03  0.94803271537E+02 0.  0.
        254    2    1    2    0    0  0.12875574449E+02 -0.12906070293E+02  0.15832025088E+03  0.84839201179E+03  0.83328947957E+03 0.  0.
        -24    2    4    4    0    0 -0.18701948121E+02 -0.37918777741E+03 -0.89438976355E+02  0.39812154456E+03  0.79801631257E+02 0.  0.
         24    2    4    4    0    0  0.31577522570E+02  0.36628170711E+03  0.24775922724E+03  0.45027046723E+03  0.78736459675E+02 0.  0.
         11    1    3    3    0    0 -0.19686282702E+02  0.40935080535E+01 -0.81799699441E+01  0.21707566494E+02  0.00000000000E+00 0.  1.
        -11    1    3    3    0    0  0.68107082532E+01  0.88125622393E+01  0.14677244636E+03  0.14719442248E+03  0.00000000000E+00 0. -1.
          4    1    6    6  502    0  0.12162176453E+02  0.35000721131E+03  0.22541967513E+03  0.41649369316E+03  0.00000000000E+00 0. -1.
          1    1    5    5  503    0  0.20020305244E+02 -0.25132395630E+03 -0.78581436546E+02  0.26408253596E+03  0.00000000000E+00 0. -1.
         -2    1    5    5    0  503 -0.38722253365E+02 -0.12786382111E+03 -0.10857539809E+02  0.13403900859E+03  0.00000000000E+00 0.  1.
         -3    1    6    6    0  502  0.19415346117E+02  0.16274495804E+02  0.22339552102E+02  0.33776774071E+02  0.00000000000E+00 0.  1.
<mgrwt>
<rscale>  0 0.97300047E+03</rscale>
<asrwt>0</asrwt>
<pdfrwt beam="1">  1        2 0.10109282E+00 0.97300047E+03</pdfrwt>
<pdfrwt beam="2">  1       -2 0.55413944E-01 0.97300047E+03</pdfrwt>
<totfact> 0.13580033E+02</totfact>
</mgrwt>
</event>
<event>
12    1  0.1562393E-007  0.1124168E+04  0.7818608E-02  0.9181952E-01
          1   -1    0    0  501    0  0.00000000000E+00  0.00000000000E+00  0.22901090614E+03  0.22901090614E+03  0.00000000000E+00 0. -1.
         -1   -1    0    0    0  501 -0.00000000000E+00 -0.00000000000E+00 -0.13795768443E+04  0.13795768443E+04  0.00000000000E+00 0.  1.
         23    2    1    2    0    0  0.91502253686E+02  0.58906223815E+02 -0.39892486925E+03  0.42326521574E+03  0.90386868058E+02 0.  0.
        254    2    1    2    0    0 -0.91502253686E+02 -0.58906223815E+02 -0.75164106887E+03  0.11853225347E+04  0.91004538851E+03 0.  0.
        -24    2    4    4    0    0 -0.20663570805E+03  0.12815616198E+03 -0.88125111854E+03  0.91776537200E+03  0.81039659474E+02 0.  0.
         24    2    4    4    0    0  0.11513345436E+03 -0.18706238580E+03  0.12961004968E+03  0.26755716267E+03  0.80870401403E+02 0.  0.
         11    1    3    3    0    0  0.20704467091E+02 -0.24465780864E+02 -0.86360468949E+02  0.92116122301E+02  0.00000000000E+00 0. -1.
        -11    1    3    3    0    0  0.70797786595E+02  0.83372004679E+02 -0.31256440030E+03  0.33114909344E+03  0.00000000000E+00 0.  1.
          2    1    6    6  502    0  0.91993811257E+02 -0.15765994529E+03  0.66660441640E+02  0.19432738906E+03  0.00000000000E+00 0. -1.
          1    1    5    5  503    0 -0.17946669853E+03  0.13783310516E+03 -0.75058277156E+03  0.78395201239E+03  0.00000000000E+00 0. -1.
         -2    1    5    5    0  503 -0.27169009514E+02 -0.96769431743E+01 -0.13066834698E+03  0.13381335961E+03  0.00000000000E+00 0.  1.
         -1    1    6    6    0  502  0.23139643106E+02 -0.29402440509E+02  0.62949608036E+02  0.73229773609E+02  0.00000000000E+00 0.  1.
<mgrwt>
<rscale>  0 0.11241675E+04</rscale>
<asrwt>0</asrwt>
<pdfrwt beam="1">  1        1 0.35232446E-01 0.11241675E+04</pdfrwt>
<pdfrwt beam="2">  1       -1 0.21224260E+00 0.11241675E+04</pdfrwt>
<totfact> 0.15415196E+01</totfact>
</mgrwt>
</event>
<event>
12    1  0.1562393E-007  0.1494020E+04  0.7818608E-02  0.8888439E-01
         -2   -1    0    0    0  501 -0.00000000000E+00  0.00000000000E+00  0.35847682064E+03  0.35847682064E+03  0.00000000000E+00 0.  1.
          2   -1    0    0  501    0  0.00000000000E+00 -0.00000000000E+00 -0.15566526865E+04  0.15566526865E+04  0.00000000000E+00 0. -1.
         23    2    1    2    0    0  0.43071892262E+03  0.63261984155E+02 -0.16213825309E+03  0.47333423236E+03  0.90750280801E+02 0.  0.
        254    2    1    2    0    0 -0.43071892262E+03 -0.63261984155E+02 -0.10360376127E+04  0.14417952747E+04  0.90326010114E+03 0.  0.
        -24    2    4    4    0    0  0.74137275045E+02 -0.26408212476E+01 -0.90360751637E+03  0.91030565160E+03  0.81526230233E+02 0.  0.
         24    2    4    4    0    0 -0.50485619766E+03 -0.60621162907E+02 -0.13243009636E+03  0.53148962313E+03  0.79929865278E+02 0.  0.
         11    1    3    3    0    0  0.38149449489E+03  0.79171547616E+02 -0.12337190130E+03  0.40868913567E+03  0.00000000000E+00 0.  1.
        -11    1    3    3    0    0  0.49224427730E+02 -0.15909563462E+02 -0.38766351791E+02  0.64645096690E+02  0.00000000000E+00 0. -1.
          4    1    6    6  502    0 -0.27154176329E+03 -0.93750140006E+01 -0.10400055158E+03  0.29092771409E+03  0.00000000000E+00 0. -1.
          3    1    5    5  503    0  0.52075554259E+02  0.33613777970E+02 -0.67113567177E+03  0.67399172053E+03  0.00000000000E+00 0. -1.
         -4    1    5    5    0  503  0.22061720786E+02 -0.36254599218E+02 -0.23247184460E+03  0.23631393107E+03  0.00000000000E+00 0.  1.
         -3    1    6    6    0  502 -0.23331443437E+03 -0.51246148906E+02 -0.28429544787E+02  0.24056190904E+03  0.00000000000E+00 0.  1.
<mgrwt>
<rscale>  0 0.14940200E+04</rscale>
<asrwt>0</asrwt>
<pdfrwt beam="1">  1        2 0.23948503E+00 0.14940200E+04</pdfrwt>
<pdfrwt beam="2">  1       -2 0.55150281E-01 0.14940200E+04</pdfrwt>
<totfact> 0.35237143E+01</totfact>
</mgrwt>
</event>
<event>
12    1  0.1562393E-007  0.1432397E+04  0.7818608E-02  0.8930696E-01
         -2   -1    0    0    0  501 -0.00000000000E+00  0.00000000000E+00  0.34451564231E+03  0.34451564231E+03  0.00000000000E+00 0. -1.
          2   -1    0    0  501    0  0.00000000000E+00 -0.00000000000E+00 -0.14888746336E+04  0.14888746336E+04  0.00000000000E+00 0.  1.
         23    2    1    2    0    0 -0.31165169617E+03 -0.20060141988E+03 -0.78956317537E+02  0.38992631159E+03  0.91873385724E+02 0.  0.
        254    2    1    2    0    0  0.31165169617E+03  0.20060141988E+03 -0.10654026737E+04  0.14434639643E+04  0.90063180583E+03 0.  0.
        -24    2    4    4    0    0  0.49903884143E+03  0.42468656539E+03 -0.62593849708E+03  0.90971260999E+03  0.79872314119E+02 0.  0.
         24    2    4    4    0    0 -0.18738714526E+03 -0.22408514551E+03 -0.43946417666E+03  0.53375135432E+03  0.80210043196E+02 0.  0.
         11    1    3    3    0    0 -0.11567332761E+03 -0.96579822905E+02  0.96813987527E+01  0.15100235228E+03  0.00000000000E+00 0. -1.
        -11    1    3    3    0    0 -0.19597836856E+03 -0.10402159698E+03 -0.88637716290E+02  0.23892395931E+03  0.00000000000E+00 0.  1.
          4    1    6    6  502    0 -0.45478478575E+02 -0.12623836921E+02 -0.53516976657E+02  0.71356289580E+02  0.00000000000E+00 0. -1.
          1    1    5    5  503    0  0.55279533625E+02  0.18912254482E+02 -0.46752222677E+02  0.74828273618E+02  0.00000000000E+00 0. -1.
         -2    1    5    5    0  503  0.44375930781E+03  0.40577431091E+03 -0.57918627440E+03  0.83488433637E+03  0.00000000000E+00 0.  1.
         -1    1    6    6    0  502 -0.14190866669E+03 -0.21146130859E+03 -0.38594720000E+03  0.46239506474E+03  0.00000000000E+00 0.  1.
<mgrwt>
<rscale>  0 0.14323974E+04</rscale>
<asrwt>0</asrwt>
<pdfrwt beam="1">  1        2 0.22905763E+00 0.14323974E+04</pdfrwt>
<pdfrwt beam="2">  1       -2 0.53002407E-01 0.14323974E+04</pdfrwt>
<totfact> 0.41973393E+01</totfact>
</mgrwt>
</event>
<event>
12    1  0.1562393E-007  0.1525145E+04  0.7818608E-02  0.8867902E-01
         -2   -1    0    0    0  501 -0.00000000000E+00  0.00000000000E+00  0.16866738720E+03  0.16866738720E+03  0.00000000000E+00 0.  1.
          2   -1    0    0  501    0  0.00000000000E+00 -0.00000000000E+00 -0.34477151473E+04  0.34477151473E+04  0.00000000000E+00 0. -1.
         23    2    1    2    0    0 -0.39787359307E+03 -0.25510106208E+03 -0.83408381779E+03  0.96341741561E+03  0.95380048581E+02 0.  0.
        254    2    1    2    0    0  0.39787359307E+03  0.25510106208E+03 -0.24449639423E+04  0.26529651189E+04  0.91487446948E+03 0.  0.
        -24    2    4    4    0    0  0.53558386365E+03  0.48557667166E+03 -0.14965770949E+04  0.16639500365E+04  0.79699083610E+02 0.  0.
         24    2    4    4    0    0 -0.13771027059E+03 -0.23047560959E+03 -0.94838684748E+03  0.98901508245E+03  0.81425398973E+02 0.  0.
         13    1    3    3    0    0 -0.33768025192E+03 -0.21892548838E+03 -0.76766680856E+03  0.86675755028E+03  0.00000000000E+00 0.  1.
        -13    1    3    3    0    0 -0.60193341148E+02 -0.36175573700E+02 -0.66417009232E+02  0.96659865334E+02  0.00000000000E+00 0. -1.
          2    1    6    6  502    0 -0.10557372541E+02 -0.91238995916E+02 -0.32607351678E+03  0.33876238108E+03  0.00000000000E+00 0. -1.
          1    1    5    5  503    0  0.19824529936E+03  0.22553968753E+03 -0.66431466620E+03  0.72902902899E+03  0.00000000000E+00 0. -1.
         -2    1    5    5    0  503  0.33733856430E+03  0.26003698413E+03 -0.83226242866E+03  0.93492100748E+03  0.00000000000E+00 0.  1.
         -1    1    6    6    0  502 -0.12715289805E+03 -0.13923661367E+03 -0.62231333070E+03  0.65025270137E+03  0.00000000000E+00 0.  1.
<mgrwt>
<rscale>  0 0.15251454E+04</rscale>
<asrwt>0</asrwt>
<pdfrwt beam="1">  1        2 0.53041766E+00 0.15251454E+04</pdfrwt>
<pdfrwt beam="2">  1       -2 0.25948831E-01 0.15251454E+04</pdfrwt>
<totfact> 0.11575101E+01</totfact>
</mgrwt>
</event>
<event>
12    1  0.1562393E-007  0.1652779E+04  0.7818608E-02  0.8788764E-01
         -2   -1    0    0    0  501 -0.00000000000E+00  0.00000000000E+00  0.70877538488E+03  0.70877538488E+03  0.00000000000E+00 0.  1.
          2   -1    0    0  501    0  0.00000000000E+00 -0.00000000000E+00 -0.96352049602E+03  0.96352049602E+03  0.00000000000E+00 0. -1.
         23    2    1    2    0    0 -0.23222731359E+03 -0.14172425522E+03 -0.60482451143E+03  0.66851519600E+03  0.84169994388E+02 0.  0.
        254    2    1    2    0    0  0.23222731359E+03  0.14172425522E+03  0.35007940030E+03  0.10037806849E+04  0.90055804209E+03 0.  0.
        -24    2    4    4    0    0  0.54343665301E+03 -0.63711222928E+02  0.26040082779E+03  0.61101568675E+03  0.78415958713E+02 0.  0.
         24    2    4    4    0    0 -0.31120933942E+03  0.20543547814E+03  0.89678572506E+02  0.39276499815E+03  0.84658778538E+02 0.  0.
         13    1    3    3    0    0 -0.19759464100E+03 -0.13976509252E+03 -0.46221602946E+03  0.52174858038E+03  0.00000000000E+00 0. -1.
        -13    1    3    3    0    0 -0.34632672593E+02 -0.19591626971E+01 -0.14260848197E+03  0.14676661562E+03  0.00000000000E+00 0.  1.
          2    1    6    6  502    0 -0.19571942894E+03  0.16397407863E+03  0.87926463322E+02  0.27004565592E+03  0.00000000000E+00 0. -1.
          3    1    5    5  503    0  0.24449594825E+03 -0.65882929030E+02  0.13342615501E+03  0.28621909071E+03  0.00000000000E+00 0. -1.
         -4    1    5    5    0  503  0.29894070476E+03  0.21717061028E+01  0.12697467278E+03  0.32479659604E+03  0.00000000000E+00 0.  1.
         -1    1    6    6    0  502 -0.11548991047E+03  0.41461399516E+02  0.17521091841E+01  0.12271934223E+03  0.00000000000E+00 0.  1.
<mgrwt>
<rscale>  0 0.16527790E+04</rscale>
<asrwt>0</asrwt>
<pdfrwt beam="1">  1        2 0.14823392E+00 0.16527790E+04</pdfrwt>
<pdfrwt beam="2">  1       -2 0.10904237E+00 0.16527790E+04</pdfrwt>
<totfact> 0.17050692E+01</totfact>
</mgrwt>
</event>
<event>
12    1  0.1562393E-007  0.2111807E+04  0.7818608E-02  0.8556060E-01
         -1   -1    0    0    0  501 -0.00000000000E+00  0.00000000000E+00  0.33534146318E+03  0.33534146318E+03  0.00000000000E+00 0.  1.
          1   -1    0    0  501    0  0.00000000000E+00 -0.00000000000E+00 -0.33247682486E+04  0.33247682486E+04  0.00000000000E+00 0. -1.
         23    2    1    2    0    0 -0.34134481353E+03 -0.49394639058E+03 -0.22941101924E+04  0.23730239666E+04  0.88328096208E+02 0.  0.
        254    2    1    2    0    0  0.34134481353E+03  0.49394639058E+03 -0.69531659303E+03  0.12870857452E+04  0.90145728269E+03 0.  0.
        -24    2    4    4    0    0  0.43307551980E+03  0.26632209064E+03 -0.84436931575E+03  0.98879701480E+03  0.79234672321E+02 0.  0.
         24    2    4    4    0    0 -0.91730706270E+02  0.22762429994E+03  0.14905272272E+03  0.29828873042E+03  0.80821458460E+02 0.  0.
         11    1    3    3    0    0 -0.83439209957E+02 -0.74693059346E+02 -0.51804825869E+03  0.53001429528E+03  0.00000000000E+00 0. -1.
        -11    1    3    3    0    0 -0.25790560357E+03 -0.41925333123E+03 -0.17760619337E+04  0.18430096713E+04  0.00000000000E+00 0.  1.
          2    1    6    6  502    0 -0.85811234147E+02  0.23290622086E+03  0.15042815569E+03  0.29023698187E+03  0.00000000000E+00 0. -1.
          3    1    5    5  503    0  0.27033984375E+03  0.15115173215E+03 -0.58190377577E+03  0.65919836279E+03  0.00000000000E+00 0. -1.
         -2    1    5    5    0  503  0.16273567604E+03  0.11517035849E+03 -0.26246553998E+03  0.32959865201E+03  0.00000000000E+00 0.  1.
         -1    1    6    6    0  502 -0.59194721237E+01 -0.52819209168E+01 -0.13754329743E+01  0.80517485468E+01  0.00000000000E+00 0.  1.
<mgrwt>
<rscale>  0 0.21118074E+04</rscale>
<asrwt>0</asrwt>
<pdfrwt beam="1">  1        1 0.51150283E+00 0.21118074E+04</pdfrwt>
<pdfrwt beam="2">  1       -1 0.51590992E-01 0.21118074E+04</pdfrwt>
<totfact> 0.11905643E+00</totfact>
</mgrwt>
</event>
<event>
12    1  0.1562393E-007  0.1489737E+04  0.7818608E-02  0.8891306E-01
          2   -1    0    0  501    0  0.00000000000E+00  0.00000000000E+00  0.18737332479E+04  0.18737332479E+04  0.00000000000E+00 0. -1.
         -2   -1    0    0    0  501 -0.00000000000E+00 -0.00000000000E+00 -0.29610896723E+03  0.29610896723E+03  0.00000000000E+00 0.  1.
         23    2    1    2    0    0  0.28415515691E+01 -0.36590509537E+03  0.67671035708E+02  0.38294273138E+03  0.90394431292E+02 0.  0.
        254    2    1    2    0    0 -0.28415515691E+01  0.36590509537E+03  0.15099532450E+04  0.17868994838E+04  0.88269833456E+03 0.  0.
        -24    2    4    4    0    0  0.11606870920E+02  0.88243029838E+02  0.14926281403E+04  0.14974138318E+04  0.79924131224E+02 0.  0.
         24    2    4    4    0    0 -0.14448422489E+02  0.27766206553E+03  0.17325104735E+02  0.28948565200E+03  0.78719780933E+02 0.  0.
         13    1    3    3    0    0  0.24788873418E+02 -0.34714604187E+03  0.61599480783E+02  0.35343932812E+03  0.00000000000E+00 0.  1.
        -13    1    3    3    0    0 -0.21947321849E+02 -0.18759053506E+02  0.60715549252E+01  0.29503403261E+02  0.00000000000E+00 0. -1.
          4    1    6    6  502    0 -0.31342016388E+02  0.21972613038E+03 -0.12233030418E+02  0.22228706980E+03  0.00000000000E+00 0. -1.
          1    1    5    5  503    0  0.32463575376E+02  0.88055907806E+02  0.10147128457E+04  0.10190436134E+04  0.00000000000E+00 0. -1.
         -2    1    5    5    0  503 -0.20856704456E+02  0.18712203276E+00  0.47791529452E+03  0.47837021842E+03  0.00000000000E+00 0.  1.
         -3    1    6    6    0  502  0.16893593898E+02  0.57935935150E+02  0.29558135153E+02  0.67198582204E+02  0.00000000000E+00 0.  1.
<mgrwt>
<rscale>  0 0.14897372E+04</rscale>
<asrwt>0</asrwt>
<pdfrwt beam="1">  1        2 0.28826665E+00 0.14897372E+04</pdfrwt>
<pdfrwt beam="2">  1       -2 0.45555227E-01 0.14897372E+04</pdfrwt>
<totfact> 0.34699541E+01</totfact>
</mgrwt>
</event>
<event>
12    1  0.1562393E-007  0.1749243E+04  0.7818608E-02  0.8733767E-01
         -1   -1    0    0    0  501 -0.00000000000E+00  0.00000000000E+00  0.24020492821E+04  0.24020492821E+04  0.00000000000E+00 0.  1.
          1   -1    0    0  501    0  0.00000000000E+00 -0.00000000000E+00 -0.31846256932E+03  0.31846256932E+03  0.00000000000E+00 0. -1.
         23    2    1    2    0    0 -0.21407800881E+03  0.39680694928E+03  0.65961121609E+02  0.46719203525E+03  0.10311342970E+03 0.  0.
        254    2    1    2    0    0  0.21407800881E+03 -0.39680694928E+03  0.20176255912E+04  0.22533198162E+04  0.89629906781E+03 0.  0.
        -24    2    4    4    0    0  0.49861101360E+02 -0.59226968066E+03  0.76258536958E+03  0.97007496454E+03  0.78990422676E+02 0.  0.
         24    2    4    4    0    0  0.16421690745E+03  0.19546273137E+03  0.12550402216E+04  0.12832448517E+04  0.80115662463E+02 0.  0.
         11    1    3    3    0    0 -0.18267454436E+03  0.38561894272E+03  0.48182346190E+02  0.42941063870E+03  0.00000000000E+00 0. -1.
        -11    1    3    3    0    0 -0.31403464449E+02  0.11188006562E+02  0.17778775420E+02  0.37781396555E+02  0.00000000000E+00 0.  1.
          4    1    6    6  502    0  0.36274460952E+02  0.13070365128E+02  0.10576038991E+03  0.11256967192E+03  0.00000000000E+00 0. -1.
          3    1    5    5  503    0 -0.20433958650E+01 -0.60868779966E+01 -0.49308368838E+00  0.64396181510E+01  0.00000000000E+00 0. -1.
         -4    1    5    5    0  503  0.51904497225E+02 -0.58618280266E+03  0.76307845327E+03  0.96363534639E+03  0.00000000000E+00 0.  1.
         -3    1    6    6    0  502  0.12794244650E+03  0.18239236625E+03  0.11492798317E+04  0.11706751798E+04  0.00000000000E+00 0.  1.
<mgrwt>
<rscale>  0 0.17492430E+04</rscale>
<asrwt>0</asrwt>
<pdfrwt beam="1">  1        1 0.48994243E-01 0.17492430E+04</pdfrwt>
<pdfrwt beam="2">  1       -1 0.36954603E+00 0.17492430E+04</pdfrwt>
<totfact> 0.88707401E-01</totfact>
</mgrwt>
</event>
<event>
12    1  0.1562393E-007  0.1110291E+04  0.7818608E-02  0.9195219E-01
         -1   -1    0    0    0  501 -0.00000000000E+00  0.00000000000E+00  0.18626455713E+03  0.18626455713E+03  0.00000000000E+00 0.  1.
          1   -1    0    0  501    0  0.00000000000E+00 -0.00000000000E+00 -0.16545629497E+04  0.16545629497E+04  0.00000000000E+00 0. -1.
         23    2    1    2    0    0  0.84391886849E+02  0.13175282980E+03 -0.21725907736E+03  0.28465305832E+03  0.96669841143E+02 0.  0.
        254    2    1    2    0    0 -0.84391886849E+02 -0.13175282980E+03 -0.12510393152E+04  0.15561744485E+04  0.91219446790E+03 0.  0.
        -24    2    4    4    0    0  0.34297184695E+03 -0.15003082746E+03 -0.95541810558E+03  0.10288381904E+04  0.74466962408E+02 0.  0.
         24    2    4    4    0    0 -0.42736373380E+03  0.18277997656E+02 -0.29562120959E+03  0.52733625812E+03  0.87850915727E+02 0.  0.
         11    1    3    3    0    0  0.80116839060E+02  0.99942502413E+02 -0.98362527523E+02  0.16150045978E+03  0.00000000000E+00 0.  1.
        -11    1    3    3    0    0  0.42750477887E+01  0.31810327391E+02 -0.11889654984E+03  0.12315259854E+03  0.00000000000E+00 0. -1.
          2    1    6    6  502    0 -0.13397006612E+03  0.22644600655E+02 -0.50345731697E+02  0.14489806505E+03  0.00000000000E+00 0. -1.
          1    1    5    5  503    0  0.34442645328E+03 -0.14454482602E+03 -0.95073745727E+03  0.10214815226E+04  0.00000000000E+00 0. -1.
         -2    1    5    5    0  503 -0.14546063279E+01 -0.54860014347E+01 -0.46806483095E+01  0.73566677176E+01  0.00000000000E+00 0.  1.
         -1    1    6    6    0  502 -0.29339366768E+03 -0.43666029993E+01 -0.24527547790E+03  0.38243819306E+03  0.00000000000E+00 0.  1.
<mgrwt>
<rscale>  0 0.11102908E+04</rscale>
<asrwt>0</asrwt>
<pdfrwt beam="1">  1        1 0.25454816E+00 0.11102908E+04</pdfrwt>
<pdfrwt beam="2">  1       -1 0.28656085E-01 0.11102908E+04</pdfrwt>
<totfact> 0.56391524E+01</totfact>
</mgrwt>
</event>
<event>
12    1  0.1562393E-007  0.1812199E+04  0.7818608E-02  0.8699839E-01
          1   -1    0    0  501    0  0.00000000000E+00  0.00000000000E+00  0.13811522334E+04  0.13811522334E+04  0.00000000000E+00 0. -1.
         -1   -1    0    0    0  501 -0.00000000000E+00 -0.00000000000E+00 -0.59444313114E+03  0.59444313114E+03  0.00000000000E+00 0.  1.
         23    2    1    2    0    0  0.30934119644E+03 -0.15699260767E+03 -0.34071261514E+03  0.49584384241E+03  0.97146154147E+02 0.  0.
        254    2    1    2    0    0 -0.30934119644E+03  0.15699260767E+03  0.11274217174E+04  0.14797515221E+04  0.89344623995E+03 0.  0.
        -24    2    4    4    0    0  0.25305118692E+03  0.17080970605E+03  0.70305374528E+03  0.77067548045E+03  0.80282429840E+02 0.  0.
         24    2    4    4    0    0 -0.56239238335E+03 -0.13817098379E+02  0.42436797210E+03  0.70907604165E+03  0.78895830319E+02 0.  0.
         11    1    3    3    0    0  0.29207335904E+03 -0.16861083426E+03 -0.33211532278E+03  0.47332552025E+03  0.00000000000E+00 0.  1.
        -11    1    3    3    0    0  0.17267837391E+02  0.11618226584E+02 -0.85972923584E+01  0.22518322162E+02  0.00000000000E+00 0. -1.
          4    1    6    6  502    0 -0.61899764684E+02 -0.22321741880E+02  0.32631748278E+02  0.73448431053E+02  0.00000000000E+00 0. -1.
          1    1    5    5  503    0  0.25583244142E+03  0.15684709953E+03  0.65328893541E+03  0.71891423956E+03  0.00000000000E+00 0. -1.
         -2    1    5    5    0  503 -0.27812545043E+01  0.13962606520E+02  0.49764809873E+02  0.51761240896E+02  0.00000000000E+00 0.  1.
         -3    1    6    6    0  502 -0.50049261867E+03  0.85046435014E+01  0.39173622382E+03  0.63562761060E+03  0.00000000000E+00 0.  1.
<mgrwt>
<rscale>  0 0.18121992E+04</rscale>
<asrwt>0</asrwt>
<pdfrwt beam="1">  1        1 0.21248496E+00 0.18121992E+04</pdfrwt>
<pdfrwt beam="2">  1       -1 0.91452790E-01 0.18121992E+04</pdfrwt>
<totfact> 0.87051342E+00</totfact>
</mgrwt>
</event>
<event>
12    1  0.1562393E-007  0.1841277E+04  0.7818608E-02  0.8684652E-01
          1   -1    0    0  501    0  0.00000000000E+00  0.00000000000E+00  0.27098639596E+04  0.27098639596E+04  0.00000000000E+00 0. -1.
         -1   -1    0    0    0  501 -0.00000000000E+00 -0.00000000000E+00 -0.31277399326E+03  0.31277399326E+03  0.00000000000E+00 0.  1.
         23    2    1    2    0    0  0.36853558044E+03  0.48159930352E+03  0.53173996645E+03  0.81279841945E+03  0.10068522999E+03 0.  0.
        254    2    1    2    0    0 -0.36853558044E+03 -0.48159930352E+03  0.18653499999E+04  0.22098395334E+04  0.10178918303E+04 0.  0.
        -24    2    4    4    0    0  0.33441785035E+03 -0.26712418432E+03  0.83144535364E+03  0.93882756790E+03  0.83097519098E+02 0.  0.
         24    2    4    4    0    0 -0.70295343079E+03 -0.21447511920E+03  0.10339046462E+04  0.12710119655E+04  0.79809124106E+02 0.  0.
         11    1    3    3    0    0  0.37143450190E+03  0.45917371577E+03  0.52184635618E+03  0.78811655858E+03  0.00000000000E+00 0.  1.
        -11    1    3    3    0    0 -0.28989214615E+01  0.22425587751E+02  0.98936102729E+01  0.24681860867E+02  0.00000000000E+00 0. -1.
          4    1    6    6  502    0 -0.48917439960E+03 -0.18544063554E+03  0.75030774978E+03  0.91468111487E+03  0.00000000000E+00 0. -1.
          1    1    5    5  503    0  0.33288685528E+03 -0.24403812025E+03  0.79178030717E+03  0.89290778772E+03  0.00000000000E+00 0. -1.
         -2    1    5    5    0  503  0.15309950673E+01 -0.23086064067E+02  0.39665046469E+02  0.45919780176E+02  0.00000000000E+00 0.  1.
         -3    1    6    6    0  502 -0.21377903119E+03 -0.29034483665E+02  0.28359689646E+03  0.35633085062E+03  0.00000000000E+00 0.  1.
<mgrwt>
<rscale>  0 0.18412767E+04</rscale>
<asrwt>0</asrwt>
<pdfrwt beam="1">  1        1 0.41690213E+00 0.18412767E+04</pdfrwt>
<pdfrwt beam="2">  1       -1 0.48119078E-01 0.18412767E+04</pdfrwt>
<totfact> 0.39266483E+00</totfact>
</mgrwt>
</event>
<event>
12    1  0.1562393E-007  0.1208527E+04  0.7818608E-02  0.9105425E-01
         -1   -1    0    0    0  501 -0.00000000000E+00  0.00000000000E+00  0.12679950242E+03  0.12679950242E+03  0.00000000000E+00 0.  1.
          1   -1    0    0  501    0  0.00000000000E+00 -0.00000000000E+00 -0.28796215311E+04  0.28796215311E+04  0.00000000000E+00 0. -1.
         23    2    1    2    0    0  0.32529534883E+03 -0.10835537969E+03 -0.51746024757E+03  0.62744334886E+03  0.91444496418E+02 0.  0.
        254    2    1    2    0    0 -0.32529534883E+03  0.10835537969E+03 -0.22353617811E+04  0.23789776846E+04  0.73833229603E+03 0.  0.
        -24    2    4    4    0    0 -0.37172665595E+03  0.34816818709E+03 -0.17944434468E+04  0.18670770132E+04  0.80916598646E+02 0.  0.
         24    2    4    4    0    0  0.46431307113E+02 -0.23981280741E+03 -0.44091833424E+03  0.51190067146E+03  0.89259571473E+02 0.  0.
         11    1    3    3    0    0  0.47126783431E+02  0.54321123163E+01 -0.12082417388E+03  0.12980339963E+03  0.00000000000E+00 0. -1.
        -11    1    3    3    0    0  0.27816856540E+03 -0.11378749200E+03 -0.39663607370E+03  0.49763994923E+03  0.00000000000E+00 0.  1.
          2    1    6    6  502    0  0.33395808421E+02 -0.83446099383E+02 -0.88538385072E+02  0.12616488082E+03  0.00000000000E+00 0. -1.
          1    1    5    5  503    0 -0.12437268425E+03  0.80129703674E+02 -0.61383304285E+03  0.63141138609E+03  0.00000000000E+00 0. -1.
         -2    1    5    5    0  503 -0.24735397170E+03  0.26803848342E+03 -0.11806104040E+04  0.12356656271E+04  0.00000000000E+00 0.  1.
         -1    1    6    6    0  502  0.13035498693E+02 -0.15636670802E+03 -0.35237994917E+03  0.38573579064E+03  0.00000000000E+00 0.  1.
<mgrwt>
<rscale>  0 0.12085273E+04</rscale>
<asrwt>0</asrwt>
<pdfrwt beam="1">  1        1 0.44301869E+00 0.12085273E+04</pdfrwt>
<pdfrwt beam="2">  1       -1 0.19507616E-01 0.12085273E+04</pdfrwt>
<totfact> 0.15586526E+01</totfact>
</mgrwt>
</event>
<event>
12    1  0.1562393E-007  0.1406865E+04  0.7818608E-02  0.8948864E-01
          2   -1    0    0  501    0  0.00000000000E+00  0.00000000000E+00  0.10664868834E+04  0.10664868834E+04  0.00000000000E+00 0. -1.
         -2   -1    0    0    0  501 -0.00000000000E+00 -0.00000000000E+00 -0.46396965267E+03  0.46396965267E+03  0.00000000000E+00 0.  1.
         23    2    1    2    0    0  0.29194758808E+03 -0.14714798812E+03  0.45478704509E+03  0.56734495067E+03  0.90349942314E+02 0.  0.
        254    2    1    2    0    0 -0.29194758808E+03  0.14714798812E+03  0.14773018567E+03  0.96311158544E+03  0.89379740079E+03 0.  0.
        -24    2    4    4    0    0  0.14513214780E+03 -0.22719908114E+03 -0.14047028140E+03  0.31457514864E+03  0.80887955802E+02 0.  0.
         24    2    4    4    0    0 -0.43707973588E+03  0.37434706925E+03  0.28820046707E+03  0.64853643679E+03  0.79784565301E+02 0.  0.
         11    1    3    3    0    0  0.29148473737E+03 -0.12554444190E+03  0.43042260454E+03  0.53477881176E+03  0.00000000000E+00 0. -1.
        -11    1    3    3    0    0  0.46285071143E+00 -0.21603546220E+02  0.24364440545E+02  0.32566138904E+02  0.00000000000E+00 0.  1.
          2    1    6    6  502    0 -0.34512484867E+03  0.26336803426E+03  0.24285655405E+03  0.49744666898E+03  0.00000000000E+00 0. -1.
          1    1    5    5  503    0  0.23518170539E+02 -0.34435327328E+01 -0.26406768678E+02  0.35528575755E+02  0.00000000000E+00 0. -1.
         -2    1    5    5    0  503  0.12161397726E+03 -0.22375554840E+03 -0.11406351272E+03  0.27904657289E+03  0.00000000000E+00 0.  1.
         -1    1    6    6    0  502 -0.91954887207E+02  0.11097903499E+03  0.45343913021E+02  0.15108976781E+03  0.00000000000E+00 0.  1.
<mgrwt>
<rscale>  0 0.14068654E+04</rscale>
<asrwt>0</asrwt>
<pdfrwt beam="1">  1        2 0.16407490E+00 0.14068654E+04</pdfrwt>
<pdfrwt beam="2">  1       -2 0.71379947E-01 0.14068654E+04</pdfrwt>
<totfact> 0.39611511E+01</totfact>
</mgrwt>
</event>
<event>
12    1  0.1562393E-007  0.2367097E+04  0.7818608E-02  0.8451926E-01
          2   -1    0    0  501    0  0.00000000000E+00  0.00000000000E+00  0.15559320562E+04  0.15559320562E+04  0.00000000000E+00 0. -1.
         -2   -1    0    0    0  501 -0.00000000000E+00 -0.00000000000E+00 -0.90028788804E+03  0.90028788804E+03  0.00000000000E+00 0.  1.
         23    2    1    2    0    0 -0.86758812301E+03 -0.38062657034E+02 -0.25969628950E+03  0.91111977403E+03  0.92407590550E+02 0.  0.
        254    2    1    2    0    0  0.86758812301E+03  0.38062657034E+02  0.91534045769E+03  0.15451001702E+04  0.89181190033E+03 0.  0.
        -24    2    4    4    0    0  0.87710352915E+03 -0.27371133498E+03  0.68352782438E+03  0.11479424318E+04  0.79580427074E+02 0.  0.
         24    2    4    4    0    0 -0.95154061400E+01  0.31177399202E+03  0.23181263331E+03  0.39715773841E+03  0.81875559013E+02 0.  0.
         13    1    3    3    0    0 -0.45970012257E+03 -0.73388618328E+01 -0.18357645063E+03  0.49505391101E+03  0.00000000000E+00 0.  1.
        -13    1    3    3    0    0 -0.40788800044E+03 -0.30723795201E+02 -0.76119838874E+02  0.41606586301E+03  0.00000000000E+00 0. -1.
          4    1    6    6  502    0  0.77463317269E+00  0.74002963560E+02  0.10213046891E+03  0.12612561735E+03  0.00000000000E+00 0. -1.
          1    1    5    5  503    0  0.78320402776E+02 -0.22517591571E+02  0.34417919962E+02  0.88463103245E+02  0.00000000000E+00 0. -1.
         -2    1    5    5    0  503  0.79878312637E+03 -0.25119374341E+03  0.64910990441E+03  0.10594793286E+04  0.00000000000E+00 0.  1.
         -3    1    6    6    0  502 -0.10290039313E+02  0.23777102845E+03  0.12968216440E+03  0.27103212106E+03  0.00000000000E+00 0.  1.
<mgrwt>
<rscale>  0 0.23670968E+04</rscale>
<asrwt>0</asrwt>
<pdfrwt beam="1">  1        2 0.23937416E+00 0.23670968E+04</pdfrwt>
<pdfrwt beam="2">  1       -2 0.13850583E+00 0.23670968E+04</pdfrwt>
<totfact> 0.39316697E+00</totfact>
</mgrwt>
</event>
<event>
12    1  0.1562393E-007  0.1421556E+04  0.7818608E-02  0.8938362E-01
         -2   -1    0    0    0  501 -0.00000000000E+00  0.00000000000E+00  0.47346458996E+03  0.47346458996E+03  0.00000000000E+00 0.  1.
          2   -1    0    0  501    0  0.00000000000E+00 -0.00000000000E+00 -0.10670389745E+04  0.10670389745E+04  0.00000000000E+00 0. -1.
         23    2    1    2    0    0  0.19006634483E+02  0.33362666109E+03  0.74189915484E+02  0.35416876749E+03  0.90903086632E+02 0.  0.
        254    2    1    2    0    0 -0.19006634483E+02 -0.33362666109E+03 -0.66776430000E+03  0.11863347969E+04  0.92185307340E+03 0.  0.
        -24    2    4    4    0    0  0.35862646933E+03 -0.18726280252E+03 -0.65397172971E+03  0.77334463561E+03  0.81869411029E+02 0.  0.
         24    2    4    4    0    0 -0.37763310381E+03 -0.14636385857E+03 -0.13792570298E+02  0.41299016134E+03  0.79633524191E+02 0.  0.
         11    1    3    3    0    0  0.49913090276E+02  0.27060108295E+03  0.48427370630E+02  0.27939483334E+03  0.00000000000E+00 0.  1.
        -11    1    3    3    0    0 -0.30906455793E+02  0.63025578147E+02  0.25762544854E+02  0.74773934147E+02  0.00000000000E+00 0. -1.
          2    1    6    6  502    0 -0.10769009899E+03 -0.48906760451E+01  0.19000737384E+01  0.10781783903E+03  0.00000000000E+00 0. -1.
          3    1    5    5  503    0  0.28039471457E+01  0.26515920283E+01  0.11432641000E+01  0.40249363575E+01  0.00000000000E+00 0. -1.
         -4    1    5    5    0  503  0.35582252218E+03 -0.18991439455E+03 -0.65511499381E+03  0.76931969926E+03  0.00000000000E+00 0.  1.
         -1    1    6    6    0  502 -0.26994300483E+03 -0.14147318252E+03 -0.15692644036E+02  0.30517232231E+03  0.00000000000E+00 0.  1.
<mgrwt>
<rscale>  0 0.14215557E+04</rscale>
<asrwt>0</asrwt>
<pdfrwt beam="1">  1        2 0.16415984E+00 0.14215557E+04</pdfrwt>
<pdfrwt beam="2">  1       -2 0.72840707E-01 0.14215557E+04</pdfrwt>
<totfact> 0.37814296E+01</totfact>
</mgrwt>
</event>
<event>
12    1  0.1562393E-007  0.1277010E+04  0.7818608E-02  0.9047998E-01
          2   -1    0    0  501    0  0.00000000000E+00  0.00000000000E+00  0.12630939246E+04  0.12630939246E+04  0.00000000000E+00 0.  1.
         -2   -1    0    0    0  501 -0.00000000000E+00 -0.00000000000E+00 -0.32276994775E+03  0.32276994775E+03  0.00000000000E+00 0. -1.
         23    2    1    2    0    0  0.17584435835E+03  0.26213864548E+03  0.24134350051E+03  0.40761648185E+03  0.90920862389E+02 0.  0.
        254    2    1    2    0    0 -0.17584435835E+03 -0.26213864548E+03  0.69898047637E+03  0.11782473905E+04  0.89445810362E+03 0.  0.
        -24    2    4    4    0    0 -0.81129722329E+02  0.22075567481E+03 -0.73393695951E+02  0.25897778317E+03  0.79798231566E+02 0.  0.
         24    2    4    4    0    0 -0.94714636026E+02 -0.48289432030E+03  0.77237417232E+03  0.91926960737E+03  0.79605038260E+02 0.  0.
         13    1    3    3    0    0 -0.10369287837E+01 -0.58973092570E+01  0.10607468427E+02  0.12180798997E+02  0.00000000000E+00 0.  1.
        -13    1    3    3    0    0  0.17688128714E+03  0.26803595474E+03  0.23073603209E+03  0.39543568286E+03  0.00000000000E+00 0. -1.
          2    1    6    6  502    0 -0.69744541833E+02 -0.18085217141E+03  0.26608942981E+03  0.32920418235E+03  0.00000000000E+00 0. -1.
          1    1    5    5  503    0 -0.48998929417E+02  0.60995123195E+02  0.44808956466E+01  0.78366948157E+02  0.00000000000E+00 0. -1.
         -2    1    5    5    0  503 -0.32130792912E+02  0.15976055162E+03 -0.77874591597E+02  0.18061083501E+03  0.00000000000E+00 0.  1.
         -1    1    6    6    0  502 -0.24970094193E+02 -0.30204214888E+03  0.50628474251E+03  0.59006542502E+03  0.00000000000E+00 0.  1.
<mgrwt>
<rscale>  0 0.12770102E+04</rscale>
<asrwt>0</asrwt>
<pdfrwt beam="1">  1        2 0.19432214E+00 0.12770102E+04</pdfrwt>
<pdfrwt beam="2">  1       -2 0.49656916E-01 0.12770102E+04</pdfrwt>
<totfact> 0.65448067E+01</totfact>
</mgrwt>
</event>
<event>
12    1  0.1562393E-007  0.2510270E+04  0.7818608E-02  0.8399336E-01
         -1   -1    0    0    0  501 -0.00000000000E+00  0.00000000000E+00  0.12892729360E+04  0.12892729360E+04  0.00000000000E+00 0.  1.
          1   -1    0    0  501    0  0.00000000000E+00 -0.00000000000E+00 -0.12219007268E+04  0.12219007268E+04  0.00000000000E+00 0. -1.
         23    2    1    2    0    0  0.16783135532E+03 -0.74045125487E+03  0.81804918879E+03  0.11198129694E+04  0.91330096211E+02 0.  0.
        254    2    1    2    0    0 -0.16783135532E+03  0.74045125487E+03 -0.75067697962E+03  0.13913606935E+04  0.89215089919E+03 0.  0.
        -24    2    4    4    0    0 -0.29211421440E+03  0.89381476865E+03 -0.69512285056E+03  0.11722384276E+04  0.81924348623E+02 0.  0.
         24    2    4    4    0    0  0.12428285908E+03 -0.15336351378E+03 -0.55554129053E+02  0.21912226585E+03  0.77212108601E+02 0.  0.
         13    1    3    3    0    0  0.13976768021E+03 -0.66909313399E+03  0.69483429721E+03  0.97468729702E+03  0.00000000000E+00 0.  1.
        -13    1    3    3    0    0  0.28063675111E+02 -0.71358120882E+02  0.12321489158E+03  0.14512567238E+03  0.00000000000E+00 0. -1.
          4    1    6    6  502    0  0.78515765623E+01 -0.46767572252E+02  0.95370582454E+01  0.48371567567E+02  0.00000000000E+00 0. -1.
          1    1    5    5  503    0 -0.23385261568E+03  0.79388552236E+03 -0.62343022260E+03  0.10361498496E+04  0.00000000000E+00 0. -1.
         -4    1    5    5    0  503 -0.58261598725E+02  0.99929246286E+02 -0.71692627967E+02  0.13608857797E+03  0.00000000000E+00 0.  1.
         -3    1    6    6    0  502  0.11643128252E+03 -0.10659594153E+03 -0.65091187299E+02  0.17075069828E+03  0.00000000000E+00 0.  1.
<mgrwt>
<rscale>  0 0.25102697E+04</rscale>
<asrwt>0</asrwt>
<pdfrwt beam="1">  1        1 0.18798473E+00 0.25102697E+04</pdfrwt>
<pdfrwt beam="2">  1       -1 0.19834968E+00 0.25102697E+04</pdfrwt>
<totfact> 0.14125572E+00</totfact>
</mgrwt>
</event>
<event>
12    1  0.1562393E-007  0.1753796E+04  0.7818608E-02  0.8731263E-01
          2   -1    0    0  501    0  0.00000000000E+00  0.00000000000E+00  0.11406008818E+04  0.11406008818E+04  0.00000000000E+00 0. -1.
         -2   -1    0    0    0  501 -0.00000000000E+00 -0.00000000000E+00 -0.67416248015E+03  0.67416248015E+03  0.00000000000E+00 0.  1.
         23    2    1    2    0    0  0.79293201776E+02 -0.61226542459E+03 -0.12883547650E+02  0.62484670735E+03  0.95451872107E+02 0.  0.
        254    2    1    2    0    0 -0.79293201776E+02  0.61226542459E+03  0.47932194929E+03  0.11899166546E+04  0.89721555481E+03 0.  0.
        -24    2    4    4    0    0 -0.81140487986E+02  0.52370124303E+03  0.73339781755E+03  0.90841967514E+03  0.80667072848E+02 0.  0.
         24    2    4    4    0    0  0.18472862096E+01  0.88564181558E+02 -0.25407586826E+03  0.28149697945E+03  0.82698100858E+02 0.  0.
         13    1    3    3    0    0  0.86101426100E+02 -0.47089541822E+03 -0.41327391361E+02  0.48048299007E+03  0.00000000000E+00 0.  1.
        -13    1    3    3    0    0 -0.68082243234E+01 -0.14137000637E+03  0.28443843711E+02  0.14436371728E+03  0.00000000000E+00 0. -1.
          2    1    6    6  502    0 -0.15896053225E+02  0.46001443188E+02 -0.21681710879E+03  0.22221268179E+03  0.00000000000E+00 0. -1.
          1    1    5    5  503    0 -0.61599172474E+01  0.23286981410E+03  0.27515895623E+03  0.36052565248E+03  0.00000000000E+00 0. -1.
         -2    1    5    5    0  503 -0.74980570739E+02  0.29083142894E+03  0.45823886131E+03  0.54789402266E+03  0.00000000000E+00 0.  1.
         -1    1    6    6    0  502  0.17743339435E+02  0.42562738369E+02 -0.37258759468E+02  0.59284297659E+02  0.00000000000E+00 0.  1.
<mgrwt>
<rscale>  0 0.17537962E+04</rscale>
<asrwt>0</asrwt>
<pdfrwt beam="1">  1        2 0.17547706E+00 0.17537962E+04</pdfrwt>
<pdfrwt beam="2">  1       -2 0.10371730E+00 0.17537962E+04</pdfrwt>
<totfact> 0.14759976E+01</totfact>
</mgrwt>
</event>
<event>
12    1  0.1562393E-007  0.2211263E+04  0.7818608E-02  0.8513755E-01
         -2   -1    0    0    0  501 -0.00000000000E+00  0.00000000000E+00  0.48450501856E+03  0.48450501856E+03  0.00000000000E+00 0.  1.
          2   -1    0    0  501    0  0.00000000000E+00 -0.00000000000E+00 -0.25230295821E+04  0.25230295821E+04  0.00000000000E+00 0. -1.
         23    2    1    2    0    0  0.72244460040E+03  0.45955448933E+02 -0.72666975844E+02  0.73353912478E+03  0.93600503597E+02 0.  0.
        254    2    1    2    0    0 -0.72244460040E+03 -0.45955448933E+02 -0.19658575877E+04  0.22739954759E+04  0.88454579603E+03 0.  0.
        -24    2    4    4    0    0 -0.30764356439E+03  0.45756703841E+02 -0.69013596864E+02  0.32850214629E+03  0.80078367282E+02 0.  0.
         24    2    4    4    0    0 -0.41480103601E+03 -0.91712152774E+02 -0.18968439908E+04  0.19454933296E+04  0.80350180207E+02 0.  0.
         13    1    3    3    0    0  0.50539631957E+03 -0.94992246071E+01 -0.61880093451E+02  0.50925909031E+03  0.00000000000E+00 0.  1.
        -13    1    3    3    0    0  0.21704828083E+03  0.55454673540E+02 -0.10786882393E+02  0.22428003447E+03  0.00000000000E+00 0. -1.
          4    1    6    6  502    0 -0.26670497208E+03 -0.52272335426E+02 -0.10326772640E+04  0.10678418754E+04  0.00000000000E+00 0. -1.
          1    1    5    5  503    0 -0.15174557746E+03  0.33955694477E+02  0.48809531422E+01  0.15557484749E+03  0.00000000000E+00 0. -1.
         -2    1    5    5    0  503 -0.15589798693E+03  0.11801009364E+02 -0.73894550006E+02  0.17292729880E+03  0.00000000000E+00 0.  1.
         -3    1    6    6    0  502 -0.14809606392E+03 -0.39439817348E+02 -0.86416672681E+03  0.87765145420E+03  0.00000000000E+00 0.  1.
<mgrwt>
<rscale>  0 0.22112625E+04</rscale>
<asrwt>0</asrwt>
<pdfrwt beam="1">  1        2 0.38815840E+00 0.22112625E+04</pdfrwt>
<pdfrwt beam="2">  1       -2 0.74539232E-01 0.22112625E+04</pdfrwt>
<totfact> 0.49904494E+00</totfact>
</mgrwt>
</event>
<event>
12    1  0.1562393E-007  0.1852641E+04  0.7818608E-02  0.8678796E-01
          2   -1    0    0  501    0  0.00000000000E+00  0.00000000000E+00  0.13157057546E+04  0.13157057546E+04  0.00000000000E+00 0. -1.
         -2   -1    0    0    0  501 -0.00000000000E+00 -0.00000000000E+00 -0.65217460266E+03  0.65217460266E+03  0.00000000000E+00 0.  1.
         23    2    1    2    0    0  0.55325066035E+03  0.43973448949E+03  0.25682106050E+03  0.75734172737E+03  0.90314564017E+02 0.  0.
        254    2    1    2    0    0 -0.55325066035E+03 -0.43973448949E+03  0.40671009148E+03  0.12105386299E+04  0.89472787013E+03 0.  0.
        -24    2    4    4    0    0 -0.29140634646E+03  0.19261441471E+03  0.37764830470E+03  0.52063496050E+03  0.80153281501E+02 0.  0.
         24    2    4    4    0    0 -0.26184431390E+03 -0.63234890420E+03  0.29061786772E+02  0.68990366942E+03  0.81822394640E+02 0.  0.
         13    1    3    3    0    0  0.65740742560E+01  0.17348870617E+02 -0.38634916279E+01  0.18950681559E+02  0.00000000000E+00 0.  1.
        -13    1    3    3    0    0  0.54667658610E+03  0.42238561887E+03  0.26068455212E+03  0.73839104581E+03  0.00000000000E+00 0. -1.
          2    1    6    6  502    0 -0.25361045520E+03 -0.59784892787E+03  0.96883137339E+01  0.64948861958E+03  0.00000000000E+00 0. -1.
          3    1    5    5  503    0 -0.22768566342E+03  0.17929728956E+03  0.27785787390E+03  0.40148882607E+03  0.00000000000E+00 0. -1.
         -4    1    5    5    0  503 -0.63720683040E+02  0.13317125154E+02  0.99790430805E+02  0.11914613443E+03  0.00000000000E+00 0.  1.
         -1    1    6    6    0  502 -0.82338586916E+01 -0.34499976331E+02  0.19373473038E+02  0.40415049837E+02  0.00000000000E+00 0.  1.
<mgrwt>
<rscale>  0 0.18526412E+04</rscale>
<asrwt>0</asrwt>
<pdfrwt beam="1">  1        2 0.20241627E+00 0.18526412E+04</pdfrwt>
<pdfrwt beam="2">  1       -2 0.10033455E+00 0.18526412E+04</pdfrwt>
<totfact> 0.12472107E+01</totfact>
</mgrwt>
</event>
<event>
12    1  0.1562393E-007  0.1272244E+04  0.7818608E-02  0.9051870E-01
         -2   -1    0    0    0  501 -0.00000000000E+00  0.00000000000E+00  0.20828817281E+03  0.20828817281E+03  0.00000000000E+00 0.  1.
          2   -1    0    0  501    0  0.00000000000E+00 -0.00000000000E+00 -0.19427458975E+04  0.19427458975E+04  0.00000000000E+00 0. -1.
         23    2    1    2    0    0 -0.58187605504E+02  0.27923896110E+03 -0.71281048972E+03  0.77308905765E+03  0.90596368413E+02 0.  0.
        254    2    1    2    0    0  0.58187605504E+02 -0.27923896110E+03 -0.10216472350E+04  0.13779450127E+04  0.87955056160E+03 0.  0.
        -24    2    4    4    0    0  0.10004034375E+03  0.23512891886E+03 -0.46297719572E+02  0.27159483342E+03  0.79539900944E+02 0.  0.
         24    2    4    4    0    0 -0.41852738245E+02 -0.51436787995E+03 -0.97534951543E+03  0.11063501793E+04  0.79862846951E+02 0.  0.
         13    1    3    3    0    0 -0.81555635631E+02  0.23293487164E+03 -0.56930848614E+03  0.62050151372E+03  0.00000000000E+00 0. -1.
        -13    1    3    3    0    0  0.23368030127E+02  0.46304089463E+02 -0.14350200357E+03  0.15258754393E+03  0.00000000000E+00 0.  1.
          4    1    6    6  502    0  0.70503551407E+01 -0.21138531366E+02 -0.19393395656E+02  0.29540629834E+02  0.00000000000E+00 0. -1.
          3    1    5    5  503    0  0.73517501917E+02  0.74039065359E+02 -0.19753095340E+02  0.10619223636E+03  0.00000000000E+00 0. -1.
         -4    1    5    5    0  503  0.26522841833E+02  0.16108985350E+03 -0.26544624232E+02  0.16540259706E+03  0.00000000000E+00 0.  1.
         -3    1    6    6    0  502 -0.48903093386E+02 -0.49322934859E+03 -0.95595611978E+03  0.10768095495E+04  0.00000000000E+00 0.  1.
<mgrwt>
<rscale>  0 0.12722437E+04</rscale>
<asrwt>0</asrwt>
<pdfrwt beam="1">  1        2 0.29888397E+00 0.12722437E+04</pdfrwt>
<pdfrwt beam="2">  1       -2 0.32044336E-01 0.12722437E+04</pdfrwt>
<totfact> 0.64012432E+01</totfact>
</mgrwt>
</event>
<event>
12    1  0.1562393E-007  0.2290879E+04  0.7818608E-02  0.8481526E-01
         -1   -1    0    0    0  501 -0.00000000000E+00  0.00000000000E+00  0.10374055145E+04  0.10374055145E+04  0.00000000000E+00 0.  1.
          1   -1    0    0  501    0  0.00000000000E+00 -0.00000000000E+00 -0.12647237197E+04  0.12647237197E+04  0.00000000000E+00 0. -1.
         23    2    1    2    0    0 -0.27450634663E+03  0.28149800272E+03  0.78496823615E+03  0.88285666365E+03  0.93090799318E+02 0.  0.
        254    2    1    2    0    0  0.27450634663E+03 -0.28149800272E+03 -0.10122864413E+04  0.14192725706E+04  0.91379206087E+03 0.  0.
        -24    2    4    4    0    0  0.32857984067E+03  0.24622491113E+03 -0.64627132582E+03  0.76994783373E+03  0.81003836543E+02 0.  0.
         24    2    4    4    0    0 -0.54073494040E+02 -0.52772291385E+03 -0.36601511548E+03  0.64932473686E+03  0.78994509752E+02 0.  0.
         11    1    3    3    0    0 -0.10013729503E+02  0.51022134879E+02  0.12635387329E+03  0.13663394279E+03  0.00000000000E+00 0. -1.
        -11    1    3    3    0    0 -0.26449261713E+03  0.23047586784E+03  0.65861436286E+03  0.74622272087E+03  0.00000000000E+00 0.  1.
          2    1    6    6  502    0 -0.29339449903E+02 -0.43282205657E+03 -0.32916166709E+03  0.54455774630E+03  0.00000000000E+00 0. -1.
          3    1    5    5  503    0  0.29784067766E+03  0.18891470160E+03 -0.56187991128E+03  0.66340550831E+03  0.00000000000E+00 0. -1.
         -4    1    5    5    0  503  0.30739163013E+02  0.57310209535E+02 -0.84391414533E+02  0.10654232542E+03  0.00000000000E+00 0.  1.
         -1    1    6    6    0  502 -0.24734044137E+02 -0.94900857280E+02 -0.36853448396E+02  0.10476699056E+03  0.00000000000E+00 0.  1.
<mgrwt>
<rscale>  0 0.22908787E+04</rscale>
<asrwt>0</asrwt>
<pdfrwt beam="1">  1        1 0.19457288E+00 0.22908787E+04</pdfrwt>
<pdfrwt beam="2">  1       -1 0.15960085E+00 0.22908787E+04</pdfrwt>
<totfact> 0.25529097E+00</totfact>
</mgrwt>
</event>
<event>
12    1  0.1562393E-007  0.1288451E+04  0.7818608E-02  0.9038774E-01
         -1   -1    0    0    0  501 -0.00000000000E+00  0.00000000000E+00  0.46947013331E+03  0.46947013331E+03  0.00000000000E+00 0.  1.
          1   -1    0    0  501    0  0.00000000000E+00 -0.00000000000E+00 -0.88403127837E+03  0.88403127837E+03  0.00000000000E+00 0. -1.
         23    2    1    2    0    0 -0.30142381298E+02 -0.19123788593E+03  0.15564678117E+03  0.26545784108E+03  0.93602632105E+02 0.  0.
        254    2    1    2    0    0  0.30142381298E+02  0.19123788593E+03 -0.57020792623E+03  0.10880435706E+04  0.90621258005E+03 0.  0.
        -24    2    4    4    0    0  0.34750310586E+03  0.18626655947E+03 -0.63743125689E+03  0.75378798346E+03  0.80150339869E+02 0.  0.
         24    2    4    4    0    0 -0.31736072456E+03  0.49713264577E+01  0.67223330663E+02  0.33425558715E+03  0.80406951014E+02 0.  0.
         13    1    3    3    0    0 -0.58326920337E+01 -0.16949480788E+03  0.15925124372E+03  0.23264451170E+03  0.00000000000E+00 0.  1.
        -13    1    3    3    0    0 -0.24309689264E+02 -0.21743078043E+02 -0.36044625482E+01  0.32813329382E+02  0.00000000000E+00 0. -1.
          2    1    6    6  502    0 -0.29328956533E+03  0.22529972749E+02  0.46127071939E+02  0.29774834268E+03  0.00000000000E+00 0. -1.
          3    1    5    5  503    0  0.27572890116E+03  0.18108638097E+03 -0.50831534162E+03  0.60597292913E+03  0.00000000000E+00 0. -1.
         -4    1    5    5    0  503  0.71774204699E+02  0.51801784932E+01 -0.12911591527E+03  0.14781505433E+03  0.00000000000E+00 0.  1.
         -1    1    6    6    0  502 -0.24071159236E+02 -0.17558646291E+02  0.21096258724E+02  0.36507244469E+02  0.00000000000E+00 0.  1.
<mgrwt>
<rscale>  0 0.12884507E+04</rscale>
<asrwt>0</asrwt>
<pdfrwt beam="1">  1        1 0.13600481E+00 0.12884507E+04</pdfrwt>
<pdfrwt beam="2">  1       -1 0.72226175E-01 0.12884507E+04</pdfrwt>
<totfact> 0.35683028E+01</totfact>
</mgrwt>
</event>
<event>
12    1  0.1562393E-007  0.1601595E+04  0.7818608E-02  0.8819569E-01
          2   -1    0    0  501    0  0.00000000000E+00  0.00000000000E+00  0.10283946616E+04  0.10283946616E+04  0.00000000000E+00 0.  1.
         -2   -1    0    0    0  501 -0.00000000000E+00 -0.00000000000E+00 -0.62357056810E+03  0.62357056810E+03  0.00000000000E+00 0. -1.
         23    2    1    2    0    0 -0.18474899421E+03 -0.16475715656E+03  0.63420750480E+03  0.68714770196E+03  0.93143403739E+02 0.  0.
        254    2    1    2    0    0  0.18474899421E+03  0.16475715656E+03 -0.22938341134E+03  0.96481752771E+03  0.90386890691E+03 0.  0.
        -24    2    4    4    0    0  0.43306960400E+03 -0.13160519315E+03  0.76672113992E+02  0.46600629544E+03  0.80087736602E+02 0.  0.
         24    2    4    4    0    0 -0.24832060979E+03  0.29636234971E+03 -0.30605552533E+03  0.49881123227E+03  0.75159119718E+02 0.  0.
         13    1    3    3    0    0 -0.43944912428E+02 -0.75348019112E+02  0.31674781356E+03  0.32853866852E+03  0.00000000000E+00 0. -1.
        -13    1    3    3    0    0 -0.14080408178E+03 -0.89409137445E+02  0.31745969124E+03  0.35860903344E+03  0.00000000000E+00 0.  1.
          2    1    6    6  502    0 -0.33045763088E+02  0.37096897352E+02 -0.10952065747E+02  0.50873863578E+02  0.00000000000E+00 0. -1.
          3    1    5    5  503    0  0.11116796614E+03 -0.70637099553E+02  0.14148507106E+02  0.13246922957E+03  0.00000000000E+00 0. -1.
         -4    1    5    5    0  503  0.32190163786E+03 -0.60968093601E+02  0.62523606886E+02  0.33353706588E+03  0.00000000000E+00 0.  1.
         -1    1    6    6    0  502 -0.21527484670E+03  0.25926545236E+03 -0.29510345958E+03  0.44793736869E+03  0.00000000000E+00 0.  1.
<mgrwt>
<rscale>  0 0.16015950E+04</rscale>
<asrwt>0</asrwt>
<pdfrwt beam="1">  1        2 0.15821456E+00 0.16015950E+04</pdfrwt>
<pdfrwt beam="2">  1       -2 0.95933934E-01 0.16015950E+04</pdfrwt>
<totfact> 0.21102547E+01</totfact>
</mgrwt>
</event>
<event>
12    1  0.1562393E-007  0.1548717E+04  0.7818608E-02  0.8852688E-01
          2   -1    0    0  501    0  0.00000000000E+00  0.00000000000E+00  0.10871359193E+04  0.10871359193E+04  0.00000000000E+00 0.  1.
         -2   -1    0    0    0  501 -0.00000000000E+00 -0.00000000000E+00 -0.55156946223E+03  0.55156946223E+03  0.00000000000E+00 0. -1.
         23    2    1    2    0    0 -0.32389725535E+03  0.22362260022E+03 -0.16194374842E+03  0.43528977037E+03  0.91295712828E+02 0.  0.
        254    2    1    2    0    0  0.32389725535E+03 -0.22362260022E+03  0.69751020551E+03  0.12034156112E+04  0.89820495829E+03 0.  0.
        -24    2    4    4    0    0  0.59758952451E+03 -0.31187513567E+03  0.52573841205E+03  0.85851492654E+03  0.79168561545E+02 0.  0.
         24    2    4    4    0    0 -0.27369226915E+03  0.88252535449E+02  0.17177179345E+03  0.34490068464E+03  0.82188594309E+02 0.  0.
         11    1    3    3    0    0 -0.30890289534E+03  0.23170348788E+03 -0.14899111104E+03  0.41389111638E+03  0.00000000000E+00 0. -1.
        -11    1    3    3    0    0 -0.14994360014E+02 -0.80808876625E+01 -0.12952637377E+02  0.21398653992E+02  0.00000000000E+00 0.  1.
          4    1    6    6  502    0 -0.19210912461E+03  0.67566207580E+02  0.16189956816E+03  0.26015875602E+03  0.00000000000E+00 0. -1.
          1    1    5    5  503    0  0.42530420522E+03 -0.26120200119E+03  0.38934849110E+03  0.63301058437E+03  0.00000000000E+00 0. -1.
         -2    1    5    5    0  503  0.17228531929E+03 -0.50673134475E+02  0.13638992096E+03  0.22550434217E+03  0.00000000000E+00 0.  1.
         -3    1    6    6    0  502 -0.81583144543E+02  0.20686327869E+02  0.98722252942E+01  0.84741928621E+02  0.00000000000E+00 0.  1.
<mgrwt>
<rscale>  0 0.15487169E+04</rscale>
<asrwt>0</asrwt>
<pdfrwt beam="1">  1        2 0.16725168E+00 0.15487169E+04</pdfrwt>
<pdfrwt beam="2">  1       -2 0.84856840E-01 0.15487169E+04</pdfrwt>
<totfact> 0.25842583E+01</totfact>
</mgrwt>
</event>
<event>
12    1  0.1562393E-007  0.1785613E+04  0.7818608E-02  0.8713988E-01
          2   -1    0    0  501    0  0.00000000000E+00  0.00000000000E+00  0.28259173988E+04  0.28259173988E+04  0.00000000000E+00 0. -1.
         -2   -1    0    0    0  501 -0.00000000000E+00 -0.00000000000E+00 -0.28206902261E+03  0.28206902261E+03  0.00000000000E+00 0.  1.
         23    2    1    2    0    0  0.69253841157E+02  0.48706490355E+03  0.17607380682E+04  0.18304790497E+04  0.91797014129E+02 0.  0.
        254    2    1    2    0    0 -0.69253841157E+02 -0.48706490355E+03  0.78311030794E+03  0.12775073717E+04  0.88132571475E+03 0.  0.
        -24    2    4    4    0    0 -0.38926690744E+03 -0.52588234398E+03  0.40293696706E+03  0.77272588652E+03  0.81646379836E+02 0.  0.
         24    2    4    4    0    0  0.32001306628E+03  0.38817440434E+02  0.38017334088E+03  0.50478148514E+03  0.79733445639E+02 0.  0.
         11    1    3    3    0    0 -0.18015481882E+02  0.57850501747E+02  0.16705950785E+03  0.17770795509E+03  0.00000000000E+00 0.  1.
        -11    1    3    3    0    0  0.87269323038E+02  0.42921440180E+03  0.15936785604E+04  0.16527710946E+04  0.00000000000E+00 0. -1.
          4    1    6    6  502    0  0.83203967206E+02 -0.19126470499E+01  0.15266769592E+03  0.17387922175E+03  0.00000000000E+00 0. -1.
          1    1    5    5  503    0 -0.14461778138E+03 -0.26346885595E+03  0.17963513305E+03  0.35014128830E+03  0.00000000000E+00 0. -1.
         -2    1    5    5    0  503 -0.24464912606E+03 -0.26241348803E+03  0.22330183401E+03  0.42258459823E+03  0.00000000000E+00 0.  1.
         -3    1    6    6    0  502  0.23680909908E+03  0.40730087484E+02  0.22750564496E+03  0.33090226339E+03  0.00000000000E+00 0.  1.
<mgrwt>
<rscale>  0 0.17856133E+04</rscale>
<asrwt>0</asrwt>
<pdfrwt beam="1">  1        2 0.43475651E+00 0.17856133E+04</pdfrwt>
<pdfrwt beam="2">  1       -2 0.43395236E-01 0.17856133E+04</pdfrwt>
<totfact> 0.10643862E+01</totfact>
</mgrwt>
</event>
<event>
12    1  0.1562393E-007  0.2139274E+04  0.7818608E-02  0.8544137E-01
          3   -1    0    0  501    0  0.00000000000E+00  0.00000000000E+00  0.49369860061E+03  0.49369860061E+03  0.00000000000E+00 0. -1.
         -3   -1    0    0    0  501 -0.00000000000E+00 -0.00000000000E+00 -0.23174539377E+04  0.23174539377E+04  0.00000000000E+00 0.  1.
         23    2    1    2    0    0 -0.85930423419E+03 -0.25549680441E+02 -0.61483511979E+03  0.10609452924E+04  0.92337077535E+02 0.  0.
        254    2    1    2    0    0  0.85930423419E+03  0.25549680441E+02 -0.12089202173E+04  0.17502072459E+04  0.92880609316E+03 0.  0.
        -24    2    4    4    0    0  0.12426367616E+03 -0.44009367330E+02 -0.95229566294E+03  0.96452393233E+03  0.77853071571E+02 0.  0.
         24    2    4    4    0    0  0.73504055803E+03  0.69559047771E+02 -0.25662455432E+03  0.78568331353E+03  0.79492290251E+02 0.  0.
         13    1    3    3    0    0 -0.76431782599E+03 -0.35133838584E+02 -0.57678270899E+03  0.95817243705E+03  0.00000000000E+00 0.  1.
        -13    1    3    3    0    0 -0.94986408199E+02  0.95841581424E+01 -0.38052410801E+02  0.10277285535E+03  0.00000000000E+00 0. -1.
          4    1    6    6  502    0  0.12069001121E+03 -0.98389887361E+01 -0.64013947750E+02  0.13696959521E+03  0.00000000000E+00 0. -1.
          1    1    5    5  503    0  0.55957409514E+02  0.18858588924E+02 -0.43106856163E+03  0.43509422299E+03  0.00000000000E+00 0. -1.
         -2    1    5    5    0  503  0.68306266650E+02 -0.62867956255E+02 -0.52122710131E+03  0.52942970934E+03  0.00000000000E+00 0.  1.
         -1    1    6    6    0  502  0.61435054681E+03  0.79398036507E+02 -0.19261060657E+03  0.64871371832E+03  0.00000000000E+00 0.  1.
<mgrwt>
<rscale>  0 0.21392744E+04</rscale>
<asrwt>0</asrwt>
<pdfrwt beam="1">  1        3 0.75953632E-01 0.21392744E+04</pdfrwt>
<pdfrwt beam="2">  1       -3 0.35653137E+00 0.21392744E+04</pdfrwt>
<totfact> 0.72197957E-02</totfact>
</mgrwt>
</event>
<event>
12    1  0.1562393E-007  0.2018450E+04  0.7818608E-02  0.8598043E-01
         -1   -1    0    0    0  501 -0.00000000000E+00  0.00000000000E+00  0.48479359044E+03  0.48479359044E+03  0.00000000000E+00 0.  1.
          1   -1    0    0  501    0  0.00000000000E+00 -0.00000000000E+00 -0.21009675455E+04  0.21009675455E+04  0.00000000000E+00 0. -1.
         23    2    1    2    0    0  0.49128103265E+03 -0.55384659813E+03 -0.10650224858E+04  0.13002781372E+04  0.91363185025E+02 0.  0.
        254    2    1    2    0    0 -0.49128103265E+03  0.55384659813E+03 -0.55115146930E+03  0.12854829987E+04  0.89476001847E+03 0.  0.
        -24    2    4    4    0    0  0.14401597732E+03  0.38863582199E+03  0.40126659268E+01  0.42209085441E+03  0.79788370285E+02 0.  0.
         24    2    4    4    0    0 -0.63529700997E+03  0.16521077614E+03 -0.55516413522E+03  0.86339214434E+03  0.79635961968E+02 0.  0.
         11    1    3    3    0    0  0.65130973334E+02 -0.12258174902E+03 -0.17497992938E+03  0.22335242234E+03  0.00000000000E+00 0.  1.
        -11    1    3    3    0    0  0.42615005932E+03 -0.43126484911E+03 -0.89004255643E+03  0.10769257149E+04  0.00000000000E+00 0. -1.
          2    1    6    6  502    0 -0.21614747676E+03  0.39812815649E+02 -0.14223470009E+03  0.26179286069E+03  0.00000000000E+00 0. -1.
          1    1    5    5  503    0  0.83979116577E+02  0.22956182020E+03  0.41611419470E+02  0.24795691469E+03  0.00000000000E+00 0. -1.
         -2    1    5    5    0  503  0.60036860740E+02  0.15907400179E+03 -0.37598753543E+02  0.17413393972E+03  0.00000000000E+00 0.  1.
         -1    1    6    6    0  502 -0.41914953321E+03  0.12539796049E+03 -0.41292943513E+03  0.60159928364E+03  0.00000000000E+00 0.  1.
<mgrwt>
<rscale>  0 0.20184505E+04</rscale>
<asrwt>0</asrwt>
<pdfrwt beam="1">  1        1 0.32322578E+00 0.20184505E+04</pdfrwt>
<pdfrwt beam="2">  1       -1 0.74583628E-01 0.20184505E+04</pdfrwt>
<totfact> 0.42628992E+00</totfact>
</mgrwt>
</event>
<event>
12    1  0.1562393E-007  0.1217234E+04  0.7818608E-02  0.9097904E-01
          1   -1    0    0  501    0  0.00000000000E+00  0.00000000000E+00  0.14257609383E+04  0.14257609383E+04  0.00000000000E+00 0. -1.
         -1   -1    0    0    0  501 -0.00000000000E+00 -0.00000000000E+00 -0.25980121282E+03  0.25980121282E+03  0.00000000000E+00 0.  1.
         23    2    1    2    0    0 -0.17531699315E+03  0.18411378239E+03  0.32505801733E+03  0.42313447581E+03  0.93520783967E+02 0.  0.
        254    2    1    2    0    0  0.17531699315E+03 -0.18411378239E+03  0.84090170818E+03  0.12624276753E+04  0.90662782865E+03 0.  0.
        -24    2    4    4    0    0  0.42269785745E+02  0.17094148888E+03  0.85319161597E+03  0.87490464060E+03  0.80712261605E+02 0.  0.
         24    2    4    4    0    0  0.13304720741E+03 -0.35505527127E+03 -0.12289907787E+02  0.38752303474E+03  0.79102816401E+02 0.  0.
         13    1    3    3    0    0  0.35465842309E+01  0.42020943835E+02  0.57899136953E+02  0.71628542079E+02  0.00000000000E+00 0. -1.
        -13    1    3    3    0    0 -0.17886357738E+03  0.14209283855E+03  0.26715888038E+03  0.35150593373E+03  0.00000000000E+00 0.  1.
          4    1    6    6  502    0  0.26597018736E+02 -0.15116480591E+02  0.44451065504E+01  0.30913886254E+02  0.00000000000E+00 0. -1.
          1    1    5    5  503    0 -0.20217311628E+02  0.19212686609E+02  0.87903740663E+02  0.92222202526E+02  0.00000000000E+00 0. -1.
         -2    1    5    5    0  503  0.62487097373E+02  0.15172880227E+03  0.76528787531E+03  0.78268243808E+03  0.00000000000E+00 0.  1.
         -3    1    6    6    0  502  0.10645018867E+03 -0.33993879068E+03 -0.16735014338E+02  0.35660914848E+03  0.00000000000E+00 0.  1.
<mgrwt>
<rscale>  0 0.12172336E+04</rscale>
<asrwt>0</asrwt>
<pdfrwt beam="1">  1        1 0.21934783E+00 0.12172336E+04</pdfrwt>
<pdfrwt beam="2">  1       -1 0.39969418E-01 0.12172336E+04</pdfrwt>
<totfact> 0.44419826E+01</totfact>
</mgrwt>
</event>
<event>
12    1  0.1562393E-007  0.1812485E+04  0.7818608E-02  0.8699688E-01
         -2   -1    0    0    0  501 -0.00000000000E+00  0.00000000000E+00  0.85798656444E+03  0.85798656444E+03  0.00000000000E+00 0.  1.
          2   -1    0    0  501    0  0.00000000000E+00 -0.00000000000E+00 -0.95721229812E+03  0.95721229812E+03  0.00000000000E+00 0. -1.
         23    2    1    2    0    0 -0.80585262043E+02 -0.66917732582E+03  0.44016798256E+02  0.68149423039E+03  0.90579410855E+02 0.  0.
        254    2    1    2    0    0  0.80585262043E+02  0.66917732582E+03 -0.14324253194E+03  0.11337046322E+04  0.90026412357E+03 0.  0.
        -24    2    4    4    0    0  0.60403308149E+02  0.66869052846E+03  0.25825107906E+03  0.72385035061E+03  0.80437104395E+02 0.  0.
         24    2    4    4    0    0  0.20181953894E+02  0.48679736520E+00 -0.40149361100E+03  0.40985428156E+03  0.79849008775E+02 0.  0.
         11    1    3    3    0    0 -0.83914799169E+02 -0.57132427255E+03  0.65799432088E+02  0.58119074595E+03  0.00000000000E+00 0.  1.
        -11    1    3    3    0    0  0.33295371265E+01 -0.97853053275E+02 -0.21782633832E+02  0.10030348443E+03  0.00000000000E+00 0. -1.
          2    1    6    6  502    0 -0.17339045206E+02 -0.26317669935E+02 -0.99827435047E+02  0.10468418709E+03  0.00000000000E+00 0. -1.
          1    1    5    5  503    0  0.26105446277E+02  0.33924532429E+03  0.88061246690E+02  0.35145933982E+03  0.00000000000E+00 0. -1.
         -2    1    5    5    0  503  0.34297861872E+02  0.32944520417E+03  0.17018983237E+03  0.37239101079E+03  0.00000000000E+00 0.  1.
         -1    1    6    6    0  502  0.37520999100E+02  0.26804467300E+02 -0.30166617595E+03  0.30517009446E+03  0.00000000000E+00 0.  1.
<mgrwt>
<rscale>  0 0.18124848E+04</rscale>
<asrwt>0</asrwt>
<pdfrwt beam="1">  1        2 0.14726343E+00 0.18124848E+04</pdfrwt>
<pdfrwt beam="2">  1       -2 0.13199793E+00 0.18124848E+04</pdfrwt>
<totfact> 0.10581464E+01</totfact>
</mgrwt>
</event>
<event>
12    1  0.1562393E-007  0.1223683E+04  0.7818608E-02  0.9092376E-01
         -1   -1    0    0    0  501 -0.00000000000E+00  0.00000000000E+00  0.43539211404E+03  0.43539211404E+03  0.00000000000E+00 0.  1.
          1   -1    0    0  501    0  0.00000000000E+00 -0.00000000000E+00 -0.85980013377E+03  0.85980013377E+03  0.00000000000E+00 0. -1.
         23    2    1    2    0    0  0.13881801776E+03 -0.76209776413E+02  0.13839399715E+03  0.22389189686E+03  0.76787440116E+02 0.  0.
        254    2    1    2    0    0 -0.13881801776E+03  0.76209776413E+02 -0.56280201687E+03  0.10713003509E+04  0.89769703111E+03 0.  0.
        -24    2    4    4    0    0 -0.37200238696E+03 -0.27773585572E+03 -0.21921297525E+03  0.51934346630E+03  0.78360232285E+02 0.  0.
         24    2    4    4    0    0  0.23318436920E+03  0.35394563214E+03 -0.34358904162E+03  0.55195688465E+03  0.83369733361E+02 0.  0.
         13    1    3    3    0    0  0.55272233114E+02 -0.21477468035E+02  0.82949277497E+01  0.59875764821E+02  0.00000000000E+00 0. -1.
        -13    1    3    3    0    0  0.83545784647E+02 -0.54732308379E+02  0.13009906940E+03  0.16401613204E+03  0.00000000000E+00 0.  1.
          4    1    6    6  502    0  0.19059969167E+02  0.17545801735E+02 -0.50011693818E+00  0.25911150112E+02  0.00000000000E+00 0. -1.
          1    1    5    5  503    0 -0.15395438466E+03 -0.70867492574E+02 -0.64936004651E+02  0.18149611225E+03  0.00000000000E+00 0. -1.
         -2    1    5    5    0  503 -0.21804800230E+03 -0.20686836315E+03 -0.15427697060E+03  0.33784735405E+03  0.00000000000E+00 0.  1.
         -3    1    6    6    0  502  0.21412440004E+03  0.33639983040E+03 -0.34308892468E+03  0.52604573453E+03  0.00000000000E+00 0.  1.
<mgrwt>
<rscale>  0 0.12236833E+04</rscale>
<asrwt>0</asrwt>
<pdfrwt beam="1">  1        1 0.13227694E+00 0.12236833E+04</pdfrwt>
<pdfrwt beam="2">  1       -1 0.66983402E-01 0.12236833E+04</pdfrwt>
<totfact> 0.43846738E+01</totfact>
</mgrwt>
</event>
<event>
12    1  0.1562393E-007  0.1701167E+04  0.7818608E-02  0.8760699E-01
         -1   -1    0    0    0  501 -0.00000000000E+00  0.00000000000E+00  0.96222377349E+03  0.96222377349E+03  0.00000000000E+00 0.  1.
          1   -1    0    0  501    0  0.00000000000E+00 -0.00000000000E+00 -0.75189645567E+03  0.75189645567E+03  0.00000000000E+00 0. -1.
         23    2    1    2    0    0 -0.46733313828E+03 -0.34271528299E+03 -0.42920131434E+02  0.58872679922E+03  0.94356129146E+02 0.  0.
        254    2    1    2    0    0  0.46733313828E+03  0.34271528299E+03  0.25324744925E+03  0.11253934299E+04  0.93087167444E+03 0.  0.
        -24    2    4    4    0    0  0.22078371953E+03  0.28108831732E+03 -0.32434906302E+03  0.48927316000E+03  0.80186142645E+02 0.  0.
         24    2    4    4    0    0  0.24654941875E+03  0.61626965670E+02  0.57759651226E+03  0.63612026994E+03  0.80291768346E+02 0.  0.
         13    1    3    3    0    0 -0.20173612567E+03 -0.12868313931E+03 -0.61687194680E+02  0.24710751654E+03  0.00000000000E+00 0. -1.
        -13    1    3    3    0    0 -0.26559701261E+03 -0.21403214368E+03  0.18767063246E+02  0.34161928268E+03  0.00000000000E+00 0.  1.
          2    1    6    6  502    0  0.13402616334E+02  0.18666691374E+02  0.10390672295E+03  0.10641749183E+03  0.00000000000E+00 0. -1.
          3    1    5    5  503    0  0.14380729610E+02  0.55571825648E+01 -0.39633647077E+02  0.42526622753E+02  0.00000000000E+00 0. -1.
         -4    1    5    5    0  503  0.20640298992E+03  0.27553113475E+03 -0.28471541594E+03  0.44674653725E+03  0.00000000000E+00 0.  1.
         -1    1    6    6    0  502  0.23314680241E+03  0.42960274296E+02  0.47368978931E+03  0.52970277811E+03  0.00000000000E+00 0.  1.
<mgrwt>
<rscale>  0 0.17011674E+04</rscale>
<asrwt>0</asrwt>
<pdfrwt beam="1">  1        1 0.11567638E+00 0.17011674E+04</pdfrwt>
<pdfrwt beam="2">  1       -1 0.14803443E+00 0.17011674E+04</pdfrwt>
<totfact> 0.83926342E+00</totfact>
</mgrwt>
</event>
<event>
12    1  0.1562393E-007  0.1209357E+04  0.7818608E-02  0.9104705E-01
          1   -1    0    0  501    0  0.00000000000E+00  0.00000000000E+00  0.12682521034E+04  0.12682521034E+04  0.00000000000E+00 0. -1.
         -1   -1    0    0    0  501 -0.00000000000E+00 -0.00000000000E+00 -0.28829942681E+03  0.28829942681E+03  0.00000000000E+00 0.  1.
         23    2    1    2    0    0 -0.61855702006E+02  0.11103689630E+03  0.58209102586E+03  0.60250694740E+03  0.89606579368E+02 0.  0.
        254    2    1    2    0    0  0.61855702006E+02 -0.11103689630E+03  0.39786165070E+03  0.95404458277E+03  0.85775978724E+03 0.  0.
        -24    2    4    4    0    0  0.38009602980E+03  0.17217801796E+03  0.13251083623E+03  0.44500127941E+03  0.79679076430E+02 0.  0.
         24    2    4    4    0    0 -0.31824032780E+03 -0.28321491426E+03  0.26535081447E+03  0.50904330336E+03  0.85008446973E+02 0.  0.
         11    1    3    3    0    0 -0.58052165585E+02  0.20676089838E+02  0.17630963054E+03  0.18676894935E+03  0.00000000000E+00 0.  1.
        -11    1    3    3    0    0 -0.38035364215E+01  0.90360806461E+02  0.40578139532E+03  0.41573799805E+03  0.00000000000E+00 0. -1.
          4    1    6    6  502    0 -0.11293062803E+03 -0.14934608590E+03  0.90446058805E+02  0.20793765815E+03  0.00000000000E+00 0. -1.
          1    1    5    5  503    0  0.72766034833E+02  0.48182287350E+02  0.59579843828E+02  0.10567017758E+03  0.00000000000E+00 0. -1.
         -2    1    5    5    0  503  0.30732999497E+03  0.12399573061E+03  0.72930992402E+02  0.33933110183E+03  0.00000000000E+00 0.  1.
         -3    1    6    6    0  502 -0.20530969976E+03 -0.13386882836E+03  0.17490475566E+03  0.30110564521E+03  0.00000000000E+00 0.  1.
<mgrwt>
<rscale>  0 0.12093574E+04</rscale>
<asrwt>0</asrwt>
<pdfrwt beam="1">  1        1 0.19511571E+00 0.12093574E+04</pdfrwt>
<pdfrwt beam="2">  1       -1 0.44353758E-01 0.12093574E+04</pdfrwt>
<totfact> 0.47423408E+01</totfact>
</mgrwt>
</event>
<event>
12    1  0.1562393E-007  0.1668148E+04  0.7818608E-02  0.8779742E-01
          1   -1    0    0  501    0  0.00000000000E+00  0.00000000000E+00  0.16788576188E+04  0.16788576188E+04  0.00000000000E+00 0.  1.
         -1   -1    0    0    0  501 -0.00000000000E+00 -0.00000000000E+00 -0.41437670521E+03  0.41437670521E+03  0.00000000000E+00 0. -1.
         23    2    1    2    0    0 -0.17519600898E+03  0.17900577095E+03 -0.22654620601E+03  0.35091430777E+03  0.95294072981E+02 0.  0.
        254    2    1    2    0    0  0.17519600898E+03 -0.17900577095E+03  0.14910271196E+04  0.17423200163E+04  0.86589864304E+03 0.  0.
        -24    2    4    4    0    0  0.13539504050E+03 -0.98397984356E+02 -0.53399527683E+02  0.19326041956E+03  0.80523908842E+02 0.  0.
         24    2    4    4    0    0  0.39800968475E+02 -0.80607786596E+02  0.15444266473E+04  0.15490595967E+04  0.79058414194E+02 0.  0.
         11    1    3    3    0    0 -0.65644121043E+02  0.99830205132E+02 -0.16154850281E+03  0.20093068268E+03  0.00000000000E+00 0. -1.
        -11    1    3    3    0    0 -0.10955188793E+03  0.79175565820E+02 -0.64997703200E+02  0.14998362509E+03  0.00000000000E+00 0.  1.
          2    1    6    6  502    0  0.26244420594E+02 -0.20654715721E+02  0.16945575207E+03  0.17271548513E+03  0.00000000000E+00 0. -1.
          3    1    5    5  503    0  0.12061784856E+02  0.14176995032E+02 -0.31539269038E+01  0.18879118014E+02  0.00000000000E+00 0. -1.
         -4    1    5    5    0  503  0.12333325565E+03 -0.11257497939E+03 -0.50245600779E+02  0.17438130155E+03  0.00000000000E+00 0.  1.
         -1    1    6    6    0  502  0.13556547881E+02 -0.59953070875E+02  0.13749708952E+04  0.13763441116E+04  0.00000000000E+00 0.  1.
<mgrwt>
<rscale>  0 0.16681481E+04</rscale>
<asrwt>0</asrwt>
<pdfrwt beam="1">  1        1 0.25828578E+00 0.16681481E+04</pdfrwt>
<pdfrwt beam="2">  1       -1 0.63750263E-01 0.16681481E+04</pdfrwt>
<totfact> 0.11731407E+01</totfact>
</mgrwt>
</event>
<event>
12    1  0.1562393E-007  0.1553369E+04  0.7818608E-02  0.8849718E-01
         -2   -1    0    0    0  501 -0.00000000000E+00  0.00000000000E+00  0.13301767734E+04  0.13301767734E+04  0.00000000000E+00 0.  1.
          2   -1    0    0  501    0  0.00000000000E+00 -0.00000000000E+00 -0.45350298197E+03  0.45350298197E+03  0.00000000000E+00 0. -1.
         23    2    1    2    0    0 -0.30714464635E+03  0.14857667623E+03  0.71383551248E+03  0.79562494912E+03  0.83934845490E+02 0.  0.
        254    2    1    2    0    0  0.30714464635E+03 -0.14857667623E+03  0.16283827894E+03  0.98805480624E+03  0.91286534196E+03 0.  0.
        -24    2    4    4    0    0  0.52924971501E+02 -0.48343383762E+03  0.25007319024E+03  0.55255645991E+03  0.79200460497E+02 0.  0.
         24    2    4    4    0    0  0.25421967485E+03  0.33485716139E+03 -0.87234911299E+02  0.43549834633E+03  0.72745572320E+02 0.  0.
         11    1    3    3    0    0 -0.15778759107E+02  0.91870527120E+01  0.91038633768E+01  0.20402242643E+02  0.00000000000E+00 0. -1.
        -11    1    3    3    0    0 -0.29136588724E+03  0.13938962352E+03  0.70473164910E+03  0.77522270648E+03  0.00000000000E+00 0.  1.
          2    1    6    6  502    0  0.48289980526E+02  0.32593137609E+02  0.44666590382E+01  0.58431035258E+02  0.00000000000E+00 0. -1.
          3    1    5    5  503    0  0.33698368524E+02 -0.24593864129E+03  0.83780678968E+02  0.26199350658E+03  0.00000000000E+00 0. -1.
         -4    1    5    5    0  503  0.19226602977E+02 -0.23749519633E+03  0.16629251127E+03  0.29056295333E+03  0.00000000000E+00 0.  1.
         -3    1    6    6    0  502  0.20592969432E+03  0.30226402378E+03 -0.91701570337E+02  0.37706731107E+03  0.00000000000E+00 0.  1.
<mgrwt>
<rscale>  0 0.15533694E+04</rscale>
<asrwt>0</asrwt>
<pdfrwt beam="1">  1        2 0.69769690E-01 0.15533694E+04</pdfrwt>
<pdfrwt beam="2">  1       -2 0.20464258E+00 0.15533694E+04</pdfrwt>
<totfact> 0.82192899E+00</totfact>
</mgrwt>
</event>
<event>
12    1  0.1562393E-007  0.2229634E+04  0.7818608E-02  0.8506194E-01
          1   -1    0    0  501    0  0.00000000000E+00  0.00000000000E+00  0.69501176776E+03  0.69501176776E+03  0.00000000000E+00 0. -1.
         -1   -1    0    0    0  501 -0.00000000000E+00 -0.00000000000E+00 -0.17881954475E+04  0.17881954475E+04  0.00000000000E+00 0.  1.
         23    2    1    2    0    0 -0.31631941034E+03  0.38459558735E+03 -0.13233095798E+04  0.14166724395E+04  0.88548415233E+02 0.  0.
        254    2    1    2    0    0  0.31631941034E+03 -0.38459558735E+03  0.23012590007E+03  0.10665347757E+04  0.91464023677E+03 0.  0.
        -24    2    4    4    0    0  0.19061777584E+03  0.27193468118E+03  0.19388048314E+03  0.39229827939E+03  0.77618882850E+02 0.  0.
         24    2    4    4    0    0  0.12570163451E+03 -0.65653026853E+03  0.36245416930E+02  0.67423649630E+03  0.80300861051E+02 0.  0.
         11    1    3    3    0    0 -0.51172672574E+01 -0.49167570770E+01 -0.22486061411E+02  0.23579310467E+02  0.00000000000E+00 0. -1.
        -11    1    3    3    0    0 -0.31120214309E+03  0.38951234442E+03 -0.13008235184E+04  0.13930931291E+04  0.00000000000E+00 0.  1.
          2    1    6    6  502    0  0.91700919997E+02 -0.29703041969E+03 -0.40592889968E+01  0.31089002360E+03  0.00000000000E+00 0. -1.
          1    1    5    5  503    0  0.15559321579E+03  0.25701764531E+03  0.18619092783E+03  0.35346057829E+03  0.00000000000E+00 0. -1.
         -2    1    5    5    0  503  0.35024560047E+02  0.14917035878E+02  0.76895553051E+01  0.38837701099E+02  0.00000000000E+00 0.  1.
         -1    1    6    6    0  502  0.34000714510E+02 -0.35949984884E+03  0.40304705927E+02  0.36334647270E+03  0.00000000000E+00 0.  1.
<mgrwt>
<rscale>  0 0.22296339E+04</rscale>
<asrwt>0</asrwt>
<pdfrwt beam="1">  1        1 0.10692489E+00 0.22296339E+04</pdfrwt>
<pdfrwt beam="2">  1       -1 0.27510699E+00 0.22296339E+04</pdfrwt>
<totfact> 0.11992284E+00</totfact>
</mgrwt>
</event>
<event>
12    1  0.1562393E-007  0.1435353E+04  0.7818608E-02  0.8928618E-01
         -2   -1    0    0    0  501 -0.00000000000E+00  0.00000000000E+00  0.29950898196E+03  0.29950898196E+03  0.00000000000E+00 0.  1.
          2   -1    0    0  501    0  0.00000000000E+00 -0.00000000000E+00 -0.17196807936E+04  0.17196807936E+04  0.00000000000E+00 0. -1.
         23    2    1    2    0    0 -0.19676518803E+03 -0.36810376009E+03 -0.27994025228E+03  0.51065189921E+03  0.90453855137E+02 0.  0.
        254    2    1    2    0    0  0.19676518803E+03  0.36810376009E+03 -0.11402315594E+04  0.15085378763E+04  0.89517685292E+03 0.  0.
        -24    2    4    4    0    0 -0.16330229395E+03  0.22624085434E+03 -0.10685132307E+04  0.11072121146E+04  0.79659143404E+02 0.  0.
         24    2    4    4    0    0  0.36006748198E+03  0.14186290575E+03 -0.71718328638E+02  0.40132576174E+03  0.78391152361E+02 0.  0.
         11    1    3    3    0    0 -0.12400487338E+03 -0.26178712498E+03 -0.23879629584E+03  0.37541094594E+03  0.00000000000E+00 0. -1.
        -11    1    3    3    0    0 -0.72760314650E+02 -0.10631663511E+03 -0.41143956438E+02  0.13524095327E+03  0.00000000000E+00 0.  1.
          4    1    6    6  502    0  0.59519795154E+02 -0.34370444623E+00 -0.28642822735E+02  0.66054034261E+02  0.00000000000E+00 0. -1.
          1    1    5    5  503    0 -0.25516757417E+02  0.32424015671E+02 -0.74635139940E+02  0.85280864296E+02  0.00000000000E+00 0. -1.
         -2    1    5    5    0  503 -0.13778553653E+03  0.19381683867E+03 -0.99387809078E+03  0.10219312503E+04  0.00000000000E+00 0.  1.
         -3    1    6    6    0  502  0.30054768682E+03  0.14220661019E+03 -0.43075505903E+02  0.33527172748E+03  0.00000000000E+00 0.  1.
<mgrwt>
<rscale>  0 0.14353534E+04</rscale>
<asrwt>0</asrwt>
<pdfrwt beam="1">  1        2 0.26456628E+00 0.14353534E+04</pdfrwt>
<pdfrwt beam="2">  1       -2 0.46078305E-01 0.14353534E+04</pdfrwt>
<totfact> 0.41454408E+01</totfact>
</mgrwt>
</event>
<event>
12    1  0.1562393E-007  0.1149118E+04  0.7818608E-02  0.9158598E-01
          2   -1    0    0  501    0  0.00000000000E+00  0.00000000000E+00  0.18344547096E+04  0.18344547096E+04  0.00000000000E+00 0. -1.
         -2   -1    0    0    0  501 -0.00000000000E+00 -0.00000000000E+00 -0.17995434762E+03  0.17995434762E+03  0.00000000000E+00 0.  1.
         23    2    1    2    0    0 -0.10235091044E+03 -0.14420260891E+03  0.96368511301E+02  0.22088866539E+03  0.90745860733E+02 0.  0.
        254    2    1    2    0    0  0.10235091044E+03  0.14420260891E+03  0.15581318507E+04  0.17935203919E+04  0.87044266357E+03 0.  0.
        -24    2    4    4    0    0 -0.22704635071E+03 -0.25157711566E+03  0.45366969379E+03  0.57232490175E+03  0.83057279072E+02 0.  0.
         24    2    4    4    0    0  0.32939726116E+03  0.39577972457E+03  0.11044621569E+04  0.12211954901E+04  0.79609188969E+02 0.  0.
         13    1    3    3    0    0 -0.10020785348E+03 -0.77102349342E+02  0.86110102376E+02  0.15297495189E+03  0.00000000000E+00 0.  1.
        -13    1    3    3    0    0 -0.21430569606E+01 -0.67100259572E+02  0.10258408925E+02  0.67913713501E+02  0.00000000000E+00 0. -1.
          4    1    6    6  502    0  0.20616715244E+03  0.20939403836E+03  0.69872665224E+03  0.75800375500E+03  0.00000000000E+00 0. -1.
          1    1    5    5  503    0 -0.18411744062E+03 -0.16873365302E+03  0.28012001519E+03  0.37528322706E+03  0.00000000000E+00 0. -1.
         -2    1    5    5    0  503 -0.42928910093E+02 -0.82843462641E+02  0.17354967860E+03  0.19704167469E+03  0.00000000000E+00 0.  1.
         -3    1    6    6    0  502  0.12323010872E+03  0.18638568621E+03  0.40573550469E+03  0.46319173512E+03  0.00000000000E+00 0.  1.
<mgrwt>
<rscale>  0 0.11491181E+04</rscale>
<asrwt>0</asrwt>
<pdfrwt beam="1">  1        2 0.28222379E+00 0.11491181E+04</pdfrwt>
<pdfrwt beam="2">  1       -2 0.27685285E-01 0.11491181E+04</pdfrwt>
<totfact> 0.97346850E+01</totfact>
</mgrwt>
</event>
<event>
12    1  0.1562393E-007  0.2232754E+04  0.7818608E-02  0.8504918E-01
         -2   -1    0    0    0  501 -0.00000000000E+00  0.00000000000E+00  0.34059467876E+03  0.34059467876E+03  0.00000000000E+00 0. -1.
          2   -1    0    0  501    0  0.00000000000E+00 -0.00000000000E+00 -0.36591808342E+04  0.36591808342E+04  0.00000000000E+00 0.  1.
         23    2    1    2    0    0 -0.91303092759E+03 -0.14113527600E+03 -0.15996973233E+04  0.18510555359E+04  0.11760284914E+03 0.  0.
        254    2    1    2    0    0  0.91303092759E+03  0.14113527600E+03 -0.17188888322E+04  0.21487199771E+04  0.89937427221E+03 0.  0.
        -24    2    4    4    0    0 -0.35850966154E+02 -0.24322109248E+03 -0.41390464732E+03  0.48812357262E+03  0.80658375101E+02 0.  0.
         24    2    4    4    0    0  0.94888189374E+03  0.38435636847E+03 -0.13049841849E+04  0.16605964044E+04  0.80560718742E+02 0.  0.
         13    1    3    3    0    0 -0.39402290143E+03 -0.19403494619E+02 -0.59939872029E+03  0.71757185588E+03  0.00000000000E+00 0.  1.
        -13    1    3    3    0    0 -0.51900802616E+03 -0.12173178138E+03 -0.10002986030E+04  0.11334836801E+04  0.00000000000E+00 0. -1.
          4    1    6    6  502    0  0.24465098028E+03  0.95013748951E+02 -0.27986585625E+03  0.38367513881E+03  0.00000000000E+00 0. -1.
          3    1    5    5  503    0 -0.39433687762E+02 -0.51282723909E+02 -0.79080971940E+02  0.10217012100E+03  0.00000000000E+00 0. -1.
         -4    1    5    5    0  503  0.35827216081E+01 -0.19193836857E+03 -0.33482367538E+03  0.38595345162E+03  0.00000000000E+00 0.  1.
         -3    1    6    6    0  502  0.70423091346E+03  0.28934261952E+03 -0.10251183286E+04  0.12769212656E+04  0.00000000000E+00 0.  1.
<mgrwt>
<rscale>  0 0.22327539E+04</rscale>
<asrwt>0</asrwt>
<pdfrwt beam="1">  1        2 0.56295092E+00 0.22327539E+04</pdfrwt>
<pdfrwt beam="2">  1       -2 0.52399180E-01 0.22327539E+04</pdfrwt>
<totfact> 0.19679220E+00</totfact>
</mgrwt>
</event>
<event>
12    1  0.1562393E-007  0.1355921E+04  0.7818608E-02  0.8986358E-01
         -2   -1    0    0    0  501 -0.00000000000E+00  0.00000000000E+00  0.16003244470E+03  0.16003244470E+03  0.00000000000E+00 0.  1.
          2   -1    0    0  501    0  0.00000000000E+00 -0.00000000000E+00 -0.28721060870E+04  0.28721060870E+04  0.00000000000E+00 0. -1.
         23    2    1    2    0    0 -0.24514836060E+03 -0.17419265772E+03 -0.27034847991E+03  0.41457141640E+03  0.91325560499E+02 0.  0.
        254    2    1    2    0    0  0.24514836060E+03  0.17419265772E+03 -0.24417251624E+04  0.26175671153E+04  0.89397708791E+03 0.  0.
        -24    2    4    4    0    0 -0.16280696337E+03 -0.27516170805E+03 -0.92035132372E+03  0.97765361163E+03  0.80869971970E+02 0.  0.
         24    2    4    4    0    0  0.40795532397E+03  0.44935436576E+03 -0.15213738387E+04  0.16399135037E+04  0.79944043685E+02 0.  0.
         11    1    3    3    0    0 -0.22736004350E+03 -0.17844466604E+03 -0.27109455414E+03  0.39626676053E+03  0.00000000000E+00 0. -1.
        -11    1    3    3    0    0 -0.17788317100E+02  0.42520083205E+01  0.74607422132E+00  0.18304655876E+02  0.00000000000E+00 0.  1.
          4    1    6    6  502    0  0.21367325836E+03  0.22847382136E+03 -0.67735984648E+03  0.74610516015E+03  0.00000000000E+00 0. -1.
          3    1    5    5  503    0 -0.11038521076E+03 -0.20197582203E+03 -0.54409998396E+03  0.59078246418E+03  0.00000000000E+00 0. -1.
         -4    1    5    5    0  503 -0.52421752608E+02 -0.73185886020E+02 -0.37625133975E+03  0.38687114745E+03  0.00000000000E+00 0.  1.
         -3    1    6    6    0  502  0.19428206561E+03  0.22088054440E+03 -0.84401399221E+03  0.89380834353E+03  0.00000000000E+00 0.  1.
<mgrwt>
<rscale>  0 0.13559206E+04</rscale>
<asrwt>0</asrwt>
<pdfrwt beam="1">  1        2 0.44186250E+00 0.13559206E+04</pdfrwt>
<pdfrwt beam="2">  1       -2 0.24620375E-01 0.13559206E+04</pdfrwt>
<totfact> 0.30349137E+01</totfact>
</mgrwt>
</event>
<event>
12    1  0.1562393E-007  0.2261385E+04  0.7818608E-02  0.8493304E-01
         -1   -1    0    0    0  501 -0.00000000000E+00  0.00000000000E+00  0.23366556306E+04  0.23366556306E+04  0.00000000000E+00 0.  1.
          1   -1    0    0  501    0  0.00000000000E+00 -0.00000000000E+00 -0.54713482699E+03  0.54713482699E+03  0.00000000000E+00 0. -1.
         23    2    1    2    0    0 -0.11363861756E+03 -0.26890347829E+03 -0.39599331865E+03  0.50048622314E+03  0.91939844993E+02 0.  0.
        254    2    1    2    0    0  0.11363861756E+03  0.26890347829E+03  0.21855141223E+04  0.23833042345E+04  0.90467910298E+03 0.  0.
        -24    2    4    4    0    0 -0.16357017294E+03  0.52771552910E+03  0.11730812987E+04  0.12991305711E+04  0.79885080667E+02 0.  0.
         24    2    4    4    0    0  0.27720879050E+03 -0.25881205081E+03  0.10124328236E+04  0.10841736634E+04  0.81141352412E+02 0.  0.
         13    1    3    3    0    0 -0.62466091451E+02 -0.22460692975E+03 -0.26435819043E+03  0.35247062051E+03  0.00000000000E+00 0. -1.
        -13    1    3    3    0    0 -0.51172526108E+02 -0.44296548543E+02 -0.13163512822E+03  0.14801560263E+03  0.00000000000E+00 0.  1.
          2    1    6    6  502    0  0.37723837664E+02 -0.81623480898E+02  0.23669609588E+03  0.25320055760E+03  0.00000000000E+00 0. -1.
          3    1    5    5  503    0 -0.91222487739E+01  0.12618246152E+03  0.22829926503E+03  0.26100916349E+03  0.00000000000E+00 0. -1.
         -4    1    5    5    0  503 -0.15444792416E+03  0.40153306758E+03  0.94478203370E+03  0.10381214076E+04  0.00000000000E+00 0.  1.
         -1    1    6    6    0  502  0.23948495283E+03 -0.17718856991E+03  0.77573672768E+03  0.83097310583E+03  0.00000000000E+00 0.  1.
<mgrwt>
<rscale>  0 0.22613851E+04</rscale>
<asrwt>0</asrwt>
<pdfrwt beam="1">  1        1 0.84174590E-01 0.22613851E+04</pdfrwt>
<pdfrwt beam="2">  1       -1 0.35948548E+00 0.22613851E+04</pdfrwt>
<totfact> 0.47658264E-01</totfact>
</mgrwt>
</event>
<event>
12    1  0.1562393E-007  0.2703760E+04  0.7818608E-02  0.8333786E-01
         -2   -1    0    0    0  501 -0.00000000000E+00  0.00000000000E+00  0.49873510835E+03  0.49873510835E+03  0.00000000000E+00 0. -1.
          2   -1    0    0  501    0  0.00000000000E+00 -0.00000000000E+00 -0.36644295525E+04  0.36644295525E+04  0.00000000000E+00 0.  1.
         23    2    1    2    0    0  0.50901183607E+03 -0.10539891094E+04 -0.10057685532E+04  0.15460594035E+04  0.93505103436E+02 0.  0.
        254    2    1    2    0    0 -0.50901183607E+03  0.10539891094E+04 -0.21599258909E+04  0.26171052574E+04  0.90220506659E+03 0.  0.
        -24    2    4    4    0    0  0.75665164782E+02  0.72501111403E+03 -0.15147327881E+04  0.16828727979E+04  0.79240784911E+02 0.  0.
         24    2    4    4    0    0 -0.58467700086E+03  0.32897799534E+03 -0.64519310276E+03  0.93423245945E+03  0.80264759920E+02 0.  0.
         11    1    3    3    0    0  0.18939691021E+02 -0.98135690244E+02 -0.90815078131E+02  0.13504334123E+03  0.00000000000E+00 0.  1.
        -11    1    3    3    0    0  0.49007214505E+03 -0.95585341913E+03 -0.91495347512E+03  0.14110160622E+04  0.00000000000E+00 0. -1.
          2    1    6    6  502    0 -0.22406130392E+03  0.13030488756E+03 -0.19646676373E+03  0.32524148088E+03  0.00000000000E+00 0. -1.
          1    1    5    5  503    0  0.43197701965E+02  0.50979894304E+03 -0.11394766826E+04  0.12490668973E+04  0.00000000000E+00 0. -1.
         -2    1    5    5    0  503  0.32467462817E+02  0.21521217099E+03 -0.37525610557E+03  0.43380590066E+03  0.00000000000E+00 0.  1.
         -1    1    6    6    0  502 -0.36061569694E+03  0.19867310778E+03 -0.44872633903E+03  0.60899097856E+03  0.00000000000E+00 0.  1.
<mgrwt>
<rscale>  0 0.27037601E+04</rscale>
<asrwt>0</asrwt>
<pdfrwt beam="1">  1        2 0.56375837E+00 0.27037601E+04</pdfrwt>
<pdfrwt beam="2">  1       -2 0.76728482E-01 0.27037601E+04</pdfrwt>
<totfact> 0.82570868E-01</totfact>
</mgrwt>
</event>
<event>
12    1  0.1562393E-007  0.1519734E+04  0.7818608E-02  0.8871435E-01
          4   -1    0    0  501    0  0.00000000000E+00  0.00000000000E+00  0.35425684546E+03  0.35425684546E+03  0.00000000000E+00 0. -1.
         -4   -1    0    0    0  501 -0.00000000000E+00 -0.00000000000E+00 -0.16298855115E+04  0.16298855115E+04  0.00000000000E+00 0.  1.
         23    2    1    2    0    0  0.29283005863E+03 -0.15875834624E+03 -0.87859071217E+03  0.94401895615E+03  0.91085093793E+02 0.  0.
        254    2    1    2    0    0 -0.29283005863E+03  0.15875834624E+03 -0.39703795385E+03  0.10401234008E+04  0.90181145276E+03 0.  0.
        -24    2    4    4    0    0 -0.20937055609E+03  0.80599827079E+02  0.27013610813E+03  0.35847053848E+03  0.72078069871E+02 0.  0.
         24    2    4    4    0    0 -0.83459502546E+02  0.78158519159E+02 -0.66717406198E+03  0.68165286231E+03  0.80343966985E+02 0.  0.
         11    1    3    3    0    0  0.44993854944E+02 -0.63767178006E+02 -0.24338776113E+03  0.25559401840E+03  0.00000000000E+00 0. -1.
        -11    1    3    3    0    0  0.24783620369E+03 -0.94991168232E+02 -0.63520295104E+03  0.68842493775E+03  0.00000000000E+00 0.  1.
          2    1    6    6  502    0 -0.32003845879E+02  0.76636967990E+02 -0.31625629902E+03  0.32697938419E+03  0.00000000000E+00 0. -1.
          3    1    5    5  503    0 -0.11438958826E+03  0.15247684870E+02  0.98586909373E+02  0.15177894616E+03  0.00000000000E+00 0. -1.
         -4    1    5    5    0  503 -0.94980967826E+02  0.65352142209E+02  0.17154919876E+03  0.20669159232E+03  0.00000000000E+00 0.  1.
         -1    1    6    6    0  502 -0.51455656667E+02  0.15215511690E+01 -0.35091776296E+03  0.35467347812E+03  0.00000000000E+00 0.  1.
<mgrwt>
<rscale>  0 0.15197343E+04</rscale>
<asrwt>0</asrwt>
<pdfrwt beam="1">  1        4 0.54501054E-01 0.15197343E+04</pdfrwt>
<pdfrwt beam="2">  1       -4 0.25075161E+00 0.15197343E+04</pdfrwt>
<totfact> 0.38901127E-01</totfact>
</mgrwt>
</event>
<event>
12    1  0.1562393E-007  0.1662685E+04  0.7818608E-02  0.8782938E-01
          2   -1    0    0  501    0  0.00000000000E+00  0.00000000000E+00  0.35045699928E+04  0.35045699928E+04  0.00000000000E+00 0. -1.
         -2   -1    0    0    0  501 -0.00000000000E+00 -0.00000000000E+00 -0.19720822760E+03  0.19720822760E+03  0.00000000000E+00 0.  1.
         23    2    1    2    0    0  0.30658008339E+03  0.45257932029E+03  0.70668662499E+03  0.89799689991E+03  0.90404964593E+02 0.  0.
        254    2    1    2    0    0 -0.30658008339E+03 -0.45257932029E+03  0.26006751402E+04  0.28037813204E+04  0.89378919189E+03 0.  0.
        -24    2    4    4    0    0  0.98915586917E+02  0.21135148301E+03  0.87719046128E+03  0.91108001464E+03  0.78421585059E+02 0.  0.
         24    2    4    4    0    0 -0.40549567030E+03 -0.66393080330E+03  0.17234846789E+04  0.18927013058E+04  0.81779853654E+02 0.  0.
         13    1    3    3    0    0  0.22225960940E+03  0.32663141228E+03  0.57234870335E+03  0.69546419871E+03  0.00000000000E+00 0.  1.
        -13    1    3    3    0    0  0.84320473983E+02  0.12594790801E+03  0.13433792164E+03  0.20253270120E+03  0.00000000000E+00 0. -1.
          4    1    6    6  502    0 -0.22714652305E+03 -0.32462015418E+03  0.79695381320E+03  0.89000515044E+03  0.00000000000E+00 0. -1.
          1    1    5    5  503    0  0.63333491524E+02  0.64027740902E+02  0.24655739894E+03  0.26249044502E+03  0.00000000000E+00 0. -1.
         -2    1    5    5    0  503  0.35582095393E+02  0.14732374211E+03  0.63063306234E+03  0.64858956962E+03  0.00000000000E+00 0.  1.
         -3    1    6    6    0  502 -0.17834914725E+03 -0.33931064912E+03  0.92653086568E+03  0.10026961554E+04  0.00000000000E+00 0.  1.
<mgrwt>
<rscale>  0 0.16626846E+04</rscale>
<asrwt>0</asrwt>
<pdfrwt beam="1">  1        2 0.53916457E+00 0.16626846E+04</pdfrwt>
<pdfrwt beam="2">  1       -2 0.30339730E-01 0.16626846E+04</pdfrwt>
<totfact> 0.78160121E+00</totfact>
</mgrwt>
</event>
<event>
12    1  0.1562393E-007  0.1145732E+04  0.7818608E-02  0.9161730E-01
         -1   -1    0    0    0  501 -0.00000000000E+00  0.00000000000E+00  0.20463359084E+03  0.20463359084E+03  0.00000000000E+00 0.  1.
          1   -1    0    0  501    0  0.00000000000E+00 -0.00000000000E+00 -0.16037224258E+04  0.16037224258E+04  0.00000000000E+00 0. -1.
         23    2    1    2    0    0  0.54082197609E+02  0.17556195599E+02 -0.59050216537E+03  0.59971711373E+03  0.87947172155E+02 0.  0.
        254    2    1    2    0    0 -0.54082197609E+02 -0.17556195599E+02 -0.80858666955E+03  0.12086389029E+04  0.89652802035E+03 0.  0.
        -24    2    4    4    0    0  0.40377771679E+03 -0.29780020304E+02 -0.51117792784E+03  0.65708252382E+03  0.80816304177E+02 0.  0.
         24    2    4    4    0    0 -0.45785991440E+03  0.12223824704E+02 -0.29740874171E+03  0.55155637905E+03  0.77313365728E+02 0.  0.
         11    1    3    3    0    0  0.44701397273E+02  0.47334636015E+02 -0.27177875352E+03  0.27946819774E+03  0.00000000000E+00 0.  1.
        -11    1    3    3    0    0  0.93808003361E+01 -0.29778440416E+02 -0.31872341185E+03  0.32024891599E+03  0.00000000000E+00 0. -1.
          2    1    6    6  502    0 -0.33023724626E+03 -0.10273134157E+02 -0.17777678245E+03  0.37518896636E+03  0.00000000000E+00 0. -1.
          3    1    5    5  503    0  0.33324275427E+03 -0.25946823717E+01 -0.44926513933E+03  0.55937163949E+03  0.00000000000E+00 0. -1.
         -4    1    5    5    0  503  0.70534962524E+02 -0.27185337932E+02 -0.61912788508E+02  0.97710884335E+02  0.00000000000E+00 0.  1.
         -1    1    6    6    0  502 -0.12762266815E+03  0.22496958861E+02 -0.11963195927E+03  0.17636741269E+03  0.00000000000E+00 0.  1.
<mgrwt>
<rscale>  0 0.11457320E+04</rscale>
<asrwt>0</asrwt>
<pdfrwt beam="1">  1        1 0.24672652E+00 0.11457320E+04</pdfrwt>
<pdfrwt beam="2">  1       -1 0.31482091E-01 0.11457320E+04</pdfrwt>
<totfact> 0.51653618E+01</totfact>
</mgrwt>
</event>
<event>
12    1  0.1562393E-007  0.2345677E+04  0.7818608E-02  0.8460126E-01
          1   -1    0    0  501    0  0.00000000000E+00  0.00000000000E+00  0.15035749471E+04  0.15035749471E+04  0.00000000000E+00 0. -1.
         -1   -1    0    0    0  501 -0.00000000000E+00 -0.00000000000E+00 -0.91485289735E+03  0.91485289735E+03  0.00000000000E+00 0.  1.
         23    2    1    2    0    0 -0.14928406580E+03 -0.45086981312E+03 -0.65274764549E+03  0.81235501047E+03  0.90949731520E+02 0.  0.
        254    2    1    2    0    0  0.14928406580E+03  0.45086981312E+03  0.12414696952E+04  0.16060728340E+04  0.90147302962E+03 0.  0.
        -24    2    4    4    0    0  0.28601609651E+03  0.13409171384E+03  0.11672845725E+02  0.32605069367E+03  0.79918735827E+02 0.  0.
         24    2    4    4    0    0 -0.13673203070E+03  0.31677809928E+03  0.12297968495E+04  0.12800221403E+04  0.83739931838E+02 0.  0.
         11    1    3    3    0    0 -0.96357278804E+02 -0.22585710760E+03 -0.26778627637E+03  0.36332581527E+03  0.00000000000E+00 0. -1.
        -11    1    3    3    0    0 -0.52926786997E+02 -0.22501270552E+03 -0.38496136912E+03  0.44902919520E+03  0.00000000000E+00 0.  1.
          2    1    6    6  502    0 -0.13067822140E+03  0.21896341693E+03  0.94680112388E+03  0.98053768091E+03  0.00000000000E+00 0. -1.
          1    1    5    5  503    0  0.27846121462E+03  0.13630610839E+03  0.24501564563E+02  0.31099892266E+03  0.00000000000E+00 0. -1.
         -2    1    5    5    0  503  0.75548818873E+01 -0.22143945472E+01 -0.12828718839E+02  0.15051771011E+02  0.00000000000E+00 0.  1.
         -1    1    6    6    0  502 -0.60538093059E+01  0.97814682353E+02  0.28299572561E+03  0.29948445937E+03  0.00000000000E+00 0.  1.
<mgrwt>
<rscale>  0 0.23456768E+04</rscale>
<asrwt>0</asrwt>
<pdfrwt beam="1">  1        1 0.23131922E+00 0.23456768E+04</pdfrwt>
<pdfrwt beam="2">  1       -1 0.14074660E+00 0.23456768E+04</pdfrwt>
<totfact> 0.24207279E+00</totfact>
</mgrwt>
</event>
<event>
12    1  0.1562393E-007  0.1852328E+04  0.7818608E-02  0.8678957E-01
         -1   -1    0    0    0  501 -0.00000000000E+00  0.00000000000E+00  0.22490303145E+04  0.22490303145E+04  0.00000000000E+00 0.  1.
          1   -1    0    0  501    0  0.00000000000E+00 -0.00000000000E+00 -0.38139972805E+03  0.38139972805E+03  0.00000000000E+00 0. -1.
         23    2    1    2    0    0 -0.66935776526E+03 -0.52681104176E+02  0.48419831362E+03  0.83259012261E+03  0.89124568488E+02 0.  0.
        254    2    1    2    0    0  0.66935776526E+03  0.52681104176E+02  0.13834322728E+04  0.17978399199E+04  0.93141205036E+03 0.  0.
        -24    2    4    4    0    0  0.62795459077E+03  0.24006367347E+03  0.14323256160E+04  0.15842367406E+04  0.79321147547E+02 0.  0.
         24    2    4    4    0    0  0.41403174490E+02 -0.18738256929E+03 -0.48893343190E+02  0.21360317937E+03  0.80058160718E+02 0.  0.
         11    1    3    3    0    0 -0.24786031673E+03  0.19070587327E+01  0.22508224770E+03  0.33481396583E+03  0.00000000000E+00 0.  1.
        -11    1    3    3    0    0 -0.42149744853E+03 -0.54588162909E+02  0.25911606591E+03  0.49777615678E+03  0.00000000000E+00 0. -1.
          2    1    6    6  502    0  0.19775593086E+02 -0.11198367423E+03 -0.68495083733E+02  0.13275162474E+03  0.00000000000E+00 0. -1.
          3    1    5    5  503    0  0.58048736333E+03  0.24298398453E+03  0.13247842351E+04  0.14666492646E+04  0.00000000000E+00 0. -1.
         -2    1    5    5    0  503  0.47467227444E+02 -0.29203110594E+01  0.10754138090E+03  0.11758747596E+03  0.00000000000E+00 0.  1.
         -1    1    6    6    0  502  0.21627581404E+02 -0.75398895067E+02  0.19601740542E+02  0.80851554635E+02  0.00000000000E+00 0.  1.
<mgrwt>
<rscale>  0 0.18523278E+04</rscale>
<asrwt>0</asrwt>
<pdfrwt beam="1">  1        1 0.58676882E-01 0.18523278E+04</pdfrwt>
<pdfrwt beam="2">  1       -1 0.34600466E+00 0.18523278E+04</pdfrwt>
<totfact> 0.99377162E-01</totfact>
</mgrwt>
</event>
<event>
12    1  0.1939096E-007  0.1649190E+04  0.7818608E-02  0.8790886E-01
         -3   -1    0    0    0  501 -0.00000000000E+00  0.00000000000E+00  0.54148550903E+03  0.54148550903E+03  0.00000000000E+00 0.  1.
          3   -1    0    0  501    0  0.00000000000E+00 -0.00000000000E+00 -0.12557252278E+04  0.12557252278E+04  0.00000000000E+00 0. -1.
         23    2    1    2    0    0 -0.14559543919E+03  0.15310221162E+03  0.33013838290E+03  0.40413395138E+03  0.98461056660E+02 0.  0.
        254    2    1    2    0    0  0.14559543919E+03 -0.15310221162E+03 -0.10443781017E+04  0.13930767854E+04  0.89738452838E+03 0.  0.
        -24    2    4    4    0    0 -0.26832145580E+03 -0.35204837900E+03 -0.44012097312E+03  0.62954233897E+03  0.81747298297E+02 0.  0.
         24    2    4    4    0    0  0.41391689499E+03  0.19894616738E+03 -0.60425712853E+03  0.76353444646E+03  0.83375056671E+02 0.  0.
         11    1    3    3    0    0 -0.40009056563E+02  0.39555624838E+01  0.21855847891E+02  0.45760781994E+02  0.00000000000E+00 0. -1.
        -11    1    3    3    0    0 -0.10558638263E+03  0.14914664913E+03  0.30828253501E+03  0.35837316938E+03  0.00000000000E+00 0.  1.
          4    1    6    6  502    0  0.10082202175E+03  0.74024273814E+02 -0.11871830428E+03  0.17244914890E+03  0.00000000000E+00 0. -1.
          3    1    5    5  503    0 -0.63008435894E+01 -0.48681795367E+00 -0.24839798281E+02  0.25631098305E+02  0.00000000000E+00 0. -1.
         -4    1    5    5    0  503 -0.26202061221E+03 -0.35156156104E+03 -0.41528117484E+03  0.60391124067E+03  0.00000000000E+00 0.  1.
         -3    1    6    6    0  502  0.31309487324E+03  0.12492189356E+03 -0.48553882425E+03  0.59108529756E+03  0.00000000000E+00 0.  1.
<mgrwt>
<rscale>  0 0.16491901E+04</rscale>
<asrwt>0</asrwt>
<pdfrwt beam="1">  1        3 0.19318849E+00 0.16491901E+04</pdfrwt>
<pdfrwt beam="2">  1       -3 0.83305464E-01 0.16491901E+04</pdfrwt>
<totfact> 0.54067684E-01</totfact>
</mgrwt>
</event>
<event>
12    1  0.1562393E-007  0.2928501E+04  0.7818608E-02  0.8264448E-01
          2   -1    0    0  501    0  0.00000000000E+00  0.00000000000E+00  0.14624028334E+04  0.14624028334E+04  0.00000000000E+00 0. -1.
         -2   -1    0    0    0  501 -0.00000000000E+00 -0.00000000000E+00 -0.14661000042E+04  0.14661000042E+04  0.00000000000E+00 0.  1.
         23    2    1    2    0    0 -0.62364055201E+03  0.28598755888E+03 -0.11326822693E+04  0.13275046534E+04  0.92644803441E+02 0.  0.
        254    2    1    2    0    0  0.62364055201E+03 -0.28598755888E+03  0.11289850985E+04  0.16009981841E+04  0.90436243344E+03 0.  0.
        -24    2    4    4    0    0  0.37915844035E+03 -0.58556992320E+03  0.90930571908E+03  0.11488866835E+04  0.80314774171E+02 0.  0.
         24    2    4    4    0    0  0.24448211166E+03  0.29958236431E+03  0.21967937944E+03  0.45211150064E+03  0.81392157660E+02 0.  0.
         13    1    3    3    0    0 -0.42597569627E+03  0.15316144042E+03 -0.78288060096E+03  0.90433166262E+03  0.00000000000E+00 0.  1.
        -13    1    3    3    0    0 -0.19766485573E+03  0.13282611846E+03 -0.34980166838E+03  0.42317299080E+03  0.00000000000E+00 0. -1.
          4    1    6    6  502    0  0.19362350274E+03  0.26870079940E+03  0.20909560990E+03  0.39167736020E+03  0.00000000000E+00 0. -1.
          1    1    5    5  503    0  0.37722153990E+03 -0.58727631652E+03  0.89839325326E+03  0.11376730636E+04  0.00000000000E+00 0. -1.
         -2    1    5    5    0  503  0.19369004497E+01  0.17063933205E+01  0.10912465812E+02  0.11213619916E+02  0.00000000000E+00 0.  1.
         -3    1    6    6    0  502  0.50858608922E+02  0.30881564915E+02  0.10583769533E+02  0.60434140439E+02  0.00000000000E+00 0.  1.
<mgrwt>
<rscale>  0 0.29285005E+04</rscale>
<asrwt>0</asrwt>
<pdfrwt beam="1">  1        2 0.22498505E+00 0.29285005E+04</pdfrwt>
<pdfrwt beam="2">  1       -2 0.22555385E+00 0.29285005E+04</pdfrwt>
<totfact> 0.10466393E+00</totfact>
</mgrwt>
</event>
<event>
12    1  0.1562393E-007  0.2643237E+04  0.7818608E-02  0.8353661E-01
         -2   -1    0    0    0  501 -0.00000000000E+00  0.00000000000E+00  0.88270452836E+03  0.88270452836E+03  0.00000000000E+00 0.  1.
          2   -1    0    0  501    0  0.00000000000E+00 -0.00000000000E+00 -0.19787775844E+04  0.19787775844E+04  0.00000000000E+00 0. -1.
         23    2    1    2    0    0  0.23720046850E+03  0.63467212010E+03 -0.15158185891E+04  0.16628070651E+04  0.90269476098E+02 0.  0.
        254    2    1    2    0    0 -0.23720046850E+03 -0.63467212010E+03  0.41974553305E+03  0.11986750477E+04  0.89530039380E+03 0.  0.
        -24    2    4    4    0    0  0.25790889376E+03  0.16581000496E+02 -0.10611535670E+02  0.27066393886E+03  0.79714716671E+02 0.  0.
         24    2    4    4    0    0 -0.49510936226E+03 -0.65125312060E+03  0.43035706872E+03  0.92801110883E+03  0.82057929688E+02 0.  0.
         13    1    3    3    0    0  0.19056609488E+03  0.48681958660E+03 -0.10718459742E+04  0.11925445647E+04  0.00000000000E+00 0. -1.
        -13    1    3    3    0    0  0.46634373620E+02  0.14785253350E+03 -0.44397261495E+03  0.47026250041E+03  0.00000000000E+00 0.  1.
          4    1    6    6  502    0 -0.29626715080E+03 -0.43442399710E+03  0.30789371230E+03  0.60934142479E+03  0.00000000000E+00 0. -1.
          1    1    5    5  503    0  0.20740697956E+03  0.32522277230E+02 -0.34166942123E+02  0.21270339354E+03  0.00000000000E+00 0. -1.
         -2    1    5    5    0  503  0.50501914192E+02 -0.15941276734E+02  0.23555406453E+02  0.57960545323E+02  0.00000000000E+00 0.  1.
         -3    1    6    6    0  502 -0.19884221146E+03 -0.21682912350E+03  0.12246335642E+03  0.31866968403E+03  0.00000000000E+00 0.  1.
<mgrwt>
<rscale>  0 0.26432374E+04</rscale>
<asrwt>0</asrwt>
<pdfrwt beam="1">  1        2 0.30442732E+00 0.26432374E+04</pdfrwt>
<pdfrwt beam="2">  1       -2 0.13580070E+00 0.26432374E+04</pdfrwt>
<totfact> 0.23515503E+00</totfact>
</mgrwt>
</event>
<event>
12    1  0.1562393E-007  0.1379219E+04  0.7818608E-02  0.8969000E-01
          1   -1    0    0  501    0  0.00000000000E+00  0.00000000000E+00  0.10111879926E+04  0.10111879926E+04  0.00000000000E+00 0. -1.
         -1   -1    0    0    0  501 -0.00000000000E+00 -0.00000000000E+00 -0.47029974496E+03  0.47029974496E+03  0.00000000000E+00 0.  1.
         23    2    1    2    0    0 -0.12200843566E+03  0.12874647337E+03 -0.21568221497E+03  0.29362524353E+03  0.90748294789E+02 0.  0.
        254    2    1    2    0    0  0.12200843566E+03 -0.12874647337E+03  0.75657046263E+03  0.11878624940E+04  0.89841901530E+03 0.  0.
        -24    2    4    4    0    0  0.48677549992E+03 -0.18107419277E+03  0.33893873324E+03  0.62520961321E+03  0.79179195129E+02 0.  0.
         24    2    4    4    0    0 -0.36476706426E+03  0.52327719396E+02  0.41763172939E+03  0.56265288084E+03  0.79804771436E+02 0.  0.
         11    1    3    3    0    0 -0.46493844024E+02  0.31557440444E+02 -0.14919675802E+02  0.58139025667E+02  0.00000000000E+00 0. -1.
        -11    1    3    3    0    0 -0.75514591635E+02  0.97189032931E+02 -0.20076253917E+03  0.23548621786E+03  0.00000000000E+00 0.  1.
          2    1    6    6  502    0 -0.15222072951E+03 -0.16654722302E+02  0.15634789270E+03  0.21884513661E+03  0.00000000000E+00 0. -1.
          1    1    5    5  503    0  0.35891516597E+03 -0.95212343697E+02  0.23707007433E+03  0.44055386378E+03  0.00000000000E+00 0. -1.
         -2    1    5    5    0  503  0.12786033395E+03 -0.85861849074E+02  0.10186865892E+03  0.18465574942E+03  0.00000000000E+00 0.  1.
         -1    1    6    6    0  502 -0.21254633475E+03  0.68982441699E+02  0.26128383669E+03  0.34380774423E+03  0.00000000000E+00 0.  1.
<mgrwt>
<rscale>  0 0.13792193E+04</rscale>
<asrwt>0</asrwt>
<pdfrwt beam="1">  1        1 0.15556738E+00 0.13792193E+04</pdfrwt>
<pdfrwt beam="2">  1       -1 0.72353807E-01 0.13792193E+04</pdfrwt>
<totfact> 0.27913255E+01</totfact>
</mgrwt>
</event>
<event>
12    1  0.1562393E-007  0.1840139E+04  0.7818608E-02  0.8685241E-01
         -2   -1    0    0    0  501 -0.00000000000E+00  0.00000000000E+00  0.16362815995E+04  0.16362815995E+04  0.00000000000E+00 0. -1.
          2   -1    0    0  501    0  0.00000000000E+00 -0.00000000000E+00 -0.51734850290E+03  0.51734850290E+03  0.00000000000E+00 0.  1.
         23    2    1    2    0    0  0.59264152983E+03  0.33302825764E+03  0.59956847060E+03  0.91100517400E+03  0.91193600932E+02 0.  0.
        254    2    1    2    0    0 -0.59264152983E+03 -0.33302825764E+03  0.51936462604E+03  0.12426249284E+04  0.90124652273E+03 0.  0.
        -24    2    4    4    0    0 -0.74601718442E+03 -0.47572369292E+03  0.32565882796E+03  0.94623820405E+03  0.80364140842E+02 0.  0.
         24    2    4    4    0    0  0.15337565459E+03  0.14269543527E+03  0.19370579808E+03  0.29638672438E+03  0.80231387332E+02 0.  0.
         13    1    3    3    0    0  0.58542846860E+03  0.33804970165E+03  0.58502567012E+03  0.89401293466E+03  0.00000000000E+00 0. -1.
        -13    1    3    3    0    0  0.72130612249E+01 -0.50214440045E+01  0.14542800472E+02  0.16992239338E+02  0.00000000000E+00 0.  1.
          4    1    6    6  502    0  0.10639001152E+03  0.11650861118E+03  0.18285286386E+03  0.24151244450E+03  0.00000000000E+00 0. -1.
          3    1    5    5  503    0 -0.66535264529E+03 -0.44831477544E+03  0.30697732999E+03  0.85902000070E+03  0.00000000000E+00 0. -1.
         -4    1    5    5    0  503 -0.80664539129E+02 -0.27408917471E+02  0.18681497973E+02  0.87218203354E+02  0.00000000000E+00 0.  1.
         -3    1    6    6    0  502  0.46985643074E+02  0.26186824097E+02  0.10852934221E+02  0.54874279882E+02  0.00000000000E+00 0.  1.
<mgrwt>
<rscale>  0 0.18401389E+04</rscale>
<asrwt>0</asrwt>
<pdfrwt beam="1">  1        2 0.79592078E-01 0.18401389E+04</pdfrwt>
<pdfrwt beam="2">  1       -2 0.25173563E+00 0.18401389E+04</pdfrwt>
<totfact> 0.34912469E+00</totfact>
</mgrwt>
</event>
<event>
12    1  0.1562393E-007  0.1965706E+04  0.7818608E-02  0.8622824E-01
          1   -1    0    0  501    0  0.00000000000E+00  0.00000000000E+00  0.15530421368E+04  0.15530421368E+04  0.00000000000E+00 0. -1.
         -1   -1    0    0    0  501 -0.00000000000E+00 -0.00000000000E+00 -0.62200492705E+03  0.62200492705E+03  0.00000000000E+00 0.  1.
         23    2    1    2    0    0 -0.56652227118E+03 -0.31821808872E+03 -0.94943609326E+02  0.66294300494E+03  0.90933509321E+02 0.  0.
        254    2    1    2    0    0  0.56652227118E+03  0.31821808872E+03  0.10259808191E+04  0.15121040589E+04  0.90089500394E+03 0.  0.
        -24    2    4    4    0    0  0.48097041815E+03 -0.15318380131E+03  0.85677467804E+03  0.99757201218E+03  0.79304794572E+02 0.  0.
         24    2    4    4    0    0  0.85551853034E+02  0.47140189003E+03  0.16920614104E+03  0.51453204673E+03  0.81078033201E+02 0.  0.
         11    1    3    3    0    0 -0.14685273536E+03 -0.91512292766E+02  0.14241491104E+02  0.17361752699E+03  0.00000000000E+00 0. -1.
        -11    1    3    3    0    0 -0.41966953582E+03 -0.22670579595E+03 -0.10918510043E+03  0.48932547795E+03  0.00000000000E+00 0.  1.
          4    1    6    6  502    0 -0.11186555244E+02  0.11876227358E+02  0.58781451716E+01  0.17341752655E+02  0.00000000000E+00 0. -1.
          1    1    5    5  503    0  0.28229331276E+03 -0.70861664401E+02  0.42363809157E+03  0.51398455477E+03  0.00000000000E+00 0. -1.
         -2    1    5    5    0  503  0.19867710539E+03 -0.82322136907E+02  0.43313658647E+03  0.48358745741E+03  0.00000000000E+00 0.  1.
         -3    1    6    6    0  502  0.96738408278E+02  0.45952566267E+03  0.16332799586E+03  0.49719029407E+03  0.00000000000E+00 0.  1.
<mgrwt>
<rscale>  0 0.19657058E+04</rscale>
<asrwt>0</asrwt>
<pdfrwt beam="1">  1        1 0.23892956E+00 0.19657058E+04</pdfrwt>
<pdfrwt beam="2">  1       -1 0.95693066E-01 0.19657058E+04</pdfrwt>
<totfact> 0.58911835E+00</totfact>
</mgrwt>
</event>
<event>
12    1  0.1562393E-007  0.2218676E+04  0.7818608E-02  0.8510695E-01
          2   -1    0    0  501    0  0.00000000000E+00  0.00000000000E+00  0.15879429503E+04  0.15879429503E+04  0.00000000000E+00 0. -1.
         -2   -1    0    0    0  501 -0.00000000000E+00 -0.00000000000E+00 -0.77498405815E+03  0.77498405815E+03  0.00000000000E+00 0.  1.
         23    2    1    2    0    0  0.91144034124E+03 -0.17859444640E+02  0.13019861101E+03  0.92526295878E+03  0.90096665730E+02 0.  0.
        254    2    1    2    0    0 -0.91144034124E+03  0.17859444640E+02  0.68276028111E+03  0.14376640496E+04  0.87731058512E+03 0.  0.
        -24    2    4    4    0    0 -0.55152491091E+03 -0.12467514959E+03  0.83707692395E+03  0.10132042832E+04  0.78495367132E+02 0.  0.
         24    2    4    4    0    0 -0.35991543033E+03  0.14253459423E+03 -0.15431664285E+03  0.42445976641E+03  0.80605455782E+02 0.  0.
         11    1    3    3    0    0  0.44031899053E+03  0.30345467763E+02  0.85588671891E+02  0.44958545527E+03  0.00000000000E+00 0.  1.
        -11    1    3    3    0    0  0.47112135071E+03 -0.48204912403E+02  0.44609939115E+02  0.47567750351E+03  0.00000000000E+00 0. -1.
          4    1    6    6  502    0 -0.88062101434E+02  0.72526538111E+02 -0.55359777286E+02  0.12680590436E+03  0.00000000000E+00 0. -1.
          1    1    5    5  503    0 -0.43377025332E+03 -0.10632734365E+03  0.60125163872E+03  0.74897641468E+03  0.00000000000E+00 0. -1.
         -2    1    5    5    0  503 -0.11775465759E+03 -0.18347805939E+02  0.23582528523E+03  0.26422786855E+03  0.00000000000E+00 0.  1.
         -3    1    6    6    0  502 -0.27185332889E+03  0.70008056114E+02 -0.98956865562E+02  0.29765386205E+03  0.00000000000E+00 0.  1.
<mgrwt>
<rscale>  0 0.22186757E+04</rscale>
<asrwt>0</asrwt>
<pdfrwt beam="1">  1        2 0.24429892E+00 0.22186757E+04</pdfrwt>
<pdfrwt beam="2">  1       -2 0.11922832E+00 0.22186757E+04</pdfrwt>
<totfact> 0.55786389E+00</totfact>
</mgrwt>
</event>
<event>
12    1  0.1562393E-007  0.1866062E+04  0.7818608E-02  0.8671937E-01
         -2   -1    0    0    0  501 -0.00000000000E+00  0.00000000000E+00  0.15623008617E+04  0.15623008617E+04  0.00000000000E+00 0.  1.
          2   -1    0    0  501    0  0.00000000000E+00 -0.00000000000E+00 -0.55722082065E+03  0.55722082065E+03  0.00000000000E+00 0. -1.
         23    2    1    2    0    0  0.65616472122E+03  0.29608494551E+03  0.34972825645E+03  0.80511431446E+03  0.87640000305E+02 0.  0.
        254    2    1    2    0    0 -0.65616472122E+03 -0.29608494551E+03  0.65535178462E+03  0.13144073679E+04  0.88315476042E+03 0.  0.
        -24    2    4    4    0    0 -0.50630442776E+03  0.15477314537E+03  0.45683171784E+02  0.53745817472E+03  0.80470101810E+02 0.  0.
         24    2    4    4    0    0 -0.14986029346E+03 -0.45085809088E+03  0.60966861284E+03  0.77694919319E+03  0.78886663278E+02 0.  0.
         11    1    3    3    0    0  0.47368490465E+03  0.17044898611E+03  0.23361173536E+03  0.55498170119E+03  0.00000000000E+00 0. -1.
        -11    1    3    3    0    0  0.18247981658E+03  0.12563595940E+03  0.11611652109E+03  0.25013261327E+03  0.00000000000E+00 0.  1.
          2    1    6    6  502    0 -0.33947786410E+02 -0.22693011716E+03  0.28780901965E+03  0.36808118951E+03  0.00000000000E+00 0. -1.
          1    1    5    5  503    0 -0.49694266544E+03  0.14550366064E+03  0.55860351149E+02  0.52081062472E+03  0.00000000000E+00 0. -1.
         -2    1    5    5    0  503 -0.93617623257E+01  0.92694847331E+01 -0.10177179365E+02  0.16647549997E+02  0.00000000000E+00 0.  1.
         -1    1    6    6    0  502 -0.11591250705E+03 -0.22392797372E+03  0.32185959319E+03  0.40886800368E+03  0.00000000000E+00 0.  1.
<mgrwt>
<rscale>  0 0.18660617E+04</rscale>
<asrwt>0</asrwt>
<pdfrwt beam="1">  1        2 0.85726281E-01 0.18660617E+04</pdfrwt>
<pdfrwt beam="2">  1       -2 0.24035398E+00 0.18660617E+04</pdfrwt>
<totfact> 0.37504527E+00</totfact>
</mgrwt>
</event>
<event>
12    1  0.1562393E-007  0.1590412E+04  0.7818608E-02  0.8826460E-01
          1   -1    0    0  501    0  0.00000000000E+00  0.00000000000E+00  0.80741891686E+03  0.80741891686E+03  0.00000000000E+00 0. -1.
         -1   -1    0    0    0  501 -0.00000000000E+00 -0.00000000000E+00 -0.78317823958E+03  0.78317823958E+03  0.00000000000E+00 0.  1.
         23    2    1    2    0    0 -0.38816538630E+03  0.34388759631E+03 -0.13009678316E+03  0.54270759479E+03  0.93141367999E+02 0.  0.
        254    2    1    2    0    0  0.38816538630E+03 -0.34388759631E+03  0.15433746044E+03  0.10478895616E+04  0.89739703347E+03 0.  0.
        -24    2    4    4    0    0  0.47045907729E+03 -0.55161073728E+03 -0.55390372020E+02  0.73152720262E+03  0.80360475209E+02 0.  0.
         24    2    4    4    0    0 -0.82293690983E+02  0.20772314096E+03  0.20972783246E+03  0.31636235903E+03  0.78601677041E+02 0.  0.
         11    1    3    3    0    0 -0.30454550285E+03  0.26284920080E+03 -0.59859949279E+02  0.40671965677E+03  0.00000000000E+00 0. -1.
        -11    1    3    3    0    0 -0.83619883449E+02  0.81038395511E+02 -0.70236833879E+02  0.13598793803E+03  0.00000000000E+00 0.  1.
          2    1    6    6  502    0 -0.73830287749E+02  0.21037521727E+03  0.18376360028E+03  0.28892508409E+03  0.00000000000E+00 0. -1.
          1    1    5    5  503    0  0.38263538724E+03 -0.40386151634E+03 -0.60142996540E+02  0.55958122196E+03  0.00000000000E+00 0. -1.
         -2    1    5    5    0  503  0.87823690050E+02 -0.14774922094E+03  0.47526245202E+01  0.17194598065E+03  0.00000000000E+00 0.  1.
         -1    1    6    6    0  502 -0.84634032340E+01 -0.26520763058E+01  0.25964232186E+02  0.27437274939E+02  0.00000000000E+00 0.  1.
<mgrwt>
<rscale>  0 0.15904124E+04</rscale>
<asrwt>0</asrwt>
<pdfrwt beam="1">  1        1 0.12421830E+00 0.15904124E+04</pdfrwt>
<pdfrwt beam="2">  1       -1 0.12048896E+00 0.15904124E+04</pdfrwt>
<totfact> 0.12824519E+01</totfact>
</mgrwt>
</event>
<event>
12    1  0.1562393E-007  0.1509992E+04  0.7818608E-02  0.8877835E-01
         -2   -1    0    0    0  501 -0.00000000000E+00  0.00000000000E+00  0.35680231836E+03  0.35680231836E+03  0.00000000000E+00 0.  1.
          2   -1    0    0  501    0  0.00000000000E+00 -0.00000000000E+00 -0.15975772325E+04  0.15975772325E+04  0.00000000000E+00 0. -1.
         23    2    1    2    0    0  0.48119480028E+03 -0.49521122113E+02 -0.45477200559E+03  0.67019057960E+03  0.91307494615E+02 0.  0.
        254    2    1    2    0    0 -0.48119480028E+03  0.49521122113E+02 -0.78600290859E+03  0.12841889713E+04  0.89293894770E+03 0.  0.
        -24    2    4    4    0    0 -0.35226080258E+03  0.37284588524E+03 -0.76837691122E+03  0.92731985789E+03  0.80108139127E+02 0.  0.
         24    2    4    4    0    0 -0.12893399770E+03 -0.32332476313E+03 -0.17625997370E+02  0.35686911341E+03  0.76694263832E+02 0.  0.
         13    1    3    3    0    0  0.22661389834E+03 -0.68655067659E+02 -0.20944344104E+03  0.31612328644E+03  0.00000000000E+00 0.  1.
        -13    1    3    3    0    0  0.25458090194E+03  0.19133945546E+02 -0.24532856455E+03  0.35406729316E+03  0.00000000000E+00 0. -1.
          4    1    6    6  502    0 -0.22067195578E+02 -0.64514628294E+02 -0.34382132877E+02  0.76362487163E+02  0.00000000000E+00 0. -1.
          1    1    5    5  503    0 -0.19792131216E+02  0.57657466883E+02 -0.85528225759E+02  0.10502946895E+03  0.00000000000E+00 0. -1.
         -2    1    5    5    0  503 -0.33246867136E+03  0.31518841836E+03 -0.68284868546E+03  0.82229038894E+03  0.00000000000E+00 0.  1.
         -3    1    6    6    0  502 -0.10686680212E+03 -0.25881013484E+03  0.16756135507E+02  0.28050662624E+03  0.00000000000E+00 0.  1.
<mgrwt>
<rscale>  0 0.15099924E+04</rscale>
<asrwt>0</asrwt>
<pdfrwt beam="1">  1        2 0.24578111E+00 0.15099924E+04</pdfrwt>
<pdfrwt beam="2">  1       -2 0.54892664E-01 0.15099924E+04</pdfrwt>
<totfact> 0.33709947E+01</totfact>
</mgrwt>
</event>
<event>
12    1  0.1562393E-007  0.2702034E+04  0.7818608E-02  0.8334345E-01
          1   -1    0    0  501    0  0.00000000000E+00  0.00000000000E+00  0.23825441199E+04  0.23825441199E+04  0.00000000000E+00 0. -1.
         -1   -1    0    0    0  501 -0.00000000000E+00 -0.00000000000E+00 -0.76609131531E+03  0.76609131531E+03  0.00000000000E+00 0.  1.
         23    2    1    2    0    0 -0.43182073536E+02 -0.11841976569E+04  0.51844677203E+03  0.12967068763E+04  0.92048279199E+02 0.  0.
        254    2    1    2    0    0  0.43182073536E+02  0.11841976569E+04  0.10980060326E+04  0.18519285589E+04  0.90544649626E+03 0.  0.
        -24    2    4    4    0    0 -0.24883040748E+03  0.10089589412E+04  0.49285093787E+03  0.11529460760E+04  0.80423196625E+02 0.  0.
         24    2    4    4    0    0  0.29201248101E+03  0.17523871570E+03  0.60515509468E+03  0.69898248286E+03  0.79899475464E+02 0.  0.
         13    1    3    3    0    0 -0.84834036954E+01 -0.16533820785E+02  0.17912058110E+02  0.25810408632E+02  0.00000000000E+00 0. -1.
        -13    1    3    3    0    0 -0.34698669841E+02 -0.11676638361E+04  0.50053471392E+03  0.12708964677E+04  0.00000000000E+00 0.  1.
          4    1    6    6  502    0  0.20805122365E+03  0.86345163233E+02  0.42907914672E+03  0.48461295178E+03  0.00000000000E+00 0. -1.
          1    1    5    5  503    0 -0.21558070086E+03  0.93408847003E+03  0.43539294481E+03  0.10528833387E+04  0.00000000000E+00 0. -1.
         -2    1    5    5    0  503 -0.33249706619E+02  0.74870471144E+02  0.57457993061E+02  0.10006273735E+03  0.00000000000E+00 0.  1.
         -3    1    6    6    0  502  0.83961257364E+02  0.88893552467E+02  0.17607594796E+03  0.21436953109E+03  0.00000000000E+00 0.  1.
<mgrwt>
<rscale>  0 0.27020336E+04</rscale>
<asrwt>0</asrwt>
<pdfrwt beam="1">  1        1 0.36654525E+00 0.27020336E+04</pdfrwt>
<pdfrwt beam="2">  1       -1 0.11786020E+00 0.27020336E+04</pdfrwt>
<totfact> 0.92205988E-01</totfact>
</mgrwt>
</event>
<event>
12    1  0.1562393E-007  0.1047483E+04  0.7818608E-02  0.9257947E-01
         -1   -1    0    0    0  501 -0.00000000000E+00  0.00000000000E+00  0.17826933812E+03  0.17826933812E+03  0.00000000000E+00 0.  1.
          1   -1    0    0  501    0  0.00000000000E+00 -0.00000000000E+00 -0.15387119697E+04  0.15387119697E+04  0.00000000000E+00 0. -1.
         23    2    1    2    0    0 -0.34884404097E+02 -0.55887385200E+02 -0.16210387088E+03  0.19904659096E+03  0.94876545817E+02 0.  0.
        254    2    1    2    0    0  0.34884404097E+02  0.55887385200E+02 -0.11983387607E+04  0.15179347169E+04  0.92939211196E+03 0.  0.
        -24    2    4    4    0    0 -0.68125293586E+02 -0.27663112029E+03 -0.30991552366E+02  0.29724724713E+03  0.78927924519E+02 0.  0.
         24    2    4    4    0    0  0.10300969768E+03  0.33251850549E+03 -0.11673472084E+04  0.12206874698E+04  0.78732710079E+02 0.  0.
         13    1    3    3    0    0 -0.49071648382E+02 -0.58262428607E+02 -0.16724124099E+03  0.18377205977E+03  0.00000000000E+00 0. -1.
        -13    1    3    3    0    0  0.14187244284E+02  0.23750434060E+01  0.51373701145E+01  0.15274531196E+02  0.00000000000E+00 0.  1.
          4    1    6    6  502    0  0.75554263004E+01  0.26070855502E+02 -0.38575129616E+02  0.47167940363E+02  0.00000000000E+00 0. -1.
          3    1    5    5  503    0 -0.99895095365E+00 -0.46967163408E+02 -0.33941343989E+02  0.57956252238E+02  0.00000000000E+00 0. -1.
         -4    1    5    5    0  503 -0.67126342632E+02 -0.22966395688E+03  0.29497916236E+01  0.23929099489E+03  0.00000000000E+00 0.  1.
         -3    1    6    6    0  502  0.95454271383E+02  0.30644764999E+03 -0.11287720787E+04  0.11735195294E+04  0.00000000000E+00 0.  1.
<mgrwt>
<rscale>  0 0.10474830E+04</rscale>
<asrwt>0</asrwt>
<pdfrwt beam="1">  1        1 0.23672492E+00 0.10474830E+04</pdfrwt>
<pdfrwt beam="2">  1       -1 0.27426052E-01 0.10474830E+04</pdfrwt>
<totfact> 0.73391666E+01</totfact>
</mgrwt>
</event>
<event>
12    1  0.1562393E-007  0.2051175E+04  0.7818608E-02  0.8583061E-01
          2   -1    0    0  501    0  0.00000000000E+00  0.00000000000E+00  0.24499547956E+04  0.24499547956E+04  0.00000000000E+00 0. -1.
         -2   -1    0    0    0  501 -0.00000000000E+00 -0.00000000000E+00 -0.42932617763E+03  0.42932617763E+03  0.00000000000E+00 0.  1.
         23    2    1    2    0    0  0.18436489371E+03  0.82164902007E+02  0.19381934977E+04  0.19506104530E+04  0.86865527467E+02 0.  0.
        254    2    1    2    0    0 -0.18436489371E+03 -0.82164902007E+02  0.82435120271E+02  0.92867052019E+03  0.90271363170E+03 0.  0.
        -24    2    4    4    0    0  0.17479874385E+03  0.28381670316E+03  0.19898281786E+03  0.39659739330E+03  0.81171477327E+02 0.  0.
         24    2    4    4    0    0 -0.35916363755E+03 -0.36598160517E+03 -0.11654769759E+03  0.53207312688E+03  0.81101126226E+02 0.  0.
         11    1    3    3    0    0  0.16363761994E+03  0.89273313466E+02  0.18626239337E+04  0.18719281273E+04  0.00000000000E+00 0. -1.
        -11    1    3    3    0    0  0.20727273768E+02 -0.71084114593E+01  0.75569563943E+02  0.78682325753E+02  0.00000000000E+00 0.  1.
          4    1    6    6  502    0 -0.20051065477E+03 -0.26005921323E+03 -0.72457256682E+02  0.33628168417E+03  0.00000000000E+00 0. -1.
          3    1    5    5  503    0  0.30387912287E+02  0.10692862620E+03  0.39100023606E+02  0.11783873794E+03  0.00000000000E+00 0. -1.
         -4    1    5    5    0  503  0.14441083156E+03  0.17688807696E+03  0.15988279425E+03  0.27875865537E+03  0.00000000000E+00 0.  1.
         -3    1    6    6    0  502 -0.15865298279E+03 -0.10592239194E+03 -0.44090440904E+02  0.19579144271E+03  0.00000000000E+00 0.  1.
<mgrwt>
<rscale>  0 0.20511750E+04</rscale>
<asrwt>0</asrwt>
<pdfrwt beam="1">  1        2 0.37691612E+00 0.20511750E+04</pdfrwt>
<pdfrwt beam="2">  1       -2 0.66050182E-01 0.20511750E+04</pdfrwt>
<totfact> 0.72630899E+00</totfact>
</mgrwt>
</event>
<event>
12    1  0.1562393E-007  0.1993637E+04  0.7818608E-02  0.8609601E-01
          2   -1    0    0  501    0  0.00000000000E+00  0.00000000000E+00  0.16281277689E+04  0.16281277689E+04  0.00000000000E+00 0. -1.
         -2   -1    0    0    0  501 -0.00000000000E+00 -0.00000000000E+00 -0.61030037515E+03  0.61030037515E+03  0.00000000000E+00 0.  1.
         23    2    1    2    0    0  0.79926644712E+03  0.43903687344E+02  0.40697331478E+03  0.90218480233E+03  0.86923825054E+02 0.  0.
        254    2    1    2    0    0 -0.79926644712E+03 -0.43903687344E+02  0.61085407899E+03  0.13362433417E+04  0.87843564093E+03 0.  0.
        -24    2    4    4    0    0 -0.51647235959E+03  0.32615939916E+03  0.74038191467E+02  0.62056864967E+03  0.80623466063E+02 0.  0.
         24    2    4    4    0    0 -0.28279408753E+03 -0.37006308650E+03  0.53681588752E+03  0.71567469206E+03  0.84260214983E+02 0.  0.
         13    1    3    3    0    0  0.69695764754E+03  0.88523642518E+01  0.35032669903E+03  0.78010071329E+03  0.00000000000E+00 0. -1.
        -13    1    3    3    0    0  0.10230879957E+03  0.35051323092E+02  0.56646615745E+02  0.12208408904E+03  0.00000000000E+00 0.  1.
          2    1    6    6  502    0 -0.18955563578E+03 -0.30339037869E+03  0.42537883981E+03  0.55580951620E+03  0.00000000000E+00 0. -1.
          3    1    5    5  503    0 -0.13881761500E+03  0.48989160993E+02  0.73182991869E+01  0.14739004591E+03  0.00000000000E+00 0. -1.
         -4    1    5    5    0  503 -0.37765474459E+03  0.27717023816E+03  0.66719892280E+02  0.47317860376E+03  0.00000000000E+00 0.  1.
         -1    1    6    6    0  502 -0.93238451743E+02 -0.66672707807E+02  0.11143704771E+03  0.15986517586E+03  0.00000000000E+00 0.  1.
<mgrwt>
<rscale>  0 0.19936369E+04</rscale>
<asrwt>0</asrwt>
<pdfrwt beam="1">  1        2 0.25048119E+00 0.19936369E+04</pdfrwt>
<pdfrwt beam="2">  1       -2 0.93892366E-01 0.19936369E+04</pdfrwt>
<totfact> 0.95766872E+00</totfact>
</mgrwt>
</event>
<event>
12    1  0.1562393E-007  0.1980779E+04  0.7818608E-02  0.8615660E-01
          1   -1    0    0  501    0  0.00000000000E+00  0.00000000000E+00  0.13251120146E+04  0.13251120146E+04  0.00000000000E+00 0. -1.
         -1   -1    0    0    0  501 -0.00000000000E+00 -0.00000000000E+00 -0.74021757152E+03  0.74021757152E+03  0.00000000000E+00 0.  1.
         23    2    1    2    0    0  0.37699010833E+03 -0.59367397707E+03 -0.12819679460E+03  0.72066965073E+03  0.91433005592E+02 0.  0.
        254    2    1    2    0    0 -0.37699010833E+03  0.59367397707E+03  0.71309123772E+03  0.13446599354E+04  0.89724071229E+03 0.  0.
        -24    2    4    4    0    0  0.27052950513E+03  0.30265373684E+03  0.35734141723E+03  0.54663905111E+03  0.79598154249E+02 0.  0.
         24    2    4    4    0    0 -0.64751961346E+03  0.29102024023E+03  0.35574982049E+03  0.79802088431E+03  0.79403822214E+02 0.  0.
         11    1    3    3    0    0  0.31627892633E+03 -0.42430526947E+03 -0.99032049913E+02  0.53840010016E+03  0.00000000000E+00 0.  1.
        -11    1    3    3    0    0  0.60711182004E+02 -0.16936870760E+03 -0.29164744686E+02  0.18226955057E+03  0.00000000000E+00 0. -1.
          2    1    6    6  502    0 -0.47834260168E+03  0.18901346354E+03  0.28611190861E+03  0.58855565432E+03  0.00000000000E+00 0. -1.
          3    1    5    5  503    0  0.17034081808E+03  0.13833093672E+03  0.16502214732E+03  0.27456101592E+03  0.00000000000E+00 0. -1.
         -4    1    5    5    0  503  0.10018868705E+03  0.16432280012E+03  0.19231926991E+03  0.27207803519E+03  0.00000000000E+00 0.  1.
         -1    1    6    6    0  502 -0.16917701178E+03  0.10200677669E+03  0.69637911876E+02  0.20946523000E+03  0.00000000000E+00 0.  1.
<mgrwt>
<rscale>  0 0.19807788E+04</rscale>
<asrwt>0</asrwt>
<pdfrwt beam="1">  1        1 0.20386339E+00 0.19807788E+04</pdfrwt>
<pdfrwt beam="2">  1       -1 0.11387963E+00 0.19807788E+04</pdfrwt>
<totfact> 0.56677482E+00</totfact>
</mgrwt>
</event>
<event>
12    1  0.1562393E-007  0.1923025E+04  0.7818608E-02  0.8643479E-01
         -1   -1    0    0    0  501 -0.00000000000E+00  0.00000000000E+00  0.81411637814E+03  0.81411637814E+03  0.00000000000E+00 0.  1.
          1   -1    0    0  501    0  0.00000000000E+00 -0.00000000000E+00 -0.11355947712E+04  0.11355947712E+04  0.00000000000E+00 0. -1.
         23    2    1    2    0    0  0.35110806057E+03 -0.24385881499E+03  0.49407605688E+03  0.65992503856E+03  0.92983410790E+02 0.  0.
        254    2    1    2    0    0 -0.35110806057E+03  0.24385881499E+03 -0.81555444997E+03  0.12897861108E+04  0.90314736281E+03 0.  0.
        -24    2    4    4    0    0 -0.37546193299E+03 -0.12102699246E+03 -0.82221824358E+03  0.91521268133E+03  0.77150605631E+02 0.  0.
         24    2    4    4    0    0  0.24353872417E+02  0.36488580745E+03  0.66637936154E+01  0.37457342949E+03  0.80784183830E+02 0.  0.
         13    1    3    3    0    0  0.31405504257E+03 -0.23554379781E+03  0.40982011654E+03  0.56750680910E+03  0.00000000000E+00 0.  1.
        -13    1    3    3    0    0  0.37053018002E+02 -0.83150171831E+01  0.84255940338E+02  0.92418229458E+02  0.00000000000E+00 0. -1.
          4    1    6    6  502    0 -0.18115122706E+02  0.11469734921E+03  0.29419217647E+02  0.11978785394E+03  0.00000000000E+00 0. -1.
          1    1    5    5  503    0 -0.19130818157E+03 -0.61230895580E+02 -0.50619778241E+03  0.54459548091E+03  0.00000000000E+00 0. -1.
         -4    1    5    5    0  503 -0.18415375143E+03 -0.59796096879E+02 -0.31602046117E+03  0.37061720042E+03  0.00000000000E+00 0.  1.
         -3    1    6    6    0  502  0.42468995123E+02  0.25018845824E+03 -0.22755424031E+02  0.25478557555E+03  0.00000000000E+00 0.  1.
<mgrwt>
<rscale>  0 0.19230250E+04</rscale>
<asrwt>0</asrwt>
<pdfrwt beam="1">  1        1 0.17470689E+00 0.19230250E+04</pdfrwt>
<pdfrwt beam="2">  1       -1 0.12524867E+00 0.19230250E+04</pdfrwt>
<totfact> 0.62005469E+00</totfact>
</mgrwt>
</event>
<event>
12    1  0.1562393E-007  0.2227396E+04  0.7818608E-02  0.8507111E-01
         -2   -1    0    0    0  501 -0.00000000000E+00  0.00000000000E+00  0.23201618130E+04  0.23201618130E+04  0.00000000000E+00 0.  1.
          2   -1    0    0  501    0  0.00000000000E+00 -0.00000000000E+00 -0.53458458765E+03  0.53458458765E+03  0.00000000000E+00 0. -1.
         23    2    1    2    0    0 -0.53053096122E+03 -0.67020686982E+03  0.12094103438E+04  0.14837733261E+04  0.90937089858E+02 0.  0.
        254    2    1    2    0    0  0.53053096122E+03  0.67020686982E+03  0.57616688153E+03  0.13709730746E+04  0.90385759200E+03 0.  0.
        -24    2    4    4    0    0  0.19563283034E+03  0.64936715733E+03 -0.18699914218E+02  0.68349550110E+03  0.82864370557E+02 0.  0.
         24    2    4    4    0    0  0.33489813088E+03  0.20839712492E+02  0.59486679575E+03  0.68747757345E+03  0.78535709285E+02 0.  0.
         13    1    3    3    0    0 -0.10356612878E+01  0.20453008065E+00 -0.15047213964E+01  0.18381004700E+01  0.00000000000E+00 0. -1.
        -13    1    3    3    0    0 -0.52949529993E+03 -0.67041139990E+03  0.12109150652E+04  0.14819352256E+04  0.00000000000E+00 0.  1.
          4    1    6    6  502    0  0.23016309137E+03  0.38670257322E+02  0.35145107284E+03  0.42188658906E+03  0.00000000000E+00 0. -1.
          1    1    5    5  503    0  0.11646884699E+02  0.66913238397E+02 -0.25739586882E+02  0.72633034694E+02  0.00000000000E+00 0. -1.
         -2    1    5    5    0  503  0.18398594564E+03  0.58245391893E+03  0.70396726643E+01  0.61086246641E+03  0.00000000000E+00 0.  1.
         -3    1    6    6    0  502  0.10473503951E+03 -0.17830544831E+02  0.24341572291E+03  0.26559098439E+03  0.00000000000E+00 0.  1.
<mgrwt>
<rscale>  0 0.22273956E+04</rscale>
<asrwt>0</asrwt>
<pdfrwt beam="1">  1        2 0.82243784E-01 0.22273956E+04</pdfrwt>
<pdfrwt beam="2">  1       -2 0.35694797E+00 0.22273956E+04</pdfrwt>
<totfact> 0.73113151E-01</totfact>
</mgrwt>
</event>
<event>
12    1  0.1562393E-007  0.1744883E+04  0.7818608E-02  0.8736172E-01
          2   -1    0    0  501    0  0.00000000000E+00  0.00000000000E+00  0.57214618990E+03  0.57214618990E+03  0.00000000000E+00 0. -1.
         -2   -1    0    0    0  501 -0.00000000000E+00 -0.00000000000E+00 -0.13303484583E+04  0.13303484583E+04  0.00000000000E+00 0.  1.
         23    2    1    2    0    0 -0.34249424172E+03 -0.11994775853E+03  0.25462334357E+03  0.45221432528E+03  0.89302735171E+02 0.  0.
        254    2    1    2    0    0  0.34249424172E+03  0.11994775853E+03 -0.10128256120E+04  0.14502803229E+04  0.97252636180E+03 0.  0.
        -24    2    4    4    0    0  0.46959084378E+03 -0.32895555335E+02 -0.69803837367E+02  0.48301929842E+03  0.82688504670E+02 0.  0.
         24    2    4    4    0    0 -0.12709660207E+03  0.15284331387E+03 -0.94302177459E+03  0.96726102449E+03  0.82396585480E+02 0.  0.
         11    1    3    3    0    0 -0.23255541011E+03 -0.10591242474E+03  0.13450013318E+03  0.28877282821E+03  0.00000000000E+00 0.  1.
        -11    1    3    3    0    0 -0.10993883160E+03 -0.14035333797E+02  0.12012321040E+03  0.16344149707E+03  0.00000000000E+00 0. -1.
          4    1    6    6  502    0 -0.10334721344E+03  0.12823291518E+03 -0.88256954103E+03  0.89780472365E+03  0.00000000000E+00 0. -1.
          3    1    5    5  503    0  0.42143980081E+03 -0.12049803203E+02 -0.42165008271E+02  0.42371522439E+03  0.00000000000E+00 0. -1.
         -4    1    5    5    0  503  0.48151042979E+02 -0.20845752132E+02 -0.27638829096E+02  0.59304074023E+02  0.00000000000E+00 0.  1.
         -3    1    6    6    0  502 -0.23749388625E+02  0.24610398689E+02 -0.60452233560E+02  0.69456300837E+02  0.00000000000E+00 0.  1.
<mgrwt>
<rscale>  0 0.17448826E+04</rscale>
<asrwt>0</asrwt>
<pdfrwt beam="1">  1        2 0.88022492E-01 0.17448826E+04</pdfrwt>
<pdfrwt beam="2">  1       -2 0.20466899E+00 0.17448826E+04</pdfrwt>
<totfact> 0.61685352E+00</totfact>
</mgrwt>
</event>
<event>
12    1  0.1562393E-007  0.1794994E+04  0.7818608E-02  0.8708966E-01
          2   -1    0    0  501    0  0.00000000000E+00  0.00000000000E+00  0.11290162313E+04  0.11290162313E+04  0.00000000000E+00 0. -1.
         -2   -1    0    0    0  501 -0.00000000000E+00 -0.00000000000E+00 -0.71345336512E+03  0.71345336512E+03  0.00000000000E+00 0.  1.
         23    2    1    2    0    0  0.26464083630E+03  0.50640871522E+03  0.51348136347E+03  0.77370012656E+03  0.92001174545E+02 0.  0.
        254    2    1    2    0    0 -0.26464083630E+03 -0.50640871522E+03 -0.97918497235E+02  0.10687694699E+04  0.89788395053E+03 0.  0.
        -24    2    4    4    0    0 -0.57972241364E+03 -0.37956344625E+03  0.27846836772E+02  0.69808502663E+03  0.80004821632E+02 0.  0.
         24    2    4    4    0    0  0.31508157734E+03 -0.12684526897E+03 -0.12576533401E+03  0.37068444328E+03  0.78891790537E+02 0.  0.
         11    1    3    3    0    0  0.23032420441E+03  0.48828253791E+03  0.47623111495E+03  0.71990634864E+03  0.00000000000E+00 0. -1.
        -11    1    3    3    0    0  0.34316631887E+02  0.18126177310E+02  0.37250248518E+02  0.53793777917E+02  0.00000000000E+00 0.  1.
          4    1    6    6  502    0  0.16739396201E+03 -0.88714715110E+02 -0.33410093904E+02  0.19237274643E+03  0.00000000000E+00 0. -1.
          1    1    5    5  503    0  0.25629010262E-02 -0.51771882725E+01 -0.50005951637E+01  0.71978633613E+01  0.00000000000E+00 0. -1.
         -2    1    5    5    0  503 -0.57972497654E+03 -0.37438625798E+03  0.32847431936E+02  0.69088716327E+03  0.00000000000E+00 0.  1.
         -3    1    6    6    0  502  0.14768761533E+03 -0.38130553858E+02 -0.92355240103E+02  0.17831169685E+03  0.00000000000E+00 0.  1.
<mgrwt>
<rscale>  0 0.17949935E+04</rscale>
<asrwt>0</asrwt>
<pdfrwt beam="1">  1        2 0.17369480E+00 0.17949935E+04</pdfrwt>
<pdfrwt beam="2">  1       -2 0.10976206E+00 0.17949935E+04</pdfrwt>
<totfact> 0.13045045E+01</totfact>
</mgrwt>
</event>
<event>
12    1  0.1562393E-007  0.1371093E+04  0.7818608E-02  0.8975013E-01
         -2   -1    0    0    0  501 -0.00000000000E+00  0.00000000000E+00  0.37502621777E+03  0.37502621777E+03  0.00000000000E+00 0.  1.
          2   -1    0    0  501    0  0.00000000000E+00 -0.00000000000E+00 -0.12531765240E+04  0.12531765240E+04  0.00000000000E+00 0. -1.
         23    2    1    2    0    0  0.16914557337E+03 -0.88261715649E+02  0.14449795420E+03  0.25479622381E+03  0.87413394053E+02 0.  0.
        254    2    1    2    0    0 -0.16914557337E+03  0.88261715649E+02 -0.10226482605E+04  0.13734065180E+04  0.89668034637E+03 0.  0.
        -24    2    4    4    0    0  0.24757978038E+03  0.20021111937E+03 -0.86314849448E+02  0.33925643584E+03  0.79148190450E+02 0.  0.
         24    2    4    4    0    0 -0.41672535375E+03 -0.11194940372E+03 -0.93633341100E+03  0.10341500821E+04  0.80953359201E+02 0.  0.
         13    1    3    3    0    0  0.13154493540E+03 -0.32699811745E+02  0.63682349617E+02  0.14976244312E+03  0.00000000000E+00 0.  1.
        -13    1    3    3    0    0  0.37600637970E+02 -0.55561903904E+02  0.80815604583E+02  0.10503378069E+03  0.00000000000E+00 0. -1.
          4    1    6    6  502    0 -0.26601589036E+03 -0.30658653935E+02 -0.57549028260E+03  0.63473890093E+03  0.00000000000E+00 0. -1.
          1    1    5    5  503    0  0.24969426809E+03  0.19078188129E+03 -0.92758475892E+02  0.32764170765E+03  0.00000000000E+00 0. -1.
         -2    1    5    5    0  503 -0.21144877102E+01  0.94292380831E+01  0.64436264438E+01  0.11614728187E+02  0.00000000000E+00 0.  1.
         -3    1    6    6    0  502 -0.15070946339E+03 -0.81290749786E+02 -0.36084312840E+03  0.39941118120E+03  0.00000000000E+00 0.  1.
<mgrwt>
<rscale>  0 0.13710931E+04</rscale>
<asrwt>0</asrwt>
<pdfrwt beam="1">  1        2 0.19279639E+00 0.13710931E+04</pdfrwt>
<pdfrwt beam="2">  1       -2 0.57696340E-01 0.13710931E+04</pdfrwt>
<totfact> 0.48311996E+01</totfact>
</mgrwt>
</event>
<event>
12    1  0.1562393E-007  0.1371207E+04  0.7818608E-02  0.8974928E-01
         -2   -1    0    0    0  501 -0.00000000000E+00  0.00000000000E+00  0.38540572015E+03  0.38540572015E+03  0.00000000000E+00 0.  1.
          2   -1    0    0  501    0  0.00000000000E+00 -0.00000000000E+00 -0.12196287181E+04  0.12196287181E+04  0.00000000000E+00 0. -1.
         23    2    1    2    0    0  0.20174698735E+03 -0.29343420991E+03 -0.77127957929E+02  0.37573303660E+03  0.91766608593E+02 0.  0.
        254    2    1    2    0    0 -0.20174698735E+03  0.29343420991E+03 -0.75709504004E+03  0.12293014017E+04  0.90065729000E+03 0.  0.
        -24    2    4    4    0    0 -0.45534590665E+03  0.29451086009E+03 -0.78912596187E+03  0.96139833591E+03  0.86547300279E+02 0.  0.
         24    2    4    4    0    0  0.25359891930E+03 -0.10766501835E+01  0.32030921826E+02  0.26790306575E+03  0.80202878008E+02 0.  0.
         13    1    3    3    0    0  0.13637542982E+01 -0.49120313291E+02 -0.26163467256E+02  0.55670387303E+02  0.00000000000E+00 0. -1.
        -13    1    3    3    0    0  0.20038323305E+03 -0.24431389662E+03 -0.50964490673E+02  0.32006264930E+03  0.00000000000E+00 0.  1.
          4    1    6    6  502    0  0.18631197672E+03 -0.54088172842E+01 -0.12966494181E+02  0.18684094290E+03  0.00000000000E+00 0. -1.
          3    1    5    5  503    0 -0.24929097055E+03  0.11115499542E+03 -0.37463884641E+03  0.46352528112E+03  0.00000000000E+00 0. -1.
         -4    1    5    5    0  503 -0.20605493611E+03  0.18335586467E+03 -0.41448711546E+03  0.49787305479E+03  0.00000000000E+00 0.  1.
         -3    1    6    6    0  502  0.67286942583E+02  0.43321671007E+01  0.44997416007E+02  0.81062122852E+02  0.00000000000E+00 0.  1.
<mgrwt>
<rscale>  0 0.13712066E+04</rscale>
<asrwt>0</asrwt>
<pdfrwt beam="1">  1        2 0.18763519E+00 0.13712066E+04</pdfrwt>
<pdfrwt beam="2">  1       -2 0.59293188E-01 0.13712066E+04</pdfrwt>
<totfact> 0.47751079E+01</totfact>
</mgrwt>
</event>
<event>
12    1  0.1911036E-007  0.2867509E+04  0.7818608E-02  0.8282611E-01
          2   -1    0    0  501    0  0.00000000000E+00  0.00000000000E+00  0.35296879245E+04  0.35296879245E+04  0.00000000000E+00 0. -1.
         -2   -1    0    0    0  501 -0.00000000000E+00 -0.00000000000E+00 -0.58238915277E+03  0.58238915277E+03  0.00000000000E+00 0.  1.
         23    2    1    2    0    0 -0.23644535373E+03  0.44691500449E+03 -0.37329267412E+03  0.63516415066E+03  0.91905664614E+02 0.  0.
        254    2    1    2    0    0  0.23644535373E+03 -0.44691500449E+03  0.33205914459E+04  0.34769129266E+04  0.89830758791E+03 0.  0.
        -24    2    4    4    0    0 -0.82861754164E+02  0.12013523773E+03  0.10928363360E+03  0.19934973196E+03  0.80615491135E+02 0.  0.
         24    2    4    4    0    0  0.31930710790E+03 -0.56705024222E+03  0.32113078123E+04  0.32775631947E+04  0.80122553615E+02 0.  0.
         13    1    3    3    0    0  0.97064896294E+00  0.34663083022E+02 -0.46499340272E+02  0.58005690494E+02  0.00000000000E+00 0. -1.
        -13    1    3    3    0    0 -0.23741600270E+03  0.41225192147E+03 -0.32679333385E+03  0.57715846016E+03  0.00000000000E+00 0.  1.
          2    1    6    6  502    0  0.42359516367E+02 -0.39650974882E+02  0.22029407043E+03  0.22780694876E+03  0.00000000000E+00 0. -1.
          3    1    5    5  503    0 -0.12311096501E+02  0.14106079418E+00  0.43838746239E+02  0.45534807203E+02  0.00000000000E+00 0. -1.
         -4    1    5    5    0  503 -0.70550657664E+02  0.11999417694E+03  0.65444887363E+02  0.15381492476E+03  0.00000000000E+00 0.  1.
         -3    1    6    6    0  502  0.27694759153E+03 -0.52739926734E+03  0.29910137418E+04  0.30497562459E+04  0.00000000000E+00 0.  1.
<mgrwt>
<rscale>  0 0.28675090E+04</rscale>
<asrwt>0</asrwt>
<pdfrwt beam="1">  1        2 0.54302890E+00 0.28675090E+04</pdfrwt>
<pdfrwt beam="2">  1       -2 0.89598334E-01 0.28675090E+04</pdfrwt>
<totfact> 0.71567293E-01</totfact>
</mgrwt>
</event>
<event>
12    1  0.1562393E-007  0.1259743E+04  0.7818608E-02  0.9062113E-01
          2   -1    0    0  501    0  0.00000000000E+00  0.00000000000E+00  0.25645748054E+04  0.25645748054E+04  0.00000000000E+00 0. -1.
         -2   -1    0    0    0  501 -0.00000000000E+00 -0.00000000000E+00 -0.15469925127E+03  0.15469925127E+03  0.00000000000E+00 0.  1.
         23    2    1    2    0    0 -0.19440034788E+03  0.15864804591E+03  0.23971383152E+03  0.35866913399E+03  0.90664926653E+02 0.  0.
        254    2    1    2    0    0  0.19440034788E+03 -0.15864804591E+03  0.21701617226E+04  0.23606049227E+04  0.89436737475E+03 0.  0.
        -24    2    4    4    0    0  0.12284735803E+03 -0.45045113834E+03  0.62431549833E+03  0.78377044375E+03  0.80799539761E+02 0.  0.
         24    2    4    4    0    0  0.71552989857E+02  0.29180309243E+03  0.15458462243E+04  0.15768344790E+04  0.80607380335E+02 0.  0.
         13    1    3    3    0    0 -0.55501446934E+02  0.10029505904E+03  0.12264772269E+03  0.16787487412E+03  0.00000000000E+00 0.  1.
        -13    1    3    3    0    0 -0.13889890095E+03  0.58352986869E+02  0.11706610883E+03  0.19079425987E+03  0.00000000000E+00 0. -1.
          4    1    6    6  502    0  0.75999065651E+02  0.14945844170E+03  0.89804808004E+03  0.91356665757E+03  0.00000000000E+00 0. -1.
          1    1    5    5  503    0  0.91385228033E+02 -0.40562587311E+03  0.51851390218E+03  0.66463544563E+03  0.00000000000E+00 0. -1.
         -2    1    5    5    0  503  0.31462129995E+02 -0.44825265229E+02  0.10580159615E+03  0.11913499811E+03  0.00000000000E+00 0.  1.
         -3    1    6    6    0  502 -0.44460757946E+01  0.14234465073E+03  0.64779814425E+03  0.66326782138E+03  0.00000000000E+00 0.  1.
<mgrwt>
<rscale>  0 0.12597425E+04</rscale>
<asrwt>0</asrwt>
<pdfrwt beam="1">  1        2 0.39454994E+00 0.12597425E+04</pdfrwt>
<pdfrwt beam="2">  1       -2 0.23799887E-01 0.12597425E+04</pdfrwt>
<totfact> 0.49503359E+01</totfact>
</mgrwt>
</event>
<event>
12    1  0.1562393E-007  0.1403849E+04  0.7818608E-02  0.8951037E-01
         -2   -1    0    0    0  501 -0.00000000000E+00  0.00000000000E+00  0.40349260740E+03  0.40349260740E+03  0.00000000000E+00 0.  1.
          2   -1    0    0  501    0  0.00000000000E+00 -0.00000000000E+00 -0.12210832248E+04  0.12210832248E+04  0.00000000000E+00 0. -1.
         23    2    1    2    0    0 -0.33576857484E+03  0.48650194601E+02 -0.14099294376E+03  0.37849050350E+03  0.90932248207E+02 0.  0.
        254    2    1    2    0    0  0.33576857484E+03 -0.48650194601E+02 -0.67659767365E+03  0.12460853287E+04  0.98986709067E+03 0.  0.
        -24    2    4    4    0    0 -0.30356115314E+03 -0.63526889532E+02 -0.46821294520E+03  0.56782340643E+03  0.83755712944E+02 0.  0.
         24    2    4    4    0    0  0.63932972798E+03  0.14876694932E+02 -0.20838472845E+03  0.67826192229E+03  0.87471269845E+02 0.  0.
         13    1    3    3    0    0 -0.22383923381E+03  0.42494387419E+02 -0.13796043461E+03  0.26635100351E+03  0.00000000000E+00 0. -1.
        -13    1    3    3    0    0 -0.11192934102E+03  0.61558071818E+01 -0.30325091514E+01  0.11213949998E+03  0.00000000000E+00 0.  1.
          2    1    6    6  502    0  0.44458474713E+02 -0.89925956816E+00  0.77671685930E+01  0.45140819105E+02  0.00000000000E+00 0. -1.
          3    1    5    5  503    0 -0.53852229188E+02 -0.29143190896E+02 -0.47983967779E+02  0.77793632952E+02  0.00000000000E+00 0. -1.
         -4    1    5    5    0  503 -0.24970892395E+03 -0.34383698636E+02 -0.42022897742E+03  0.49002977348E+03  0.00000000000E+00 0.  1.
         -1    1    6    6    0  502  0.59487125327E+03  0.15775954500E+02 -0.21615189704E+03  0.63312110318E+03  0.00000000000E+00 0.  1.
<mgrwt>
<rscale>  0 0.14038491E+04</rscale>
<asrwt>0</asrwt>
<pdfrwt beam="1">  1        2 0.18785896E+00 0.14038491E+04</pdfrwt>
<pdfrwt beam="2">  1       -2 0.62075787E-01 0.14038491E+04</pdfrwt>
<totfact> 0.43137532E+01</totfact>
</mgrwt>
</event>
<event>
12    1  0.2082193E-007  0.2065829E+04  0.7818608E-02  0.8576447E-01
         -2   -1    0    0    0  501 -0.00000000000E+00  0.00000000000E+00  0.37548349604E+03  0.37548349604E+03  0.00000000000E+00 0.  1.
          2   -1    0    0  501    0  0.00000000000E+00 -0.00000000000E+00 -0.28414364987E+04  0.28414364987E+04  0.00000000000E+00 0. -1.
         23    2    1    2    0    0 -0.29644841266E+03  0.57263275332E+03 -0.17830480548E+03  0.67508214012E+03  0.90295961716E+02 0.  0.
        254    2    1    2    0    0  0.29644841266E+03 -0.57263275332E+03 -0.22876481972E+04  0.25418378546E+04  0.90100803190E+03 0.  0.
        -24    2    4    4    0    0  0.25642553833E+03  0.37686345532E+02 -0.13620850543E+03  0.30371954313E+03  0.80737144957E+02 0.  0.
         24    2    4    4    0    0  0.40022874330E+02 -0.61031909885E+03 -0.21514396918E+04  0.22381183115E+04  0.79934949149E+02 0.  0.
         13    1    3    3    0    0 -0.28099890263E+03  0.54931522778E+03 -0.18872598688E+03  0.64523259440E+03  0.00000000000E+00 0.  1.
        -13    1    3    3    0    0 -0.15449510030E+02  0.23317525543E+02  0.10421181408E+02  0.29849545717E+02  0.00000000000E+00 0. -1.
          2    1    6    6  502    0  0.36047682660E+01 -0.11611029475E+02 -0.16349130294E+02  0.20374111541E+02  0.00000000000E+00 0. -1.
          3    1    5    5  503    0  0.51835723223E+02  0.33118665715E+02 -0.58298421762E+02  0.84749597053E+02  0.00000000000E+00 0. -1.
         -4    1    5    5    0  503  0.20458981511E+03  0.45676798174E+01 -0.77910083670E+02  0.21896994607E+03  0.00000000000E+00 0.  1.
         -1    1    6    6    0  502  0.36418106064E+02 -0.59870806938E+03 -0.21350905615E+04  0.22177442000E+04  0.00000000000E+00 0.  1.
<mgrwt>
<rscale>  0 0.20658291E+04</rscale>
<asrwt>0</asrwt>
<pdfrwt beam="1">  1        2 0.43714410E+00 0.20658291E+04</pdfrwt>
<pdfrwt beam="2">  1       -2 0.57766689E-01 0.20658291E+04</pdfrwt>
<totfact> 0.56654231E+00</totfact>
</mgrwt>
</event>
<event>
12    1  0.1562393E-007  0.3858086E+04  0.7818608E-02  0.8033803E-01
         -1   -1    0    0    0  501 -0.00000000000E+00  0.00000000000E+00  0.14536183133E+04  0.14536183133E+04  0.00000000000E+00 0.  1.
          1   -1    0    0  501    0  0.00000000000E+00 -0.00000000000E+00 -0.25599618842E+04  0.25599618842E+04  0.00000000000E+00 0. -1.
         23    2    1    2    0    0  0.13992424167E+04 -0.11012166700E+04 -0.92614911279E+03  0.20096487261E+04  0.10187408050E+03 0.  0.
        254    2    1    2    0    0 -0.13992424167E+04  0.11012166700E+04 -0.18019445814E+03  0.20039314714E+04  0.90150640853E+03 0.  0.
        -24    2    4    4    0    0 -0.82154413642E+02  0.50878285294E+03  0.98420058483E+02  0.53083722179E+03  0.80574865830E+02 0.  0.
         24    2    4    4    0    0 -0.13170880030E+04  0.59243381703E+03 -0.27861451663E+03  0.14730942496E+04  0.81743404413E+02 0.  0.
         13    1    3    3    0    0  0.13967703811E+04 -0.10994796494E+04 -0.91733586943E+03  0.20003319960E+04  0.00000000000E+00 0.  1.
        -13    1    3    3    0    0  0.24720355512E+01 -0.17370205850E+01 -0.88132433673E+01  0.93167300557E+01  0.00000000000E+00 0. -1.
          2    1    6    6  502    0 -0.10142849064E+04  0.41823820768E+03 -0.20653773773E+03  0.11164026634E+04  0.00000000000E+00 0. -1.
          3    1    5    5  503    0 -0.77466892252E+02  0.46883171557E+03  0.67197284136E+02  0.47991642180E+03  0.00000000000E+00 0. -1.
         -4    1    5    5    0  503 -0.46875213906E+01  0.39951137370E+02  0.31222774347E+02  0.50920799992E+02  0.00000000000E+00 0.  1.
         -1    1    6    6    0  502 -0.30280309658E+03  0.17419560935E+03 -0.72076778891E+02  0.35669158620E+03  0.00000000000E+00 0.  1.
<mgrwt>
<rscale>  0 0.38580863E+04</rscale>
<asrwt>0</asrwt>
<pdfrwt beam="1">  1        1 0.39384029E+00 0.38580863E+04</pdfrwt>
<pdfrwt beam="2">  1       -1 0.22363359E+00 0.38580863E+04</pdfrwt>
<totfact> 0.10139501E-01</totfact>
</mgrwt>
</event>
<event>
12    1  0.1562393E-007  0.1946712E+04  0.7818608E-02  0.8631948E-01
          2   -1    0    0  501    0  0.00000000000E+00  0.00000000000E+00  0.10534008868E+04  0.10534008868E+04  0.00000000000E+00 0.  1.
         -2   -1    0    0    0  501 -0.00000000000E+00 -0.00000000000E+00 -0.89939327719E+03  0.89939327719E+03  0.00000000000E+00 0. -1.
         23    2    1    2    0    0 -0.39947829453E+02  0.89852731154E+02 -0.70620143072E+03  0.71849477079E+03  0.88571623692E+02 0.  0.
        254    2    1    2    0    0  0.39947829453E+02 -0.89852731154E+02  0.86020904033E+03  0.12342993932E+04  0.87969657077E+03 0.  0.
        -24    2    4    4    0    0  0.33700413562E+03  0.21956289782E+03  0.59789578588E+03  0.72532430270E+03  0.82682040392E+02 0.  0.
         24    2    4    4    0    0 -0.29705630617E+03 -0.30941562897E+03  0.26231325446E+03  0.50897509050E+03  0.79163873079E+02 0.  0.
         13    1    3    3    0    0 -0.21352211641E+02  0.14390743442E+02 -0.45068499848E+03  0.45141995779E+03  0.00000000000E+00 0. -1.
        -13    1    3    3    0    0 -0.18595617812E+02  0.75461987712E+02 -0.25551643224E+03  0.26707481300E+03  0.00000000000E+00 0.  1.
          2    1    6    6  502    0 -0.22861419433E+03 -0.24492959098E+03  0.16435258855E+03  0.37318457597E+03  0.00000000000E+00 0. -1.
          1    1    5    5  503    0  0.33668949875E+03  0.22014494174E+03  0.60041573399E+03  0.72271894092E+03  0.00000000000E+00 0. -1.
         -2    1    5    5    0  503  0.31463687116E+00 -0.58204392650E+00 -0.25199481178E+01  0.26053617809E+01  0.00000000000E+00 0.  1.
         -1    1    6    6    0  502 -0.68442111839E+02 -0.64486037993E+02  0.97960665911E+02  0.13579051452E+03  0.00000000000E+00 0.  1.
<mgrwt>
<rscale>  0 0.19467118E+04</rscale>
<asrwt>0</asrwt>
<pdfrwt beam="1">  1        2 0.16206167E+00 0.19467118E+04</pdfrwt>
<pdfrwt beam="2">  1       -2 0.13836820E+00 0.19467118E+04</pdfrwt>
<totfact> 0.80473594E+00</totfact>
</mgrwt>
</event>
<event>
12    1  0.1562393E-007  0.1677266E+04  0.7818608E-02  0.8774438E-01
         -2   -1    0    0    0  501 -0.00000000000E+00  0.00000000000E+00  0.25356127209E+03  0.25356127209E+03  0.00000000000E+00 0.  1.
          2   -1    0    0  501    0  0.00000000000E+00 -0.00000000000E+00 -0.27737085223E+04  0.27737085223E+04  0.00000000000E+00 0. -1.
         23    2    1    2    0    0  0.26019352072E+02  0.58525923812E+03 -0.77075677145E+03  0.97233069664E+03  0.90308362841E+02 0.  0.
        254    2    1    2    0    0 -0.26019352072E+02 -0.58525923812E+03 -0.17493904787E+04  0.20549390977E+04  0.90509793161E+03 0.  0.
        -24    2    4    4    0    0 -0.14496785785E+02  0.15674551660E+03 -0.92882998382E+03  0.94552087111E+03  0.80655223552E+02 0.  0.
         24    2    4    4    0    0 -0.11522566286E+02 -0.74200475472E+03 -0.82056049493E+03  0.11094182266E+04  0.82373844145E+02 0.  0.
         13    1    3    3    0    0  0.31295480278E+02  0.19064365859E+03 -0.19675388567E+03  0.27574717255E+03  0.00000000000E+00 0. -1.
        -13    1    3    3    0    0 -0.52761282061E+01  0.39461557953E+03 -0.57400288579E+03  0.69658352409E+03  0.00000000000E+00 0.  1.
          2    1    6    6  502    0 -0.51811461433E+01 -0.73366505092E+03 -0.81760928125E+03  0.10985336536E+04  0.00000000000E+00 0. -1.
          1    1    5    5  503    0 -0.19361932530E+02  0.92964070356E+02 -0.74182997415E+03  0.74788295432E+03  0.00000000000E+00 0. -1.
         -2    1    5    5    0  503  0.48651467442E+01  0.63781446240E+02 -0.18700000967E+03  0.19763791679E+03  0.00000000000E+00 0.  1.
         -1    1    6    6    0  502 -0.63414201432E+01 -0.83397037948E+01 -0.29512136749E+01  0.10884573073E+02  0.00000000000E+00 0.  1.
<mgrwt>
<rscale>  0 0.16772657E+04</rscale>
<asrwt>0</asrwt>
<pdfrwt beam="1">  1        2 0.42672438E+00 0.16772657E+04</pdfrwt>
<pdfrwt beam="2">  1       -2 0.39009427E-01 0.16772657E+04</pdfrwt>
<totfact> 0.14250033E+01</totfact>
</mgrwt>
</event>
<event>
12    1  0.1562393E-007  0.2019869E+04  0.7818608E-02  0.8597387E-01
         -2   -1    0    0    0  501 -0.00000000000E+00  0.00000000000E+00  0.62205534984E+03  0.62205534984E+03  0.00000000000E+00 0. -1.
          2   -1    0    0  501    0  0.00000000000E+00 -0.00000000000E+00 -0.16396742593E+04  0.16396742593E+04  0.00000000000E+00 0.  1.
         23    2    1    2    0    0  0.23603998003E+03  0.37800075845E+03  0.34336878071E+03  0.56968645630E+03  0.89672143745E+02 0.  0.
        254    2    1    2    0    0 -0.23603998003E+03 -0.37800075845E+03 -0.13609876901E+04  0.16920431528E+04  0.90117872405E+03 0.  0.
        -24    2    4    4    0    0 -0.28156906603E+03 -0.37478482287E+03 -0.14723142567E+04  0.15471939609E+04  0.79718753772E+02 0.  0.
         24    2    4    4    0    0  0.45529085998E+02 -0.32159355836E+01  0.11132656661E+03  0.14484919189E+03  0.80650133564E+02 0.  0.
         13    1    3    3    0    0  0.12737866411E+03  0.14251021164E+03  0.18382848862E+03  0.26519313286E+03  0.00000000000E+00 0. -1.
        -13    1    3    3    0    0  0.10866131592E+03  0.23549054681E+03  0.15954029209E+03  0.30449332344E+03  0.00000000000E+00 0.  1.
          2    1    6    6  502    0  0.30748150699E+01 -0.32774322969E+02  0.16481377442E+02  0.36813673223E+02  0.00000000000E+00 0. -1.
          3    1    5    5  503    0 -0.11121219108E+03 -0.10329632855E+03 -0.56052608153E+03  0.58071315726E+03  0.00000000000E+00 0. -1.
         -4    1    5    5    0  503 -0.17035687495E+03 -0.27148849432E+03 -0.91178817519E+03  0.96648080365E+03  0.00000000000E+00 0.  1.
         -1    1    6    6    0  502  0.42454270928E+02  0.29558387386E+02  0.94845189165E+02  0.10803551866E+03  0.00000000000E+00 0.  1.
<mgrwt>
<rscale>  0 0.20198694E+04</rscale>
<asrwt>0</asrwt>
<pdfrwt beam="1">  1        2 0.25225758E+00 0.20198694E+04</pdfrwt>
<pdfrwt beam="2">  1       -2 0.95700824E-01 0.20198694E+04</pdfrwt>
<totfact> 0.90048312E+00</totfact>
</mgrwt>
</event>
<event>
12    1  0.1562393E-007  0.2095739E+04  0.7818608E-02  0.8563123E-01
          2   -1    0    0  501    0  0.00000000000E+00  0.00000000000E+00  0.17417756437E+04  0.17417756437E+04  0.00000000000E+00 0. -1.
         -2   -1    0    0    0  501 -0.00000000000E+00 -0.00000000000E+00 -0.63040878019E+03  0.63040878019E+03  0.00000000000E+00 0.  1.
         23    2    1    2    0    0  0.62362618290E+03 -0.31406159492E+03 -0.97534027314E+02  0.71081088957E+03  0.90525868398E+02 0.  0.
        254    2    1    2    0    0 -0.62362618290E+03  0.31406159492E+03  0.12089008909E+04  0.16613735344E+04  0.90065329363E+03 0.  0.
        -24    2    4    4    0    0  0.19659228266E+03 -0.78972548679E+02  0.25491133468E+03  0.34087488339E+03  0.79565749774E+02 0.  0.
         24    2    4    4    0    0 -0.82021846556E+03  0.39303414360E+03  0.95398955618E+03  0.13204986510E+04  0.79915233834E+02 0.  0.
         13    1    3    3    0    0  0.10346072424E+03 -0.83955050196E+02 -0.40030816402E+02  0.13912238560E+03  0.00000000000E+00 0. -1.
        -13    1    3    3    0    0  0.52016545866E+03 -0.23010654472E+03 -0.57503210912E+02  0.57168850397E+03  0.00000000000E+00 0.  1.
          2    1    6    6  502    0 -0.20953499258E+03  0.12453297520E+03  0.21598376851E+03  0.32567217150E+03  0.00000000000E+00 0. -1.
          3    1    5    5  503    0  0.55426195832E+02 -0.21683668592E+02  0.23868070228E+02  0.64124328023E+02  0.00000000000E+00 0. -1.
         -4    1    5    5    0  503  0.14116608683E+03 -0.57288880087E+02  0.23104326445E+03  0.27675055537E+03  0.00000000000E+00 0.  1.
         -1    1    6    6    0  502 -0.61068347298E+03  0.26850116840E+03  0.73800578767E+03  0.99482647946E+03  0.00000000000E+00 0.  1.
<mgrwt>
<rscale>  0 0.20957392E+04</rscale>
<asrwt>0</asrwt>
<pdfrwt beam="1">  1        2 0.26796548E+00 0.20957392E+04</pdfrwt>
<pdfrwt beam="2">  1       -2 0.96985967E-01 0.20957392E+04</pdfrwt>
<totfact> 0.76088486E+00</totfact>
</mgrwt>
</event>
<event>
12    1  0.1562393E-007  0.2426482E+04  0.7818608E-02  0.8429655E-01
          2   -1    0    0  501    0  0.00000000000E+00  0.00000000000E+00  0.79715499040E+03  0.79715499040E+03  0.00000000000E+00 0. -1.
         -2   -1    0    0    0  501 -0.00000000000E+00 -0.00000000000E+00 -0.18465090995E+04  0.18465090995E+04  0.00000000000E+00 0.  1.
         23    2    1    2    0    0 -0.71813584369E+02 -0.30459292597E+03  0.63119915602E+03  0.71037805465E+03  0.91052537140E+02 0.  0.
        254    2    1    2    0    0  0.71813584369E+02  0.30459292597E+03 -0.16805532651E+04  0.19332860352E+04  0.90299588907E+03 0.  0.
        -24    2    4    4    0    0  0.25774559932E+02  0.37370833574E+03 -0.16993323239E+03  0.41836872338E+03  0.76373012867E+02 0.  0.
         24    2    4    4    0    0  0.46039024437E+02 -0.69115409769E+02 -0.15106200327E+04  0.15149173118E+04  0.78134799152E+02 0.  0.
         11    1    3    3    0    0 -0.43429623529E+02 -0.28884550914E+03  0.58561424273E+03  0.65441722291E+03  0.00000000000E+00 0. -1.
        -11    1    3    3    0    0 -0.28383960840E+02 -0.15747416828E+02  0.45584913292E+02  0.55960831744E+02  0.00000000000E+00 0.  1.
          2    1    6    6  502    0  0.23396933469E+02 -0.38054391112E+02 -0.26759008124E+03  0.27129320809E+03  0.00000000000E+00 0. -1.
          1    1    5    5  503    0  0.16153489780E+02  0.11269250127E+03 -0.15389843559E+02  0.11487986055E+03  0.00000000000E+00 0. -1.
         -2    1    5    5    0  503  0.96210701523E+01  0.26101583446E+03 -0.15454338883E+03  0.30348886283E+03  0.00000000000E+00 0.  1.
         -1    1    6    6    0  502  0.22642090968E+02 -0.31061018657E+02 -0.12430299515E+04  0.12436241037E+04  0.00000000000E+00 0.  1.
<mgrwt>
<rscale>  0 0.24264822E+04</rscale>
<asrwt>0</asrwt>
<pdfrwt beam="1">  1        2 0.12263923E+00 0.24264822E+04</pdfrwt>
<pdfrwt beam="2">  1       -2 0.28407832E+00 0.24264822E+04</pdfrwt>
<totfact> 0.12350985E+00</totfact>
</mgrwt>
</event>
<event>
12    1  0.1562393E-007  0.1344417E+04  0.7818608E-02  0.8995065E-01
          2   -1    0    0  501    0  0.00000000000E+00  0.00000000000E+00  0.45709063514E+03  0.45709063514E+03  0.00000000000E+00 0. -1.
         -2   -1    0    0    0  501 -0.00000000000E+00 -0.00000000000E+00 -0.98856541040E+03  0.98856541040E+03  0.00000000000E+00 0.  1.
         23    2    1    2    0    0  0.24323510317E+03 -0.82765695825E+02  0.13448980691E+03  0.30383614424E+03  0.90638946202E+02 0.  0.
        254    2    1    2    0    0 -0.24323510317E+03  0.82765695825E+02 -0.66596458216E+03  0.11418199013E+04  0.89119604267E+03 0.  0.
        -24    2    4    4    0    0 -0.10425234001E+03 -0.39841434886E+03 -0.28329055988E+03  0.50616076556E+03  0.79640664833E+02 0.  0.
         24    2    4    4    0    0 -0.13898276316E+03  0.48118004469E+03 -0.38267402228E+03  0.63565913573E+03  0.82296328267E+02 0.  0.
         11    1    3    3    0    0  0.15331294262E+03 -0.43602939469E+02  0.12994688119E+03  0.20565083670E+03  0.00000000000E+00 0. -1.
        -11    1    3    3    0    0  0.89922160547E+02 -0.39162756357E+02  0.45429257165E+01  0.98185307541E+02  0.00000000000E+00 0.  1.
          2    1    6    6  502    0 -0.12505631817E+03  0.38782654634E+03 -0.34539249612E+03  0.53417645880E+03  0.00000000000E+00 0. -1.
          3    1    5    5  503    0 -0.82138153669E+02 -0.35881034632E+03 -0.22180688484E+03  0.42975555270E+03  0.00000000000E+00 0. -1.
         -2    1    5    5    0  503 -0.22114186337E+02 -0.39604002540E+02 -0.61483675046E+02  0.76405212856E+02  0.00000000000E+00 0.  1.
         -1    1    6    6    0  502 -0.13926444995E+02  0.93353498350E+02 -0.37281526161E+02  0.10148267693E+03  0.00000000000E+00 0.  1.
<mgrwt>
<rscale>  0 0.13444166E+04</rscale>
<asrwt>0</asrwt>
<pdfrwt beam="1">  1        2 0.70321636E-01 0.13444166E+04</pdfrwt>
<pdfrwt beam="2">  1       -2 0.15208699E+00 0.13444166E+04</pdfrwt>
<totfact> 0.19259388E+01</totfact>
</mgrwt>
</event>
<event>
12    1  0.1562393E-007  0.1900164E+04  0.7818608E-02  0.8654775E-01
          3   -1    0    0  501    0  0.00000000000E+00  0.00000000000E+00  0.35373723015E+03  0.35373723015E+03  0.00000000000E+00 0. -1.
         -3   -1    0    0    0  501 -0.00000000000E+00 -0.00000000000E+00 -0.25517685804E+04  0.25517685804E+04  0.00000000000E+00 0.  1.
         23    2    1    2    0    0 -0.32175159262E+03  0.49307937689E+03 -0.18864529399E+03  0.62348872963E+03  0.80621273676E+02 0.  0.
        254    2    1    2    0    0  0.32175159262E+03 -0.49307937689E+03 -0.20093860563E+04  0.22820170810E+04  0.90736887499E+03 0.  0.
        -24    2    4    4    0    0 -0.32941918026E+02 -0.57472273960E+02 -0.15465204481E+04  0.15499085194E+04  0.78119713640E+02 0.  0.
         24    2    4    4    0    0  0.35469351064E+03 -0.43560710293E+03 -0.46286560816E+03  0.73210856160E+03  0.78596056722E+02 0.  0.
         11    1    3    3    0    0 -0.96545337858E+02  0.17751223520E+03 -0.28665041749E+02  0.20409135339E+03  0.00000000000E+00 0. -1.
        -11    1    3    3    0    0 -0.22520625476E+03  0.31556714169E+03 -0.15998025224E+03  0.41939737625E+03  0.00000000000E+00 0.  1.
          2    1    6    6  502    0  0.61310385423E+02 -0.12907699593E+03 -0.11413566391E+03  0.18288461940E+03  0.00000000000E+00 0. -1.
          1    1    5    5  503    0  0.10197719588E+02  0.13962908550E+02 -0.38883567222E+03  0.38921990737E+03  0.00000000000E+00 0. -1.
         -2    1    5    5    0  503 -0.43139637613E+02 -0.71435182509E+02 -0.11576847759E+04  0.11606886120E+04  0.00000000000E+00 0.  1.
         -1    1    6    6    0  502  0.29338312522E+03 -0.30653010700E+03 -0.34872994425E+03  0.54922394219E+03  0.00000000000E+00 0.  1.
<mgrwt>
<rscale>  0 0.19001637E+04</rscale>
<asrwt>0</asrwt>
<pdfrwt beam="1">  1        3 0.54421110E-01 0.19001637E+04</pdfrwt>
<pdfrwt beam="2">  1       -3 0.39257980E+00 0.19001637E+04</pdfrwt>
<totfact> 0.95231652E-02</totfact>
</mgrwt>
</event>
<event>
12    1  0.1562393E-007  0.1785277E+04  0.7818608E-02  0.8714168E-01
         -1   -1    0    0    0  501 -0.00000000000E+00  0.00000000000E+00  0.64539170829E+03  0.64539170829E+03  0.00000000000E+00 0.  1.
          1   -1    0    0  501    0  0.00000000000E+00 -0.00000000000E+00 -0.12346051429E+04  0.12346051429E+04  0.00000000000E+00 0. -1.
         23    2    1    2    0    0  0.90814392290E+02 -0.20571914954E+03  0.43250886086E+03  0.49719847100E+03  0.97850817611E+02 0.  0.
        254    2    1    2    0    0 -0.90814392290E+02  0.20571914954E+03 -0.10217222955E+04  0.13827983802E+04  0.90423851324E+03 0.  0.
        -24    2    4    4    0    0  0.91488842499E+02 -0.14431931496E+03  0.82896940822E+02  0.20728141789E+03  0.83038608092E+02 0.  0.
         24    2    4    4    0    0 -0.18230323479E+03  0.35003846450E+03 -0.11046192363E+04  0.11755169623E+04  0.76779394402E+02 0.  0.
         11    1    3    3    0    0 -0.15937485824E+02 -0.71007208223E+01  0.52520844785E+02  0.55343137131E+02  0.00000000000E+00 0. -1.
        -11    1    3    3    0    0  0.10675187811E+03 -0.19861842872E+03  0.37998801608E+03  0.44185533387E+03  0.00000000000E+00 0.  1.
          2    1    6    6  502    0 -0.65413779292E+02  0.20364573820E+03 -0.55088184438E+03  0.59094953733E+03  0.00000000000E+00 0. -1.
          1    1    5    5  503    0  0.91404313327E+02 -0.76725512771E+02  0.70357726911E+02  0.13853433705E+03  0.00000000000E+00 0. -1.
         -2    1    5    5    0  503  0.84529171948E-01 -0.67593802186E+02  0.12539213911E+02  0.68747080845E+02  0.00000000000E+00 0.  1.
         -1    1    6    6    0  502 -0.11688945550E+03  0.14639272630E+03 -0.55373739189E+03  0.58456742494E+03  0.00000000000E+00 0.  1.
<mgrwt>
<rscale>  0 0.17852775E+04</rscale>
<asrwt>0</asrwt>
<pdfrwt beam="1">  1        1 0.18993925E+00 0.17852775E+04</pdfrwt>
<pdfrwt beam="2">  1       -1 0.99291033E-01 0.17852775E+04</pdfrwt>
<totfact> 0.92291140E+00</totfact>
</mgrwt>
</event>
<event>
12    1  0.1562393E-007  0.1397037E+04  0.7818608E-02  0.8955966E-01
          1   -1    0    0  501    0  0.00000000000E+00  0.00000000000E+00  0.83401052452E+03  0.83401052452E+03  0.00000000000E+00 0. -1.
         -1   -1    0    0    0  501 -0.00000000000E+00 -0.00000000000E+00 -0.58503848733E+03  0.58503848733E+03  0.00000000000E+00 0.  1.
         23    2    1    2    0    0  0.14579990051E+03 -0.29889776471E+03 -0.16075996769E+03  0.38046387760E+03  0.91167484366E+02 0.  0.
        254    2    1    2    0    0 -0.14579990051E+03  0.29889776471E+03  0.40973200488E+03  0.10385851343E+04  0.89452852415E+03 0.  0.
        -24    2    4    4    0    0 -0.39604028206E+03  0.31021222153E+02 -0.88558958688E+02  0.41505255894E+03  0.81337053552E+02 0.  0.
         24    2    4    4    0    0  0.25024038155E+03  0.26787654256E+03  0.49829096357E+03  0.62353257531E+03  0.78236164814E+02 0.  0.
         11    1    3    3    0    0  0.49554880611E+02 -0.20216449219E+03 -0.90348556191E+02  0.22691194261E+03  0.00000000000E+00 0.  1.
        -11    1    3    3    0    0  0.96245019898E+02 -0.96733272527E+02 -0.70411411502E+02  0.15355193499E+03  0.00000000000E+00 0. -1.
          2    1    6    6  502    0  0.17024324310E+03  0.12847655896E+03  0.26350394552E+03  0.33900341787E+03  0.00000000000E+00 0. -1.
          1    1    5    5  503    0 -0.34565163090E+03  0.12198456912E+02 -0.51374700859E+02  0.34966156807E+03  0.00000000000E+00 0. -1.
         -2    1    5    5    0  503 -0.50388651162E+02  0.18822765242E+02 -0.37184257829E+02  0.65390990875E+02  0.00000000000E+00 0.  1.
         -1    1    6    6    0  502  0.79997138451E+02  0.13939998360E+03  0.23478701805E+03  0.28452915744E+03  0.00000000000E+00 0.  1.
<mgrwt>
<rscale>  0 0.13970372E+04</rscale>
<asrwt>0</asrwt>
<pdfrwt beam="1">  1        1 0.12830931E+00 0.13970372E+04</pdfrwt>
<pdfrwt beam="2">  1       -1 0.90005921E-01 0.13970372E+04</pdfrwt>
<totfact> 0.24349994E+01</totfact>
</mgrwt>
</event>
<event>
12    1  0.1562393E-007  0.2097036E+04  0.7818608E-02  0.8562550E-01
         -2   -1    0    0    0  501 -0.00000000000E+00  0.00000000000E+00  0.61023312134E+03  0.61023312134E+03  0.00000000000E+00 0.  1.
          2   -1    0    0  501    0  0.00000000000E+00 -0.00000000000E+00 -0.18015898853E+04  0.18015898853E+04  0.00000000000E+00 0. -1.
         23    2    1    2    0    0 -0.56215871049E+03 -0.73937254383E+02  0.24437064834E+03  0.62421214788E+03  0.91840396461E+02 0.  0.
        254    2    1    2    0    0  0.56215871049E+03  0.73937254383E+02 -0.14357274123E+04  0.17876108587E+04  0.90152661996E+03 0.  0.
        -24    2    4    4    0    0 -0.20021493147E+03 -0.13738075009E+03 -0.47998642414E+03  0.54388532191E+03  0.80403897598E+02 0.  0.
         24    2    4    4    0    0  0.76237364196E+03  0.21131800447E+03 -0.95574098812E+03  0.12437255368E+04  0.86853356618E+02 0.  0.
         13    1    3    3    0    0 -0.58019837378E+01  0.22498393490E+01 -0.66535929282E+01  0.91101641722E+01  0.00000000000E+00 0. -1.
        -13    1    3    3    0    0 -0.55635672675E+03 -0.76187093732E+02  0.25102424127E+03  0.61510198371E+03  0.00000000000E+00 0.  1.
          4    1    6    6  502    0  0.60314791502E+03  0.18682928991E+03 -0.80508101859E+03  0.10231559204E+04  0.00000000000E+00 0. -1.
          1    1    5    5  503    0 -0.15321908060E+03 -0.58852923825E+02 -0.31647118926E+03  0.35650212753E+03  0.00000000000E+00 0. -1.
         -2    1    5    5    0  503 -0.46995850868E+02 -0.78527826261E+02 -0.16351523488E+03  0.18738319437E+03  0.00000000000E+00 0.  1.
         -3    1    6    6    0  502  0.15922572694E+03  0.24488714558E+02 -0.15065996953E+03  0.22056961640E+03  0.00000000000E+00 0.  1.
<mgrwt>
<rscale>  0 0.20970358E+04</rscale>
<asrwt>0</asrwt>
<pdfrwt beam="1">  1        2 0.27716767E+00 0.20970358E+04</pdfrwt>
<pdfrwt beam="2">  1       -2 0.93882020E-01 0.20970358E+04</pdfrwt>
<totfact> 0.76052160E+00</totfact>
</mgrwt>
</event>
<event>
12    1  0.1562393E-007  0.3139529E+04  0.7818608E-02  0.8204973E-01
          2   -1    0    0  501    0  0.00000000000E+00  0.00000000000E+00  0.35297877058E+04  0.35297877058E+04  0.00000000000E+00 0.  1.
         -2   -1    0    0    0  501 -0.00000000000E+00 -0.00000000000E+00 -0.69810440830E+03  0.69810440830E+03  0.00000000000E+00 0. -1.
         23    2    1    2    0    0 -0.12587694352E+04  0.51069388155E+03  0.65341652898E+03  0.15101712201E+04  0.91406903702E+02 0.  0.
        254    2    1    2    0    0  0.12587694352E+04 -0.51069388155E+03  0.21782667685E+04  0.27177208939E+04  0.89210538103E+03 0.  0.
        -24    2    4    4    0    0  0.57088204203E+03 -0.66180423518E+03  0.14923951909E+04  0.17314727978E+04  0.82846196597E+02 0.  0.
         24    2    4    4    0    0  0.68788739321E+03  0.15111035362E+03  0.68587157763E+03  0.98624809610E+03  0.79006843802E+02 0.  0.
         11    1    3    3    0    0 -0.76189132128E+03  0.29653536579E+03  0.34499177984E+03  0.88737305388E+03  0.00000000000E+00 0.  1.
        -11    1    3    3    0    0 -0.49687811395E+03  0.21415851576E+03  0.30842474914E+03  0.62279816625E+03  0.00000000000E+00 0. -1.
          2    1    6    6  502    0  0.37232595399E+03  0.84825328572E+02  0.31688505471E+03  0.49622383082E+03  0.00000000000E+00 0. -1.
          3    1    5    5  503    0  0.34263003836E+03 -0.45514260686E+03  0.99107604081E+03  0.11431455963E+04  0.00000000000E+00 0. -1.
         -4    1    5    5    0  503  0.22825200367E+03 -0.20666162831E+03  0.50131915007E+03  0.58832720149E+03  0.00000000000E+00 0.  1.
         -1    1    6    6    0  502  0.31556143922E+03  0.66285025050E+02  0.36898652292E+03  0.49002426528E+03  0.00000000000E+00 0.  1.
<mgrwt>
<rscale>  0 0.31395289E+04</rscale>
<asrwt>0</asrwt>
<pdfrwt beam="1">  1        2 0.54304425E+00 0.31395289E+04</pdfrwt>
<pdfrwt beam="2">  1       -2 0.10740068E+00 0.31395289E+04</pdfrwt>
<totfact> 0.45584660E-01</totfact>
</mgrwt>
</event>
<event>
12    1  0.1562393E-007  0.1996868E+04  0.7818608E-02  0.8608086E-01
         -1   -1    0    0    0  501 -0.00000000000E+00  0.00000000000E+00  0.42627521200E+03  0.42627521200E+03  0.00000000000E+00 0.  1.
          1   -1    0    0  501    0  0.00000000000E+00 -0.00000000000E+00 -0.23385615639E+04  0.23385615639E+04  0.00000000000E+00 0. -1.
         23    2    1    2    0    0 -0.11753070625E+03 -0.26114407168E+03 -0.16268137075E+04  0.16556577764E+04  0.11256171843E+03 0.  0.
        254    2    1    2    0    0  0.11753070625E+03  0.26114407168E+03 -0.28547264440E+03  0.11091789995E+04  0.10328473891E+04 0.  0.
        -24    2    4    4    0    0 -0.39437122475E+03  0.18281407262E+03 -0.37287892971E+03  0.57785247209E+03  0.76974900014E+02 0.  0.
         24    2    4    4    0    0  0.51190193099E+03  0.78329999058E+02  0.87406285309E+02  0.53132652743E+03  0.80553363233E+02 0.  0.
         13    1    3    3    0    0 -0.13856085638E+03 -0.20411347942E+03 -0.12798614504E+04  0.13034211736E+04  0.00000000000E+00 0. -1.
        -13    1    3    3    0    0  0.21030150135E+02 -0.57030592251E+02 -0.34695225709E+03  0.35223660282E+03  0.00000000000E+00 0.  1.
          2    1    6    6  502    0  0.83714242521E+02  0.28177200427E+02 -0.11321006456E+02  0.89051637896E+02  0.00000000000E+00 0. -1.
          3    1    5    5  503    0 -0.33838639513E+02  0.32711359576E+02 -0.18725452342E+02  0.50653026906E+02  0.00000000000E+00 0. -1.
         -4    1    5    5    0  503 -0.36053258523E+03  0.15010271304E+03 -0.35415347736E+03  0.52719944519E+03  0.00000000000E+00 0.  1.
         -1    1    6    6    0  502  0.42818768847E+03  0.50152798631E+02  0.98727291766E+02  0.44227488953E+03  0.00000000000E+00 0.  1.
<mgrwt>
<rscale>  0 0.19968684E+04</rscale>
<asrwt>0</asrwt>
<pdfrwt beam="1">  1        1 0.35977870E+00 0.19968684E+04</pdfrwt>
<pdfrwt beam="2">  1       -1 0.65580802E-01 0.19968684E+04</pdfrwt>
<totfact> 0.38305780E+00</totfact>
</mgrwt>
</event>
<event>
12    1  0.1562393E-007  0.1720339E+04  0.7818608E-02  0.8749849E-01
         -2   -1    0    0    0  501 -0.00000000000E+00  0.00000000000E+00  0.28899892983E+03  0.28899892983E+03  0.00000000000E+00 0.  1.
          2   -1    0    0  501    0  0.00000000000E+00 -0.00000000000E+00 -0.25601874661E+04  0.25601874661E+04  0.00000000000E+00 0. -1.
         23    2    1    2    0    0  0.40073369098E+03  0.29608108755E+03 -0.21962849679E+03  0.55246559961E+03  0.93434793632E+02 0.  0.
        254    2    1    2    0    0 -0.40073369098E+03 -0.29608108755E+03 -0.20515600395E+04  0.22967207964E+04  0.90430985796E+03 0.  0.
        -24    2    4    4    0    0  0.89546406267E+02 -0.21718753376E+03 -0.16047961460E+04  0.16239196715E+04  0.80965706821E+02 0.  0.
         24    2    4    4    0    0 -0.49028009725E+03 -0.78893553790E+02 -0.44676389352E+03  0.67280112483E+03  0.80402801161E+02 0.  0.
         11    1    3    3    0    0  0.12145529978E+03  0.56140805617E+02 -0.25438618623E+02  0.13619949786E+03  0.00000000000E+00 0. -1.
        -11    1    3    3    0    0  0.27927839120E+03  0.23994028193E+03 -0.19418987817E+03  0.41626610175E+03  0.00000000000E+00 0.  1.
          2    1    6    6  502    0 -0.44120450940E+03 -0.75518459802E+02 -0.43036104062E+03  0.62094692379E+03  0.00000000000E+00 0. -1.
          3    1    5    5  503    0  0.71899726288E+02 -0.14347707073E+03 -0.12987545772E+04  0.13086323748E+04  0.00000000000E+00 0. -1.
         -4    1    5    5    0  503  0.17646679979E+02 -0.73710463033E+02 -0.30604156879E+03  0.31528729676E+03  0.00000000000E+00 0.  1.
         -1    1    6    6    0  502 -0.49075587850E+02 -0.33750939883E+01 -0.16402852903E+02  0.51854201041E+02  0.00000000000E+00 0.  1.
<mgrwt>
<rscale>  0 0.17203388E+04</rscale>
<asrwt>0</asrwt>
<pdfrwt beam="1">  1        2 0.39387501E+00 0.17203388E+04</pdfrwt>
<pdfrwt beam="2">  1       -2 0.44461372E-01 0.17203388E+04</pdfrwt>
<totfact> 0.14662369E+01</totfact>
</mgrwt>
</event>
<event>
12    1  0.1562393E-007  0.2039481E+04  0.7818608E-02  0.8588381E-01
         -1   -1    0    0    0  501 -0.00000000000E+00  0.00000000000E+00  0.25239100129E+04  0.25239100129E+04  0.00000000000E+00 0.  1.
          1   -1    0    0  501    0  0.00000000000E+00 -0.00000000000E+00 -0.41200781280E+03  0.41200781280E+03  0.00000000000E+00 0. -1.
         23    2    1    2    0    0  0.29415515114E+03 -0.61984506047E+03  0.13259602287E+04  0.14961177730E+04  0.97276464463E+02 0.  0.
        254    2    1    2    0    0 -0.29415515114E+03  0.61984506047E+03  0.78594197143E+03  0.14398000528E+04  0.99226219195E+03 0.  0.
        -24    2    4    4    0    0  0.33918969755E+03  0.55415399243E+02  0.19898165656E+03  0.40509983989E+03  0.79947878268E+02 0.  0.
         24    2    4    4    0    0 -0.63334484869E+03  0.56442966123E+03  0.58696031488E+03  0.10347002129E+04  0.79847225710E+02 0.  0.
         11    1    3    3    0    0 -0.77561856830E-01 -0.60493891181E+02  0.10127682799E+03  0.11796827020E+03  0.00000000000E+00 0. -1.
        -11    1    3    3    0    0  0.29423271300E+03 -0.55935116929E+03  0.12246834007E+04  0.13781495028E+04  0.00000000000E+00 0.  1.
          4    1    6    6  502    0 -0.29273590222E+03  0.20807811006E+03  0.24790676078E+03  0.43640413652E+03  0.00000000000E+00 0. -1.
          1    1    5    5  503    0  0.30051591770E+03  0.61958960303E+02  0.14769262391E+03  0.34053170295E+03  0.00000000000E+00 0. -1.
         -2    1    5    5    0  503  0.38673779846E+02 -0.65435610604E+01  0.51289032647E+02  0.64568136947E+02  0.00000000000E+00 0.  1.
         -3    1    6    6    0  502 -0.34060894648E+03  0.35635155117E+03  0.33905355410E+03  0.59829607636E+03  0.00000000000E+00 0.  1.
<mgrwt>
<rscale>  0 0.20394810E+04</rscale>
<asrwt>0</asrwt>
<pdfrwt beam="1">  1        1 0.63385819E-01 0.20394810E+04</pdfrwt>
<pdfrwt beam="2">  1       -1 0.38829384E+00 0.20394810E+04</pdfrwt>
<totfact> 0.45909149E-01</totfact>
</mgrwt>
</event>
<event>
12    1  0.1562393E-007  0.2894201E+04  0.7818608E-02  0.8274605E-01
          2   -1    0    0  501    0  0.00000000000E+00  0.00000000000E+00  0.10416086638E+04  0.10416086638E+04  0.00000000000E+00 0. -1.
         -2   -1    0    0    0  501 -0.00000000000E+00 -0.00000000000E+00 -0.20104478436E+04  0.20104478436E+04  0.00000000000E+00 0.  1.
         23    2    1    2    0    0 -0.59050242221E+03  0.89699820009E+03 -0.12094143874E+04  0.16199561071E+04  0.90971132404E+02 0.  0.
        254    2    1    2    0    0  0.59050242221E+03 -0.89699820009E+03  0.24057520761E+03  0.14321004002E+04  0.91637123715E+03 0.  0.
        -24    2    4    4    0    0  0.56749487015E+03 -0.11919568467E+03 -0.70983495713E+02  0.58989916031E+03  0.81757713875E+02 0.  0.
         24    2    4    4    0    0  0.23007552061E+02 -0.77780251542E+03  0.31155870332E+03  0.84220123994E+03  0.82024401816E+02 0.  0.
         13    1    3    3    0    0 -0.19344115384E+03  0.22276440771E+03 -0.34743144991E+03  0.45579828184E+03  0.00000000000E+00 0.  1.
        -13    1    3    3    0    0 -0.39706126837E+03  0.67423379238E+03 -0.86198293747E+03  0.11641578253E+04  0.00000000000E+00 0. -1.
          2    1    6    6  502    0 -0.89417379850E+01 -0.28379171359E+03  0.75744134890E+02  0.29386198351E+03  0.00000000000E+00 0. -1.
          1    1    5    5  503    0  0.36993681297E+01 -0.71621317375E+01  0.58607997353E+01  0.99664652270E+01  0.00000000000E+00 0. -1.
         -2    1    5    5    0  503  0.56379550202E+03 -0.11203355294E+03 -0.76844295448E+02  0.57993269509E+03  0.00000000000E+00 0.  1.
         -1    1    6    6    0  502  0.31949290046E+02 -0.49401080183E+03  0.23581456843E+03  0.54833925643E+03  0.00000000000E+00 0.  1.
<mgrwt>
<rscale>  0 0.28942010E+04</rscale>
<asrwt>0</asrwt>
<pdfrwt beam="1">  1        2 0.16024749E+00 0.28942010E+04</pdfrwt>
<pdfrwt beam="2">  1       -2 0.30929966E+00 0.28942010E+04</pdfrwt>
<totfact> 0.57020589E-01</totfact>
</mgrwt>
</event>
<event>
12    1  0.1562393E-007  0.1365909E+04  0.7818608E-02  0.8978872E-01
          1   -1    0    0  501    0  0.00000000000E+00  0.00000000000E+00  0.48404084761E+03  0.48404084761E+03  0.00000000000E+00 0. -1.
         -1   -1    0    0    0  501 -0.00000000000E+00 -0.00000000000E+00 -0.96361045914E+03  0.96361045914E+03  0.00000000000E+00 0.  1.
         23    2    1    2    0    0  0.45855868998E+02 -0.34130588052E+03 -0.30592547324E+03  0.46986919715E+03  0.92704921432E+02 0.  0.
        254    2    1    2    0    0 -0.45855868998E+02  0.34130588052E+03 -0.17364413829E+03  0.97778210960E+03  0.89850603910E+03 0.  0.
        -24    2    4    4    0    0  0.35404827006E+03  0.33803472550E+03 -0.26091747307E+03  0.56047528196E+03  0.80230672178E+02 0.  0.
         24    2    4    4    0    0 -0.39990413906E+03  0.32711550221E+01  0.87273334783E+02  0.41730682764E+03  0.81205495719E+02 0.  0.
         11    1    3    3    0    0  0.95671973483E+01 -0.11464468253E+03 -0.48180645611E+02  0.12472493379E+03  0.00000000000E+00 0. -1.
        -11    1    3    3    0    0  0.36288671650E+02 -0.22666119800E+03 -0.25774482762E+03  0.34514426337E+03  0.00000000000E+00 0.  1.
          4    1    6    6  502    0 -0.25811711393E+03  0.33840889457E+02  0.32862835537E+02  0.26239210404E+03  0.00000000000E+00 0. -1.
          3    1    5    5  503    0  0.32983936619E+03  0.30250053255E+03 -0.21161357904E+03  0.49505644781E+03  0.00000000000E+00 0. -1.
         -4    1    5    5    0  503  0.24208903873E+02  0.35534192953E+02 -0.49303894036E+02  0.65418834158E+02  0.00000000000E+00 0.  1.
         -3    1    6    6    0  502 -0.14178702513E+03 -0.30569734435E+02  0.54410499246E+02  0.15491472359E+03  0.00000000000E+00 0.  1.
<mgrwt>
<rscale>  0 0.13659090E+04</rscale>
<asrwt>0</asrwt>
<pdfrwt beam="1">  1        1 0.74467823E-01 0.13659090E+04</pdfrwt>
<pdfrwt beam="2">  1       -1 0.14824776E+00 0.13659090E+04</pdfrwt>
<totfact> 0.16319723E+01</totfact>
</mgrwt>
</event>
<event>
12    1  0.1562393E-007  0.1966400E+04  0.7818608E-02  0.8622493E-01
          1   -1    0    0  501    0  0.00000000000E+00  0.00000000000E+00  0.20032117876E+04  0.20032117876E+04  0.00000000000E+00 0. -1.
         -1   -1    0    0    0  501 -0.00000000000E+00 -0.00000000000E+00 -0.48256634280E+03  0.48256634280E+03  0.00000000000E+00 0.  1.
         23    2    1    2    0    0  0.31003263544E+03  0.70539817140E+03  0.52865124459E+03  0.93868108675E+03  0.89124794349E+02 0.  0.
        254    2    1    2    0    0 -0.31003263544E+03 -0.70539817140E+03  0.99199420025E+03  0.15470970437E+04  0.90318876986E+03 0.  0.
        -24    2    4    4    0    0  0.26062405057E+03 -0.48778830633E+03  0.36076470345E+03  0.66515130954E+03  0.80079746547E+02 0.  0.
         24    2    4    4    0    0 -0.57065668601E+03 -0.21760986508E+03  0.63122949680E+03  0.88194573415E+03  0.79840426348E+02 0.  0.
         11    1    3    3    0    0  0.15606295334E+03  0.32802226786E+03  0.19711291829E+03  0.41328894997E+03  0.00000000000E+00 0. -1.
        -11    1    3    3    0    0  0.15396968210E+03  0.37737590355E+03  0.33153832630E+03  0.52539213678E+03  0.00000000000E+00 0.  1.
          2    1    6    6  502    0 -0.91004438453E+02 -0.20681258701E+02  0.13598138849E+03  0.16492562049E+03  0.00000000000E+00 0. -1.
          1    1    5    5  503    0  0.13566980990E+02 -0.76701316479E+02  0.66831631680E+02  0.10263343469E+03  0.00000000000E+00 0. -1.
         -2    1    5    5    0  503  0.24705706958E+03 -0.41108698985E+03  0.29393307177E+03  0.56251787485E+03  0.00000000000E+00 0.  1.
         -1    1    6    6    0  502 -0.47965224756E+03 -0.19692860638E+03  0.49524810831E+03  0.71702011365E+03  0.00000000000E+00 0.  1.
<mgrwt>
<rscale>  0 0.19664004E+04</rscale>
<asrwt>0</asrwt>
<pdfrwt beam="1">  1        1 0.30818642E+00 0.19664004E+04</pdfrwt>
<pdfrwt beam="2">  1       -1 0.74240977E-01 0.19664004E+04</pdfrwt>
<totfact> 0.50377724E+00</totfact>
</mgrwt>
</event>
<event>
12    1  0.1562393E-007  0.1512501E+04  0.7818608E-02  0.8876182E-01
          2   -1    0    0  501    0  0.00000000000E+00  0.00000000000E+00  0.34684410047E+04  0.34684410047E+04  0.00000000000E+00 0. -1.
         -2   -1    0    0    0  501 -0.00000000000E+00 -0.00000000000E+00 -0.16489112008E+03  0.16489112008E+03  0.00000000000E+00 0.  1.
         23    2    1    2    0    0 -0.46934603893E+03 -0.82527512908E+02  0.89836941847E+03  0.10202559969E+04  0.82208226077E+02 0.  0.
        254    2    1    2    0    0  0.46934603893E+03  0.82527512908E+02  0.24051804661E+04  0.26130761279E+04  0.90342530456E+03 0.  0.
        -24    2    4    4    0    0 -0.20419563889E+03  0.23655542405E+03  0.67162126056E+03  0.74521070592E+03  0.81299145073E+02 0.  0.
         24    2    4    4    0    0  0.67354167781E+03 -0.15402791114E+03  0.17335592056E+04  0.18678654220E+04  0.79440079782E+02 0.  0.
         13    1    3    3    0    0 -0.39270715163E+03 -0.95516384765E+02  0.71981888609E+03  0.82551893707E+03  0.00000000000E+00 0.  1.
        -13    1    3    3    0    0 -0.76638887295E+02  0.12988871857E+02  0.17855053238E+03  0.19473705978E+03  0.00000000000E+00 0. -1.
          2    1    6    6  502    0  0.51029988923E+02 -0.14745875157E+02  0.19979420799E+03  0.20673467573E+03  0.00000000000E+00 0. -1.
          1    1    5    5  503    0 -0.59467546325E+02  0.70871181363E+02  0.12135896740E+03  0.15260115459E+03  0.00000000000E+00 0. -1.
         -2    1    5    5    0  503 -0.14472809256E+03  0.16568424269E+03  0.55026229316E+03  0.59260955132E+03  0.00000000000E+00 0.  1.
         -1    1    6    6    0  502  0.62251168889E+03 -0.13928203598E+03  0.15337649976E+04  0.16611307463E+04  0.00000000000E+00 0.  1.
<mgrwt>
<rscale>  0 0.15125014E+04</rscale>
<asrwt>0</asrwt>
<pdfrwt beam="1">  1        2 0.53360625E+00 0.15125014E+04</pdfrwt>
<pdfrwt beam="2">  1       -2 0.25367867E-01 0.15125014E+04</pdfrwt>
<totfact> 0.11688861E+01</totfact>
</mgrwt>
</event>
<event>
12    1  0.1562393E-007  0.2708639E+04  0.7818608E-02  0.8332207E-01
          2   -1    0    0  501    0  0.00000000000E+00  0.00000000000E+00  0.37345953494E+04  0.37345953494E+04  0.00000000000E+00 0. -1.
         -2   -1    0    0    0  501 -0.00000000000E+00 -0.00000000000E+00 -0.49113266854E+03  0.49113266854E+03  0.00000000000E+00 0.  1.
         23    2    1    2    0    0  0.13660484702E+03  0.57129568851E+03 -0.19195537146E+03  0.62514601785E+03  0.94451209892E+02 0.  0.
        254    2    1    2    0    0 -0.13660484702E+03 -0.57129568851E+03  0.34354180523E+04  0.36005820001E+04  0.90391033695E+03 0.  0.
        -24    2    4    4    0    0  0.29638467411E+03 -0.44892886377E+03  0.25129245180E+04  0.25711009869E+04  0.79935299749E+02 0.  0.
         24    2    4    4    0    0 -0.43298952113E+03 -0.12236682475E+03  0.92249353435E+03  0.10294810132E+04  0.79895371367E+02 0.  0.
         11    1    3    3    0    0  0.12515474211E+03  0.49013042396E+03 -0.19737183426E+03  0.54299832681E+03  0.00000000000E+00 0.  1.
        -11    1    3    3    0    0  0.11450104903E+02  0.81165264558E+02  0.54164627935E+01  0.82147691034E+02  0.00000000000E+00 0. -1.
          4    1    6    6  502    0 -0.29636764214E+03 -0.45158179974E+02  0.62213790861E+03  0.69060018669E+03  0.00000000000E+00 0. -1.
          3    1    5    5  503    0  0.74068302632E+02 -0.18050496035E+03  0.86841244606E+03  0.89006085783E+03  0.00000000000E+00 0. -1.
         -4    1    5    5    0  503  0.22231637148E+03 -0.26842390341E+03  0.16445120719E+04  0.16810401291E+04  0.00000000000E+00 0.  1.
         -3    1    6    6    0  502 -0.13662187899E+03 -0.77208644775E+02  0.30035562574E+03  0.33888082648E+03  0.00000000000E+00 0.  1.
<mgrwt>
<rscale>  0 0.27086393E+04</rscale>
<asrwt>0</asrwt>
<pdfrwt beam="1">  1        2 0.57455311E+00 0.27086393E+04</pdfrwt>
<pdfrwt beam="2">  1       -2 0.75558874E-01 0.27086393E+04</pdfrwt>
<totfact> 0.75805942E-01</totfact>
</mgrwt>
</event>
<event>
12    1  0.1562393E-007  0.2175013E+04  0.7818608E-02  0.8528901E-01
         -1   -1    0    0    0  501 -0.00000000000E+00  0.00000000000E+00  0.56395663932E+03  0.56395663932E+03  0.00000000000E+00 0. -1.
          1   -1    0    0  501    0  0.00000000000E+00 -0.00000000000E+00 -0.20970954313E+04  0.20970954313E+04  0.00000000000E+00 0.  1.
         23    2    1    2    0    0 -0.73983192355E+03  0.34254358369E+03 -0.18193349098E+03  0.84100058061E+03  0.97441262351E+02 0.  0.
        254    2    1    2    0    0  0.73983192355E+03 -0.34254358369E+03 -0.13512053010E+04  0.18200514900E+04  0.90672172082E+03 0.  0.
        -24    2    4    4    0    0  0.60970282649E+03  0.18043538317E+03 -0.93908088645E+03  0.11367942249E+04  0.78318161386E+02 0.  0.
         24    2    4    4    0    0  0.13012909705E+03 -0.52297896686E+03 -0.41212441455E+03  0.68325726508E+03  0.80952921730E+02 0.  0.
         13    1    3    3    0    0 -0.67545526351E+03  0.28101881609E+03 -0.17083600007E+03  0.75126315424E+03  0.00000000000E+00 0. -1.
        -13    1    3    3    0    0 -0.64376660039E+02  0.61524767601E+02 -0.11097490912E+02  0.89737426365E+02  0.00000000000E+00 0.  1.
          2    1    6    6  502    0  0.10724313589E+03 -0.48512710487E+03 -0.39869786644E+03  0.63703169998E+03  0.00000000000E+00 0. -1.
          1    1    5    5  503    0  0.45047554045E+03  0.15258925461E+03 -0.74931023691E+03  0.88751198544E+03  0.00000000000E+00 0. -1.
         -2    1    5    5    0  503  0.15922728605E+03  0.27846128560E+02 -0.18977064954E+03  0.24928223949E+03  0.00000000000E+00 0.  1.
         -1    1    6    6    0  502  0.22885961162E+02 -0.37851861992E+02 -0.13426548106E+02  0.46225565098E+02  0.00000000000E+00 0.  1.
<mgrwt>
<rscale>  0 0.21750135E+04</rscale>
<asrwt>0</asrwt>
<pdfrwt beam="1">  1        1 0.32263007E+00 0.21750135E+04</pdfrwt>
<pdfrwt beam="2">  1       -1 0.86762560E-01 0.21750135E+04</pdfrwt>
<totfact> 0.30619994E+00</totfact>
</mgrwt>
</event>
<event>
12    1  0.1562393E-007  0.2461175E+04  0.7818608E-02  0.8416949E-01
          1   -1    0    0  501    0  0.00000000000E+00  0.00000000000E+00  0.13984074882E+04  0.13984074882E+04  0.00000000000E+00 0. -1.
         -1   -1    0    0    0  501 -0.00000000000E+00 -0.00000000000E+00 -0.10829068913E+04  0.10829068913E+04  0.00000000000E+00 0.  1.
         23    2    1    2    0    0  0.75134573507E+03  0.49963122784E+03 -0.41873520173E+03  0.99823347102E+03  0.83541103893E+02 0.  0.
        254    2    1    2    0    0 -0.75134573507E+03 -0.49963122784E+03  0.73423579866E+03  0.14830809084E+04  0.91993206027E+03 0.  0.
        -24    2    4    4    0    0 -0.72526809520E+02  0.22291956926E+03  0.37872401346E+01  0.24916263381E+03  0.84346917203E+02 0.  0.
         24    2    4    4    0    0 -0.67881892556E+03 -0.72255079709E+03  0.73044855852E+03  0.12339182746E+04  0.78258697656E+02 0.  0.
         11    1    3    3    0    0  0.66368457031E+03  0.40661986958E+03 -0.36126468602E+03  0.85809620706E+03  0.00000000000E+00 0.  1.
        -11    1    3    3    0    0  0.87661164763E+02  0.93011358254E+02 -0.57470515715E+02  0.14013726395E+03  0.00000000000E+00 0. -1.
          4    1    6    6  502    0 -0.10801491887E+03 -0.13225680482E+03  0.93344441898E+02  0.19460799046E+03  0.00000000000E+00 0. -1.
          1    1    5    5  503    0 -0.23302237125E+01  0.88037598949E+01 -0.20594688491E+02  0.22518377492E+02  0.00000000000E+00 0. -1.
         -2    1    5    5    0  503 -0.70196585807E+02  0.21411580936E+03  0.24381928625E+02  0.22664425632E+03  0.00000000000E+00 0.  1.
         -3    1    6    6    0  502 -0.57080400668E+03 -0.59029399228E+03  0.63710411662E+03  0.10393102842E+04  0.00000000000E+00 0.  1.
<mgrwt>
<rscale>  0 0.24611746E+04</rscale>
<asrwt>0</asrwt>
<pdfrwt beam="1">  1        1 0.21513961E+00 0.24611746E+04</pdfrwt>
<pdfrwt beam="2">  1       -1 0.16660106E+00 0.24611746E+04</pdfrwt>
<totfact> 0.17902910E+00</totfact>
</mgrwt>
</event>
<event>
12    1  0.1562393E-007  0.1346002E+04  0.7818608E-02  0.8993860E-01
          2   -1    0    0  501    0  0.00000000000E+00  0.00000000000E+00  0.19736896914E+04  0.19736896914E+04  0.00000000000E+00 0. -1.
         -2   -1    0    0    0  501 -0.00000000000E+00 -0.00000000000E+00 -0.22948393384E+03  0.22948393384E+03  0.00000000000E+00 0.  1.
         23    2    1    2    0    0 -0.33698680697E+03 -0.55334214349E+02  0.22619582670E+03  0.41974820436E+03  0.91662531606E+02 0.  0.
        254    2    1    2    0    0  0.33698680697E+03  0.55334214349E+02  0.15180099308E+04  0.17834254209E+04  0.87156760972E+03 0.  0.
        -24    2    4    4    0    0  0.29284897159E+03  0.42501313046E+03  0.11017342226E+04  0.12191235725E+04  0.77764430216E+02 0.  0.
         24    2    4    4    0    0  0.44137835376E+02 -0.36967891611E+03  0.41627570825E+03  0.56430184835E+03  0.80873118232E+02 0.  0.
         11    1    3    3    0    0 -0.31713779221E+03 -0.68276219719E+02  0.18841351996E+03  0.37515020449E+03  0.00000000000E+00 0. -1.
        -11    1    3    3    0    0 -0.19849014758E+02  0.12942005371E+02  0.37782306736E+02  0.44597999868E+02  0.00000000000E+00 0.  1.
          2    1    6    6  502    0  0.28742527735E+02 -0.62969951180E+02  0.45366241415E+02  0.82761364854E+02  0.00000000000E+00 0. -1.
          3    1    5    5  503    0  0.16597534870E+03  0.22615429304E+03  0.68582939689E+03  0.74098282184E+03  0.00000000000E+00 0. -1.
         -4    1    5    5    0  503  0.12687362289E+03  0.19885883742E+03  0.41590482569E+03  0.47814075066E+03  0.00000000000E+00 0.  1.
         -1    1    6    6    0  502  0.15395307640E+02 -0.30670896493E+03  0.37090946683E+03  0.48154048350E+03  0.00000000000E+00 0.  1.
<mgrwt>
<rscale>  0 0.13460016E+04</rscale>
<asrwt>0</asrwt>
<pdfrwt beam="1">  1        2 0.30364456E+00 0.13460016E+04</pdfrwt>
<pdfrwt beam="2">  1       -2 0.35305222E-01 0.13460016E+04</pdfrwt>
<totfact> 0.50901983E+01</totfact>
</mgrwt>
</event>
<event>
12    1  0.1562393E-007  0.1908214E+04  0.7818608E-02  0.8650779E-01
         -1   -1    0    0    0  501 -0.00000000000E+00  0.00000000000E+00  0.79657574280E+03  0.79657574280E+03  0.00000000000E+00 0.  1.
          1   -1    0    0  501    0  0.00000000000E+00 -0.00000000000E+00 -0.11427914491E+04  0.11427914491E+04  0.00000000000E+00 0. -1.
         23    2    1    2    0    0 -0.17163612830E+03  0.71007720808E+03 -0.26508640912E+02  0.73741773922E+03  0.97023770811E+02 0.  0.
        254    2    1    2    0    0  0.17163612830E+03 -0.71007720808E+03 -0.31970706542E+03  0.12019494527E+04  0.89933379632E+03 0.  0.
        -24    2    4    4    0    0 -0.28693956372E+03  0.80800783363E+01 -0.33894315492E+02  0.29964139578E+03  0.78971770587E+02 0.  0.
         24    2    4    4    0    0  0.45857569202E+03 -0.71815728642E+03 -0.28581274993E+03  0.90230805692E+03  0.80183216608E+02 0.  0.
         13    1    3    3    0    0 -0.12609398716E+02  0.10174035161E+02  0.94836766329E+01  0.18773599812E+02  0.00000000000E+00 0. -1.
        -13    1    3    3    0    0 -0.15902672958E+03  0.69990317292E+03 -0.35992317545E+02  0.71864413941E+03  0.00000000000E+00 0.  1.
          2    1    6    6  502    0  0.47449989249E+02 -0.37744411237E+02 -0.14852668432E+02  0.62423904227E+02  0.00000000000E+00 0. -1.
          1    1    5    5  503    0 -0.16526080037E+03  0.38187189757E+02 -0.39551058071E+02  0.17416566767E+03  0.00000000000E+00 0. -1.
         -4    1    5    5    0  503 -0.12167876335E+03 -0.30107111421E+02  0.56567425789E+01  0.12547572811E+03  0.00000000000E+00 0.  1.
         -1    1    6    6    0  502  0.41112570277E+03 -0.68041287518E+03 -0.27096008149E+03  0.83988415270E+03  0.00000000000E+00 0.  1.
<mgrwt>
<rscale>  0 0.19082138E+04</rscale>
<asrwt>0</asrwt>
<pdfrwt beam="1">  1        1 0.17581407E+00 0.19082138E+04</pdfrwt>
<pdfrwt beam="2">  1       -1 0.12255011E+00 0.19082138E+04</pdfrwt>
<totfact> 0.64731467E+00</totfact>
</mgrwt>
</event>
<event>
12    1  0.1562393E-007  0.1126253E+04  0.7818608E-02  0.9179975E-01
          2   -1    0    0  501    0  0.00000000000E+00  0.00000000000E+00  0.16894802303E+04  0.16894802303E+04  0.00000000000E+00 0. -1.
         -2   -1    0    0    0  501 -0.00000000000E+00 -0.00000000000E+00 -0.18769770009E+03  0.18769770009E+03  0.00000000000E+00 0.  1.
         23    2    1    2    0    0 -0.12687695946E+03  0.13112755715E+03  0.34592095657E+03  0.40171218571E+03  0.91756050850E+02 0.  0.
        254    2    1    2    0    0  0.12687695946E+03 -0.13112755715E+03  0.11558615737E+04  0.14754657447E+04  0.89871629965E+03 0.  0.
        -24    2    4    4    0    0  0.20963408548E+03 -0.48928274691E+03  0.62824383087E+03  0.82715608891E+03  0.78439965483E+02 0.  0.
         24    2    4    4    0    0 -0.82757126023E+02  0.35815518976E+03  0.52761774281E+03  0.64830965581E+03  0.82468451055E+02 0.  0.
         13    1    3    3    0    0 -0.10752752493E+03  0.14493199868E+03  0.30580092504E+03  0.35507979189E+03  0.00000000000E+00 0.  1.
        -13    1    3    3    0    0 -0.19349434531E+02 -0.13804441531E+02  0.40120031531E+02  0.46632393813E+02  0.00000000000E+00 0. -1.
          4    1    6    6  502    0 -0.70097148660E+02  0.12590323147E+03  0.20588817378E+03  0.25130693195E+03  0.00000000000E+00 0. -1.
          3    1    5    5  503    0 -0.44546647963E+01 -0.29160353541E+02  0.23699335856E+02  0.37839513436E+02  0.00000000000E+00 0. -1.
         -4    1    5    5    0  503  0.21408875028E+03 -0.46012239337E+03  0.60454449501E+03  0.78931657548E+03  0.00000000000E+00 0.  1.
         -3    1    6    6    0  502 -0.12659977363E+02  0.23225195829E+03  0.32172956904E+03  0.39700272385E+03  0.00000000000E+00 0.  1.
<mgrwt>
<rscale>  0 0.11262532E+04</rscale>
<asrwt>0</asrwt>
<pdfrwt beam="1">  1        2 0.25992003E+00 0.11262532E+04</pdfrwt>
<pdfrwt beam="2">  1       -2 0.28876570E-01 0.11262532E+04</pdfrwt>
<totfact> 0.10847558E+02</totfact>
</mgrwt>
</event>
<event>
12    1  0.1562393E-007  0.2270922E+04  0.7818608E-02  0.8489475E-01
          2   -1    0    0  501    0  0.00000000000E+00  0.00000000000E+00  0.24987144300E+04  0.24987144300E+04  0.00000000000E+00 0.  1.
         -2   -1    0    0    0  501 -0.00000000000E+00 -0.00000000000E+00 -0.51597396170E+03  0.51597396170E+03  0.00000000000E+00 0. -1.
         23    2    1    2    0    0 -0.42462291785E+02  0.80390346659E+02 -0.41040648951E+03  0.43032896985E+03  0.92107988799E+02 0.  0.
        254    2    1    2    0    0  0.42462291785E+02 -0.80390346659E+02  0.23931469578E+04  0.25843594219E+04  0.97133701955E+03 0.  0.
        -24    2    4    4    0    0  0.18704036539E+02 -0.11900034971E+03 -0.39959571119E+02  0.14970860478E+03  0.79403871489E+02 0.  0.
         24    2    4    4    0    0  0.23758255246E+02  0.38610003048E+02  0.24331065289E+04  0.24346508171E+04  0.73905567428E+02 0.  0.
         11    1    3    3    0    0  0.23728823252E+02  0.10175755950E+02 -0.40389267423E+02  0.47936374342E+02  0.00000000000E+00 0.  1.
        -11    1    3    3    0    0 -0.66191115037E+02  0.70214590709E+02 -0.37001722209E+03  0.38239259551E+03  0.00000000000E+00 0. -1.
          2    1    6    6  502    0  0.93719540844E+01  0.55776266740E+02  0.11907806420E+04  0.11921230485E+04  0.00000000000E+00 0. -1.
          3    1    5    5  503    0  0.13740000029E+01 -0.82789291817E+02  0.12406979153E+02  0.83725072990E+02  0.00000000000E+00 0. -1.
         -4    1    5    5    0  503  0.17330036536E+02 -0.36211057890E+02 -0.52366550271E+02  0.65983531788E+02  0.00000000000E+00 0.  1.
         -1    1    6    6    0  502  0.14386301161E+02 -0.17166263692E+02  0.12423258870E+04  0.12425277686E+04  0.00000000000E+00 0.  1.
<mgrwt>
<rscale>  0 0.22709219E+04</rscale>
<asrwt>0</asrwt>
<pdfrwt beam="1">  1        2 0.38441760E+00 0.22709219E+04</pdfrwt>
<pdfrwt beam="2">  1       -2 0.79380611E-01 0.22709219E+04</pdfrwt>
<totfact> 0.44577080E+00</totfact>
</mgrwt>
</event>
<event>
12    1  0.1562393E-007  0.1426276E+04  0.7818608E-02  0.8935015E-01
          2   -1    0    0  501    0  0.00000000000E+00  0.00000000000E+00  0.20938816521E+04  0.20938816521E+04  0.00000000000E+00 0.  1.
         -2   -1    0    0    0  501 -0.00000000000E+00 -0.00000000000E+00 -0.24288171056E+03  0.24288171056E+03  0.00000000000E+00 0. -1.
         23    2    1    2    0    0  0.17470355696E+03  0.24339259022E+03  0.75660961556E+02  0.32039276409E+03  0.84650200171E+02 0.  0.
        254    2    1    2    0    0 -0.17470355696E+03 -0.24339259022E+03  0.17753389800E+04  0.20163705986E+04  0.90783292030E+03 0.  0.
        -24    2    4    4    0    0  0.10890436589E+02 -0.34401936461E+03  0.16419783483E+03  0.38949126082E+03  0.79212299862E+02 0.  0.
         24    2    4    4    0    0 -0.18559399355E+03  0.10062677440E+03  0.16111411451E+04  0.16268793378E+04  0.79935673418E+02 0.  0.
         11    1    3    3    0    0  0.16862854247E+03  0.23200471051E+03  0.49269449044E+02  0.29101417430E+03  0.00000000000E+00 0. -1.
        -11    1    3    3    0    0  0.60750144960E+01  0.11387879704E+02  0.26391512512E+02  0.29378589788E+02  0.00000000000E+00 0.  1.
          2    1    6    6  502    0 -0.51175103292E+02  0.41151499329E+02  0.27758544189E+03  0.28524728683E+03  0.00000000000E+00 0. -1.
          3    1    5    5  503    0  0.12471955953E+02 -0.52399255032E+01  0.13323714569E+01  0.13593443945E+02  0.00000000000E+00 0. -1.
         -4    1    5    5    0  503 -0.15815193641E+01 -0.33877943911E+03  0.16286546338E+03  0.37589781687E+03  0.00000000000E+00 0.  1.
         -1    1    6    6    0  502 -0.13441889026E+03  0.59475275069E+02  0.13335557032E+04  0.13416320509E+04  0.00000000000E+00 0.  1.
<mgrwt>
<rscale>  0 0.14262756E+04</rscale>
<asrwt>0</asrwt>
<pdfrwt beam="1">  1        2 0.32213563E+00 0.14262756E+04</pdfrwt>
<pdfrwt beam="2">  1       -2 0.37366418E-01 0.14262756E+04</pdfrwt>
<totfact> 0.38891305E+01</totfact>
</mgrwt>
</event>
<event>
12    1  0.1562393E-007  0.1969495E+04  0.7818608E-02  0.8621017E-01
         -1   -1    0    0    0  501 -0.00000000000E+00  0.00000000000E+00  0.74031658625E+03  0.74031658625E+03  0.00000000000E+00 0.  1.
          1   -1    0    0  501    0  0.00000000000E+00 -0.00000000000E+00 -0.13098826717E+04  0.13098826717E+04  0.00000000000E+00 0. -1.
         23    2    1    2    0    0 -0.76273198456E+03 -0.67322415967E+02 -0.39898758655E+03  0.86822273365E+03  0.91253674220E+02 0.  0.
        254    2    1    2    0    0  0.76273198456E+03  0.67322415967E+02 -0.17057849889E+03  0.11819765243E+04  0.88412617410E+03 0.  0.
        -24    2    4    4    0    0 -0.17130465846E+03  0.12072599254E+03 -0.79943292581E+02  0.23812659075E+03  0.79958063432E+02 0.  0.
         24    2    4    4    0    0  0.93403664301E+03 -0.53403576573E+02 -0.90635206313E+02  0.94384993354E+03  0.85799556779E+02 0.  0.
         13    1    3    3    0    0 -0.56679286186E+03 -0.60593615375E+02 -0.33893893736E+03  0.66317820964E+03  0.00000000000E+00 0. -1.
        -13    1    3    3    0    0 -0.19593912269E+03 -0.67288005923E+01 -0.60048649192E+02  0.20504452402E+03  0.00000000000E+00 0.  1.
          4    1    6    6  502    0  0.76878893786E+03 -0.76663646124E+02 -0.72913300422E+02  0.77603485423E+03  0.00000000000E+00 0. -1.
          3    1    5    5  503    0 -0.17238408302E+03  0.96456015032E+02 -0.81712047941E+02  0.21376831780E+03  0.00000000000E+00 0. -1.
         -4    1    5    5    0  503  0.10794245621E+01  0.24269977508E+02  0.17687553607E+01  0.24358272951E+02  0.00000000000E+00 0.  1.
         -3    1    6    6    0  502  0.16524770516E+03  0.23260069551E+02 -0.17721905891E+02  0.16781507931E+03  0.00000000000E+00 0.  1.
<mgrwt>
<rscale>  0 0.19694952E+04</rscale>
<asrwt>0</asrwt>
<pdfrwt beam="1">  1        1 0.20152041E+00 0.19694952E+04</pdfrwt>
<pdfrwt beam="2">  1       -1 0.11389486E+00 0.19694952E+04</pdfrwt>
<totfact> 0.58150950E+00</totfact>
</mgrwt>
</event>
<event>
12    1  0.1562393E-007  0.1294427E+04  0.7818608E-02  0.9033996E-01
          2   -1    0    0  501    0  0.00000000000E+00  0.00000000000E+00  0.13395399100E+04  0.13395399100E+04  0.00000000000E+00 0. -1.
         -2   -1    0    0    0  501 -0.00000000000E+00 -0.00000000000E+00 -0.31270827308E+03  0.31270827308E+03  0.00000000000E+00 0.  1.
         23    2    1    2    0    0 -0.31836995915E+03 -0.17403449779E+02  0.24867238673E+03  0.41463860050E+03  0.91787265726E+02 0.  0.
        254    2    1    2    0    0  0.31836995915E+03  0.17403449779E+02  0.77815925022E+03  0.12376095826E+04  0.90801065485E+03 0.  0.
        -24    2    4    4    0    0  0.17956033273E+03  0.37053366017E+03  0.62587150006E+02  0.42388407116E+03  0.78888833322E+02 0.  0.
         24    2    4    4    0    0  0.13880962641E+03 -0.35313021039E+03  0.71557210022E+03  0.81372551146E+03  0.78337216662E+02 0.  0.
         11    1    3    3    0    0 -0.11024521595E+02 -0.15415476689E+02  0.36619939221E+02  0.41233444514E+02  0.00000000000E+00 0.  1.
        -11    1    3    3    0    0 -0.30734543755E+03 -0.19879730904E+01  0.21205244751E+03  0.37340515598E+03  0.00000000000E+00 0. -1.
          2    1    6    6  502    0  0.13046093418E+03 -0.31199735463E+03  0.57554673958E+03  0.66754509517E+03  0.00000000000E+00 0. -1.
          3    1    5    5  503    0  0.15884761806E+03  0.26520517709E+03  0.24997327756E+02  0.31014709109E+03  0.00000000000E+00 0. -1.
         -4    1    5    5    0  503  0.20712714677E+02  0.10532848308E+03  0.37589822250E+02  0.11373698006E+03  0.00000000000E+00 0.  1.
         -1    1    6    6    0  502  0.83486922341E+01 -0.41132855758E+02  0.14002536063E+03  0.14618041629E+03  0.00000000000E+00 0.  1.
<mgrwt>
<rscale>  0 0.12944268E+04</rscale>
<asrwt>0</asrwt>
<pdfrwt beam="1">  1        2 0.20608306E+00 0.12944268E+04</pdfrwt>
<pdfrwt beam="2">  1       -2 0.48108966E-01 0.12944268E+04</pdfrwt>
<totfact> 0.62908582E+01</totfact>
</mgrwt>
</event>
<event>
12    1  0.1562393E-007  0.2336310E+04  0.7818608E-02  0.8463741E-01
          1   -1    0    0  501    0  0.00000000000E+00  0.00000000000E+00  0.29542505953E+04  0.29542505953E+04  0.00000000000E+00 0. -1.
         -1   -1    0    0    0  501 -0.00000000000E+00 -0.00000000000E+00 -0.46190611719E+03  0.46190611719E+03  0.00000000000E+00 0.  1.
         23    2    1    2    0    0 -0.91409845689E+03  0.27159952621E+03  0.14598581123E+04  0.17460869556E+04  0.91058535152E+02 0.  0.
        254    2    1    2    0    0  0.91409845689E+03 -0.27159952621E+03  0.10324863658E+04  0.16700697569E+04  0.90208791467E+03 0.  0.
        -24    2    4    4    0    0  0.24990193593E+02 -0.35979438183E+03  0.11486672685E+03  0.38681350259E+03  0.79710814079E+02 0.  0.
         24    2    4    4    0    0  0.88910826330E+03  0.88194855618E+02  0.91761963890E+03  0.12832562543E+04  0.80180895470E+02 0.  0.
         13    1    3    3    0    0 -0.35303073003E+03  0.12019804115E+03  0.49545852298E+03  0.62012693332E+03  0.00000000000E+00 0. -1.
        -13    1    3    3    0    0 -0.56106772686E+03  0.15140148506E+03  0.96439958936E+03  0.11259600223E+04  0.00000000000E+00 0.  1.
          4    1    6    6  502    0  0.85699641405E+03  0.74608320171E+02  0.86343982433E+03  0.12188263147E+04  0.00000000000E+00 0. -1.
          1    1    5    5  503    0  0.43844760810E+01 -0.18632762914E+03  0.18462630999E+02  0.18729142467E+03  0.00000000000E+00 0. -1.
         -2    1    5    5    0  503  0.20605717512E+02 -0.17346675268E+03  0.96404095851E+02  0.19952207792E+03  0.00000000000E+00 0.  1.
         -3    1    6    6    0  502  0.32111849253E+02  0.13586535447E+02  0.54179814574E+02  0.64429939587E+02  0.00000000000E+00 0.  1.
<mgrwt>
<rscale>  0 0.23363103E+04</rscale>
<asrwt>0</asrwt>
<pdfrwt beam="1">  1        1 0.45450008E+00 0.23363103E+04</pdfrwt>
<pdfrwt beam="2">  1       -1 0.71062481E-01 0.23363103E+04</pdfrwt>
<totfact> 0.11636016E+00</totfact>
</mgrwt>
</event>
<event>
12    1  0.1562393E-007  0.1729239E+04  0.7818608E-02  0.8744862E-01
         -4   -1    0    0    0  501 -0.00000000000E+00  0.00000000000E+00  0.29480042009E+03  0.29480042009E+03  0.00000000000E+00 0.  1.
          4   -1    0    0  501    0  0.00000000000E+00 -0.00000000000E+00 -0.25358410370E+04  0.25358410370E+04  0.00000000000E+00 0. -1.
         23    2    1    2    0    0 -0.53115144097E+03  0.22382561720E+03 -0.12050016691E+04  0.13409330088E+04  0.11769686147E+03 0.  0.
        254    2    1    2    0    0  0.53115144097E+03 -0.22382561720E+03 -0.10360389478E+04  0.14897084484E+04  0.90201707279E+03 0.  0.
        -24    2    4    4    0    0  0.53287464740E+03 -0.61312086936E+02 -0.11528238328E+04  0.12736260877E+04  0.73525913636E+02 0.  0.
         24    2    4    4    0    0 -0.17232064383E+01 -0.16251353026E+03  0.11678488497E+03  0.21608236068E+03  0.81481656096E+02 0.  0.
         11    1    3    3    0    0 -0.68873935007E+02  0.54822329524E+02 -0.11391066697E+03  0.14396092104E+03  0.00000000000E+00 0.  1.
        -11    1    3    3    0    0 -0.46227750596E+03  0.16900328767E+03 -0.10910910022E+04  0.11969720877E+04  0.00000000000E+00 0. -1.
          2    1    6    6  502    0  0.10016109169E+02 -0.15327049467E+03  0.12588050641E+03  0.19859020337E+03  0.00000000000E+00 0. -1.
          1    1    5    5  503    0  0.46017842331E+03 -0.78127576422E+02 -0.99828120491E+03  0.11020133681E+04  0.00000000000E+00 0. -1.
         -2    1    5    5    0  503  0.72696224091E+02  0.16815489486E+02 -0.15454262787E+03  0.17161271956E+03  0.00000000000E+00 0.  1.
         -1    1    6    6    0  502 -0.11739315607E+02 -0.92430355926E+01 -0.90956214439E+01  0.17492157310E+02  0.00000000000E+00 0.  1.
<mgrwt>
<rscale>  0 0.17292391E+04</rscale>
<asrwt>0</asrwt>
<pdfrwt beam="1">  1        4 0.39012937E+00 0.17292391E+04</pdfrwt>
<pdfrwt beam="2">  1       -4 0.45353913E-01 0.17292391E+04</pdfrwt>
<totfact> 0.72278399E-02</totfact>
</mgrwt>
</event>
<event>
12    1  0.1562393E-007  0.1408457E+04  0.7818608E-02  0.8947719E-01
          1   -1    0    0  501    0  0.00000000000E+00  0.00000000000E+00  0.82175719298E+03  0.82175719298E+03  0.00000000000E+00 0. -1.
         -1   -1    0    0    0  501 -0.00000000000E+00 -0.00000000000E+00 -0.60350905106E+03  0.60350905106E+03  0.00000000000E+00 0.  1.
         23    2    1    2    0    0 -0.37403567859E+03 -0.10048899616E+03  0.20216958431E+03  0.44619418506E+03  0.90642058396E+02 0.  0.
        254    2    1    2    0    0  0.37403567859E+03  0.10048899616E+03  0.16078557603E+02  0.97907205898E+03  0.89906776689E+03 0.  0.
        -24    2    4    4    0    0 -0.84591698799E+02  0.13967027765E+03 -0.34410807539E+03  0.38910115956E+03  0.79534915977E+02 0.  0.
         24    2    4    4    0    0  0.45862737739E+03 -0.39181281493E+02  0.36018663299E+03  0.58997089942E+03  0.80355506749E+02 0.  0.
         11    1    3    3    0    0 -0.77512335695E+02  0.69427667987E+01  0.14395991200E+02  0.79142964048E+02  0.00000000000E+00 0.  1.
        -11    1    3    3    0    0 -0.29652334290E+03 -0.10743176296E+03  0.18777359311E+03  0.36705122101E+03  0.00000000000E+00 0. -1.
          4    1    6    6  502    0  0.27477393653E+03 -0.56563417165E+02  0.24389710739E+03  0.37173368875E+03  0.00000000000E+00 0. -1.
          1    1    5    5  503    0 -0.21008405126E+01  0.35096194817E+02 -0.24509171696E+02  0.42858557124E+02  0.00000000000E+00 0. -1.
         -2    1    5    5    0  503 -0.82490858286E+02  0.10457408284E+03 -0.31959890369E+03  0.34624260244E+03  0.00000000000E+00 0.  1.
         -3    1    6    6    0  502  0.18385344086E+03  0.17382135671E+02  0.11628952560E+03  0.21823721067E+03  0.00000000000E+00 0.  1.
<mgrwt>
<rscale>  0 0.14084572E+04</rscale>
<asrwt>0</asrwt>
<pdfrwt beam="1">  1        1 0.12642418E+00 0.14084572E+04</pdfrwt>
<pdfrwt beam="2">  1       -1 0.92847546E-01 0.14084572E+04</pdfrwt>
<totfact> 0.23261061E+01</totfact>
</mgrwt>
</event>
<event>
12    1  0.1562393E-007  0.1892218E+04  0.7818608E-02  0.8658740E-01
         -2   -1    0    0    0  501 -0.00000000000E+00  0.00000000000E+00  0.11474067549E+04  0.11474067549E+04  0.00000000000E+00 0.  1.
          2   -1    0    0  501    0  0.00000000000E+00 -0.00000000000E+00 -0.78012656169E+03  0.78012656169E+03  0.00000000000E+00 0. -1.
         23    2    1    2    0    0 -0.24354689956E+03  0.95581098198E+02  0.82713527958E+03  0.87246169781E+03  0.92659617913E+02 0.  0.
        254    2    1    2    0    0  0.24354689956E+03 -0.95581098198E+02 -0.45985508635E+03  0.10550716188E+04  0.91282998511E+03 0.  0.
        -24    2    4    4    0    0  0.47547918102E+03 -0.34840611733E+03 -0.28858130323E+03  0.66118797963E+03  0.80144255303E+02 0.  0.
         24    2    4    4    0    0 -0.23193228146E+03  0.25282501913E+03 -0.17127378313E+03  0.39388363916E+03  0.89980769779E+02 0.  0.
         13    1    3    3    0    0 -0.81005411406E+02  0.66729180799E+02  0.22792515859E+03  0.25092735636E+03  0.00000000000E+00 0. -1.
        -13    1    3    3    0    0 -0.16254148815E+03  0.28851917399E+02  0.59921012099E+03  0.62153434145E+03  0.00000000000E+00 0.  1.
          2    1    6    6  502    0 -0.22911035659E+03  0.24376428385E+03 -0.14256061188E+03  0.36364283251E+03  0.00000000000E+00 0. -1.
          1    1    5    5  503    0  0.42436537530E+03 -0.30420410160E+03 -0.28165502728E+03  0.59325851159E+03  0.00000000000E+00 0. -1.
         -2    1    5    5    0  503  0.51113805724E+02 -0.44202015726E+02 -0.69262759527E+01  0.67929468041E+02  0.00000000000E+00 0.  1.
         -1    1    6    6    0  502 -0.28219248703E+01  0.90607352834E+01 -0.28713171245E+02  0.30240806650E+02  0.00000000000E+00 0.  1.
<mgrwt>
<rscale>  0 0.18922183E+04</rscale>
<asrwt>0</asrwt>
<pdfrwt beam="1">  1        2 0.12001947E+00 0.18922183E+04</pdfrwt>
<pdfrwt beam="2">  1       -2 0.17652412E+00 0.18922183E+04</pdfrwt>
<totfact> 0.63948846E+00</totfact>
</mgrwt>
</event>
<event>
12    1  0.1562393E-007  0.1424457E+04  0.7818608E-02  0.8936303E-01
          2   -1    0    0  501    0  0.00000000000E+00  0.00000000000E+00  0.78088478496E+03  0.78088478496E+03  0.00000000000E+00 0. -1.
         -2   -1    0    0    0  501 -0.00000000000E+00 -0.00000000000E+00 -0.64960814165E+03  0.64960814165E+03  0.00000000000E+00 0.  1.
         23    2    1    2    0    0  0.22320888465E+03 -0.34760834800E+03 -0.13706097153E+02  0.42331854274E+03  0.91416419421E+02 0.  0.
        254    2    1    2    0    0 -0.22320888465E+03  0.34760834800E+03  0.14498274046E+03  0.10071743839E+04  0.90704270831E+03 0.  0.
        -24    2    4    4    0    0 -0.48244494710E+03 -0.38628725482E+02  0.20475266682E+03  0.53148955226E+03  0.79449255394E+02 0.  0.
         24    2    4    4    0    0  0.25923606245E+03  0.38623707349E+03 -0.59769926356E+02  0.47568483160E+03  0.79505986648E+02 0.  0.
         13    1    3    3    0    0  0.21317516378E+03 -0.34397707094E+03  0.15750230378E+01  0.40468056104E+03  0.00000000000E+00 0. -1.
        -13    1    3    3    0    0  0.10033720875E+02 -0.36312770640E+01 -0.15281120191E+02  0.18637981704E+02  0.00000000000E+00 0.  1.
          4    1    6    6  502    0  0.21718930758E+03  0.30248068655E+03 -0.77362923237E+02  0.38032983442E+03  0.00000000000E+00 0. -1.
          1    1    5    5  503    0 -0.25045784828E+03 -0.56371264989E+02  0.89793075337E+02  0.27197361942E+03  0.00000000000E+00 0. -1.
         -2    1    5    5    0  503 -0.23198709881E+03  0.17742539506E+02  0.11495959148E+03  0.25951593284E+03  0.00000000000E+00 0.  1.
         -3    1    6    6    0  502  0.42046754868E+02  0.83756386937E+02  0.17592996881E+02  0.95354997179E+02  0.00000000000E+00 0.  1.
<mgrwt>
<rscale>  0 0.14244565E+04</rscale>
<asrwt>0</asrwt>
<pdfrwt beam="1">  1        2 0.12013612E+00 0.14244565E+04</pdfrwt>
<pdfrwt beam="2">  1       -2 0.99939714E-01 0.14244565E+04</pdfrwt>
<totfact> 0.28593337E+01</totfact>
</mgrwt>
</event>
<event>
12    1  0.1562393E-007  0.2448643E+04  0.7818608E-02  0.8421514E-01
         -1   -1    0    0    0  501 -0.00000000000E+00  0.00000000000E+00  0.19423995433E+04  0.19423995433E+04  0.00000000000E+00 0.  1.
          1   -1    0    0  501    0  0.00000000000E+00 -0.00000000000E+00 -0.77170693930E+03  0.77170693930E+03  0.00000000000E+00 0. -1.
         23    2    1    2    0    0 -0.23223527154E+02 -0.93553531630E+02  0.16726076404E+04  0.16776784024E+04  0.87732023507E+02 0.  0.
        254    2    1    2    0    0  0.23223527154E+02  0.93553531630E+02 -0.50191503640E+03  0.10364280801E+04  0.90165007957E+03 0.  0.
        -24    2    4    4    0    0  0.18098538671E+03  0.37607831746E+03  0.10458829026E+02  0.42522731046E+03  0.80735787534E+02 0.  0.
         24    2    4    4    0    0 -0.15776185956E+03 -0.28252478583E+03 -0.51237386542E+03  0.61120076966E+03  0.79563458478E+02 0.  0.
         11    1    3    3    0    0 -0.22273409150E+02  0.77549976528E+01  0.55093990756E+03  0.55144449084E+03  0.00000000000E+00 0. -1.
        -11    1    3    3    0    0 -0.95011800464E+00 -0.10130852928E+03  0.11216677328E+04  0.11262339116E+04  0.00000000000E+00 0.  1.
          2    1    6    6  502    0 -0.33715188328E+02 -0.18737084155E+02 -0.36260969775E+02  0.52940062105E+02  0.00000000000E+00 0. -1.
          1    1    5    5  503    0  0.11026639831E+03  0.13772599762E+03  0.74780659789E+01  0.17658723195E+03  0.00000000000E+00 0. -1.
         -2    1    5    5    0  503  0.70718988405E+02  0.23835231983E+03  0.29807630467E+01  0.24864007851E+03  0.00000000000E+00 0.  1.
         -1    1    6    6    0  502 -0.12404667123E+03 -0.26378770167E+03 -0.47611289565E+03  0.55826070755E+03  0.00000000000E+00 0.  1.
<mgrwt>
<rscale>  0 0.24486431E+04</rscale>
<asrwt>0</asrwt>
<pdfrwt beam="1">  1        1 0.11872415E+00 0.24486431E+04</pdfrwt>
<pdfrwt beam="2">  1       -1 0.29883070E+00 0.24486431E+04</pdfrwt>
<totfact> 0.70236681E-01</totfact>
</mgrwt>
</event>
<event>
12    1  0.1562393E-007  0.1701726E+04  0.7818608E-02  0.8760380E-01
         -2   -1    0    0    0  501 -0.00000000000E+00  0.00000000000E+00  0.80515136104E+03  0.80515136104E+03  0.00000000000E+00 0.  1.
          2   -1    0    0  501    0  0.00000000000E+00 -0.00000000000E+00 -0.89917007403E+03  0.89917007403E+03  0.00000000000E+00 0. -1.
         23    2    1    2    0    0 -0.37206642540E+03 -0.17590574982E+03  0.43155271029E+03  0.60340847442E+03  0.92129189217E+02 0.  0.
        254    2    1    2    0    0  0.37206642540E+03  0.17590574982E+03 -0.52557142328E+03  0.11009129606E+04  0.87544718186E+03 0.  0.
        -24    2    4    4    0    0  0.21833188495E+03  0.15615588992E+01 -0.73940052299E+03  0.77517809032E+03  0.80726004849E+02 0.  0.
         24    2    4    4    0    0  0.15373454045E+03  0.17434419092E+03  0.21382909972E+03  0.32573487033E+03  0.79687615264E+02 0.  0.
         13    1    3    3    0    0 -0.35743583429E+03 -0.14437481045E+03  0.38053415355E+03  0.54167398271E+03  0.00000000000E+00 0.  1.
        -13    1    3    3    0    0 -0.14630591108E+02 -0.31530939372E+02  0.51018556747E+02  0.61734491707E+02  0.00000000000E+00 0. -1.
          4    1    6    6  502    0  0.59634623134E+02  0.22201214573E+02  0.80553073547E+02  0.10265466313E+03  0.00000000000E+00 0. -1.
          1    1    5    5  503    0  0.62744547238E+02  0.34301505064E+02 -0.28226214532E+03  0.29117930925E+03  0.00000000000E+00 0. -1.
         -2    1    5    5    0  503  0.15558733772E+03 -0.32739946165E+02 -0.45713837768E+03  0.48399878107E+03  0.00000000000E+00 0.  1.
         -3    1    6    6    0  502  0.94099917314E+02  0.15214297635E+03  0.13327602617E+03  0.22308020719E+03  0.00000000000E+00 0.  1.
<mgrwt>
<rscale>  0 0.17017262E+04</rscale>
<asrwt>0</asrwt>
<pdfrwt beam="1">  1        2 0.13833386E+00 0.17017262E+04</pdfrwt>
<pdfrwt beam="2">  1       -2 0.12386944E+00 0.17017262E+04</pdfrwt>
<totfact> 0.13701938E+01</totfact>
</mgrwt>
</event>
<event>
12    1  0.1562393E-007  0.2531656E+04  0.7818608E-02  0.8391794E-01
          1   -1    0    0  501    0  0.00000000000E+00  0.00000000000E+00  0.25509663782E+04  0.25509663782E+04  0.00000000000E+00 0. -1.
         -1   -1    0    0    0  501 -0.00000000000E+00 -0.00000000000E+00 -0.62812306057E+03  0.62812306057E+03  0.00000000000E+00 0.  1.
         23    2    1    2    0    0 -0.38466432648E+03 -0.10060805287E+04  0.55258638944E+03  0.12139133958E+04  0.89829507249E+02 0.  0.
        254    2    1    2    0    0  0.38466432648E+03  0.10060805287E+04  0.13702569282E+04  0.19651760430E+04  0.90782606061E+03 0.  0.
        -24    2    4    4    0    0  0.29104694688E+03  0.33615383396E+03  0.19159507412E+02  0.45210183639E+03  0.79506341705E+02 0.  0.
         24    2    4    4    0    0  0.93617379600E+02  0.66992669475E+03  0.13510974208E+04  0.15130742066E+04  0.79770446262E+02 0.  0.
         13    1    3    3    0    0 -0.48562842255E+02 -0.22742449103E+03  0.12856050835E+03  0.26572175876E+03  0.00000000000E+00 0. -1.
        -13    1    3    3    0    0 -0.33610148422E+03 -0.77865603767E+03  0.42402588109E+03  0.94819163703E+03  0.00000000000E+00 0.  1.
          4    1    6    6  502    0  0.10410133168E+03  0.55020501907E+03  0.10801778883E+04  0.12166950812E+04  0.00000000000E+00 0. -1.
          3    1    5    5  503    0  0.15101187353E+03  0.13836855316E+03 -0.23057237146E+02  0.20611181100E+03  0.00000000000E+00 0. -1.
         -4    1    5    5    0  503  0.14003507335E+03  0.19778528080E+03  0.42216744558E+02  0.24599002539E+03  0.00000000000E+00 0.  1.
         -3    1    6    6    0  502 -0.10483952082E+02  0.11972167567E+03  0.27091953253E+03  0.29637912541E+03  0.00000000000E+00 0.  1.
<mgrwt>
<rscale>  0 0.25316562E+04</rscale>
<asrwt>0</asrwt>
<pdfrwt beam="1">  1        1 0.39245636E+00 0.25316562E+04</pdfrwt>
<pdfrwt beam="2">  1       -1 0.96634319E-01 0.25316562E+04</pdfrwt>
<totfact> 0.11393416E+00</totfact>
</mgrwt>
</event>
<event>
12    1  0.1562393E-007  0.1478716E+04  0.7818608E-02  0.8898731E-01
         -2   -1    0    0    0  501 -0.00000000000E+00  0.00000000000E+00  0.33413567429E+03  0.33413567429E+03  0.00000000000E+00 0.  1.
          2   -1    0    0  501    0  0.00000000000E+00 -0.00000000000E+00 -0.16360138162E+04  0.16360138162E+04  0.00000000000E+00 0. -1.
         23    2    1    2    0    0 -0.26688410130E+03 -0.88677050831E+02  0.68091476966E+02  0.30349858055E+03  0.91565256993E+02 0.  0.
        254    2    1    2    0    0  0.26688410130E+03  0.88677050831E+02 -0.13699696189E+04  0.16666509099E+04  0.90654164608E+03 0.  0.
        -24    2    4    4    0    0  0.33141711077E+03  0.22363079263E+03 -0.14920879402E+03  0.43399268945E+03  0.78983273941E+02 0.  0.
         24    2    4    4    0    0 -0.64533009463E+02 -0.13495374180E+03 -0.12207608248E+04  0.12326582205E+04  0.82536508816E+02 0.  0.
         11    1    3    3    0    0 -0.18505539907E+03 -0.82073102481E+02  0.95410846779E+01  0.20266358127E+03  0.00000000000E+00 0. -1.
        -11    1    3    3    0    0 -0.81828702232E+02 -0.66039483499E+01  0.58550392288E+02  0.10083499928E+03  0.00000000000E+00 0.  1.
          4    1    6    6  502    0  0.79682781883E+01 -0.20491542433E+02 -0.57957618235E+02  0.61987759115E+02  0.00000000000E+00 0. -1.
          3    1    5    5  503    0  0.12073229828E+03  0.41603585664E+02 -0.30352114028E+02  0.13125698844E+03  0.00000000000E+00 0. -1.
         -4    1    5    5    0  503  0.21068481249E+03  0.18202720697E+03 -0.11885667999E+03  0.30273570101E+03  0.00000000000E+00 0.  1.
         -3    1    6    6    0  502 -0.72501287652E+02 -0.11446219937E+03 -0.11628032066E+04  0.11706704614E+04  0.00000000000E+00 0.  1.
<mgrwt>
<rscale>  0 0.14787164E+04</rscale>
<asrwt>0</asrwt>
<pdfrwt beam="1">  1        2 0.25169443E+00 0.14787164E+04</pdfrwt>
<pdfrwt beam="2">  1       -2 0.51405489E-01 0.14787164E+04</pdfrwt>
<totfact> 0.36830418E+01</totfact>
</mgrwt>
</event>
<event>
12    1  0.1562393E-007  0.3232415E+04  0.7818608E-02  0.8180309E-01
         -1   -1    0    0    0  501 -0.00000000000E+00  0.00000000000E+00  0.18851950585E+04  0.18851950585E+04  0.00000000000E+00 0.  1.
          1   -1    0    0  501    0  0.00000000000E+00 -0.00000000000E+00 -0.13855998710E+04  0.13855998710E+04  0.00000000000E+00 0. -1.
         23    2    1    2    0    0  0.17885947463E+03 -0.34805530116E+03 -0.12231760882E+04  0.12871677972E+04  0.86648664449E+02 0.  0.
        254    2    1    2    0    0 -0.17885947463E+03  0.34805530116E+03  0.17227712757E+04  0.19836271323E+04  0.90205461448E+03 0.  0.
        -24    2    4    4    0    0  0.36179049957E+03  0.17777412506E+03  0.72039598105E+03  0.82928535496E+03  0.79043186389E+02 0.  0.
         24    2    4    4    0    0 -0.54064997420E+03  0.17028117610E+03  0.10023752946E+04  0.11543417774E+04  0.80315840195E+02 0.  0.
         11    1    3    3    0    0  0.38917796048E+02 -0.24046489285E+02 -0.18772631326E+03  0.19322007449E+03  0.00000000000E+00 0.  1.
        -11    1    3    3    0    0  0.13994167858E+03 -0.32400881187E+03 -0.10354497749E+04  0.10939477227E+04  0.00000000000E+00 0. -1.
          2    1    6    6  502    0 -0.29093718109E+03  0.57467496710E+02  0.47364783116E+03  0.55882843922E+03  0.00000000000E+00 0. -1.
          1    1    5    5  503    0  0.32309797801E+03  0.18364176034E+03  0.65013042036E+03  0.74885657038E+03  0.00000000000E+00 0. -1.
         -2    1    5    5    0  503  0.38692521561E+02 -0.58676352784E+01  0.70265560695E+02  0.80428784575E+02  0.00000000000E+00 0.  1.
         -1    1    6    6    0  502 -0.24971279311E+03  0.11281367939E+03  0.52872746346E+03  0.59551333815E+03  0.00000000000E+00 0.  1.
<mgrwt>
<rscale>  0 0.32324146E+04</rscale>
<asrwt>0</asrwt>
<pdfrwt beam="1">  1        1 0.21316921E+00 0.32324146E+04</pdfrwt>
<pdfrwt beam="2">  1       -1 0.29003001E+00 0.32324146E+04</pdfrwt>
<totfact> 0.25143069E-01</totfact>
</mgrwt>
</event>
<event>
12    1  0.1562393E-007  0.1411948E+04  0.7818608E-02  0.8945215E-01
          2   -1    0    0  501    0  0.00000000000E+00  0.00000000000E+00  0.17690842426E+04  0.17690842426E+04  0.00000000000E+00 0. -1.
         -2   -1    0    0    0  501 -0.00000000000E+00 -0.00000000000E+00 -0.28172708408E+03  0.28172708408E+03  0.00000000000E+00 0.  1.
         23    2    1    2    0    0 -0.32300612366E+03  0.17802980770E+03  0.32606334363E+03  0.50065225249E+03  0.91147164057E+02 0.  0.
        254    2    1    2    0    0  0.32300612366E+03 -0.17802980770E+03  0.11612938149E+04  0.15501590742E+04  0.95831219464E+03 0.  0.
        -24    2    4    4    0    0  0.81604343446E+02 -0.19274444141E+03 -0.11268175694E+03  0.25093783838E+03  0.80392361695E+02 0.  0.
         24    2    4    4    0    0  0.24140178022E+03  0.14714633714E+02  0.12739755718E+04  0.12992212358E+04  0.80440798186E+02 0.  0.
         11    1    3    3    0    0 -0.18402278255E+03  0.10725620771E+03  0.12780702699E+03  0.24840071405E+03  0.00000000000E+00 0.  1.
        -11    1    3    3    0    0 -0.13898334111E+03  0.70773599985E+02  0.19825631664E+03  0.25225153844E+03  0.00000000000E+00 0. -1.
          4    1    6    6  502    0  0.24145793601E+03  0.24996967417E+02  0.12457566231E+04  0.12691872782E+04  0.00000000000E+00 0. -1.
          3    1    5    5  503    0  0.33231403913E+02 -0.14977771516E+03 -0.10471419628E+03  0.18574916707E+03  0.00000000000E+00 0. -1.
         -4    1    5    5    0  503  0.48372939533E+02 -0.42966726249E+02 -0.79675606536E+01  0.65188671304E+02  0.00000000000E+00 0.  1.
         -3    1    6    6    0  502 -0.56155797877E-01 -0.10282333703E+02  0.28218948766E+02  0.30033957603E+02  0.00000000000E+00 0.  1.
<mgrwt>
<rscale>  0 0.14119475E+04</rscale>
<asrwt>0</asrwt>
<pdfrwt beam="1">  1        2 0.27216680E+00 0.14119475E+04</pdfrwt>
<pdfrwt beam="2">  1       -2 0.43342629E-01 0.14119475E+04</pdfrwt>
<totfact> 0.44060895E+01</totfact>
</mgrwt>
</event>
<event>
12    1  0.1562393E-007  0.1348396E+04  0.7818608E-02  0.8992043E-01
          2   -1    0    0  501    0  0.00000000000E+00  0.00000000000E+00  0.50960885809E+03  0.50960885809E+03  0.00000000000E+00 0. -1.
         -2   -1    0    0    0  501 -0.00000000000E+00 -0.00000000000E+00 -0.89194458423E+03  0.89194458423E+03  0.00000000000E+00 0.  1.
         23    2    1    2    0    0 -0.95011691341E+02  0.25701892393E+03 -0.35895927920E+03  0.46071882145E+03  0.91236613075E+02 0.  0.
        254    2    1    2    0    0  0.95011691341E+02 -0.25701892393E+03 -0.23376446943E+02  0.94083462087E+03  0.89974295041E+03 0.  0.
        -24    2    4    4    0    0  0.17605924110E+03 -0.31906558166E+03 -0.39744534501E+03  0.54516353599E+03  0.80254451104E+02 0.  0.
         24    2    4    4    0    0 -0.81047549756E+02  0.62046657730E+02  0.37406889807E+03  0.39567108489E+03  0.78800849344E+02 0.  0.
         11    1    3    3    0    0 -0.58929228392E+02  0.64018064011E+02 -0.71584210318E+02  0.11267326944E+03  0.00000000000E+00 0. -1.
        -11    1    3    3    0    0 -0.36082462949E+02  0.19300085992E+03 -0.28737506888E+03  0.34804555201E+03  0.00000000000E+00 0.  1.
          4    1    6    6  502    0 -0.55788365018E+02  0.31761372983E+02  0.33143410999E+03  0.33759398062E+03  0.00000000000E+00 0. -1.
          3    1    5    5  503    0  0.17151469196E+03 -0.31682971449E+03 -0.36693974589E+03  0.51424034717E+03  0.00000000000E+00 0. -1.
         -4    1    5    5    0  503  0.45445491419E+01 -0.22358671670E+01 -0.30505599122E+02  0.30923188818E+02  0.00000000000E+00 0.  1.
         -3    1    6    6    0  502 -0.25259184738E+02  0.30285284746E+02  0.42634788078E+02  0.58077104269E+02  0.00000000000E+00 0.  1.
<mgrwt>
<rscale>  0 0.13483959E+04</rscale>
<asrwt>0</asrwt>
<pdfrwt beam="1">  1        2 0.78401363E-01 0.13483959E+04</pdfrwt>
<pdfrwt beam="2">  1       -2 0.13722224E+00 0.13483959E+04</pdfrwt>
<totfact> 0.22243434E+01</totfact>
</mgrwt>
</event>
<event>
12    1  0.1562393E-007  0.1199542E+04  0.7818608E-02  0.9113257E-01
         -2   -1    0    0    0  501 -0.00000000000E+00  0.00000000000E+00  0.22407785560E+03  0.22407785560E+03  0.00000000000E+00 0.  1.
          2   -1    0    0  501    0  0.00000000000E+00 -0.00000000000E+00 -0.16053585249E+04  0.16053585249E+04  0.00000000000E+00 0. -1.
         23    2    1    2    0    0 -0.18615619420E+02  0.23252042710E+03 -0.18697978910E+03  0.31311812795E+03  0.93108701058E+02 0.  0.
        254    2    1    2    0    0  0.18615619420E+02 -0.23252042710E+03 -0.11943008802E+04  0.15163182526E+04  0.90468456396E+03 0.  0.
        -24    2    4    4    0    0 -0.27883948550E+03 -0.54924565579E+01 -0.31966131894E+02  0.29192131735E+03  0.80091174198E+02 0.  0.
         24    2    4    4    0    0  0.29745510492E+03 -0.22702797054E+03 -0.11623347483E+04  0.12243969352E+04  0.90025268411E+02 0.  0.
         13    1    3    3    0    0 -0.32733268682E+01  0.36036714175E+01  0.97459389781E+01  0.10894238984E+02  0.00000000000E+00 0. -1.
        -13    1    3    3    0    0 -0.15342292552E+02  0.22891675568E+03 -0.19672572808E+03  0.30222388896E+03  0.00000000000E+00 0.  1.
          4    1    6    6  502    0  0.26841908449E+03 -0.21377850815E+03 -0.11199441721E+04  0.11713347105E+04  0.00000000000E+00 0. -1.
          1    1    5    5  503    0 -0.14464938283E+03 -0.41540134913E+02 -0.63328205048E+01  0.15062911863E+03  0.00000000000E+00 0. -1.
         -2    1    5    5    0  503 -0.13419010266E+03  0.36047678355E+02 -0.25633311390E+02  0.14129219873E+03  0.00000000000E+00 0.  1.
         -3    1    6    6    0  502  0.29036020433E+02 -0.13249462390E+02 -0.42390576218E+02  0.53062224683E+02  0.00000000000E+00 0.  1.
<mgrwt>
<rscale>  0 0.11995421E+04</rscale>
<asrwt>0</asrwt>
<pdfrwt beam="1">  1        2 0.24697823E+00 0.11995421E+04</pdfrwt>
<pdfrwt beam="2">  1       -2 0.34473517E-01 0.11995421E+04</pdfrwt>
<totfact> 0.86150622E+01</totfact>
</mgrwt>
</event>
<event>
12    1  0.1562393E-007  0.1702055E+04  0.7818608E-02  0.8760193E-01
          2   -1    0    0  501    0  0.00000000000E+00  0.00000000000E+00  0.12269316368E+04  0.12269316368E+04  0.00000000000E+00 0. -1.
         -2   -1    0    0    0  501 -0.00000000000E+00 -0.00000000000E+00 -0.59029194048E+03  0.59029194048E+03  0.00000000000E+00 0.  1.
         23    2    1    2    0    0 -0.54793747987E+03 -0.12254973232E+03  0.48445261279E+03  0.74726448041E+03  0.91956244531E+02 0.  0.
        254    2    1    2    0    0  0.54793747987E+03  0.12254973232E+03  0.15218708349E+03  0.10699590968E+04  0.89799645978E+03 0.  0.
        -24    2    4    4    0    0  0.67706844594E+03  0.98229440188E+02  0.38602125440E+03  0.78955650412E+03  0.79475536719E+02 0.  0.
         24    2    4    4    0    0 -0.12913096607E+03  0.24320292130E+02 -0.23383417091E+03  0.28040259271E+03  0.81736843024E+02 0.  0.
         13    1    3    3    0    0 -0.21615896611E+03 -0.43165512185E+02  0.13286205051E+03  0.25737187985E+03  0.00000000000E+00 0.  1.
        -13    1    3    3    0    0 -0.33177851375E+03 -0.79384220133E+02  0.35159056228E+03  0.48989260056E+03  0.00000000000E+00 0. -1.
          2    1    6    6  502    0 -0.12692746613E+02 -0.59371836800E+01  0.33894797495E+01  0.14416814475E+02  0.00000000000E+00 0. -1.
          1    1    5    5  503    0  0.76757420693E+02 -0.39002761171E+01  0.67780920451E+02  0.10247520169E+03  0.00000000000E+00 0. -1.
         -2    1    5    5    0  503  0.60031102525E+03  0.10212971631E+03  0.31824033395E+03  0.68708130242E+03  0.00000000000E+00 0.  1.
         -1    1    6    6    0  502 -0.11643821946E+03  0.30257475810E+02 -0.23722365066E+03  0.26598577824E+03  0.00000000000E+00 0.  1.
<mgrwt>
<rscale>  0 0.17020551E+04</rscale>
<asrwt>0</asrwt>
<pdfrwt beam="1">  1        2 0.18875871E+00 0.17020551E+04</pdfrwt>
<pdfrwt beam="2">  1       -2 0.90814145E-01 0.17020551E+04</pdfrwt>
<totfact> 0.17977134E+01</totfact>
</mgrwt>
</event>
<event>
12    1  0.1739682E-007  0.2207340E+04  0.7818608E-02  0.8515379E-01
          2   -1    0    0  501    0  0.00000000000E+00  0.00000000000E+00  0.30815717764E+04  0.30815717764E+04  0.00000000000E+00 0. -1.
         -2   -1    0    0    0  501 -0.00000000000E+00 -0.00000000000E+00 -0.39528111422E+03  0.39528111422E+03  0.00000000000E+00 0.  1.
         23    2    1    2    0    0 -0.90444801729E+02  0.80888337311E+03  0.17697104659E+04  0.19499981140E+04  0.90249310361E+02 0.  0.
        254    2    1    2    0    0  0.90444801729E+02 -0.80888337311E+03  0.91658019626E+03  0.15268547766E+04  0.91032613892E+03 0.  0.
        -24    2    4    4    0    0  0.38152008015E+03 -0.59656099026E+03  0.91314468742E+03  0.11583186978E+04  0.80164822405E+02 0.  0.
         24    2    4    4    0    0 -0.29107527842E+03 -0.21232238285E+03  0.34355088449E+01  0.36853607885E+03  0.77468875856E+02 0.  0.
         13    1    3    3    0    0 -0.49361987559E+02  0.39247059136E+03  0.75366603141E+03  0.85116523531E+03  0.00000000000E+00 0.  1.
        -13    1    3    3    0    0 -0.41082814171E+02  0.41641278175E+03  0.10160444345E+04  0.10988328787E+04  0.00000000000E+00 0. -1.
          4    1    6    6  502    0 -0.27830521038E+03 -0.21891005247E+03  0.46631761400E+01  0.35411459503E+03  0.00000000000E+00 0. -1.
          3    1    5    5  503    0  0.37773823357E+03 -0.59884919709E+03  0.90505447548E+03  0.11490997074E+04  0.00000000000E+00 0. -1.
         -4    1    5    5    0  503  0.37818465733E+01  0.22882068268E+01  0.80902119391E+01  0.92189903572E+01  0.00000000000E+00 0.  1.
         -3    1    6    6    0  502 -0.12770068036E+02  0.65876696198E+01 -0.12276672950E+01  0.14421483823E+02  0.00000000000E+00 0.  1.
<mgrwt>
<rscale>  0 0.22073397E+04</rscale>
<asrwt>0</asrwt>
<pdfrwt beam="1">  1        2 0.47408795E+00 0.22073397E+04</pdfrwt>
<pdfrwt beam="2">  1       -2 0.60812481E-01 0.22073397E+04</pdfrwt>
<totfact> 0.35605150E+00</totfact>
</mgrwt>
</event>
<event>
12    1  0.1671019E-007  0.1804227E+04  0.7818608E-02  0.8704055E-01
         -1   -1    0    0    0  501 -0.00000000000E+00  0.00000000000E+00  0.67144902492E+03  0.67144902492E+03  0.00000000000E+00 0.  1.
          1   -1    0    0  501    0  0.00000000000E+00 -0.00000000000E+00 -0.12120192957E+04  0.12120192957E+04  0.00000000000E+00 0. -1.
         23    2    1    2    0    0 -0.24654159992E+02  0.62522661744E+03  0.69150676449E+02  0.63569633595E+03  0.88384753975E+02 0.  0.
        254    2    1    2    0    0  0.24654159992E+02 -0.62522661744E+03 -0.60972094726E+03  0.12477719847E+04  0.89087549157E+03 0.  0.
        -24    2    4    4    0    0  0.33062856228E+03 -0.10136430050E+03 -0.51973586266E+03  0.62935054391E+03  0.79792058376E+02 0.  0.
         24    2    4    4    0    0 -0.30597440229E+03 -0.52386231694E+03 -0.89985084598E+02  0.61842144077E+03  0.79345453509E+02 0.  0.
         13    1    3    3    0    0 -0.15634749423E+02  0.17026495810E+02 -0.23787379872E+01  0.23238015051E+02  0.00000000000E+00 0. -1.
        -13    1    3    3    0    0 -0.90194105692E+01  0.60820012163E+03  0.71529414437E+02  0.61245832090E+03  0.00000000000E+00 0.  1.
          2    1    6    6  502    0 -0.24638420055E+03 -0.41501583337E+03 -0.38834917708E+02  0.48420188668E+03  0.00000000000E+00 0. -1.
          1    1    5    5  503    0  0.30137933988E+03 -0.11469210559E+03 -0.46487940073E+03  0.56577083949E+03  0.00000000000E+00 0. -1.
         -2    1    5    5    0  503  0.29249222396E+02  0.13327805092E+02 -0.54856461929E+02  0.63579704424E+02  0.00000000000E+00 0.  1.
         -1    1    6    6    0  502 -0.59590201732E+02 -0.10884648357E+03 -0.51150166890E+02  0.13421955409E+03  0.00000000000E+00 0.  1.
<mgrwt>
<rscale>  0 0.18042275E+04</rscale>
<asrwt>0</asrwt>
<pdfrwt beam="1">  1        1 0.18646451E+00 0.18042275E+04</pdfrwt>
<pdfrwt beam="2">  1       -1 0.10329985E+00 0.18042275E+04</pdfrwt>
<totfact> 0.87357779E+00</totfact>
</mgrwt>
</event>
<event>
12    1  0.1562393E-007  0.2323782E+04  0.7818608E-02  0.8468603E-01
         -2   -1    0    0    0  501 -0.00000000000E+00  0.00000000000E+00  0.83813031617E+03  0.83813031617E+03  0.00000000000E+00 0.  1.
          2   -1    0    0  501    0  0.00000000000E+00 -0.00000000000E+00 -0.16107171783E+04  0.16107171783E+04  0.00000000000E+00 0. -1.
         23    2    1    2    0    0 -0.51893564984E+03  0.49905653545E+02 -0.12131933285E+04  0.13229409205E+04  0.80931105620E+02 0.  0.
        254    2    1    2    0    0  0.51893564984E+03 -0.49905653545E+02  0.44060646636E+03  0.11259065740E+04  0.89540313391E+03 0.  0.
        -24    2    4    4    0    0  0.39237905169E+02  0.11132993891E+03 -0.23655858783E+03  0.27673661695E+03  0.81787659126E+02 0.  0.
         24    2    4    4    0    0  0.47969774467E+03 -0.16123559246E+03  0.67716505419E+03  0.84916995703E+03  0.80188919352E+02 0.  0.
         11    1    3    3    0    0 -0.38246921434E+03  0.71567299511E+02 -0.87560129910E+03  0.95816606768E+03  0.00000000000E+00 0. -1.
        -11    1    3    3    0    0 -0.13646643551E+03 -0.21661645966E+02 -0.33759202940E+03  0.36477485281E+03  0.00000000000E+00 0.  1.
          2    1    6    6  502    0  0.25042667677E+03 -0.50678549282E+02  0.29863932568E+03  0.39302325966E+03  0.00000000000E+00 0. -1.
          1    1    5    5  503    0 -0.18766503496E+02  0.11170687442E+02 -0.14176581430E+02  0.26037307319E+02  0.00000000000E+00 0. -1.
         -2    1    5    5    0  503  0.58004408665E+02  0.10015925147E+03 -0.22238200640E+03  0.25069930963E+03  0.00000000000E+00 0.  1.
         -1    1    6    6    0  502  0.22927106791E+03 -0.11055704318E+03  0.37852572851E+03  0.45614669737E+03  0.00000000000E+00 0.  1.
<mgrwt>
<rscale>  0 0.23237822E+04</rscale>
<asrwt>0</asrwt>
<pdfrwt beam="1">  1        2 0.24780264E+00 0.23237822E+04</pdfrwt>
<pdfrwt beam="2">  1       -2 0.12894313E+00 0.23237822E+04</pdfrwt>
<totfact> 0.44133196E+00</totfact>
</mgrwt>
</event>
<event>
12    1  0.1562393E-007  0.2596260E+04  0.7818608E-02  0.8369473E-01
         -1   -1    0    0    0  501 -0.00000000000E+00  0.00000000000E+00  0.95005798043E+03  0.95005798043E+03  0.00000000000E+00 0.  1.
          1   -1    0    0  501    0  0.00000000000E+00 -0.00000000000E+00 -0.17737245921E+04  0.17737245921E+04  0.00000000000E+00 0. -1.
         23    2    1    2    0    0 -0.11693729015E+03 -0.31849676969E+02 -0.15495999243E+04  0.15568713911E+04  0.88881219095E+02 0.  0.
        254    2    1    2    0    0  0.11693729015E+03  0.31849676969E+02  0.72593331266E+03  0.11669111815E+04  0.90554613313E+03 0.  0.
        -24    2    4    4    0    0  0.82759200096E+02 -0.92698840597E+02 -0.18849239758E+03  0.23945132228E+03  0.79783403967E+02 0.  0.
         24    2    4    4    0    0  0.34178090053E+02  0.12454851757E+03  0.91442571024E+03  0.92745985917E+03  0.85597521939E+02 0.  0.
         11    1    3    3    0    0 -0.84136768075E+02 -0.17956372947E+02 -0.55451605958E+03  0.56115014694E+03  0.00000000000E+00 0.  1.
        -11    1    3    3    0    0 -0.32800522074E+02 -0.13893304022E+02 -0.99508386473E+03  0.99572124412E+03  0.00000000000E+00 0. -1.
          2    1    6    6  502    0  0.51608804852E+02  0.12615262994E+03  0.76917362306E+03  0.78115684544E+03  0.00000000000E+00 0. -1.
          3    1    5    5  503    0  0.16183959913E+02 -0.33418391032E+02 -0.12396076216E+03  0.12940239554E+03  0.00000000000E+00 0. -1.
         -4    1    5    5    0  503  0.66575240183E+02 -0.59280449565E+02 -0.64531635423E+02  0.11004892674E+03  0.00000000000E+00 0.  1.
         -1    1    6    6    0  502 -0.17430714800E+02 -0.16041123739E+01  0.14525208718E+03  0.14630301373E+03  0.00000000000E+00 0.  1.
<mgrwt>
<rscale>  0 0.25962598E+04</rscale>
<asrwt>0</asrwt>
<pdfrwt beam="1">  1        1 0.27288070E+00 0.25962598E+04</pdfrwt>
<pdfrwt beam="2">  1       -1 0.14616277E+00 0.25962598E+04</pdfrwt>
<totfact> 0.13988989E+00</totfact>
</mgrwt>
</event>
<event>
12    1  0.1562393E-007  0.1483935E+04  0.7818608E-02  0.8895207E-01
         -2   -1    0    0    0  501 -0.00000000000E+00  0.00000000000E+00  0.59275113166E+03  0.59275113166E+03  0.00000000000E+00 0.  1.
          2   -1    0    0  501    0  0.00000000000E+00 -0.00000000000E+00 -0.92874640739E+03  0.92874640739E+03  0.00000000000E+00 0. -1.
         23    2    1    2    0    0  0.18339957244E+03  0.15301971510E+03  0.31672813218E+03  0.40695720287E+03  0.90813098557E+02 0.  0.
        254    2    1    2    0    0 -0.18339957244E+03 -0.15301971510E+03 -0.65272340790E+03  0.11145403362E+04  0.87126452779E+03 0.  0.
        -24    2    4    4    0    0 -0.32623274307E+03  0.27507714562E+03 -0.40063994285E+03  0.59060615571E+03  0.78791044269E+02 0.  0.
         24    2    4    4    0    0  0.14283317063E+03 -0.42809686072E+03 -0.25208346505E+03  0.52393418048E+03  0.85397396513E+02 0.  0.
         11    1    3    3    0    0  0.11411534726E+03  0.62484176968E+02  0.22794320843E+03  0.26245893226E+03  0.00000000000E+00 0.  1.
        -11    1    3    3    0    0  0.69284225185E+02  0.90535538132E+02  0.88784923748E+02  0.14449827061E+03  0.00000000000E+00 0. -1.
          4    1    6    6  502    0  0.47667118877E+02 -0.12213247981E+03 -0.11870530259E+03  0.17685996073E+03  0.00000000000E+00 0. -1.
          1    1    5    5  503    0 -0.39070456066E+02  0.42248823701E+02 -0.22532384527E+02  0.61799449786E+02  0.00000000000E+00 0. -1.
         -2    1    5    5    0  503 -0.28716228700E+03  0.23282832192E+03 -0.37810755833E+03  0.52880670592E+03  0.00000000000E+00 0.  1.
         -3    1    6    6    0  502  0.95166051750E+02 -0.30596438091E+03 -0.13337816246E+03  0.34707421974E+03  0.00000000000E+00 0.  1.
<mgrwt>
<rscale>  0 0.14839346E+04</rscale>
<asrwt>0</asrwt>
<pdfrwt beam="1">  1        2 0.14288406E+00 0.14839346E+04</pdfrwt>
<pdfrwt beam="2">  1       -2 0.91192482E-01 0.14839346E+04</pdfrwt>
<totfact> 0.27818526E+01</totfact>
</mgrwt>
</event>
<event>
12    1  0.1562393E-007  0.1472018E+04  0.7818608E-02  0.8903277E-01
          1   -1    0    0  501    0  0.00000000000E+00  0.00000000000E+00  0.32690754666E+03  0.32690754666E+03  0.00000000000E+00 0. -1.
         -1   -1    0    0    0  501 -0.00000000000E+00 -0.00000000000E+00 -0.16570710830E+04  0.16570710830E+04  0.00000000000E+00 0.  1.
         23    2    1    2    0    0 -0.12757516145E+03 -0.10423733422E+03 -0.10012710569E+04  0.10187894318E+04  0.90814829078E+02 0.  0.
        254    2    1    2    0    0  0.12757516145E+03  0.10423733422E+03 -0.32889247943E+03  0.96518919792E+03  0.89234470979E+03 0.  0.
        -24    2    4    4    0    0 -0.18946352612E+03 -0.20739200464E+03  0.13154217792E+03  0.32028132768E+03  0.79805469555E+02 0.  0.
         24    2    4    4    0    0  0.31703868757E+03  0.31162933886E+03 -0.46043465736E+03  0.64490787024E+03  0.79244641142E+02 0.  0.
         13    1    3    3    0    0 -0.11053373372E+03 -0.12031806254E+03 -0.91050824481E+03  0.92505102905E+03  0.00000000000E+00 0.  1.
        -13    1    3    3    0    0 -0.17041427734E+02  0.16080728322E+02 -0.90762812106E+02  0.93738402717E+02  0.00000000000E+00 0. -1.
          4    1    6    6  502    0  0.85274080564E+02  0.12346219840E+03 -0.12009718775E+03  0.19219239776E+03  0.00000000000E+00 0. -1.
          1    1    5    5  503    0 -0.55341484241E+02 -0.84428630442E+02  0.99570832526E+01  0.10143972113E+03  0.00000000000E+00 0. -1.
         -2    1    5    5    0  503 -0.13412204187E+03 -0.12296337420E+03  0.12158509467E+03  0.21884160655E+03  0.00000000000E+00 0.  1.
         -3    1    6    6    0  502  0.23176460700E+03  0.18816714046E+03 -0.34033746960E+03  0.45271547248E+03  0.00000000000E+00 0.  1.
<mgrwt>
<rscale>  0 0.14720177E+04</rscale>
<asrwt>0</asrwt>
<pdfrwt beam="1">  1        1 0.50293469E-01 0.14720177E+04</pdfrwt>
<pdfrwt beam="2">  1       -1 0.25493401E+00 0.14720177E+04</pdfrwt>
<totfact> 0.49216502E+00</totfact>
</mgrwt>
</event>
<event>
12    1  0.1562393E-007  0.1399029E+04  0.7818608E-02  0.8954522E-01
         -2   -1    0    0    0  501 -0.00000000000E+00  0.00000000000E+00  0.18386714488E+03  0.18386714488E+03  0.00000000000E+00 0.  1.
          2   -1    0    0  501    0  0.00000000000E+00 -0.00000000000E+00 -0.26612721939E+04  0.26612721939E+04  0.00000000000E+00 0. -1.
         23    2    1    2    0    0 -0.19078290981E+03 -0.34674315366E+03 -0.79489356081E+03  0.89294666442E+03  0.94175576382E+02 0.  0.
        254    2    1    2    0    0  0.19078290981E+03  0.34674315366E+03 -0.16825114883E+04  0.19521926744E+04  0.90751440573E+03 0.  0.
        -24    2    4    4    0    0  0.50589788314E+03  0.31317439733E+03 -0.13852081417E+04  0.15098307622E+04  0.82319276582E+02 0.  0.
         24    2    4    4    0    0 -0.31511497333E+03  0.33568756321E+02 -0.29730334659E+03  0.44236191225E+03  0.82888320647E+02 0.  0.
         13    1    3    3    0    0 -0.31669116558E+02 -0.11196072240E+02 -0.92754685756E+02  0.98649463794E+02  0.00000000000E+00 0. -1.
        -13    1    3    3    0    0 -0.15911379325E+03 -0.33554708141E+03 -0.70213887506E+03  0.79429720062E+03  0.00000000000E+00 0.  1.
          2    1    6    6  502    0 -0.17072675183E+03  0.46243509136E+02 -0.20390748918E+03  0.26993397354E+03  0.00000000000E+00 0. -1.
          1    1    5    5  503    0  0.39457530960E+03  0.21850062853E+03 -0.11120976812E+04  0.12000806024E+04  0.00000000000E+00 0. -1.
         -2    1    5    5    0  503  0.11132257354E+03  0.94673768809E+02 -0.27311046043E+03  0.30975015977E+03  0.00000000000E+00 0.  1.
         -1    1    6    6    0  502 -0.14438822150E+03 -0.12674752815E+02 -0.93395857407E+02  0.17242793871E+03  0.00000000000E+00 0.  1.
<mgrwt>
<rscale>  0 0.13990290E+04</rscale>
<asrwt>0</asrwt>
<pdfrwt beam="1">  1        2 0.40942645E+00 0.13990290E+04</pdfrwt>
<pdfrwt beam="2">  1       -2 0.28287256E-01 0.13990290E+04</pdfrwt>
<totfact> 0.31339685E+01</totfact>
</mgrwt>
</event>
<event>
12    1  0.1562393E-007  0.2946201E+04  0.7818608E-02  0.8259263E-01
          1   -1    0    0  501    0  0.00000000000E+00  0.00000000000E+00  0.18071335398E+04  0.18071335398E+04  0.00000000000E+00 0. -1.
         -1   -1    0    0    0  501 -0.00000000000E+00 -0.00000000000E+00 -0.12008106110E+04  0.12008106110E+04  0.00000000000E+00 0.  1.
         23    2    1    2    0    0 -0.11583306523E+04 -0.65171262471E+03  0.31507614304E+03  0.13691256389E+04  0.93663194148E+02 0.  0.
        254    2    1    2    0    0  0.11583306523E+04  0.65171262471E+03  0.29124678577E+03  0.16388185119E+04  0.91347806720E+03 0.  0.
        -24    2    4    4    0    0  0.50880037936E+03  0.74574318553E+03 -0.23265322375E+02  0.90660929999E+03  0.79927609690E+02 0.  0.
         24    2    4    4    0    0  0.64953027298E+03 -0.94030560823E+02  0.31451210814E+03  0.73220921188E+03  0.80505539600E+02 0.  0.
         13    1    3    3    0    0 -0.90257234803E+03 -0.46785033021E+03  0.26020360232E+03  0.10493934865E+04  0.00000000000E+00 0. -1.
        -13    1    3    3    0    0 -0.25575830431E+03 -0.18386229450E+03  0.54872540717E+02  0.31973215242E+03  0.00000000000E+00 0.  1.
          4    1    6    6  502    0  0.16558296320E+03  0.18110088760E-02  0.51307432498E+02  0.17334984953E+03  0.00000000000E+00 0. -1.
          3    1    5    5  503    0  0.83922435518E+02  0.10385157122E+03 -0.29819273730E+02  0.13681123168E+03  0.00000000000E+00 0. -1.
         -4    1    5    5    0  503  0.42487794384E+03  0.64189161432E+03  0.65539513551E+01  0.76979806831E+03  0.00000000000E+00 0.  1.
         -3    1    6    6    0  502  0.48394730979E+03 -0.94032371832E+02  0.26320467564E+03  0.55885936234E+03  0.00000000000E+00 0.  1.
<mgrwt>
<rscale>  0 0.29462010E+04</rscale>
<asrwt>0</asrwt>
<pdfrwt beam="1">  1        1 0.27802054E+00 0.29462010E+04</pdfrwt>
<pdfrwt beam="2">  1       -1 0.18474010E+00 0.29462010E+04</pdfrwt>
<totfact> 0.66305533E-01</totfact>
</mgrwt>
</event>
<event>
12    1  0.1562393E-007  0.2485161E+04  0.7818608E-02  0.8408291E-01
         -2   -1    0    0    0  501 -0.00000000000E+00  0.00000000000E+00  0.68856464890E+03  0.68856464890E+03  0.00000000000E+00 0.  1.
          2   -1    0    0  501    0  0.00000000000E+00 -0.00000000000E+00 -0.22423552770E+04  0.22423552770E+04  0.00000000000E+00 0. -1.
         23    2    1    2    0    0 -0.39245135519E+03 -0.90228761446E+02  0.50374958273E+03  0.65148538189E+03  0.92251098253E+02 0.  0.
        254    2    1    2    0    0  0.39245135519E+03  0.90228761446E+02 -0.20575402108E+04  0.22794345440E+04  0.89453385943E+03 0.  0.
        -24    2    4    4    0    0  0.19905619092E+03  0.17397074370E+03 -0.78792026396E+02  0.28788252193E+03  0.82334538333E+02 0.  0.
         24    2    4    4    0    0  0.19339516427E+03 -0.83741982253E+02 -0.19787481844E+04  0.19915520221E+04  0.80129083973E+02 0.  0.
         13    1    3    3    0    0 -0.79170458445E+02  0.42983371679E+01  0.56723423690E+02  0.97488378733E+02  0.00000000000E+00 0. -1.
        -13    1    3    3    0    0 -0.31328089675E+03 -0.94527098614E+02  0.44702615904E+03  0.55399700316E+03  0.00000000000E+00 0.  1.
          4    1    6    6  502    0  0.11328673302E+03 -0.74751692935E+02 -0.94946887233E+03  0.95912086777E+03  0.00000000000E+00 0. -1.
          1    1    5    5  503    0  0.75895754368E+02  0.10670856970E+03 -0.66908074759E+02  0.14704956595E+03  0.00000000000E+00 0. -1.
         -2    1    5    5    0  503  0.12316043656E+03  0.67262173994E+02 -0.11883951638E+02  0.14083295598E+03  0.00000000000E+00 0.  1.
         -3    1    6    6    0  502  0.80108431254E+02 -0.89902893173E+01 -0.10292793121E+04  0.10324311543E+04  0.00000000000E+00 0.  1.
<mgrwt>
<rscale>  0 0.24851612E+04</rscale>
<asrwt>0</asrwt>
<pdfrwt beam="1">  1        2 0.34497773E+00 0.24851612E+04</pdfrwt>
<pdfrwt beam="2">  1       -2 0.10593302E+00 0.24851612E+04</pdfrwt>
<totfact> 0.31402185E+00</totfact>
</mgrwt>
</event>
<event>
12    1  0.1562393E-007  0.2034592E+04  0.7818608E-02  0.8590616E-01
         -2   -1    0    0    0  501 -0.00000000000E+00  0.00000000000E+00  0.62981139533E+03  0.62981139533E+03  0.00000000000E+00 0.  1.
          2   -1    0    0  501    0  0.00000000000E+00 -0.00000000000E+00 -0.16431766479E+04  0.16431766479E+04  0.00000000000E+00 0. -1.
         23    2    1    2    0    0 -0.27724468598E+03 -0.81145340642E+03 -0.50755281057E+03  0.10010289961E+04  0.95540299160E+02 0.  0.
        254    2    1    2    0    0  0.27724468598E+03  0.81145340642E+03 -0.50581244199E+03  0.12719590472E+04  0.79165165602E+03 0.  0.
        -24    2    4    4    0    0  0.51628974694E+02 -0.14103460591E+03 -0.39337562435E+01  0.16912326718E+03  0.77658830613E+02 0.  0.
         24    2    4    4    0    0  0.22561571129E+03  0.95248801233E+03 -0.50187868575E+03  0.11028357800E+04  0.78921984067E+02 0.  0.
         13    1    3    3    0    0 -0.58130814220E+02 -0.24289041084E+03 -0.19080161508E+03  0.31429317453E+03  0.00000000000E+00 0. -1.
        -13    1    3    3    0    0 -0.21911387176E+03 -0.56856299558E+03 -0.31675119548E+03  0.68673582154E+03  0.00000000000E+00 0.  1.
          4    1    6    6  502    0  0.33078385697E+02  0.28635875668E+03 -0.13383077642E+03  0.31781471622E+03  0.00000000000E+00 0. -1.
          3    1    5    5  503    0  0.32826711724E+02 -0.35006819046E+02  0.29546379200E+02  0.56356533837E+02  0.00000000000E+00 0. -1.
         -4    1    5    5    0  503  0.18802262970E+02 -0.10602778687E+03 -0.33480135443E+02  0.11276673335E+03  0.00000000000E+00 0.  1.
         -3    1    6    6    0  502  0.19253732559E+03  0.66612925565E+03 -0.36804790933E+03  0.78502106376E+03  0.00000000000E+00 0.  1.
<mgrwt>
<rscale>  0 0.20345922E+04</rscale>
<asrwt>0</asrwt>
<pdfrwt beam="1">  1        2 0.25279640E+00 0.20345922E+04</pdfrwt>
<pdfrwt beam="2">  1       -2 0.96894062E-01 0.20345922E+04</pdfrwt>
<totfact> 0.86971141E+00</totfact>
</mgrwt>
</event>
<event>
12    1  0.1562393E-007  0.1629904E+04  0.7818608E-02  0.8802384E-01
          1   -1    0    0  501    0  0.00000000000E+00  0.00000000000E+00  0.47060356598E+03  0.47060356598E+03  0.00000000000E+00 0. -1.
         -1   -1    0    0    0  501 -0.00000000000E+00 -0.00000000000E+00 -0.14112665070E+04  0.14112665070E+04  0.00000000000E+00 0.  1.
         23    2    1    2    0    0  0.39810762355E+03 -0.21653052002E+03  0.64862617137E+02  0.46808072700E+03  0.97556454728E+02 0.  0.
        254    2    1    2    0    0 -0.39810762355E+03  0.21653052002E+03 -0.10055255582E+04  0.14137893460E+04  0.88450184889E+03 0.  0.
        -24    2    4    4    0    0  0.70252645649E+02 -0.22881170631E+03 -0.58927055047E+03  0.64098996214E+03  0.79612302762E+02 0.  0.
         24    2    4    4    0    0 -0.46836026920E+03  0.44534222632E+03 -0.41625500769E+03  0.77279938385E+03  0.79117734663E+02 0.  0.
         13    1    3    3    0    0  0.13404407748E+03 -0.29493923698E+02 -0.37164906429E+01  0.13730083228E+03  0.00000000000E+00 0.  1.
        -13    1    3    3    0    0  0.26406354607E+03 -0.18703659632E+03  0.68579107779E+02  0.33077989472E+03  0.00000000000E+00 0. -1.
          4    1    6    6  502    0 -0.10491147190E+03  0.87407280310E+02 -0.12648587611E+03  0.18613201348E+03  0.00000000000E+00 0. -1.
          3    1    5    5  503    0  0.80115442706E+02 -0.13805732333E+03 -0.40576611676E+03  0.43603262515E+03  0.00000000000E+00 0. -1.
         -4    1    5    5    0  503 -0.98627970568E+01 -0.90754382976E+02 -0.18350443371E+03  0.20495733699E+03  0.00000000000E+00 0.  1.
         -3    1    6    6    0  502 -0.36344879730E+03  0.35793494601E+03 -0.28976913158E+03  0.58666737037E+03  0.00000000000E+00 0.  1.
<mgrwt>
<rscale>  0 0.16299044E+04</rscale>
<asrwt>0</asrwt>
<pdfrwt beam="1">  1        1 0.72400549E-01 0.16299044E+04</pdfrwt>
<pdfrwt beam="2">  1       -1 0.21711792E+00 0.16299044E+04</pdfrwt>
<totfact> 0.53052990E+00</totfact>
</mgrwt>
</event>
<event>
12    1  0.1562393E-007  0.1974213E+04  0.7818608E-02  0.8618773E-01
         -2   -1    0    0    0  501 -0.00000000000E+00  0.00000000000E+00  0.48736374998E+03  0.48736374998E+03  0.00000000000E+00 0.  1.
          2   -1    0    0  501    0  0.00000000000E+00 -0.00000000000E+00 -0.19992851135E+04  0.19992851135E+04  0.00000000000E+00 0. -1.
         23    2    1    2    0    0  0.51226869234E+03  0.28429526985E+03  0.44554422297E+02  0.59452274874E+03  0.90714875356E+02 0.  0.
        254    2    1    2    0    0 -0.51226869234E+03 -0.28429526985E+03 -0.15564757858E+04  0.18921261147E+04  0.90237539231E+03 0.  0.
        -24    2    4    4    0    0 -0.63535266284E+03 -0.49380743656E+03 -0.10543779165E+04  0.13287515231E+04  0.79680791875E+02 0.  0.
         24    2    4    4    0    0  0.12308397050E+03  0.20951216671E+03 -0.50209786925E+03  0.56337459165E+03  0.79016760361E+02 0.  0.
         11    1    3    3    0    0  0.32933996924E+03  0.16632244939E+03 -0.13639711315E+02  0.36920727814E+03  0.00000000000E+00 0. -1.
        -11    1    3    3    0    0  0.18292872310E+03  0.11797282046E+03  0.58194133613E+02  0.22531547060E+03  0.00000000000E+00 0.  1.
          2    1    6    6  502    0  0.84952915917E+02  0.11933548248E+03 -0.21598949355E+03  0.26097780868E+03  0.00000000000E+00 0. -1.
          1    1    5    5  503    0 -0.63447356463E+03 -0.49205977413E+03 -0.10557358396E+04  0.13263701175E+04  0.00000000000E+00 0. -1.
         -2    1    5    5    0  503 -0.87909821067E+00 -0.17476624345E+01  0.13579230450E+01  0.23814056028E+01  0.00000000000E+00 0.  1.
         -1    1    6    6    0  502  0.38131054579E+02  0.90176684235E+02 -0.28610837570E+03  0.30239678297E+03  0.00000000000E+00 0.  1.
<mgrwt>
<rscale>  0 0.19742128E+04</rscale>
<asrwt>0</asrwt>
<pdfrwt beam="1">  1        2 0.30758232E+00 0.19742128E+04</pdfrwt>
<pdfrwt beam="2">  1       -2 0.74979040E-01 0.19742128E+04</pdfrwt>
<totfact> 0.99469435E+00</totfact>
</mgrwt>
</event>
<event>
12    1  0.1562393E-007  0.1629354E+04  0.7818608E-02  0.8802715E-01
         -1   -1    0    0    0  501 -0.00000000000E+00  0.00000000000E+00  0.71371854635E+03  0.71371854635E+03  0.00000000000E+00 0.  1.
          1   -1    0    0  501    0  0.00000000000E+00 -0.00000000000E+00 -0.92991656185E+03  0.92991656185E+03  0.00000000000E+00 0. -1.
         23    2    1    2    0    0 -0.28136964316E+03 -0.27014088167E+03  0.32846468182E+03  0.51826977402E+03  0.92571806812E+02 0.  0.
        254    2    1    2    0    0  0.28136964316E+03  0.27014088167E+03 -0.54466269732E+03  0.11253653342E+04  0.90423708700E+03 0.  0.
        -24    2    4    4    0    0  0.10234442775E+03  0.49835344314E+03 -0.63039074256E+03  0.81373298498E+03  0.77060666767E+02 0.  0.
         24    2    4    4    0    0  0.17902521541E+03 -0.22821256148E+03  0.85728045237E+02  0.31163234920E+03  0.75062789473E+02 0.  0.
         13    1    3    3    0    0 -0.20478622708E+03 -0.23000717648E+03  0.29215056211E+03  0.42449104935E+03  0.00000000000E+00 0.  1.
        -13    1    3    3    0    0 -0.76583416079E+02 -0.40133705190E+02  0.36314119709E+02  0.93778724671E+02  0.00000000000E+00 0. -1.
          4    1    6    6  502    0  0.85428467403E+02 -0.59430325678E+02  0.10897636287E+02  0.10463625151E+03  0.00000000000E+00 0. -1.
          3    1    5    5  503    0  0.20807226751E+02  0.18555193941E+02 -0.34490396983E+02  0.44348882638E+02  0.00000000000E+00 0. -1.
         -4    1    5    5    0  503  0.81537201001E+02  0.47979824920E+03 -0.59590034558E+03  0.76938410235E+03  0.00000000000E+00 0.  1.
         -3    1    6    6    0  502  0.93596748005E+02 -0.16878223580E+03  0.74830408950E+02  0.20699609770E+03  0.00000000000E+00 0.  1.
<mgrwt>
<rscale>  0 0.16293541E+04</rscale>
<asrwt>0</asrwt>
<pdfrwt beam="1">  1        1 0.14306409E+00 0.16293541E+04</pdfrwt>
<pdfrwt beam="2">  1       -1 0.10980285E+00 0.16293541E+04</pdfrwt>
<totfact> 0.12624112E+01</totfact>
</mgrwt>
</event>
<event>
12    1  0.1562393E-007  0.2090332E+04  0.7818608E-02  0.8565514E-01
         -2   -1    0    0    0  501 -0.00000000000E+00  0.00000000000E+00  0.17026808161E+04  0.17026808161E+04  0.00000000000E+00 0.  1.
          2   -1    0    0  501    0  0.00000000000E+00 -0.00000000000E+00 -0.64156008732E+03  0.64156008732E+03  0.00000000000E+00 0. -1.
         23    2    1    2    0    0  0.11864892698E+02  0.42565268479E+03 -0.38945114478E+03  0.58411157731E+03  0.90516058377E+02 0.  0.
        254    2    1    2    0    0 -0.11864892698E+02 -0.42565268479E+03  0.14505718735E+04  0.17601293261E+04  0.90142969801E+03 0.  0.
        -24    2    4    4    0    0 -0.26126330853E+03 -0.53887653876E+03  0.55709883550E+03  0.82202905030E+03  0.82013453829E+02 0.  0.
         24    2    4    4    0    0  0.24939841583E+03  0.11322385397E+03  0.89347303802E+03  0.93810027576E+03  0.81968571954E+02 0.  0.
         13    1    3    3    0    0 -0.59845976500E+01 -0.24518982861E+01 -0.91555110765E+01  0.11209397723E+02  0.00000000000E+00 0.  1.
        -13    1    3    3    0    0  0.17849490348E+02  0.42810458308E+03 -0.38029563371E+03  0.57290217959E+03  0.00000000000E+00 0. -1.
          2    1    6    6  502    0  0.38835253766E+02  0.17894400934E+02  0.63583242697E+02  0.76623855761E+02  0.00000000000E+00 0. -1.
          1    1    5    5  503    0 -0.36633518212E+01 -0.63907905105E+02  0.54031566539E+02  0.83767837887E+02  0.00000000000E+00 0. -1.
         -2    1    5    5    0  503 -0.25759995670E+03 -0.47496863365E+03  0.50306726896E+03  0.73826121241E+03  0.00000000000E+00 0.  1.
         -1    1    6    6    0  502  0.21056316206E+03  0.95329453032E+02  0.82988979532E+03  0.86147642000E+03  0.00000000000E+00 0.  1.
<mgrwt>
<rscale>  0 0.20903321E+04</rscale>
<asrwt>0</asrwt>
<pdfrwt beam="1">  1        2 0.98701553E-01 0.20903321E+04</pdfrwt>
<pdfrwt beam="2">  1       -2 0.26195089E+00 0.20903321E+04</pdfrwt>
<totfact> 0.22875376E+00</totfact>
</mgrwt>
</event>
<event>
12    1  0.1562393E-007  0.2185947E+04  0.7818608E-02  0.8524300E-01
         -2   -1    0    0    0  501 -0.00000000000E+00  0.00000000000E+00  0.53337114182E+03  0.53337114182E+03  0.00000000000E+00 0.  1.
          2   -1    0    0  501    0  0.00000000000E+00 -0.00000000000E+00 -0.22396998623E+04  0.22396998623E+04  0.00000000000E+00 0. -1.
         23    2    1    2    0    0  0.54647739036E+02  0.63920788355E+03 -0.15199380194E+04  0.16523593407E+04  0.92231849954E+02 0.  0.
        254    2    1    2    0    0 -0.54647739036E+02 -0.63920788355E+03 -0.18639070102E+03  0.11207116634E+04  0.89982222980E+03 0.  0.
        -24    2    4    4    0    0 -0.22013346218E+03 -0.79842343197E+03 -0.25086996794E+03  0.86907831389E+03  0.80141480916E+02 0.  0.
         24    2    4    4    0    0  0.16548572314E+03  0.15921554842E+03  0.64479266921E+02  0.25163334950E+03  0.80166397529E+02 0.  0.
         13    1    3    3    0    0  0.14236818983E+02  0.43257303804E+03 -0.92458281330E+03  0.10208699716E+04  0.00000000000E+00 0.  1.
        -13    1    3    3    0    0  0.40410920054E+02  0.20663484551E+03 -0.59535520612E+03  0.63148936910E+03  0.00000000000E+00 0. -1.
          2    1    6    6  502    0  0.37922154597E+02  0.45583849800E+02  0.54451344024E+02  0.80504198884E+02  0.00000000000E+00 0. -1.
          3    1    5    5  503    0 -0.18221091670E+03 -0.71861505828E+03 -0.24389150725E+03  0.78044313532E+03  0.00000000000E+00 0. -1.
         -4    1    5    5    0  503 -0.37922545480E+02 -0.79808373689E+02 -0.69784606877E+01  0.88635178570E+02  0.00000000000E+00 0.  1.
         -1    1    6    6    0  502  0.12756356855E+03  0.11363169862E+03  0.10027922897E+02  0.17112915061E+03  0.00000000000E+00 0.  1.
<mgrwt>
<rscale>  0 0.21859472E+04</rscale>
<asrwt>0</asrwt>
<pdfrwt beam="1">  1        2 0.34456921E+00 0.21859472E+04</pdfrwt>
<pdfrwt beam="2">  1       -2 0.82057098E-01 0.21859472E+04</pdfrwt>
<totfact> 0.58576259E+00</totfact>
</mgrwt>
</event>
<event>
12    1  0.1562393E-007  0.1826701E+04  0.7818608E-02  0.8692227E-01
          1   -1    0    0  501    0  0.00000000000E+00  0.00000000000E+00  0.97704194660E+03  0.97704194660E+03  0.00000000000E+00 0. -1.
         -1   -1    0    0    0  501 -0.00000000000E+00 -0.00000000000E+00 -0.85381129842E+03  0.85381129842E+03  0.00000000000E+00 0.  1.
         23    2    1    2    0    0 -0.53058133407E+03  0.32203595931E+03 -0.23213525412E+03  0.66875997929E+03  0.90163310367E+02 0.  0.
        254    2    1    2    0    0  0.53058133407E+03 -0.32203595931E+03  0.35536590229E+03  0.11620932657E+04  0.91594329660E+03 0.  0.
        -24    2    4    4    0    0  0.76268284037E+03 -0.26476089796E+03  0.40099159519E+03  0.90539398369E+03  0.84620081509E+02 0.  0.
         24    2    4    4    0    0 -0.23210150630E+03 -0.57275061353E+02 -0.45625692899E+02  0.25669928204E+03  0.81616638433E+02 0.  0.
         11    1    3    3    0    0 -0.92728192152E+02  0.79124842505E+02 -0.78546734254E+02  0.14501326761E+03  0.00000000000E+00 0. -1.
        -11    1    3    3    0    0 -0.43785314192E+03  0.24291111681E+03 -0.15358851986E+03  0.52374671168E+03  0.00000000000E+00 0.  1.
          2    1    6    6  502    0 -0.21353483088E+03 -0.47186842348E+02 -0.64884653468E+02  0.22810905362E+03  0.00000000000E+00 0. -1.
          3    1    5    5  503    0  0.60118005350E+03 -0.17299014083E+03  0.32136969159E+03  0.70329334152E+03  0.00000000000E+00 0. -1.
         -2    1    5    5    0  503  0.16150278687E+03 -0.91770757131E+02  0.79621903599E+02  0.20210064217E+03  0.00000000000E+00 0.  1.
         -1    1    6    6    0  502 -0.18566675423E+02 -0.10088219005E+02  0.19258960569E+02  0.28590228421E+02  0.00000000000E+00 0.  1.
<mgrwt>
<rscale>  0 0.18267013E+04</rscale>
<asrwt>0</asrwt>
<pdfrwt beam="1">  1        1 0.15031415E+00 0.18267013E+04</pdfrwt>
<pdfrwt beam="2">  1       -1 0.13135558E+00 0.18267013E+04</pdfrwt>
<totfact> 0.73368523E+00</totfact>
</mgrwt>
</event>
<event>
12    1  0.1562393E-007  0.1804304E+04  0.7818608E-02  0.8704014E-01
         -1   -1    0    0    0  501 -0.00000000000E+00  0.00000000000E+00  0.38872539627E+03  0.38872539627E+03  0.00000000000E+00 0.  1.
          1   -1    0    0  501    0  0.00000000000E+00 -0.00000000000E+00 -0.20937105158E+04  0.20937105158E+04  0.00000000000E+00 0. -1.
         23    2    1    2    0    0  0.34706075199E+03  0.94173774342E+02  0.14108316778E+03  0.39719954563E+03  0.92429180869E+02 0.  0.
        254    2    1    2    0    0 -0.34706075199E+03 -0.94173774342E+02 -0.18460682873E+04  0.20852363664E+04  0.90051247476E+03 0.  0.
        -24    2    4    4    0    0 -0.51713990090E+03 -0.23749901946E+03 -0.17283009905E+04  0.18214399022E+04  0.82337975030E+02 0.  0.
         24    2    4    4    0    0  0.17007914891E+03  0.14332524512E+03 -0.11776729676E+03  0.26379646423E+03  0.79059443255E+02 0.  0.
         11    1    3    3    0    0 -0.17980242146E+01  0.12112980755E+02  0.92256913705E+01  0.15332011450E+02  0.00000000000E+00 0. -1.
        -11    1    3    3    0    0  0.34885877620E+03  0.82060793587E+02  0.13185747641E+03  0.38186753418E+03  0.00000000000E+00 0.  1.
          4    1    6    6  502    0  0.14146165522E+03  0.12582078735E+03 -0.12822611341E+03  0.22865740003E+03  0.00000000000E+00 0. -1.
          1    1    5    5  503    0 -0.20211964200E+03 -0.80600414294E+02 -0.54236607881E+03  0.58438834683E+03  0.00000000000E+00 0. -1.
         -2    1    5    5    0  503 -0.31502025890E+03 -0.15689860517E+03 -0.11859349117E+04  0.12370515554E+04  0.00000000000E+00 0.  1.
         -3    1    6    6    0  502  0.28617493688E+02  0.17504457766E+02  0.10458816649E+02  0.35139064193E+02  0.00000000000E+00 0.  1.
<mgrwt>
<rscale>  0 0.18043042E+04</rscale>
<asrwt>0</asrwt>
<pdfrwt beam="1">  1        1 0.32210931E+00 0.18043042E+04</pdfrwt>
<pdfrwt beam="2">  1       -1 0.59803907E-01 0.18043042E+04</pdfrwt>
<totfact> 0.68835787E+00</totfact>
</mgrwt>
</event>
<event>
12    1  0.1562393E-007  0.1127191E+04  0.7818608E-02  0.9179088E-01
         -3   -1    0    0    0  501 -0.00000000000E+00  0.00000000000E+00  0.61462051970E+03  0.61462051970E+03  0.00000000000E+00 0.  1.
          3   -1    0    0  501    0  0.00000000000E+00 -0.00000000000E+00 -0.51680615183E+03  0.51680615183E+03  0.00000000000E+00 0. -1.
         23    2    1    2    0    0  0.63574506009E+02 -0.36133881851E+01 -0.14386570899E+03  0.18241218335E+03  0.92315155964E+02 0.  0.
        254    2    1    2    0    0 -0.63574506009E+02  0.36133881851E+01  0.24168007687E+03  0.94901448818E+03  0.91551322482E+03 0.  0.
        -24    2    4    4    0    0  0.11236663050E+03  0.22213683392E+02  0.55855253061E+03  0.57643335100E+03  0.84704021814E+02 0.  0.
         24    2    4    4    0    0 -0.17594113651E+03 -0.18600295207E+02 -0.31687245375E+03  0.37258113718E+03  0.84304788354E+02 0.  0.
         13    1    3    3    0    0 -0.18471047936E+02 -0.19056764263E+02 -0.51305252519E+02  0.57763040190E+02  0.00000000000E+00 0.  1.
        -13    1    3    3    0    0  0.82045553945E+02  0.15443376078E+02 -0.92560456476E+02  0.12464914316E+03  0.00000000000E+00 0. -1.
          2    1    6    6  502    0 -0.51647983947E+02  0.28566912023E+02 -0.13465629233E+03  0.14702346674E+03  0.00000000000E+00 0. -1.
          1    1    5    5  503    0  0.67567405967E+02  0.42916408203E+02  0.21619999640E+03  0.23054199375E+03  0.00000000000E+00 0. -1.
         -2    1    5    5    0  503  0.44799224534E+02 -0.20702724811E+02  0.34235253422E+03  0.34589135725E+03  0.00000000000E+00 0.  1.
         -1    1    6    6    0  502 -0.12429315256E+03 -0.47167207230E+02 -0.18221616142E+03  0.22555767044E+03  0.00000000000E+00 0.  1.
<mgrwt>
<rscale>  0 0.11271906E+04</rscale>
<asrwt>0</asrwt>
<pdfrwt beam="1">  1        3 0.79508639E-01 0.11271906E+04</pdfrwt>
<pdfrwt beam="2">  1       -3 0.94557003E-01 0.11271906E+04</pdfrwt>
<totfact> 0.38146368E+00</totfact>
</mgrwt>
</event>
<event>
12    1  0.1562393E-007  0.1891912E+04  0.7818608E-02  0.8658893E-01
          2   -1    0    0  501    0  0.00000000000E+00  0.00000000000E+00  0.10560740449E+04  0.10560740449E+04  0.00000000000E+00 0. -1.
         -2   -1    0    0    0  501 -0.00000000000E+00 -0.00000000000E+00 -0.84732044332E+03  0.84732044332E+03  0.00000000000E+00 0.  1.
         23    2    1    2    0    0 -0.56711612515E+03  0.23551092864E+03  0.37227939160E+03  0.72407324273E+03  0.92757848821E+02 0.  0.
        254    2    1    2    0    0  0.56711612515E+03 -0.23551092864E+03 -0.16352578997E+03  0.11793212455E+04  0.99346455360E+03 0.  0.
        -24    2    4    4    0    0  0.41552414666E+03 -0.43834649412E+03 -0.47280668772E+03  0.77173006657E+03  0.84930361641E+02 0.  0.
         24    2    4    4    0    0  0.15159197849E+03  0.20283556548E+03  0.30928089775E+03  0.40759117896E+03  0.79708850776E+02 0.  0.
         11    1    3    3    0    0 -0.40745762838E+03  0.17133084647E+03  0.21749641173E+03  0.49262629547E+03  0.00000000000E+00 0.  1.
        -11    1    3    3    0    0 -0.15965849677E+03  0.64180082170E+02  0.15478297987E+03  0.23144694726E+03  0.00000000000E+00 0. -1.
          2    1    6    6  502    0  0.12549178865E+03  0.14096899645E+03  0.17464747916E+03  0.25714235154E+03  0.00000000000E+00 0. -1.
          3    1    5    5  503    0  0.31277825092E+03 -0.33719537461E+03 -0.40314529134E+03  0.61160206085E+03  0.00000000000E+00 0. -1.
         -4    1    5    5    0  503  0.10274589574E+03 -0.10115111951E+03 -0.69661396381E+02  0.16012800572E+03  0.00000000000E+00 0.  1.
         -1    1    6    6    0  502  0.26100189848E+02  0.61866569029E+02  0.13463341859E+03  0.15044882743E+03  0.00000000000E+00 0.  1.
<mgrwt>
<rscale>  0 0.18919124E+04</rscale>
<asrwt>0</asrwt>
<pdfrwt beam="1">  1        2 0.16247293E+00 0.18919124E+04</pdfrwt>
<pdfrwt beam="2">  1       -2 0.13035699E+00 0.18919124E+04</pdfrwt>
<totfact> 0.93791117E+00</totfact>
</mgrwt>
</event>
<event>
12    1  0.1562393E-007  0.1941333E+04  0.7818608E-02  0.8634551E-01
         -1   -1    0    0    0  501 -0.00000000000E+00  0.00000000000E+00  0.59294086408E+03  0.59294086408E+03  0.00000000000E+00 0.  1.
          1   -1    0    0  501    0  0.00000000000E+00 -0.00000000000E+00 -0.15890175772E+04  0.15890175772E+04  0.00000000000E+00 0. -1.
         23    2    1    2    0    0  0.56413934370E+02 -0.73674461292E+03 -0.19772117977E+03  0.77034003819E+03  0.91405431177E+02 0.  0.
        254    2    1    2    0    0 -0.56413934370E+02  0.73674461292E+03 -0.79835553336E+03  0.14116184031E+04  0.89962203268E+03 0.  0.
        -24    2    4    4    0    0  0.28279446758E+03  0.44418005413E+03 -0.79443699620E+03  0.95638264124E+03  0.79176916787E+02 0.  0.
         24    2    4    4    0    0 -0.33920840195E+03  0.29256455879E+03 -0.39185371619E+01  0.45523576187E+03  0.81042476162E+02 0.  0.
         13    1    3    3    0    0  0.23100027178E+02 -0.23955759928E+03 -0.10899994571E+03  0.26420151929E+03  0.00000000000E+00 0.  1.
        -13    1    3    3    0    0  0.33313907192E+02 -0.49718701364E+03 -0.88721234066E+02  0.50613851890E+03  0.00000000000E+00 0. -1.
          2    1    6    6  502    0 -0.13945481738E+03  0.16725034762E+03 -0.21225435862E+02  0.21879406755E+03  0.00000000000E+00 0. -1.
          3    1    5    5  503    0  0.25315244791E+03  0.34147552304E+03 -0.65108453268E+03  0.77756206403E+03  0.00000000000E+00 0. -1.
         -4    1    5    5    0  503  0.29642019661E+02  0.10270453110E+03 -0.14335246351E+03  0.17882057721E+03  0.00000000000E+00 0.  1.
         -1    1    6    6    0  502 -0.19975358457E+03  0.12531421116E+03  0.17306898700E+02  0.23644169431E+03  0.00000000000E+00 0.  1.
<mgrwt>
<rscale>  0 0.19413330E+04</rscale>
<asrwt>0</asrwt>
<pdfrwt beam="1">  1        1 0.24446424E+00 0.19413330E+04</pdfrwt>
<pdfrwt beam="2">  1       -1 0.91221672E-01 0.19413330E+04</pdfrwt>
<totfact> 0.62059341E+00</totfact>
</mgrwt>
</event>
<event>
12    1  0.1562393E-007  0.2659866E+04  0.7818608E-02  0.8348146E-01
          1   -1    0    0  501    0  0.00000000000E+00  0.00000000000E+00  0.20458325404E+04  0.20458325404E+04  0.00000000000E+00 0. -1.
         -1   -1    0    0    0  501 -0.00000000000E+00 -0.00000000000E+00 -0.86454868226E+03  0.86454868226E+03  0.00000000000E+00 0.  1.
         23    2    1    2    0    0  0.26963429825E+03 -0.10602949658E+04  0.53046773376E+02  0.10992401851E+04  0.92665824577E+02 0.  0.
        254    2    1    2    0    0 -0.26963429825E+03  0.10602949658E+04  0.11282370847E+04  0.18111410376E+04  0.90021379090E+03 0.  0.
        -24    2    4    4    0    0 -0.20452365775E+03  0.50510074976E+03  0.77023652118E+00  0.55062607896E+03  0.78941697384E+02 0.  0.
         24    2    4    4    0    0 -0.65110640492E+02  0.55519421603E+03  0.11274668482E+04  0.12605149586E+04  0.72363347187E+02 0.  0.
         13    1    3    3    0    0  0.24195975874E+03 -0.89386811676E+03  0.75173432240E+02  0.92908330086E+03  0.00000000000E+00 0. -1.
        -13    1    3    3    0    0  0.27674539502E+02 -0.16642684902E+03 -0.22126658865E+02  0.17015688421E+03  0.00000000000E+00 0.  1.
          2    1    6    6  502    0 -0.70241838415E+02  0.54536815488E+03  0.10818822622E+04  0.12136018991E+04  0.00000000000E+00 0. -1.
          1    1    5    5  503    0 -0.18436495638E+03  0.42557285317E+03 -0.25465652914E+02  0.46449024745E+03  0.00000000000E+00 0. -1.
         -2    1    5    5    0  503 -0.20158701376E+02  0.79527896585E+02  0.26235889436E+02  0.86135831515E+02  0.00000000000E+00 0.  1.
         -1    1    6    6    0  502  0.51311979229E+01  0.98260611475E+01  0.45584586058E+02  0.46913059545E+02  0.00000000000E+00 0.  1.
<mgrwt>
<rscale>  0 0.26598660E+04</rscale>
<asrwt>0</asrwt>
<pdfrwt beam="1">  1        1 0.31474347E+00 0.26598660E+04</pdfrwt>
<pdfrwt beam="2">  1       -1 0.13300749E+00 0.26598660E+04</pdfrwt>
<totfact> 0.11627997E+00</totfact>
</mgrwt>
</event>
<event>
12    1  0.1718459E-007  0.1647016E+04  0.7818608E-02  0.8792174E-01
          2   -1    0    0  501    0  0.00000000000E+00  0.00000000000E+00  0.31020530773E+04  0.31020530773E+04  0.00000000000E+00 0.  1.
         -2   -1    0    0    0  501 -0.00000000000E+00 -0.00000000000E+00 -0.21861828417E+03  0.21861828417E+03  0.00000000000E+00 0. -1.
         23    2    1    2    0    0  0.46633507495E+02  0.65322903470E+02 -0.11219628247E+03  0.16385624253E+03  0.88425656221E+02 0.  0.
        254    2    1    2    0    0 -0.46633507495E+02 -0.65322903470E+02  0.29956310756E+04  0.31568151189E+04  0.99258973820E+03 0.  0.
        -24    2    4    4    0    0 -0.40653255592E+03  0.59261351291E+02  0.61325103182E+03  0.74287245531E+03  0.83678133688E+02 0.  0.
         24    2    4    4    0    0  0.35989904843E+03 -0.12458425476E+03  0.23823800438E+04  0.24139426636E+04  0.79598672779E+02 0.  0.
         13    1    3    3    0    0 -0.17130976379E+01 -0.82732148687E+01  0.10093368137E+02  0.13162707477E+02  0.00000000000E+00 0.  1.
        -13    1    3    3    0    0  0.48346605133E+02  0.73596118338E+02 -0.12228965060E+03  0.15069353505E+03  0.00000000000E+00 0. -1.
          2    1    6    6  502    0  0.33322644051E+02  0.10365716017E+02  0.17317589790E+03  0.17665712069E+03  0.00000000000E+00 0. -1.
          1    1    5    5  503    0 -0.60092111998E+01  0.14967038497E+02  0.27920465997E+02  0.32243996063E+02  0.00000000000E+00 0. -1.
         -2    1    5    5    0  503 -0.40052334472E+03  0.44294312793E+02  0.58533056582E+03  0.71062845925E+03  0.00000000000E+00 0.  1.
         -1    1    6    6    0  502  0.32657640438E+03 -0.13494997078E+03  0.22092041459E+04  0.22372855429E+04  0.00000000000E+00 0.  1.
<mgrwt>
<rscale>  0 0.16470161E+04</rscale>
<asrwt>0</asrwt>
<pdfrwt beam="1">  1        2 0.47723890E+00 0.16470161E+04</pdfrwt>
<pdfrwt beam="2">  1       -2 0.33633584E-01 0.16470161E+04</pdfrwt>
<totfact> 0.11925257E+01</totfact>
</mgrwt>
</event>
<event>
12    1  0.1562393E-007  0.1494017E+04  0.7818608E-02  0.8888441E-01
         -2   -1    0    0    0  501 -0.00000000000E+00  0.00000000000E+00  0.71575963520E+03  0.71575963520E+03  0.00000000000E+00 0.  1.
          2   -1    0    0  501    0  0.00000000000E+00 -0.00000000000E+00 -0.77962183795E+03  0.77962183795E+03  0.00000000000E+00 0. -1.
         23    2    1    2    0    0  0.34220078654E+03 -0.30736571164E+03  0.72238504389E+02  0.47470605863E+03  0.92479087260E+02 0.  0.
        254    2    1    2    0    0 -0.34220078654E+03  0.30736571164E+03 -0.13610070714E+03  0.10206754145E+04  0.90093276126E+03 0.  0.
        -24    2    4    4    0    0  0.22681123529E+02 -0.27474305747E+03 -0.15935185222E+03  0.32861386371E+03  0.81215008613E+02 0.  0.
         24    2    4    4    0    0 -0.36488191007E+03  0.58210876912E+03  0.23251145079E+02  0.69206155081E+03  0.80119579249E+02 0.  0.
         11    1    3    3    0    0  0.14166459941E+03 -0.16963147868E+03  0.27951020887E+00  0.22100627913E+03  0.00000000000E+00 0. -1.
        -11    1    3    3    0    0  0.20053618713E+03 -0.13773423296E+03  0.71958994181E+02  0.25369977950E+03  0.00000000000E+00 0.  1.
          2    1    6    6  502    0 -0.32512617020E+02  0.20918897565E+02  0.89096100256E+01  0.39674320304E+02  0.00000000000E+00 0. -1.
          1    1    5    5  503    0 -0.14254240336E+02 -0.39987257405E+02 -0.53936675552E+02  0.68639122167E+02  0.00000000000E+00 0. -1.
         -2    1    5    5    0  503  0.36935363865E+02 -0.23475580007E+03 -0.10541517667E+03  0.25997474154E+03  0.00000000000E+00 0.  1.
         -1    1    6    6    0  502 -0.33236929305E+03  0.56118987155E+03  0.14341535053E+02  0.65238723050E+03  0.00000000000E+00 0.  1.
<mgrwt>
<rscale>  0 0.14940172E+04</rscale>
<asrwt>0</asrwt>
<pdfrwt beam="1">  1        2 0.11994182E+00 0.14940172E+04</pdfrwt>
<pdfrwt beam="2">  1       -2 0.11011687E+00 0.14940172E+04</pdfrwt>
<totfact> 0.22581765E+01</totfact>
</mgrwt>
</event>
<event>
12    1  0.1562393E-007  0.1293227E+04  0.7818608E-02  0.9034954E-01
         -1   -1    0    0    0  501 -0.00000000000E+00  0.00000000000E+00  0.12513236487E+03  0.12513236487E+03  0.00000000000E+00 0.  1.
          1   -1    0    0  501    0  0.00000000000E+00 -0.00000000000E+00 -0.33413329809E+04  0.33413329809E+04  0.00000000000E+00 0. -1.
         23    2    1    2    0    0  0.23248213762E+03 -0.16801273881E+03 -0.43735876093E+03  0.53084293017E+03  0.90748586958E+02 0.  0.
        254    2    1    2    0    0 -0.23248213762E+03  0.16801273881E+03 -0.27788418551E+04  0.29356224156E+04  0.90202033602E+03 0.  0.
        -24    2    4    4    0    0  0.20054074912E+03 -0.30742139140E+02 -0.15435919825E+03  0.26702161501E+03  0.79448786167E+02 0.  0.
         24    2    4    4    0    0 -0.43302288673E+03  0.19875487795E+03 -0.26244826569E+04  0.26686008006E+04  0.80676482431E+02 0.  0.
         11    1    3    3    0    0  0.12209141238E+03 -0.14035233976E+03 -0.24976037152E+03  0.31142468662E+03  0.00000000000E+00 0.  1.
        -11    1    3    3    0    0  0.11039072524E+03 -0.27660399050E+02 -0.18759838941E+03  0.21941824355E+03  0.00000000000E+00 0. -1.
          4    1    6    6  502    0 -0.63736017526E+02  0.61770963091E+02 -0.53660492640E+03  0.54389592648E+03  0.00000000000E+00 0. -1.
          1    1    5    5  503    0  0.81160133878E+01 -0.23403588712E+02 -0.11849526728E+02  0.27459222887E+02  0.00000000000E+00 0. -1.
         -2    1    5    5    0  503  0.19242473573E+03 -0.73385504288E+01 -0.14250967152E+03  0.23956239212E+03  0.00000000000E+00 0.  1.
         -3    1    6    6    0  502 -0.36928686921E+03  0.13698391486E+03 -0.20878777305E+04  0.21247048741E+04  0.00000000000E+00 0.  1.
<mgrwt>
<rscale>  0 0.12932268E+04</rscale>
<asrwt>0</asrwt>
<pdfrwt beam="1">  1        1 0.51405119E+00 0.12932268E+04</pdfrwt>
<pdfrwt beam="2">  1       -1 0.19251134E-01 0.12932268E+04</pdfrwt>
<totfact> 0.72272633E+00</totfact>
</mgrwt>
</event>
<event>
12    1  0.1562393E-007  0.1322832E+04  0.7818608E-02  0.9011653E-01
          2   -1    0    0  501    0  0.00000000000E+00  0.00000000000E+00  0.39820333444E+03  0.39820333444E+03  0.00000000000E+00 0.  1.
         -2   -1    0    0    0  501 -0.00000000000E+00 -0.00000000000E+00 -0.10986120689E+04  0.10986120689E+04  0.00000000000E+00 0. -1.
         23    2    1    2    0    0 -0.10594284726E+02 -0.22872475246E+03 -0.49572201282E+03  0.55366269879E+03  0.91514035997E+02 0.  0.
        254    2    1    2    0    0  0.10594284726E+02  0.22872475246E+03 -0.20468672166E+03  0.94315270457E+03  0.89174722812E+03 0.  0.
        -24    2    4    4    0    0 -0.23082498546E+03 -0.49966659423E+00  0.26594481863E+03  0.36123521831E+03  0.80522126239E+02 0.  0.
         24    2    4    4    0    0  0.24141927018E+03  0.22922441905E+03 -0.47063154029E+03  0.58191748626E+03  0.79415463186E+02 0.  0.
         13    1    3    3    0    0  0.70800230486E+01 -0.14651597140E+03 -0.40107754951E+03  0.42706001606E+03  0.00000000000E+00 0. -1.
        -13    1    3    3    0    0 -0.17674307775E+02 -0.82208781059E+02 -0.94644463313E+02  0.12660268273E+03  0.00000000000E+00 0.  1.
          4    1    6    6  502    0  0.32548350707E+02  0.24541679769E+02 -0.11187040502E+03  0.11906585027E+03  0.00000000000E+00 0. -1.
          3    1    5    5  503    0 -0.16187355738E+03  0.31582647363E+02  0.20896024328E+03  0.26620461202E+03  0.00000000000E+00 0. -1.
         -4    1    5    5    0  503 -0.68951428080E+02 -0.32082313958E+02  0.56984575354E+02  0.95030606287E+02  0.00000000000E+00 0.  1.
         -3    1    6    6    0  502  0.20887091948E+03  0.20468273928E+03 -0.35876113527E+03  0.46285163599E+03  0.00000000000E+00 0.  1.
<mgrwt>
<rscale>  0 0.13228318E+04</rscale>
<asrwt>0</asrwt>
<pdfrwt beam="1">  1        2 0.61262053E-01 0.13228318E+04</pdfrwt>
<pdfrwt beam="2">  1       -2 0.16901724E+00 0.13228318E+04</pdfrwt>
<totfact> 0.16921744E+01</totfact>
</mgrwt>
</event>
<event>
12    1  0.1562393E-007  0.1217945E+04  0.7818608E-02  0.9097293E-01
          2   -1    0    0  501    0  0.00000000000E+00  0.00000000000E+00  0.40305027154E+03  0.40305027154E+03  0.00000000000E+00 0. -1.
         -2   -1    0    0    0  501 -0.00000000000E+00 -0.00000000000E+00 -0.92010263011E+03  0.92010263011E+03  0.00000000000E+00 0.  1.
         23    2    1    2    0    0  0.17825425430E+03 -0.14404064923E+03 -0.26728111463E+03  0.36335373367E+03  0.89802303576E+02 0.  0.
        254    2    1    2    0    0 -0.17825425430E+03  0.14404064923E+03 -0.24977124394E+03  0.95979916797E+03  0.89794570032E+03 0.  0.
        -24    2    4    4    0    0 -0.94685518541E+02  0.42820195120E+03 -0.41645020234E+03  0.61017572268E+03  0.81002364728E+02 0.  0.
         24    2    4    4    0    0 -0.83568735761E+02 -0.28416130197E+03  0.16667895840E+03  0.34962344528E+03  0.81995726638E+02 0.  0.
         11    1    3    3    0    0  0.64006258204E+02 -0.74483581157E+02 -0.17558801306E+03  0.20118587247E+03  0.00000000000E+00 0.  1.
        -11    1    3    3    0    0  0.11424799610E+03 -0.69557068077E+02 -0.91693101575E+02  0.16216786121E+03  0.00000000000E+00 0. -1.
          2    1    6    6  502    0 -0.90651597570E+02 -0.20779113146E+03  0.14782552792E+03  0.27064229744E+03  0.00000000000E+00 0. -1.
          3    1    5    5  503    0 -0.10817443270E+03  0.39085471494E+03 -0.38859089163E+03  0.56166893909E+03  0.00000000000E+00 0. -1.
         -4    1    5    5    0  503  0.13488914159E+02  0.37347236258E+02 -0.27859310710E+02  0.48506783592E+02  0.00000000000E+00 0.  1.
         -1    1    6    6    0  502  0.70828618092E+01 -0.76370170508E+02  0.18853430475E+02  0.78981147849E+02  0.00000000000E+00 0.  1.
<mgrwt>
<rscale>  0 0.12179452E+04</rscale>
<asrwt>0</asrwt>
<pdfrwt beam="1">  1        2 0.62007734E-01 0.12179452E+04</pdfrwt>
<pdfrwt beam="2">  1       -2 0.14155425E+00 0.12179452E+04</pdfrwt>
<totfact> 0.27092073E+01</totfact>
</mgrwt>
</event>
<event>
12    1  0.1562393E-007  0.1720331E+04  0.7818608E-02  0.8749853E-01
         -1   -1    0    0    0  501 -0.00000000000E+00  0.00000000000E+00  0.95664432605E+03  0.95664432605E+03  0.00000000000E+00 0.  1.
          1   -1    0    0  501    0  0.00000000000E+00 -0.00000000000E+00 -0.77341663565E+03  0.77341663565E+03  0.00000000000E+00 0. -1.
         23    2    1    2    0    0 -0.39332253150E+03  0.27364159392E+03 -0.33403864498E+03  0.59129908328E+03  0.92035068532E+02 0.  0.
        254    2    1    2    0    0  0.39332253150E+03 -0.27364159392E+03  0.51726633538E+03  0.11387618784E+04  0.89422134749E+03 0.  0.
        -24    2    4    4    0    0  0.23062079271E+03  0.25827206672E+03  0.44933805949E+03  0.57282517251E+03  0.79583767709E+02 0.  0.
         24    2    4    4    0    0  0.16270173879E+03 -0.53191366064E+03  0.67928275896E+02  0.56593670590E+03  0.79158740733E+02 0.  0.
         11    1    3    3    0    0 -0.17661706691E+03  0.14367070395E+03 -0.10687609776E+03  0.25151015839E+03  0.00000000000E+00 0.  1.
        -11    1    3    3    0    0 -0.21670546459E+03  0.12997088997E+03 -0.22716254722E+03  0.33978892490E+03  0.00000000000E+00 0. -1.
          2    1    6    6  502    0  0.12705176039E+03 -0.32799068261E+03  0.71305502010E+02  0.35889345538E+03  0.00000000000E+00 0. -1.
          3    1    5    5  503    0  0.53524316209E+02  0.11447831341E+03  0.14223817539E+03  0.19026779866E+03  0.00000000000E+00 0. -1.
         -2    1    5    5    0  503  0.17709647650E+03  0.14379375331E+03  0.30709988409E+03  0.38255737385E+03  0.00000000000E+00 0.  1.
         -1    1    6    6    0  502  0.35649978403E+02 -0.20392297804E+03 -0.33772261148E+01  0.20704325053E+03  0.00000000000E+00 0.  1.
<mgrwt>
<rscale>  0 0.17203309E+04</rscale>
<asrwt>0</asrwt>
<pdfrwt beam="1">  1        1 0.11898718E+00 0.17203309E+04</pdfrwt>
<pdfrwt beam="2">  1       -1 0.14717605E+00 0.17203309E+04</pdfrwt>
<totfact> 0.81409135E+00</totfact>
</mgrwt>
</event>
<event>
12    1  0.1562393E-007  0.2262553E+04  0.7818608E-02  0.8492834E-01
          2   -1    0    0  501    0  0.00000000000E+00  0.00000000000E+00  0.37409292655E+04  0.37409292655E+04  0.00000000000E+00 0. -1.
         -2   -1    0    0    0  501 -0.00000000000E+00 -0.00000000000E+00 -0.34210375919E+03  0.34210375919E+03  0.00000000000E+00 0.  1.
         23    2    1    2    0    0  0.48136829695E+01 -0.73436979782E+03  0.34023383137E+03  0.81457300699E+03  0.91912742393E+02 0.  0.
        254    2    1    2    0    0 -0.48136829695E+01  0.73436979782E+03  0.30585916749E+04  0.32684600177E+04  0.88798968561E+03 0.  0.
        -24    2    4    4    0    0  0.18908147967E+03 -0.11806328894E+03  0.10503045588E+04  0.10766963417E+04  0.80278264356E+02 0.  0.
         24    2    4    4    0    0 -0.19389516264E+03  0.85243308677E+03  0.20082871161E+04  0.21917636760E+04  0.79833384381E+02 0.  0.
         11    1    3    3    0    0 -0.63329753570E+01 -0.32600581744E+03  0.20070033708E+03  0.38288447982E+03  0.00000000000E+00 0.  1.
        -11    1    3    3    0    0  0.11146658326E+02 -0.40836398038E+03  0.13953349429E+03  0.43168852718E+03  0.00000000000E+00 0. -1.
          2    1    6    6  502    0 -0.19050923219E+03  0.79348061632E+03  0.18233009015E+04  0.19975813959E+04  0.00000000000E+00 0. -1.
          1    1    5    5  503    0  0.12166801043E+03 -0.10930427996E+03  0.83667736171E+03  0.85251365853E+03  0.00000000000E+00 0. -1.
         -2    1    5    5    0  503  0.67413469248E+02 -0.87590089867E+01  0.21362719713E+03  0.22418268316E+03  0.00000000000E+00 0.  1.
         -1    1    6    6    0  502 -0.33859304485E+01  0.58952470442E+02  0.18498621461E+03  0.19418228006E+03  0.00000000000E+00 0.  1.
<mgrwt>
<rscale>  0 0.22625525E+04</rscale>
<asrwt>0</asrwt>
<pdfrwt beam="1">  1        2 0.57552755E+00 0.22625525E+04</pdfrwt>
<pdfrwt beam="2">  1       -2 0.52631350E-01 0.22625525E+04</pdfrwt>
<totfact> 0.16930154E+00</totfact>
</mgrwt>
</event>
<event>
12    1  0.1562393E-007  0.1684107E+04  0.7818608E-02  0.8770481E-01
         -2   -1    0    0    0  501 -0.00000000000E+00  0.00000000000E+00  0.81031907409E+03  0.81031907409E+03  0.00000000000E+00 0.  1.
          2   -1    0    0  501    0  0.00000000000E+00 -0.00000000000E+00 -0.87503064328E+03  0.87503064328E+03  0.00000000000E+00 0. -1.
         23    2    1    2    0    0 -0.39873069426E+02 -0.10022779136E+03 -0.58026312952E+03  0.59740371760E+03  0.92468537866E+02 0.  0.
        254    2    1    2    0    0  0.39873069426E+02  0.10022779136E+03  0.51555156033E+03  0.10879459998E+04  0.95194412401E+03 0.  0.
        -24    2    4    4    0    0 -0.24947717161E+03  0.24397177542E+03 -0.11291211847E+03  0.37675900537E+03  0.86238710985E+02 0.  0.
         24    2    4    4    0    0  0.28935024104E+03 -0.14374398406E+03  0.62846367880E+03  0.71118699440E+03  0.80215026638E+02 0.  0.
         13    1    3    3    0    0 -0.62607731963E+02 -0.91520319835E+02 -0.38568908107E+03  0.40131255189E+03  0.00000000000E+00 0. -1.
        -13    1    3    3    0    0  0.22734662537E+02 -0.87074715289E+01 -0.19457404845E+03  0.19609116571E+03  0.00000000000E+00 0.  1.
          4    1    6    6  502    0  0.26882015701E+03 -0.12744312162E+03  0.61131448710E+03  0.67986133013E+03  0.00000000000E+00 0. -1.
          3    1    5    5  503    0 -0.24635525215E+03  0.21991372685E+03 -0.12020177978E+03  0.35142769580E+03  0.00000000000E+00 0. -1.
         -4    1    5    5    0  503 -0.31219194664E+01  0.24058048574E+02  0.72896613102E+01  0.25331309566E+02  0.00000000000E+00 0.  1.
         -3    1    6    6    0  502  0.20530084028E+02 -0.16300862437E+02  0.17149191695E+02  0.31325664274E+02  0.00000000000E+00 0.  1.
<mgrwt>
<rscale>  0 0.16841069E+04</rscale>
<asrwt>0</asrwt>
<pdfrwt beam="1">  1        2 0.13462010E+00 0.16841069E+04</pdfrwt>
<pdfrwt beam="2">  1       -2 0.12466447E+00 0.16841069E+04</pdfrwt>
<totfact> 0.14024341E+01</totfact>
</mgrwt>
</event>
<event>
12    1  0.1562393E-007  0.1798260E+04  0.7818608E-02  0.8707225E-01
          2   -1    0    0  501    0  0.00000000000E+00  0.00000000000E+00  0.26168757043E+04  0.26168757043E+04  0.00000000000E+00 0. -1.
         -2   -1    0    0    0  501 -0.00000000000E+00 -0.00000000000E+00 -0.30893127436E+03  0.30893127436E+03  0.00000000000E+00 0.  1.
         23    2    1    2    0    0 -0.78544788863E+02 -0.24594082873E+03 -0.13926283906E+03  0.30385421174E+03  0.79227953079E+02 0.  0.
        254    2    1    2    0    0  0.78544788863E+02  0.24594082873E+03  0.24472072690E+04  0.26219527669E+04  0.90507277024E+03 0.  0.
        -24    2    4    4    0    0  0.49197415371E+02 -0.22143081351E+03  0.16743743309E+03  0.29315580680E+03  0.80330829738E+02 0.  0.
         24    2    4    4    0    0  0.29347373492E+02  0.46737164225E+03  0.22797698359E+04  0.23287969601E+04  0.81530708789E+02 0.  0.
         11    1    3    3    0    0 -0.46378421718E+01 -0.17509113272E+02  0.10449123773E+02  0.20910830094E+02  0.00000000000E+00 0. -1.
        -11    1    3    3    0    0 -0.73906946692E+02 -0.22843171546E+03 -0.14971196284E+03  0.28294338164E+03  0.00000000000E+00 0.  1.
          4    1    6    6  502    0  0.52904696170E+02  0.39478624436E+03  0.19576715586E+04  0.19977820244E+04  0.00000000000E+00 0. -1.
          3    1    5    5  503    0  0.69698459849E+02 -0.19159490513E+03  0.13478063891E+03  0.24440193044E+03  0.00000000000E+00 0. -1.
         -4    1    5    5    0  503 -0.20501044478E+02 -0.29835908383E+02  0.32656794184E+02  0.48753876360E+02  0.00000000000E+00 0.  1.
         -3    1    6    6    0  502 -0.23557322677E+02  0.72585397886E+02  0.32209827722E+03  0.33101493566E+03  0.00000000000E+00 0.  1.
<mgrwt>
<rscale>  0 0.17982600E+04</rscale>
<asrwt>0</asrwt>
<pdfrwt beam="1">  1        2 0.40259625E+00 0.17982600E+04</pdfrwt>
<pdfrwt beam="2">  1       -2 0.47527890E-01 0.17982600E+04</pdfrwt>
<totfact> 0.11801985E+01</totfact>
</mgrwt>
</event>
<event>
12    1  0.1562393E-007  0.1508801E+04  0.7818608E-02  0.8878622E-01
          1   -1    0    0  501    0  0.00000000000E+00  0.00000000000E+00  0.65849486997E+03  0.65849486997E+03  0.00000000000E+00 0. -1.
         -1   -1    0    0    0  501 -0.00000000000E+00 -0.00000000000E+00 -0.86427373905E+03  0.86427373905E+03  0.00000000000E+00 0.  1.
         23    2    1    2    0    0  0.13757694083E+02 -0.47221257024E+03  0.37596181642E+02  0.48259031022E+03  0.91136979377E+02 0.  0.
        254    2    1    2    0    0 -0.13757694083E+02  0.47221257024E+03 -0.24337505073E+03  0.10401782988E+04  0.89418426084E+03 0.  0.
        -24    2    4    4    0    0  0.41223565202E+03  0.20974777363E+03 -0.25347741013E+03  0.53354262057E+03  0.80526822742E+02 0.  0.
         24    2    4    4    0    0 -0.42599334611E+03  0.26246479661E+03  0.10102359397E+02  0.50663567823E+03  0.78864138867E+02 0.  0.
         11    1    3    3    0    0 -0.33153428474E+02 -0.11985210448E+03 -0.57610668798E+01  0.12448641155E+03  0.00000000000E+00 0.  1.
        -11    1    3    3    0    0  0.46911122557E+02 -0.35236046576E+03  0.43357248521E+02  0.35810389868E+03  0.00000000000E+00 0. -1.
          2    1    6    6  502    0 -0.15875277109E+03  0.54312021570E+02  0.19900086896E+01  0.16779808744E+03  0.00000000000E+00 0. -1.
          3    1    5    5  503    0  0.23256275962E+03  0.16037575748E+03 -0.16643718431E+03  0.32788284046E+03  0.00000000000E+00 0. -1.
         -2    1    5    5    0  503  0.17967289241E+03  0.49372016143E+02 -0.87040225813E+02  0.20565978011E+03  0.00000000000E+00 0.  1.
         -1    1    6    6    0  502 -0.26724057502E+03  0.20815277504E+03  0.81123507071E+01  0.33883759079E+03  0.00000000000E+00 0.  1.
<mgrwt>
<rscale>  0 0.15088006E+04</rscale>
<asrwt>0</asrwt>
<pdfrwt beam="1">  1        1 0.10130690E+00 0.15088006E+04</pdfrwt>
<pdfrwt beam="2">  1       -1 0.13296519E+00 0.15088006E+04</pdfrwt>
<totfact> 0.13832630E+01</totfact>
</mgrwt>
</event>
<event>
12    1  0.1562393E-007  0.2060411E+04  0.7818608E-02  0.8578886E-01
         -2   -1    0    0    0  501 -0.00000000000E+00  0.00000000000E+00  0.77136189369E+03  0.77136189369E+03  0.00000000000E+00 0.  1.
          2   -1    0    0  501    0  0.00000000000E+00 -0.00000000000E+00 -0.13759086892E+04  0.13759086892E+04  0.00000000000E+00 0. -1.
         23    2    1    2    0    0 -0.27530640657E+03  0.17700192089E+03 -0.10418773593E+04  0.10959577098E+04  0.92149727977E+02 0.  0.
        254    2    1    2    0    0  0.27530640657E+03 -0.17700192089E+03  0.43733056381E+03  0.10513128731E+04  0.89826356795E+03 0.  0.
        -24    2    4    4    0    0  0.40669411917E+02 -0.45776680312E+03  0.48522055468E+03  0.67311233189E+03  0.80229530419E+02 0.  0.
         24    2    4    4    0    0  0.23463699466E+03  0.28076488223E+03 -0.47889990870E+02  0.37820054117E+03  0.82817629506E+02 0.  0.
         11    1    3    3    0    0 -0.10138787851E+03  0.93489382722E+02 -0.56372632194E+03  0.58035087028E+03  0.00000000000E+00 0. -1.
        -11    1    3    3    0    0 -0.17391852807E+03  0.83512538170E+02 -0.47815103735E+03  0.51560683951E+03  0.00000000000E+00 0.  1.
          2    1    6    6  502    0 -0.57248155759E+01  0.23086811296E+01 -0.48372307800E+01  0.78423417138E+01  0.00000000000E+00 0. -1.
          1    1    5    5  503    0  0.38982854546E+02 -0.12519740803E+03  0.17181260056E+03  0.21613334689E+03  0.00000000000E+00 0. -1.
         -2    1    5    5    0  503  0.16865573714E+01 -0.33256939509E+03  0.31340795412E+03  0.45697898500E+03  0.00000000000E+00 0.  1.
         -1    1    6    6    0  502  0.24036181023E+03  0.27845620110E+03 -0.43052760090E+02  0.37035819945E+03  0.00000000000E+00 0.  1.
<mgrwt>
<rscale>  0 0.20604112E+04</rscale>
<asrwt>0</asrwt>
<pdfrwt beam="1">  1        2 0.21167826E+00 0.20604112E+04</pdfrwt>
<pdfrwt beam="2">  1       -2 0.11867106E+00 0.20604112E+04</pdfrwt>
<totfact> 0.75409960E+00</totfact>
</mgrwt>
</event>
<event>
12    1  0.1562393E-007  0.1518143E+04  0.7818608E-02  0.8872477E-01
         -1   -1    0    0    0  501 -0.00000000000E+00  0.00000000000E+00  0.10676259447E+04  0.10676259447E+04  0.00000000000E+00 0.  1.
          1   -1    0    0  501    0  0.00000000000E+00 -0.00000000000E+00 -0.53969265821E+03  0.53969265821E+03  0.00000000000E+00 0. -1.
         23    2    1    2    0    0  0.20172375375E+03 -0.35512657452E+03  0.45646372884E+03  0.61902779308E+03  0.89604219240E+02 0.  0.
        254    2    1    2    0    0 -0.20172375375E+03  0.35512657452E+03  0.71469557623E+02  0.98829080981E+03  0.89710839386E+03 0.  0.
        -24    2    4    4    0    0 -0.37931233485E+03  0.28714181632E+03 -0.29673048301E+03  0.56627680929E+03  0.79323232078E+02 0.  0.
         24    2    4    4    0    0  0.17758858110E+03  0.67984758198E+02  0.36820004064E+03  0.42201400052E+03  0.79780418803E+02 0.  0.
         13    1    3    3    0    0  0.80495115237E+02 -0.13981170934E+03  0.11760128995E+03  0.19964178181E+03  0.00000000000E+00 0. -1.
        -13    1    3    3    0    0  0.12122863851E+03 -0.21531486518E+03  0.33886243889E+03  0.41938601127E+03  0.00000000000E+00 0.  1.
          4    1    6    6  502    0  0.14806149142E+03  0.86138150542E+02  0.29801511713E+03  0.34373681249E+03  0.00000000000E+00 0. -1.
          1    1    5    5  503    0 -0.25033491919E+03  0.14306095589E+03 -0.16368134703E+03  0.33155028612E+03  0.00000000000E+00 0. -1.
         -2    1    5    5    0  503 -0.12897741566E+03  0.14408086043E+03 -0.13304913599E+03  0.23472652317E+03  0.00000000000E+00 0.  1.
         -3    1    6    6    0  502  0.29527089679E+02 -0.18153392344E+02  0.70184923503E+02  0.78277188028E+02  0.00000000000E+00 0.  1.
<mgrwt>
<rscale>  0 0.15181435E+04</rscale>
<asrwt>0</asrwt>
<pdfrwt beam="1">  1        1 0.83029640E-01 0.15181435E+04</pdfrwt>
<pdfrwt beam="2">  1       -1 0.16425014E+00 0.15181435E+04</pdfrwt>
<totfact> 0.10446592E+01</totfact>
</mgrwt>
</event>
<event>
12    1  0.1562393E-007  0.1981785E+04  0.7818608E-02  0.8615184E-01
          1   -1    0    0  501    0  0.00000000000E+00  0.00000000000E+00  0.13629928310E+04  0.13629928310E+04  0.00000000000E+00 0.  1.
         -1   -1    0    0    0  501 -0.00000000000E+00 -0.00000000000E+00 -0.72037669965E+03  0.72037669965E+03  0.00000000000E+00 0. -1.
         23    2    1    2    0    0 -0.27052406691E+03 -0.66753153391E+03  0.56129512855E+03  0.91755469424E+03  0.89848628596E+02 0.  0.
        254    2    1    2    0    0  0.27052406691E+03  0.66753153391E+03  0.81321002841E+02  0.11658148365E+04  0.91308789712E+03 0.  0.
        -24    2    4    4    0    0  0.36213952899E+03  0.57167537673E+03 -0.30701896517E+03  0.74760144024E+03  0.81789324792E+02 0.  0.
         24    2    4    4    0    0 -0.91615462086E+02  0.95856157174E+02  0.38833996801E+03  0.41821339622E+03  0.80701414249E+02 0.  0.
         11    1    3    3    0    0 -0.12692988485E+02 -0.11031553364E+03  0.10220731279E+03  0.15092038864E+03  0.00000000000E+00 0. -1.
        -11    1    3    3    0    0 -0.25783107842E+03 -0.55721600026E+03  0.45908781576E+03  0.76663430560E+03  0.00000000000E+00 0.  1.
          2    1    6    6  502    0 -0.99012657320E+02  0.10439876977E+03  0.35751262679E+03  0.38538018599E+03  0.00000000000E+00 0. -1.
          1    1    5    5  503    0  0.32793379727E+03  0.49174655135E+03 -0.24043979184E+03  0.63809602699E+03  0.00000000000E+00 0. -1.
         -4    1    5    5    0  503  0.34205731721E+02  0.79928825380E+02 -0.66579173332E+02  0.10950541325E+03  0.00000000000E+00 0.  1.
         -1    1    6    6    0  502  0.73971952338E+01 -0.85426125961E+01  0.30827341222E+02  0.32833210232E+02  0.00000000000E+00 0.  1.
<mgrwt>
<rscale>  0 0.19817853E+04</rscale>
<asrwt>0</asrwt>
<pdfrwt beam="1">  1        1 0.20969120E+00 0.19817853E+04</pdfrwt>
<pdfrwt beam="2">  1       -1 0.11082719E+00 0.19817853E+04</pdfrwt>
<totfact> 0.56834497E+00</totfact>
</mgrwt>
</event>
<event>
12    1  0.1562393E-007  0.1254365E+04  0.7818608E-02  0.9066558E-01
          2   -1    0    0  501    0  0.00000000000E+00  0.00000000000E+00  0.99573682297E+03  0.99573682297E+03  0.00000000000E+00 0. -1.
         -2   -1    0    0    0  501 -0.00000000000E+00 -0.00000000000E+00 -0.39504230763E+03  0.39504230763E+03  0.00000000000E+00 0.  1.
         23    2    1    2    0    0 -0.17940759126E+03 -0.18238480537E+03  0.33418200152E+03  0.43106334034E+03  0.93202425991E+02 0.  0.
        254    2    1    2    0    0  0.17940759126E+03  0.18238480537E+03  0.26651251383E+03  0.95971579026E+03  0.88576191893E+03 0.  0.
        -24    2    4    4    0    0  0.25403196020E+03  0.10525968683E+03 -0.27790927478E+03  0.39930554392E+03  0.81237392368E+02 0.  0.
         24    2    4    4    0    0 -0.74624368936E+02  0.77125118535E+02  0.54442178861E+03  0.56041024635E+03  0.78405866804E+02 0.  0.
         11    1    3    3    0    0 -0.61146386708E+02 -0.10880225661E+03  0.10607867232E+03  0.16379711955E+03  0.00000000000E+00 0.  1.
        -11    1    3    3    0    0 -0.11826120456E+03 -0.73582548764E+02  0.22810332919E+03  0.26726622079E+03  0.00000000000E+00 0. -1.
          2    1    6    6  502    0 -0.42475018585E+01 -0.33286817779E+01 -0.19789423716E+00  0.54000515318E+01  0.00000000000E+00 0. -1.
          3    1    5    5  503    0 -0.23698422966E+00  0.23993123779E-01 -0.26703099861E+02  0.26704162211E+02  0.00000000000E+00 0. -1.
         -4    1    5    5    0  503  0.25426894443E+03  0.10523569371E+03 -0.25120617492E+03  0.37260138171E+03  0.00000000000E+00 0.  1.
         -1    1    6    6    0  502 -0.70376867077E+02  0.80453800313E+02  0.54461968285E+03  0.55501019481E+03  0.00000000000E+00 0.  1.
<mgrwt>
<rscale>  0 0.12543655E+04</rscale>
<asrwt>0</asrwt>
<pdfrwt beam="1">  1        2 0.15319028E+00 0.12543655E+04</pdfrwt>
<pdfrwt beam="2">  1       -2 0.60775740E-01 0.12543655E+04</pdfrwt>
<totfact> 0.62823004E+01</totfact>
</mgrwt>
</event>
<event>
12    1  0.1562393E-007  0.2293858E+04  0.7818608E-02  0.8480347E-01
         -1   -1    0    0    0  501 -0.00000000000E+00  0.00000000000E+00  0.77230573903E+03  0.77230573903E+03  0.00000000000E+00 0.  1.
          1   -1    0    0  501    0  0.00000000000E+00 -0.00000000000E+00 -0.17032708691E+04  0.17032708691E+04  0.00000000000E+00 0. -1.
         23    2    1    2    0    0 -0.48147170163E+03 -0.50851168021E+03  0.32219096679E+03  0.77690002922E+03  0.96785887066E+02 0.  0.
        254    2    1    2    0    0  0.48147170163E+03  0.50851168021E+03 -0.12531560968E+04  0.16986765789E+04  0.90813148180E+03 0.  0.
        -24    2    4    4    0    0  0.23701861434E+03  0.66133603703E+03 -0.12048386493E+04  0.13969053599E+04  0.78519019041E+02 0.  0.
         24    2    4    4    0    0  0.24445308729E+03 -0.15282435681E+03 -0.48317447516E+02  0.30177121894E+03  0.74957967724E+02 0.  0.
         13    1    3    3    0    0 -0.54470692389E+02 -0.23897309372E+02  0.42184480125E+02  0.72922342859E+02  0.00000000000E+00 0. -1.
        -13    1    3    3    0    0 -0.42700100924E+03 -0.48461437084E+03  0.28000648666E+03  0.70397768636E+03  0.00000000000E+00 0.  1.
          2    1    6    6  502    0  0.11603571173E+03 -0.11598176822E+03 -0.20873832078E+02  0.16538371692E+03  0.00000000000E+00 0. -1.
          3    1    5    5  503    0  0.20631291144E+03  0.61805406814E+03 -0.11404965278E+04  0.13135022567E+04  0.00000000000E+00 0. -1.
         -4    1    5    5    0  503  0.30705702900E+02  0.43281968884E+02 -0.64342121511E+02  0.83403103189E+02  0.00000000000E+00 0.  1.
         -3    1    6    6    0  502  0.12841737556E+03 -0.36842588597E+02 -0.27443615438E+02  0.13638750202E+03  0.00000000000E+00 0.  1.
<mgrwt>
<rscale>  0 0.22938578E+04</rscale>
<asrwt>0</asrwt>
<pdfrwt beam="1">  1        1 0.26204167E+00 0.22938578E+04</pdfrwt>
<pdfrwt beam="2">  1       -1 0.11881627E+00 0.22938578E+04</pdfrwt>
<totfact> 0.27197411E+00</totfact>
</mgrwt>
</event>
<event>
12    1  0.1562393E-007  0.1927308E+04  0.7818608E-02  0.8641382E-01
         -2   -1    0    0    0  501 -0.00000000000E+00  0.00000000000E+00  0.19823284176E+03  0.19823284176E+03  0.00000000000E+00 0.  1.
          2   -1    0    0  501    0  0.00000000000E+00 -0.00000000000E+00 -0.46845344998E+04  0.46845344998E+04  0.00000000000E+00 0. -1.
         23    2    1    2    0    0  0.36439085598E+03 -0.61505006764E+03 -0.11668419066E+04  0.13718096684E+04  0.96303944301E+02 0.  0.
        254    2    1    2    0    0 -0.36439085598E+03  0.61505006764E+03 -0.33194597514E+04  0.35109576732E+04  0.89271689786E+03 0.  0.
        -24    2    4    4    0    0  0.10185825814E+01  0.37046294556E+02  0.29286742797E+02  0.92278569353E+02  0.79272666206E+02 0.  0.
         24    2    4    4    0    0 -0.36540943856E+03  0.57800377308E+03 -0.33487464942E+04  0.34186791038E+04  0.75175213479E+02 0.  0.
         11    1    3    3    0    0  0.35962581034E+03 -0.59633731949E+03 -0.10971738295E+04  0.12995150381E+04  0.00000000000E+00 0.  1.
        -11    1    3    3    0    0  0.47650456355E+01 -0.18712748148E+02 -0.69668077181E+02  0.72294630376E+02  0.00000000000E+00 0. -1.
          2    1    6    6  502    0 -0.40182505575E+02  0.11676785635E+03 -0.62213447158E+03  0.63427176096E+03  0.00000000000E+00 0. -1.
          1    1    5    5  503    0  0.35624610745E+02 -0.11465046614E+01  0.80817903116E+01  0.36547813865E+02  0.00000000000E+00 0. -1.
         -2    1    5    5    0  503 -0.34606028164E+02  0.38192799218E+02  0.21204952485E+02  0.55730755488E+02  0.00000000000E+00 0.  1.
         -1    1    6    6    0  502 -0.32522693298E+03  0.46123591673E+03 -0.27266120227E+04  0.27844073428E+04  0.00000000000E+00 0.  1.
<mgrwt>
<rscale>  0 0.19273075E+04</rscale>
<asrwt>0</asrwt>
<pdfrwt beam="1">  1        2 0.72069760E+00 0.19273075E+04</pdfrwt>
<pdfrwt beam="2">  1       -2 0.30497361E-01 0.19273075E+04</pdfrwt>
<totfact> 0.75715014E-01</totfact>
</mgrwt>
</event>
<event>
12    1  0.2032162E-007  0.2797109E+04  0.7818608E-02  0.8304167E-01
         -1   -1    0    0    0  501 -0.00000000000E+00  0.00000000000E+00  0.61766590487E+03  0.61766590487E+03  0.00000000000E+00 0.  1.
          1   -1    0    0  501    0  0.00000000000E+00 -0.00000000000E+00 -0.31666865478E+04  0.31666865478E+04  0.00000000000E+00 0. -1.
         23    2    1    2    0    0  0.14396569546E+03  0.62495577119E+03  0.30692538236E+03  0.71768539892E+03  0.97843262806E+02 0.  0.
        254    2    1    2    0    0 -0.14396569546E+03 -0.62495577119E+03 -0.28559460253E+04  0.30666670537E+04  0.91472579594E+03 0.  0.
        -24    2    4    4    0    0 -0.14350247023E+02 -0.52228073219E+03 -0.58508195520E+03  0.78847088222E+03  0.79889580040E+02 0.  0.
         24    2    4    4    0    0 -0.12961544844E+03 -0.10267503900E+03 -0.22708640701E+04  0.22781961715E+04  0.77536075783E+02 0.  0.
         13    1    3    3    0    0 -0.78559370702E+01  0.84524316466E+02  0.62564380518E+02  0.10545320067E+03  0.00000000000E+00 0. -1.
        -13    1    3    3    0    0  0.15182163253E+03  0.54043145473E+03  0.24436100184E+03  0.61223219826E+03  0.00000000000E+00 0.  1.
          2    1    6    6  502    0 -0.64598053347E+01 -0.17228131985E+01 -0.12087627341E+02  0.13813323461E+02  0.00000000000E+00 0. -1.
          1    1    5    5  503    0 -0.21473554285E+02 -0.12794011608E+03 -0.19129079865E+03  0.23113190279E+03  0.00000000000E+00 0. -1.
         -2    1    5    5    0  503  0.71233072621E+01 -0.39434061611E+03 -0.39379115655E+03  0.55733897943E+03  0.00000000000E+00 0.  1.
         -1    1    6    6    0  502 -0.12315564311E+03 -0.10095222581E+03 -0.22587764427E+04  0.22643828481E+04  0.00000000000E+00 0.  1.
<mgrwt>
<rscale>  0 0.27971087E+04</rscale>
<asrwt>0</asrwt>
<pdfrwt beam="1">  1        1 0.48718255E+00 0.27971087E+04</pdfrwt>
<pdfrwt beam="2">  1       -1 0.95025524E-01 0.27971087E+04</pdfrwt>
<totfact> 0.41696254E-01</totfact>
</mgrwt>
</event>
<event>
12    1  0.1562393E-007  0.1478935E+04  0.7818608E-02  0.8898583E-01
         -2   -1    0    0    0  501 -0.00000000000E+00  0.00000000000E+00  0.30930941107E+03  0.30930941107E+03  0.00000000000E+00 0.  1.
          2   -1    0    0  501    0  0.00000000000E+00 -0.00000000000E+00 -0.17678473439E+04  0.17678473439E+04  0.00000000000E+00 0. -1.
         23    2    1    2    0    0  0.40204004183E+03 -0.15310560329E+03 -0.23140273253E+03  0.49713433459E+03  0.92291933617E+02 0.  0.
        254    2    1    2    0    0 -0.40204004183E+03  0.15310560329E+03 -0.12271352003E+04  0.15800224204E+04  0.89751463949E+03 0.  0.
        -24    2    4    4    0    0 -0.39285907103E+03  0.46815315624E+03 -0.53845967420E+03  0.81842815262E+03  0.79876109475E+02 0.  0.
         24    2    4    4    0    0 -0.91809707998E+01 -0.31504755295E+03 -0.68867552609E+03  0.76159426776E+03  0.80078696279E+02 0.  0.
         13    1    3    3    0    0  0.23175749430E+03 -0.12917879391E+03 -0.16703033678E+03  0.31352484808E+03  0.00000000000E+00 0. -1.
        -13    1    3    3    0    0  0.17028254753E+03 -0.23926809384E+02 -0.64372395744E+02  0.18360948651E+03  0.00000000000E+00 0.  1.
          4    1    6    6  502    0  0.62347075088E+00 -0.30739014003E+03 -0.62249167940E+03  0.69425137942E+03  0.00000000000E+00 0. -1.
          3    1    5    5  503    0 -0.28117656605E+03  0.36134304649E+03 -0.44118866702E+03  0.63582741247E+03  0.00000000000E+00 0. -1.
         -2    1    5    5    0  503 -0.11168250498E+03  0.10681010975E+03 -0.97271007182E+02  0.18260074015E+03  0.00000000000E+00 0.  1.
         -3    1    6    6    0  502 -0.98044415507E+01 -0.76574129200E+01 -0.66183846690E+02  0.67342888336E+02  0.00000000000E+00 0.  1.
<mgrwt>
<rscale>  0 0.14789345E+04</rscale>
<asrwt>0</asrwt>
<pdfrwt beam="1">  1        2 0.27197651E+00 0.14789345E+04</pdfrwt>
<pdfrwt beam="2">  1       -2 0.47586064E-01 0.14789345E+04</pdfrwt>
<totfact> 0.36408973E+01</totfact>
</mgrwt>
</event>
<event>
12    1  0.1562393E-007  0.1955210E+04  0.7818608E-02  0.8627853E-01
         -1   -1    0    0    0  501 -0.00000000000E+00  0.00000000000E+00  0.57404236013E+03  0.57404236013E+03  0.00000000000E+00 0.  1.
          1   -1    0    0  501    0  0.00000000000E+00 -0.00000000000E+00 -0.16648792156E+04  0.16648792156E+04  0.00000000000E+00 0. -1.
         23    2    1    2    0    0 -0.72755833014E+03  0.63939241185E+02 -0.52172483677E+03  0.90206742692E+03  0.89997150472E+02 0.  0.
        254    2    1    2    0    0  0.72755833014E+03 -0.63939241185E+02 -0.56911201867E+03  0.13368541488E+04  0.96429309598E+03 0.  0.
        -24    2    4    4    0    0  0.89041327233E+03  0.12479728911E+03 -0.58296350533E+03  0.10744935092E+04  0.79244519710E+02 0.  0.
         24    2    4    4    0    0 -0.16285494219E+03 -0.18873653030E+03  0.13851486668E+02  0.26236063954E+03  0.80610368038E+02 0.  0.
         11    1    3    3    0    0 -0.44940631340E+03  0.14283082321E+02 -0.27577943528E+03  0.52746975069E+03  0.00000000000E+00 0.  1.
        -11    1    3    3    0    0 -0.27815201675E+03  0.49656158864E+02 -0.24594540148E+03  0.37459767624E+03  0.00000000000E+00 0. -1.
          2    1    6    6  502    0 -0.69503719783E+02 -0.13797361494E+03  0.20739850513E+02  0.15587696072E+03  0.00000000000E+00 0. -1.
          1    1    5    5  503    0  0.69657168947E+03  0.12600537494E+03 -0.47681055857E+03  0.85348566587E+03  0.00000000000E+00 0. -1.
         -2    1    5    5    0  503  0.19384158286E+03 -0.12080858275E+01 -0.10615294677E+03  0.22100784335E+03  0.00000000000E+00 0.  1.
         -1    1    6    6    0  502 -0.93351222403E+02 -0.50762915358E+02 -0.68883638448E+01  0.10648367883E+03  0.00000000000E+00 0.  1.
<mgrwt>
<rscale>  0 0.19552097E+04</rscale>
<asrwt>0</asrwt>
<pdfrwt beam="1">  1        1 0.25613527E+00 0.19552097E+04</pdfrwt>
<pdfrwt beam="2">  1       -1 0.88314207E-01 0.19552097E+04</pdfrwt>
<totfact> 0.59062795E+00</totfact>
</mgrwt>
</event>
<event>
12    1  0.1562393E-007  0.3213023E+04  0.7818608E-02  0.8185386E-01
          2   -1    0    0  501    0  0.00000000000E+00  0.00000000000E+00  0.10751342369E+04  0.10751342369E+04  0.00000000000E+00 0. -1.
         -2   -1    0    0    0  501 -0.00000000000E+00 -0.00000000000E+00 -0.24005183076E+04  0.24005183076E+04  0.00000000000E+00 0.  1.
         23    2    1    2    0    0  0.12749144927E+04 -0.22059911778E+03  0.15804024642E+03  0.13066671795E+04  0.91276853758E+02 0.  0.
        254    2    1    2    0    0 -0.12749144927E+04  0.22059911778E+03 -0.14834243171E+04  0.21689853650E+04  0.91097687927E+03 0.  0.
        -24    2    4    4    0    0 -0.11973083300E+04 -0.10956919308E+03 -0.95883372005E+03  0.15397810756E+04  0.77530722706E+02 0.  0.
         24    2    4    4    0    0 -0.77606162751E+02  0.33016831086E+03 -0.52459059702E+03  0.62920428940E+03  0.75292186359E+02 0.  0.
         11    1    3    3    0    0  0.70926768622E+03 -0.98322075548E+02  0.12614427559E+03  0.72707651559E+03  0.00000000000E+00 0.  1.
        -11    1    3    3    0    0  0.56564680648E+03 -0.12227704223E+03  0.31895970825E+02  0.57959066391E+03  0.00000000000E+00 0. -1.
          4    1    6    6  502    0 -0.43936387369E+02  0.27737957797E+03 -0.38825101688E+03  0.47917500824E+03  0.00000000000E+00 0. -1.
          1    1    5    5  503    0 -0.95319699922E+03 -0.63149022676E+02 -0.73457061828E+03  0.12050586341E+04  0.00000000000E+00 0. -1.
         -2    1    5    5    0  503 -0.24411133073E+03 -0.46420170408E+02 -0.22426310177E+03  0.33472244148E+03  0.00000000000E+00 0.  1.
         -3    1    6    6    0  502 -0.33669775382E+02  0.52788732891E+02 -0.13633958014E+03  0.15002928117E+03  0.00000000000E+00 0.  1.
<mgrwt>
<rscale>  0 0.32130231E+04</rscale>
<asrwt>0</asrwt>
<pdfrwt beam="1">  1        2 0.16540527E+00 0.32130231E+04</pdfrwt>
<pdfrwt beam="2">  1       -2 0.36931051E+00 0.32130231E+04</pdfrwt>
<totfact> 0.22258199E-01</totfact>
</mgrwt>
</event>
<event>
12    1  0.1562393E-007  0.1327785E+04  0.7818608E-02  0.9007817E-01
          2   -1    0    0  501    0  0.00000000000E+00  0.00000000000E+00  0.36060726593E+03  0.36060726593E+03  0.00000000000E+00 0. -1.
         -2   -1    0    0    0  501 -0.00000000000E+00 -0.00000000000E+00 -0.12222524709E+04  0.12222524709E+04  0.00000000000E+00 0.  1.
         23    2    1    2    0    0 -0.96841461290E+02 -0.67969281147E+02  0.15624254010E+03  0.21998175241E+03  0.99910701373E+02 0.  0.
        254    2    1    2    0    0  0.96841461290E+02  0.67969281147E+02 -0.10178877451E+04  0.13628779844E+04  0.89852259128E+03 0.  0.
        -24    2    4    4    0    0 -0.10078167268E+03  0.42579259506E+03 -0.73405937408E+03  0.85857678208E+03  0.82792792610E+02 0.  0.
         24    2    4    4    0    0  0.19762313397E+03 -0.35782331391E+03 -0.28382837102E+03  0.50430120236E+03  0.81662301269E+02 0.  0.
         11    1    3    3    0    0 -0.10072779062E+01  0.18688741322E+02  0.47683245928E+02  0.51224755765E+02  0.00000000000E+00 0.  1.
        -11    1    3    3    0    0 -0.95834183384E+02 -0.86658022469E+02  0.10855929418E+03  0.16875699664E+03  0.00000000000E+00 0. -1.
          2    1    6    6  502    0  0.18269594574E+03 -0.35342075055E+03 -0.25811214805E+03  0.47424246591E+03  0.00000000000E+00 0. -1.
          3    1    5    5  503    0 -0.22967663208E+02  0.27181253659E+03 -0.45308643980E+03  0.52886377313E+03  0.00000000000E+00 0. -1.
         -4    1    5    5    0  503 -0.77814009469E+02  0.15398005847E+03 -0.28097293427E+03  0.32971300895E+03  0.00000000000E+00 0.  1.
         -1    1    6    6    0  502  0.14927188228E+02 -0.44025633608E+01 -0.25716222976E+02  0.30058736446E+02  0.00000000000E+00 0.  1.
<mgrwt>
<rscale>  0 0.13277848E+04</rscale>
<asrwt>0</asrwt>
<pdfrwt beam="1">  1        2 0.55478041E-01 0.13277848E+04</pdfrwt>
<pdfrwt beam="2">  1       -2 0.18803884E+00 0.13277848E+04</pdfrwt>
<totfact> 0.13953959E+01</totfact>
</mgrwt>
</event>
<event>
12    1  0.1562393E-007  0.1817375E+04  0.7818608E-02  0.8697114E-01
         -1   -1    0    0    0  501 -0.00000000000E+00  0.00000000000E+00  0.28106250895E+03  0.28106250895E+03  0.00000000000E+00 0.  1.
          1   -1    0    0  501    0  0.00000000000E+00 -0.00000000000E+00 -0.29378273297E+04  0.29378273297E+04  0.00000000000E+00 0. -1.
         23    2    1    2    0    0 -0.41096553249E+03 -0.13045694995E+03 -0.74646862665E+02  0.44728784328E+03  0.92642193163E+02 0.  0.
        254    2    1    2    0    0  0.41096553249E+03  0.13045694995E+03 -0.25821179581E+04  0.27716019954E+04  0.91023776377E+03 0.  0.
        -24    2    4    4    0    0 -0.63971708924E+02 -0.14236226999E+03 -0.18260447235E+04  0.18343952072E+04  0.78784824701E+02 0.  0.
         24    2    4    4    0    0  0.47493724142E+03  0.27281921993E+03 -0.75607323455E+03  0.93720678811E+03  0.81939719513E+02 0.  0.
         13    1    3    3    0    0 -0.21356293351E+03 -0.10000493377E+03 -0.53757302414E+01  0.23587923144E+03  0.00000000000E+00 0.  1.
        -13    1    3    3    0    0 -0.19740259898E+03 -0.30452016179E+02 -0.69271132424E+02  0.21140861184E+03  0.00000000000E+00 0. -1.
          2    1    6    6  502    0  0.71802483955E+01 -0.57741770645E+01 -0.15725184318E+02  0.18225764994E+02  0.00000000000E+00 0. -1.
          3    1    5    5  503    0  0.30041430278E+01 -0.48202597265E+02 -0.28848935388E+03  0.29250405563E+03  0.00000000000E+00 0. -1.
         -4    1    5    5    0  503 -0.66975851952E+02 -0.94159672722E+02 -0.15375553696E+04  0.15418911516E+04  0.00000000000E+00 0.  1.
         -1    1    6    6    0  502  0.46775699302E+03  0.27859339700E+03 -0.74034805023E+03  0.91898102312E+03  0.00000000000E+00 0.  1.
<mgrwt>
<rscale>  0 0.18173752E+04</rscale>
<asrwt>0</asrwt>
<pdfrwt beam="1">  1        1 0.45197347E+00 0.18173752E+04</pdfrwt>
<pdfrwt beam="2">  1       -1 0.43240383E-01 0.18173752E+04</pdfrwt>
<totfact> 0.33061640E+00</totfact>
</mgrwt>
</event>
<event>
12    1  0.1562393E-007  0.1851214E+04  0.7818608E-02  0.8679529E-01
          1   -1    0    0  501    0  0.00000000000E+00  0.00000000000E+00  0.14153420051E+04  0.14153420051E+04  0.00000000000E+00 0. -1.
         -1   -1    0    0    0  501 -0.00000000000E+00 -0.00000000000E+00 -0.60532978078E+03  0.60532978078E+03  0.00000000000E+00 0.  1.
         23    2    1    2    0    0 -0.40805984639E+03 -0.54238120377E+03  0.11398295601E+03  0.69423296659E+03  0.90978509505E+02 0.  0.
        254    2    1    2    0    0  0.40805984639E+03  0.54238120377E+03  0.69602926832E+03  0.13264388193E+04  0.90238184298E+03 0.  0.
        -24    2    4    4    0    0  0.12521932802E+03 -0.21729569499E+03  0.13221127783E+02  0.26406388688E+03  0.81594356182E+02 0.  0.
         24    2    4    4    0    0  0.28284051837E+03  0.75967689877E+03  0.68280814054E+03  0.10623749324E+04  0.72840860050E+02 0.  0.
         13    1    3    3    0    0 -0.78357752687E+02 -0.11373334125E+03  0.60606717642E+02  0.15082567600E+03  0.00000000000E+00 0. -1.
        -13    1    3    3    0    0 -0.32970209371E+03 -0.42864786252E+03  0.53376238369E+02  0.54340729059E+03  0.00000000000E+00 0.  1.
          4    1    6    6  502    0  0.32762590127E+02  0.17387989397E+03  0.14694045130E+03  0.22999804579E+03  0.00000000000E+00 0. -1.
          3    1    5    5  503    0  0.52529081858E+02 -0.29846851486E+02  0.17728436480E+02  0.62963770888E+02  0.00000000000E+00 0. -1.
         -4    1    5    5    0  503  0.72690246166E+02 -0.18744884351E+03 -0.45073086979E+01  0.20110011599E+03  0.00000000000E+00 0.  1.
         -3    1    6    6    0  502  0.25007792824E+03  0.58579700480E+03  0.53586768924E+03  0.83237688663E+03  0.00000000000E+00 0.  1.
<mgrwt>
<rscale>  0 0.18512144E+04</rscale>
<asrwt>0</asrwt>
<pdfrwt beam="1">  1        1 0.21774492E+00 0.18512144E+04</pdfrwt>
<pdfrwt beam="2">  1       -1 0.93127659E-01 0.18512144E+04</pdfrwt>
<totfact> 0.78833812E+00</totfact>
</mgrwt>
</event>
<event>
12    1  0.1562393E-007  0.1405178E+04  0.7818608E-02  0.8950079E-01
         -2   -1    0    0    0  501 -0.00000000000E+00  0.00000000000E+00  0.24938655337E+03  0.24938655337E+03  0.00000000000E+00 0. -1.
          2   -1    0    0  501    0  0.00000000000E+00 -0.00000000000E+00 -0.19793834672E+04  0.19793834672E+04  0.00000000000E+00 0.  1.
         23    2    1    2    0    0  0.27297150039E+03  0.20267665855E+03 -0.86998141200E+03  0.93810543006E+03  0.87079691886E+02 0.  0.
        254    2    1    2    0    0 -0.27297150039E+03 -0.20267665855E+03 -0.86001550183E+03  0.12906645905E+04  0.90033169103E+03 0.  0.
        -24    2    4    4    0    0 -0.54148746576E+03 -0.27775660752E+03 -0.77440803885E+03  0.98829278924E+03  0.81593002327E+02 0.  0.
         24    2    4    4    0    0  0.26851596537E+03  0.75079948973E+02 -0.85607462975E+02  0.30237180127E+03  0.79763689059E+02 0.  0.
         11    1    3    3    0    0  0.25400788024E+03  0.17279138776E+03 -0.82823446858E+03  0.88337376113E+03  0.00000000000E+00 0.  1.
        -11    1    3    3    0    0  0.18963620153E+02  0.29885270785E+02 -0.41746943424E+02  0.54731668935E+02  0.00000000000E+00 0. -1.
          4    1    6    6  502    0  0.10172952221E+03  0.52414204749E+02 -0.20577060544E+01  0.11445688578E+03  0.00000000000E+00 0. -1.
          3    1    5    5  503    0 -0.65835458665E+02 -0.56859184649E+02 -0.14426988768E+03  0.16846683646E+03  0.00000000000E+00 0. -1.
         -4    1    5    5    0  503 -0.47565200710E+03 -0.22089742287E+03 -0.63013815117E+03  0.81982595278E+03  0.00000000000E+00 0.  1.
         -3    1    6    6    0  502  0.16678644316E+03  0.22665744224E+02 -0.83549756920E+02  0.18791491550E+03  0.00000000000E+00 0.  1.
<mgrwt>
<rscale>  0 0.14051785E+04</rscale>
<asrwt>0</asrwt>
<pdfrwt beam="1">  1        2 0.30452053E+00 0.14051785E+04</pdfrwt>
<pdfrwt beam="2">  1       -2 0.38367162E-01 0.14051785E+04</pdfrwt>
<totfact> 0.42844688E+01</totfact>
</mgrwt>
</event>
<event>
12    1  0.1562393E-007  0.1506709E+04  0.7818608E-02  0.8880004E-01
          1   -1    0    0  501    0  0.00000000000E+00  0.00000000000E+00  0.78562907210E+03  0.78562907210E+03  0.00000000000E+00 0. -1.
         -1   -1    0    0    0  501 -0.00000000000E+00 -0.00000000000E+00 -0.72240569450E+03  0.72240569450E+03  0.00000000000E+00 0.  1.
         23    2    1    2    0    0  0.13117229222E+03 -0.77310132007E+02 -0.41345053492E+03  0.44976375648E+03  0.90349682128E+02 0.  0.
        254    2    1    2    0    0 -0.13117229222E+03  0.77310132007E+02  0.47667391252E+03  0.10582710101E+04  0.93248940221E+03 0.  0.
        -24    2    4    4    0    0  0.15888855008E+03  0.38478486850E+03  0.12517239994E+02  0.42531922570E+03  0.86225263550E+02 0.  0.
         24    2    4    4    0    0 -0.29006084230E+03 -0.30747473650E+03  0.46415667253E+03  0.63295178443E+03  0.80687910729E+02 0.  0.
         11    1    3    3    0    0  0.10627996337E+03 -0.66329813888E+02 -0.40049055685E+03  0.41962812221E+03  0.00000000000E+00 0.  1.
        -11    1    3    3    0    0  0.24892328845E+02 -0.10980318119E+02 -0.12959978075E+02  0.30135634273E+02  0.00000000000E+00 0. -1.
          2    1    6    6  502    0 -0.77172978757E+02 -0.11650174569E+03  0.19743463943E+03  0.24188584548E+03  0.00000000000E+00 0. -1.
          3    1    5    5  503    0 -0.87325736384E+01  0.80952452612E+01  0.50945710138E+01  0.12951659817E+02  0.00000000000E+00 0. -1.
         -4    1    5    5    0  503  0.16762112372E+03  0.37668962324E+03  0.74226689805E+01  0.41236756588E+03  0.00000000000E+00 0.  1.
         -1    1    6    6    0  502 -0.21288786354E+03 -0.19097299080E+03  0.26672203310E+03  0.39106593894E+03  0.00000000000E+00 0.  1.
<mgrwt>
<rscale>  0 0.15067089E+04</rscale>
<asrwt>0</asrwt>
<pdfrwt beam="1">  1        1 0.12086601E+00 0.15067089E+04</pdfrwt>
<pdfrwt beam="2">  1       -1 0.11113934E+00 0.15067089E+04</pdfrwt>
<totfact> 0.16394761E+01</totfact>
</mgrwt>
</event>
<event>
12    1  0.1562393E-007  0.3024316E+04  0.7818608E-02  0.8236821E-01
          2   -1    0    0  501    0  0.00000000000E+00  0.00000000000E+00  0.27444568617E+04  0.27444568617E+04  0.00000000000E+00 0. -1.
         -2   -1    0    0    0  501 -0.00000000000E+00 -0.00000000000E+00 -0.83317799952E+03  0.83317799952E+03  0.00000000000E+00 0.  1.
         23    2    1    2    0    0  0.64384434304E+03 -0.94657929052E+03 -0.31037784763E+02  0.11487197365E+04  0.89698370403E+02 0.  0.
        254    2    1    2    0    0 -0.64384434304E+03  0.94657929052E+03  0.19423166470E+04  0.24289151247E+04  0.90359661065E+03 0.  0.
        -24    2    4    4    0    0 -0.44077439736E+01 -0.15488962885E+03  0.15766437542E+03  0.23495848606E+03  0.79606592448E+02 0.  0.
         24    2    4    4    0    0 -0.63943659907E+03  0.11014689194E+04  0.17846522716E+04  0.21939566387E+04  0.79680973148E+02 0.  0.
         11    1    3    3    0    0  0.17965426467E+03 -0.33934066496E+03 -0.10554604799E+02  0.38410824177E+03  0.00000000000E+00 0. -1.
        -11    1    3    3    0    0  0.46419007838E+03 -0.60723862556E+03 -0.20483179965E+02  0.76461149474E+03  0.00000000000E+00 0.  1.
          4    1    6    6  502    0 -0.99761289217E+02  0.12023370257E+03  0.21389455481E+03  0.26487608166E+03  0.00000000000E+00 0. -1.
          1    1    5    5  503    0  0.26673604618E+02 -0.14733758577E+02  0.31676558597E+02  0.43954171471E+02  0.00000000000E+00 0. -1.
         -2    1    5    5    0  503 -0.31081348592E+02 -0.14015587028E+03  0.12598781682E+03  0.19100431459E+03  0.00000000000E+00 0.  1.
         -3    1    6    6    0  502 -0.53967530985E+03  0.98123521680E+03  0.15707577167E+04  0.19290805570E+04  0.00000000000E+00 0.  1.
<mgrwt>
<rscale>  0 0.30243155E+04</rscale>
<asrwt>0</asrwt>
<pdfrwt beam="1">  1        2 0.42222413E+00 0.30243155E+04</pdfrwt>
<pdfrwt beam="2">  1       -2 0.12818123E+00 0.30243155E+04</pdfrwt>
<totfact> 0.95998889E-01</totfact>
</mgrwt>
</event>
<event>
12    1  0.1562393E-007  0.1588233E+04  0.7818608E-02  0.8827810E-01
         -1   -1    0    0    0  501 -0.00000000000E+00  0.00000000000E+00  0.47939182299E+03  0.47939182299E+03  0.00000000000E+00 0.  1.
          1   -1    0    0  501    0  0.00000000000E+00 -0.00000000000E+00 -0.13154606536E+04  0.13154606536E+04  0.00000000000E+00 0. -1.
         23    2    1    2    0    0  0.52439754044E+03 -0.20147430173E+02 -0.23289504212E+03  0.58121571699E+03  0.90404146327E+02 0.  0.
        254    2    1    2    0    0 -0.52439754044E+03  0.20147430173E+02 -0.60317378849E+03  0.12136367596E+04  0.91307002239E+03 0.  0.
        -24    2    4    4    0    0 -0.15306545014E+03  0.26607815709E+03  0.13740030266E+03  0.34575439130E+03  0.80253587000E+02 0.  0.
         24    2    4    4    0    0 -0.37133209029E+03 -0.24593072692E+03 -0.74057409115E+03  0.86788236830E+03  0.80002356225E+02 0.  0.
         13    1    3    3    0    0  0.14457674539E+03 -0.92062302357E+00 -0.10958534367E+03  0.18141728253E+03  0.00000000000E+00 0. -1.
        -13    1    3    3    0    0  0.37982079504E+03 -0.19226807149E+02 -0.12330969845E+03  0.39979843445E+03  0.00000000000E+00 0.  1.
          2    1    6    6  502    0 -0.10539083068E+03 -0.91887593202E+02 -0.17298893675E+03  0.22243140338E+03  0.00000000000E+00 0. -1.
          1    1    5    5  503    0 -0.14355090040E+02  0.50346782205E+02 -0.46631806889E+01  0.52560558812E+02  0.00000000000E+00 0. -1.
         -2    1    5    5    0  503 -0.13871036010E+03  0.21573137488E+03  0.14206348335E+03  0.29319383249E+03  0.00000000000E+00 0.  1.
         -1    1    6    6    0  502 -0.26594125962E+03 -0.15404313371E+03 -0.56758515441E+03  0.64545096492E+03  0.00000000000E+00 0.  1.
<mgrwt>
<rscale>  0 0.15882331E+04</rscale>
<asrwt>0</asrwt>
<pdfrwt beam="1">  1        1 0.20237856E+00 0.15882331E+04</pdfrwt>
<pdfrwt beam="2">  1       -1 0.73752589E-01 0.15882331E+04</pdfrwt>
<totfact> 0.15683539E+01</totfact>
</mgrwt>
</event>
<event>
12    1  0.1562393E-007  0.1682731E+04  0.7818608E-02  0.8771275E-01
         -2   -1    0    0    0  501 -0.00000000000E+00  0.00000000000E+00  0.13424048043E+04  0.13424048043E+04  0.00000000000E+00 0.  1.
          2   -1    0    0  501    0  0.00000000000E+00 -0.00000000000E+00 -0.52733422456E+03  0.52733422456E+03  0.00000000000E+00 0. -1.
         23    2    1    2    0    0 -0.15153301425E+03  0.11356740951E+03  0.91980915622E+03  0.94237386210E+03  0.78484400937E+02 0.  0.
        254    2    1    2    0    0  0.15153301425E+03 -0.11356740951E+03 -0.10473857645E+03  0.92736516678E+03  0.90176281374E+03 0.  0.
        -24    2    4    4    0    0 -0.40567078867E+02 -0.39444095899E+03  0.20993181853E+03  0.45582239687E+03  0.80457013604E+02 0.  0.
         24    2    4    4    0    0  0.19210009312E+03  0.28087354947E+03 -0.31467039498E+03  0.47154276992E+03  0.86848890676E+02 0.  0.
         11    1    3    3    0    0  0.76665994556E+01  0.11674076897E+02  0.36799945872E+02  0.39361108150E+02  0.00000000000E+00 0. -1.
        -11    1    3    3    0    0 -0.15919961371E+03  0.10189333262E+03  0.88300921035E+03  0.90301275395E+03  0.00000000000E+00 0.  1.
          2    1    6    6  502    0  0.37907883287E+02  0.11053341302E+03 -0.71491471876E+02  0.13698785917E+03  0.00000000000E+00 0. -1.
          1    1    5    5  503    0  0.19091429705E+02 -0.15028957256E+03  0.58541593491E+02  0.16241476681E+03  0.00000000000E+00 0. -1.
         -2    1    5    5    0  503 -0.59658508572E+02 -0.24415138643E+03  0.15139022504E+03  0.29340763006E+03  0.00000000000E+00 0.  1.
         -3    1    6    6    0  502  0.15419220983E+03  0.17034013645E+03 -0.24317892311E+03  0.33455491074E+03  0.00000000000E+00 0.  1.
<mgrwt>
<rscale>  0 0.16827311E+04</rscale>
<asrwt>0</asrwt>
<pdfrwt beam="1">  1        2 0.81128343E-01 0.16827311E+04</pdfrwt>
<pdfrwt beam="2">  1       -2 0.20652382E+00 0.16827311E+04</pdfrwt>
<totfact> 0.66418926E+00</totfact>
</mgrwt>
</event>
<event>
12    1  0.1562393E-007  0.2623582E+04  0.7818608E-02  0.8360235E-01
          2   -1    0    0  501    0  0.00000000000E+00  0.00000000000E+00  0.23352695675E+04  0.23352695675E+04  0.00000000000E+00 0. -1.
         -2   -1    0    0    0  501 -0.00000000000E+00 -0.00000000000E+00 -0.73687262880E+03  0.73687262880E+03  0.00000000000E+00 0.  1.
         23    2    1    2    0    0  0.83746822255E+03 -0.24897185684E+03 -0.18195601103E+03  0.89711404196E+03  0.91463681599E+02 0.  0.
        254    2    1    2    0    0 -0.83746822255E+03  0.24897185684E+03  0.17803529497E+04  0.21750281543E+04  0.89316898586E+03 0.  0.
        -24    2    4    4    0    0  0.22784190044E+02 -0.22520366702E+03  0.53769074538E+03  0.58888351080E+03  0.80228677312E+02 0.  0.
         24    2    4    4    0    0 -0.86025241260E+03  0.47417552386E+03  0.12426622043E+04  0.15861446435E+04  0.82272931987E+02 0.  0.
         13    1    3    3    0    0  0.79546175644E+03 -0.21408588511E+03 -0.16740857647E+03  0.84060561718E+03  0.00000000000E+00 0.  1.
        -13    1    3    3    0    0  0.42006466115E+02 -0.34885971732E+02 -0.14547434558E+02  0.56508424782E+02  0.00000000000E+00 0. -1.
          4    1    6    6  502    0 -0.60175703195E+02  0.45656819284E+02  0.67491503791E+02  0.10129542678E+03  0.00000000000E+00 0. -1.
          3    1    5    5  503    0  0.12249859371E+01 -0.67549610549E+02  0.82215593966E+02  0.10641360048E+03  0.00000000000E+00 0. -1.
         -4    1    5    5    0  503  0.21559204107E+02 -0.15765405647E+03  0.45547515142E+03  0.48246991032E+03  0.00000000000E+00 0.  1.
         -3    1    6    6    0  502 -0.80007670940E+03  0.42851870458E+03  0.11751707005E+04  0.14848492167E+04  0.00000000000E+00 0.  1.
<mgrwt>
<rscale>  0 0.26235825E+04</rscale>
<asrwt>0</asrwt>
<pdfrwt beam="1">  1        2 0.35927224E+00 0.26235825E+04</pdfrwt>
<pdfrwt beam="2">  1       -2 0.11336502E+00 0.26235825E+04</pdfrwt>
<totfact> 0.23332790E+00</totfact>
</mgrwt>
</event>
<event>
12    1  0.1562393E-007  0.1833443E+04  0.7818608E-02  0.8688714E-01
          1   -1    0    0  501    0  0.00000000000E+00  0.00000000000E+00  0.21141863176E+04  0.21141863176E+04  0.00000000000E+00 0. -1.
         -1   -1    0    0    0  501 -0.00000000000E+00 -0.00000000000E+00 -0.39749498891E+03  0.39749498891E+03  0.00000000000E+00 0.  1.
         23    2    1    2    0    0 -0.33448489080E+03  0.15086403573E+03 -0.15722561937E+03  0.40745345619E+03  0.81598554707E+02 0.  0.
        254    2    1    2    0    0  0.33448489080E+03 -0.15086403573E+03  0.18739169481E+04  0.21042278503E+04  0.88406448766E+03 0.  0.
        -24    2    4    4    0    0  0.47052206751E+03 -0.25247170251E+03  0.18345019799E+04  0.19123422156E+04  0.80760503677E+02 0.  0.
         24    2    4    4    0    0 -0.13603717671E+03  0.10160766678E+03  0.39414968203E+02  0.19188563469E+03  0.80226714283E+02 0.  0.
         11    1    3    3    0    0 -0.28634048199E+03  0.11926619924E+03 -0.16149438314E+03  0.34970806924E+03  0.00000000000E+00 0.  1.
        -11    1    3    3    0    0 -0.48144408811E+02  0.31597836487E+02  0.42687637694E+01  0.57745386954E+02  0.00000000000E+00 0. -1.
          4    1    6    6  502    0 -0.71193133217E+02  0.50331551937E+02 -0.20772800655E+02  0.89628324679E+02  0.00000000000E+00 0. -1.
          3    1    5    5  503    0  0.31513230222E+03 -0.17190428506E+03  0.13603105140E+04  0.14068774451E+04  0.00000000000E+00 0. -1.
         -4    1    5    5    0  503  0.15538976529E+03 -0.80567417453E+02  0.47419146590E+03  0.50546477053E+03  0.00000000000E+00 0.  1.
         -3    1    6    6    0  502 -0.64844043497E+02  0.51276114845E+02  0.60187768857E+02  0.10225731001E+03  0.00000000000E+00 0.  1.
<mgrwt>
<rscale>  0 0.18334432E+04</rscale>
<asrwt>0</asrwt>
<pdfrwt beam="1">  1        1 0.32525943E+00 0.18334432E+04</pdfrwt>
<pdfrwt beam="2">  1       -1 0.61153076E-01 0.18334432E+04</pdfrwt>
<totfact> 0.63613900E+00</totfact>
</mgrwt>
</event>
<event>
12    1  0.1562393E-007  0.1693571E+04  0.7818608E-02  0.8765040E-01
         -2   -1    0    0    0  501 -0.00000000000E+00  0.00000000000E+00  0.30917235412E+03  0.30917235412E+03  0.00000000000E+00 0.  1.
          2   -1    0    0  501    0  0.00000000000E+00 -0.00000000000E+00 -0.23192418390E+04  0.23192418390E+04  0.00000000000E+00 0. -1.
         23    2    1    2    0    0 -0.27979308667E+02  0.69307967378E+02 -0.16373340126E+04  0.16414761835E+04  0.89414518448E+02 0.  0.
        254    2    1    2    0    0  0.27979308667E+02 -0.69307967378E+02 -0.37273547224E+03  0.98693800958E+03  0.91078453348E+03 0.  0.
        -24    2    4    4    0    0 -0.26005305745E+03  0.19757032220E+03 -0.46817974015E+03  0.57639667673E+03  0.79870113044E+02 0.  0.
         24    2    4    4    0    0  0.28803236612E+03 -0.26687828958E+03  0.95444267906E+02  0.41054133285E+03  0.72442475934E+02 0.  0.
         11    1    3    3    0    0  0.11805210917E+01  0.69181672528E+02 -0.14694824254E+04  0.14711104975E+04  0.00000000000E+00 0. -1.
        -11    1    3    3    0    0 -0.29159829759E+02  0.12629484924E+00 -0.16785158723E+03  0.17036568598E+03  0.00000000000E+00 0.  1.
          4    1    6    6  502    0  0.20264639583E+03 -0.22815734208E+03  0.80552870857E+02  0.31561067708E+03  0.00000000000E+00 0. -1.
          3    1    5    5  503    0 -0.59756963648E+02  0.10013560081E+02 -0.66804278310E+02  0.90188567404E+02  0.00000000000E+00 0. -1.
         -4    1    5    5    0  503 -0.20029609380E+03  0.18755676212E+03 -0.40137546184E+03  0.48620810933E+03  0.00000000000E+00 0.  1.
         -3    1    6    6    0  502  0.85385970291E+02 -0.38720947506E+02  0.14891397049E+02  0.94930655767E+02  0.00000000000E+00 0.  1.
<mgrwt>
<rscale>  0 0.16935707E+04</rscale>
<asrwt>0</asrwt>
<pdfrwt beam="1">  1        2 0.35680642E+00 0.16935707E+04</pdfrwt>
<pdfrwt beam="2">  1       -2 0.47564979E-01 0.16935707E+04</pdfrwt>
<totfact> 0.17645120E+01</totfact>
</mgrwt>
</event>
<event>
12    1  0.1562393E-007  0.3091131E+04  0.7818608E-02  0.8218176E-01
          1   -1    0    0  501    0  0.00000000000E+00  0.00000000000E+00  0.17328555455E+04  0.17328555455E+04  0.00000000000E+00 0. -1.
         -1   -1    0    0    0  501 -0.00000000000E+00 -0.00000000000E+00 -0.13785183954E+04  0.13785183954E+04  0.00000000000E+00 0.  1.
         23    2    1    2    0    0 -0.16871509566E+03 -0.65746164291E+03 -0.10861686306E+04  0.12840324275E+04  0.90864653908E+02 0.  0.
        254    2    1    2    0    0  0.16871509566E+03  0.65746164291E+03  0.14405057807E+04  0.18273415135E+04  0.89632555881E+03 0.  0.
        -24    2    4    4    0    0  0.33912259515E+03  0.45102450531E+03  0.28284732455E+03  0.63632929266E+03  0.80530247482E+02 0.  0.
         24    2    4    4    0    0 -0.17040749949E+03  0.20643713760E+03  0.11576584561E+04  0.11910122208E+04  0.81743510335E+02 0.  0.
         13    1    3    3    0    0 -0.17576581825E+03 -0.64550889644E+03 -0.10471312921E+04  0.12426018273E+04  0.00000000000E+00 0.  1.
        -13    1    3    3    0    0  0.70507225921E+01 -0.11952746470E+02 -0.39037338424E+02  0.41430600146E+02  0.00000000000E+00 0. -1.
          2    1    6    6  502    0 -0.12741681804E+03  0.16265831886E+03  0.10133581740E+04  0.10342086651E+04  0.00000000000E+00 0. -1.
          3    1    5    5  503    0  0.20079306623E+03  0.22894367592E+03  0.11517523504E+03  0.32557395006E+03  0.00000000000E+00 0. -1.
         -4    1    5    5    0  503  0.13832952892E+03  0.22208082938E+03  0.16767208952E+03  0.31075534260E+03  0.00000000000E+00 0.  1.
         -1    1    6    6    0  502 -0.42990681451E+02  0.43778818739E+02  0.14430028214E+03  0.15680355573E+03  0.00000000000E+00 0.  1.
<mgrwt>
<rscale>  0 0.30911313E+04</rscale>
<asrwt>0</asrwt>
<pdfrwt beam="1">  1        1 0.26659316E+00 0.30911313E+04</pdfrwt>
<pdfrwt beam="2">  1       -1 0.21207975E+00 0.30911313E+04</pdfrwt>
<totfact> 0.47569839E-01</totfact>
</mgrwt>
</event>
<event>
12    1  0.2556895E-007  0.2399820E+04  0.7818608E-02  0.8439571E-01
          2   -1    0    0  501    0  0.00000000000E+00  0.00000000000E+00  0.22714056858E+04  0.22714056858E+04  0.00000000000E+00 0. -1.
         -2   -1    0    0    0  501 -0.00000000000E+00 -0.00000000000E+00 -0.63387336238E+03  0.63387336238E+03  0.00000000000E+00 0.  1.
         23    2    1    2    0    0  0.58242934732E+03  0.59078666677E+03 -0.26180017286E+02  0.83504721217E+03  0.91463779677E+02 0.  0.
        254    2    1    2    0    0 -0.58242934732E+03 -0.59078666677E+03  0.16637123407E+04  0.20702318360E+04  0.91086128031E+03 0.  0.
        -24    2    4    4    0    0  0.16028936807E+03  0.10645995904E+03  0.32761595141E+03  0.38819885722E+03  0.79622463722E+02 0.  0.
         24    2    4    4    0    0 -0.74271871539E+03 -0.69724662581E+03  0.13360963893E+04  0.16820329788E+04  0.79356366442E+02 0.  0.
         11    1    3    3    0    0  0.80991601897E+02  0.95569091374E+02  0.27484039923E+02  0.12825156239E+03  0.00000000000E+00 0. -1.
        -11    1    3    3    0    0  0.50143774542E+03  0.49521757540E+03 -0.53664057209E+02  0.70679564979E+03  0.00000000000E+00 0.  1.
          2    1    6    6  502    0 -0.82222257278E+02 -0.11097790885E+03  0.16270126088E+03  0.21342046794E+03  0.00000000000E+00 0. -1.
          1    1    5    5  503    0 -0.28956606962E+01  0.25437967821E+02  0.49317838108E+02  0.55567294458E+02  0.00000000000E+00 0. -1.
         -2    1    5    5    0  503  0.16318502876E+03  0.81021991217E+02  0.27829811331E+03  0.33263156276E+03  0.00000000000E+00 0.  1.
         -1    1    6    6    0  502 -0.66049645811E+03 -0.58626871696E+03  0.11733951284E+04  0.14686125109E+04  0.00000000000E+00 0.  1.
<mgrwt>
<rscale>  0 0.23998196E+04</rscale>
<asrwt>0</asrwt>
<pdfrwt beam="1">  1        2 0.34944703E+00 0.23998196E+04</pdfrwt>
<pdfrwt beam="2">  1       -2 0.97518980E-01 0.23998196E+04</pdfrwt>
<totfact> 0.37087156E+00</totfact>
</mgrwt>
</event>
<event>
12    1  0.1562393E-007  0.1790448E+04  0.7818608E-02  0.8711395E-01
         -2   -1    0    0    0  501 -0.00000000000E+00  0.00000000000E+00  0.11151399504E+04  0.11151399504E+04  0.00000000000E+00 0.  1.
          2   -1    0    0  501    0  0.00000000000E+00 -0.00000000000E+00 -0.71867781742E+03  0.71867781742E+03  0.00000000000E+00 0. -1.
         23    2    1    2    0    0  0.27410479163E+03 -0.55779950812E+03  0.29845593340E+03  0.69561452352E+03  0.92357420367E+02 0.  0.
        254    2    1    2    0    0 -0.27410479163E+03  0.55779950812E+03  0.98006199604E+02  0.11382032443E+04  0.94848704903E+03 0.  0.
        -24    2    4    4    0    0 -0.27199764748E+03  0.12976022548E+03 -0.38082710532E+03  0.49111418262E+03  0.73098699578E+02 0.  0.
         24    2    4    4    0    0 -0.21071441516E+01  0.42803928265E+03  0.47883330492E+03  0.64708906170E+03  0.78872380000E+02 0.  0.
         13    1    3    3    0    0  0.28144504705E+03 -0.53711844449E+03  0.28805450510E+03  0.67132923058E+03  0.00000000000E+00 0. -1.
        -13    1    3    3    0    0 -0.73402554221E+01 -0.20681063636E+02  0.10401428302E+02  0.24285292947E+02  0.00000000000E+00 0.  1.
          2    1    6    6  502    0 -0.26359951554E+02  0.75419542454E+02  0.66084888010E+02  0.10368301140E+03  0.00000000000E+00 0. -1.
          3    1    5    5  503    0 -0.45438969023E+02  0.17631322656E+02 -0.25402108281E+02  0.54962082836E+02  0.00000000000E+00 0. -1.
         -4    1    5    5    0  503 -0.22655867846E+03  0.11212890282E+03 -0.35542499704E+03  0.43615209979E+03  0.00000000000E+00 0.  1.
         -1    1    6    6    0  502  0.24252807402E+02  0.35261974019E+03  0.41274841691E+03  0.54340605030E+03  0.00000000000E+00 0.  1.
<mgrwt>
<rscale>  0 0.17904484E+04</rscale>
<asrwt>0</asrwt>
<pdfrwt beam="1">  1        2 0.11056582E+00 0.17904484E+04</pdfrwt>
<pdfrwt beam="2">  1       -2 0.17155999E+00 0.17904484E+04</pdfrwt>
<totfact> 0.77722033E+00</totfact>
</mgrwt>
</event>
<event>
12    1  0.1562393E-007  0.1672489E+04  0.7818608E-02  0.8777213E-01
         -2   -1    0    0    0  501 -0.00000000000E+00  0.00000000000E+00  0.21654192843E+03  0.21654192843E+03  0.00000000000E+00 0.  1.
          2   -1    0    0  501    0  0.00000000000E+00 -0.00000000000E+00 -0.32294182345E+04  0.32294182345E+04  0.00000000000E+00 0. -1.
         23    2    1    2    0    0 -0.33990938586E+03  0.15819919236E+03 -0.20006846508E+04  0.20375790394E+04  0.91781778315E+02 0.  0.
        254    2    1    2    0    0  0.33990938586E+03 -0.15819919236E+03 -0.10121916553E+04  0.14083811236E+04  0.90467677492E+03 0.  0.
        -24    2    4    4    0    0  0.33272073930E+03 -0.30574944634E+03 -0.11193132977E+04  0.12096140522E+04  0.78218172369E+02 0.  0.
         24    2    4    4    0    0  0.71886465545E+01  0.14755025398E+03  0.10712164239E+03  0.19876707139E+03  0.78807032132E+02 0.  0.
         13    1    3    3    0    0 -0.31128073683E+03  0.15590715703E+03 -0.19322414902E+04  0.19633542511E+04  0.00000000000E+00 0. -1.
        -13    1    3    3    0    0 -0.28628649030E+02  0.22920353254E+01 -0.68443160593E+02  0.74224788334E+02  0.00000000000E+00 0.  1.
          4    1    6    6  502    0 -0.33114684510E+02  0.42202609885E+02  0.44866303964E+02  0.69933023977E+02  0.00000000000E+00 0. -1.
          3    1    5    5  503    0  0.23308281892E+03 -0.16796602324E+03 -0.65913136090E+03  0.71902318208E+03  0.00000000000E+00 0. -1.
         -2    1    5    5    0  503  0.99637920382E+02 -0.13778342310E+03 -0.46018193681E+03  0.49059087010E+03  0.00000000000E+00 0.  1.
         -3    1    6    6    0  502  0.40303331064E+02  0.10534764409E+03  0.62255338431E+02  0.12883404742E+03  0.00000000000E+00 0.  1.
<mgrwt>
<rscale>  0 0.16724885E+04</rscale>
<asrwt>0</asrwt>
<pdfrwt beam="1">  1        2 0.49683358E+00 0.16724885E+04</pdfrwt>
<pdfrwt beam="2">  1       -2 0.33314143E-01 0.16724885E+04</pdfrwt>
<totfact> 0.10030151E+01</totfact>
</mgrwt>
</event>
<event>
12    1  0.1562393E-007  0.1499204E+04  0.7818608E-02  0.8884982E-01
          3   -1    0    0  501    0  0.00000000000E+00  0.00000000000E+00  0.51964075749E+03  0.51964075749E+03  0.00000000000E+00 0. -1.
         -3   -1    0    0    0  501 -0.00000000000E+00 -0.00000000000E+00 -0.10813300085E+04  0.10813300085E+04  0.00000000000E+00 0.  1.
         23    2    1    2    0    0 -0.60678186293E+02 -0.12675525751E+03  0.29827960650E+03  0.34230431615E+03  0.91939021116E+02 0.  0.
        254    2    1    2    0    0  0.60678186293E+02  0.12675525751E+03 -0.85996885754E+03  0.12586664499E+04  0.90826541193E+03 0.  0.
        -24    2    4    4    0    0  0.30127437671E+03  0.27413785930E+03 -0.78207255737E+02  0.42368095992E+03  0.86437057896E+02 0.  0.
         24    2    4    4    0    0 -0.24059619042E+03 -0.14738260180E+03 -0.78176160181E+03  0.83498548996E+03  0.80258384158E+02 0.  0.
         11    1    3    3    0    0 -0.44691071702E+02 -0.79449168929E+02  0.26987937432E+03  0.28485845436E+03  0.00000000000E+00 0. -1.
        -11    1    3    3    0    0 -0.15987114591E+02 -0.47306088577E+02  0.28400232175E+02  0.57445861791E+02  0.00000000000E+00 0.  1.
          2    1    6    6  502    0 -0.20485098325E+02  0.84072721946E+01 -0.85659713667E+02  0.88475465665E+02  0.00000000000E+00 0. -1.
          1    1    5    5  503    0  0.88962978154E+02  0.34808166864E+02 -0.30065930828E+02  0.10014978861E+03  0.00000000000E+00 0. -1.
         -2    1    5    5    0  503  0.21231139856E+03  0.23932969244E+03 -0.48141324909E+02  0.32353117130E+03  0.00000000000E+00 0.  1.
         -1    1    6    6    0  502 -0.22011109210E+03 -0.15578987399E+03 -0.69610188814E+03  0.74651002430E+03  0.00000000000E+00 0.  1.
<mgrwt>
<rscale>  0 0.14992040E+04</rscale>
<asrwt>0</asrwt>
<pdfrwt beam="1">  1        3 0.79944732E-01 0.14992040E+04</pdfrwt>
<pdfrwt beam="2">  1       -3 0.16635846E+00 0.14992040E+04</pdfrwt>
<totfact> 0.90444744E-01</totfact>
</mgrwt>
</event>
<event>
12    1  0.1562393E-007  0.1203887E+04  0.7818608E-02  0.9109461E-01
          1   -1    0    0  501    0  0.00000000000E+00  0.00000000000E+00  0.51530384111E+03  0.51530384111E+03  0.00000000000E+00 0. -1.
         -1   -1    0    0    0  501 -0.00000000000E+00 -0.00000000000E+00 -0.70315051379E+03  0.70315051379E+03  0.00000000000E+00 0.  1.
         23    2    1    2    0    0 -0.28216674760E+02 -0.72818003238E+02  0.20406392630E+03  0.23646965523E+03  0.90427703138E+02 0.  0.
        254    2    1    2    0    0  0.28216674760E+02  0.72818003238E+02 -0.39191059898E+03  0.98198469967E+03  0.89699575834E+03 0.  0.
        -24    2    4    4    0    0 -0.33354629127E+03 -0.19639715641E+03 -0.33898172642E+03  0.52081053417E+03  0.80684758120E+02 0.  0.
         24    2    4    4    0    0  0.36176296603E+03  0.26921515965E+03 -0.52928872562E+02  0.46117416550E+03  0.80813981482E+02 0.  0.
         13    1    3    3    0    0  0.89248671631E+01 -0.80141516525E+02  0.15242872827E+03  0.17244371002E+03  0.00000000000E+00 0. -1.
        -13    1    3    3    0    0 -0.37141541923E+02  0.73235132869E+01  0.51635198037E+02  0.64025945207E+02  0.00000000000E+00 0.  1.
          4    1    6    6  502    0  0.20236380408E+03  0.14348748632E+03 -0.69096702774E+02  0.25751528550E+03  0.00000000000E+00 0. -1.
          1    1    5    5  503    0 -0.63500188272E+02 -0.50669545517E+02 -0.33667503709E+02  0.87938487362E+02  0.00000000000E+00 0. -1.
         -2    1    5    5    0  503 -0.27004610300E+03 -0.14572761089E+03 -0.30531422271E+03  0.43287204681E+03  0.00000000000E+00 0.  1.
         -3    1    6    6    0  502  0.15939916195E+03  0.12572767332E+03  0.16167830212E+02  0.20365888000E+03  0.00000000000E+00 0.  1.
<mgrwt>
<rscale>  0 0.12038873E+04</rscale>
<asrwt>0</asrwt>
<pdfrwt beam="1">  1        1 0.79277514E-01 0.12038873E+04</pdfrwt>
<pdfrwt beam="2">  1       -1 0.10817700E+00 0.12038873E+04</pdfrwt>
<totfact> 0.33406512E+01</totfact>
</mgrwt>
</event>
<event>
12    1  0.1562393E-007  0.1808603E+04  0.7818608E-02  0.8701738E-01
          2   -1    0    0  501    0  0.00000000000E+00  0.00000000000E+00  0.61920026850E+03  0.61920026850E+03  0.00000000000E+00 0. -1.
         -2   -1    0    0    0  501 -0.00000000000E+00 -0.00000000000E+00 -0.13206734799E+04  0.13206734799E+04  0.00000000000E+00 0.  1.
         23    2    1    2    0    0  0.16455220069E+03  0.40113258179E+02 -0.96422535185E+03  0.98307854492E+03  0.89590156217E+02 0.  0.
        254    2    1    2    0    0 -0.16455220069E+03 -0.40113258179E+02  0.26275214046E+03  0.95679520347E+03  0.90428528344E+03 0.  0.
        -24    2    4    4    0    0 -0.35211777410E+03 -0.34860690175E+03  0.30074222297E+03  0.58500985747E+03  0.79227204126E+02 0.  0.
         24    2    4    4    0    0  0.18756557341E+03  0.30849364357E+03 -0.37990082519E+02  0.37178534600E+03  0.80199281046E+02 0.  0.
         11    1    3    3    0    0  0.12392581640E+02  0.15567901006E+02 -0.32213827077E+03  0.32275222867E+03  0.00000000000E+00 0.  1.
        -11    1    3    3    0    0  0.15215961905E+03  0.24545357173E+02 -0.64208708109E+03  0.66032631625E+03  0.00000000000E+00 0. -1.
          2    1    6    6  502    0  0.14268513338E+03  0.21402205368E+03 -0.61744479159E+02  0.26453141110E+03  0.00000000000E+00 0. -1.
          1    1    5    5  503    0 -0.32992640231E+03 -0.29223999634E+03  0.27240844942E+03  0.51813319689E+03  0.00000000000E+00 0. -1.
         -2    1    5    5    0  503 -0.22191371798E+02 -0.56366905403E+02  0.28333773556E+02  0.66876660584E+02  0.00000000000E+00 0.  1.
         -1    1    6    6    0  502  0.44880440036E+02  0.94471589883E+02  0.23754396640E+02  0.10725393490E+03  0.00000000000E+00 0.  1.
<mgrwt>
<rscale>  0 0.18086032E+04</rscale>
<asrwt>0</asrwt>
<pdfrwt beam="1">  1        2 0.95261582E-01 0.18086032E+04</pdfrwt>
<pdfrwt beam="2">  1       -2 0.20318053E+00 0.18086032E+04</pdfrwt>
<totfact> 0.57040047E+00</totfact>
</mgrwt>
</event>
<event>
12    1  0.1562393E-007  0.1252687E+04  0.7818608E-02  0.9067950E-01
          2   -1    0    0  501    0  0.00000000000E+00  0.00000000000E+00  0.17069569357E+04  0.17069569357E+04  0.00000000000E+00 0.  1.
         -2   -1    0    0    0  501 -0.00000000000E+00 -0.00000000000E+00 -0.22982794799E+03  0.22982794799E+03  0.00000000000E+00 0. -1.
         23    2    1    2    0    0 -0.15393876782E+03  0.15228097906E+02  0.75047039215E+03  0.77158724348E+03  0.90620227316E+02 0.  0.
        254    2    1    2    0    0  0.15393876782E+03 -0.15228097906E+02  0.72665859561E+03  0.11651976403E+04  0.89762118240E+03 0.  0.
        -24    2    4    4    0    0  0.15583800120E+03  0.32293391090E+03  0.84980866088E+01  0.36751557694E+03  0.80147915711E+02 0.  0.
         24    2    4    4    0    0 -0.18992333847E+01 -0.33816200880E+03  0.71816050900E+03  0.79768206332E+03  0.78644810187E+02 0.  0.
         11    1    3    3    0    0 -0.77807411765E+02  0.14088231192E+02  0.18749973119E+03  0.20349108280E+03  0.00000000000E+00 0. -1.
        -11    1    3    3    0    0 -0.76131356050E+02  0.11398667146E+01  0.56297066096E+03  0.56809616068E+03  0.00000000000E+00 0.  1.
          2    1    6    6  502    0  0.28484237614E+01 -0.20373509711E+03  0.34080279619E+03  0.39706756252E+03  0.00000000000E+00 0. -1.
          3    1    5    5  503    0  0.12368834080E+03  0.25902709473E+03  0.39124668253E+02  0.28969739578E+03  0.00000000000E+00 0. -1.
         -4    1    5    5    0  503  0.32149660397E+02  0.63906816170E+02 -0.30626581644E+02  0.77818181165E+02  0.00000000000E+00 0.  1.
         -1    1    6    6    0  502 -0.47476571460E+01 -0.13442691169E+03  0.37735771281E+03  0.40061450080E+03  0.00000000000E+00 0.  1.
<mgrwt>
<rscale>  0 0.12526874E+04</rscale>
<asrwt>0</asrwt>
<pdfrwt beam="1">  1        2 0.26260875E+00 0.12526874E+04</pdfrwt>
<pdfrwt beam="2">  1       -2 0.35358147E-01 0.12526874E+04</pdfrwt>
<totfact> 0.71793785E+01</totfact>
</mgrwt>
</event>
<event>
12    1  0.1562393E-007  0.1395296E+04  0.7818608E-02  0.8957230E-01
          2   -1    0    0  501    0  0.00000000000E+00  0.00000000000E+00  0.31986794254E+04  0.31986794254E+04  0.00000000000E+00 0.  1.
         -2   -1    0    0    0  501 -0.00000000000E+00 -0.00000000000E+00 -0.15216062002E+03  0.15216062002E+03  0.00000000000E+00 0. -1.
         23    2    1    2    0    0  0.11114238305E+02 -0.33657597151E+03  0.35713556171E+03  0.49601656117E+03  0.71272074644E+02 0.  0.
        254    2    1    2    0    0 -0.11114238305E+02  0.33657597151E+03  0.26893832437E+04  0.28548234843E+04  0.89656454534E+03 0.  0.
        -24    2    4    4    0    0  0.26325989912E+03  0.26003626254E+03  0.24333121484E+04  0.24626122438E+04  0.80786255937E+02 0.  0.
         24    2    4    4    0    0 -0.27437413742E+03  0.76539708972E+02  0.25607109528E+03  0.39221124051E+03  0.84366800400E+02 0.  0.
         11    1    3    3    0    0 -0.24928176332E+02 -0.98020156431E+02  0.83026516921E+02  0.13085399327E+03  0.00000000000E+00 0. -1.
        -11    1    3    3    0    0  0.36042414636E+02 -0.23855581508E+03  0.27410904479E+03  0.36516256790E+03  0.00000000000E+00 0.  1.
          4    1    6    6  502    0 -0.27489910897E+03  0.85603585540E+02  0.24657777385E+03  0.37907531248E+03  0.00000000000E+00 0. -1.
          3    1    5    5  503    0  0.18826584519E+03  0.22476102792E+03  0.20091020657E+04  0.20303823922E+04  0.00000000000E+00 0. -1.
         -4    1    5    5    0  503  0.74994053927E+02  0.35275234619E+02  0.42421008270E+03  0.43222985154E+03  0.00000000000E+00 0.  1.
         -3    1    6    6    0  502  0.52497155198E+00 -0.90638765681E+01  0.94933214278E+01  0.13135928034E+02  0.00000000000E+00 0.  1.
<mgrwt>
<rscale>  0 0.13952964E+04</rscale>
<asrwt>0</asrwt>
<pdfrwt beam="1">  1        2 0.49210448E+00 0.13952964E+04</pdfrwt>
<pdfrwt beam="2">  1       -2 0.23409328E-01 0.13952964E+04</pdfrwt>
<totfact> 0.20688445E+01</totfact>
</mgrwt>
</event>
<event>
12    1  0.1562393E-007  0.3109377E+04  0.7818608E-02  0.8213169E-01
          2   -1    0    0  501    0  0.00000000000E+00  0.00000000000E+00  0.21861380527E+04  0.21861380527E+04  0.00000000000E+00 0. -1.
         -2   -1    0    0    0  501 -0.00000000000E+00 -0.00000000000E+00 -0.11056286853E+04  0.11056286853E+04  0.00000000000E+00 0.  1.
         23    2    1    2    0    0  0.23625677042E+03 -0.55651447067E+03 -0.86848586912E+03  0.10626117860E+04  0.96697906650E+02 0.  0.
        254    2    1    2    0    0 -0.23625677042E+03  0.55651447067E+03  0.19489952365E+04  0.22291549520E+04  0.89723115786E+03 0.  0.
        -24    2    4    4    0    0  0.15935334040E+03  0.52873421887E+03  0.16017469360E+04  0.16961470444E+04  0.79800926989E+02 0.  0.
         24    2    4    4    0    0 -0.39561011082E+03  0.27780251804E+02  0.34724830053E+03  0.53300790766E+03  0.78974332746E+02 0.  0.
         13    1    3    3    0    0  0.42418329848E+02 -0.83665803074E+02 -0.81527161047E+02  0.12428177380E+03  0.00000000000E+00 0. -1.
        -13    1    3    3    0    0  0.19383844057E+03 -0.47284866760E+03 -0.78695870807E+03  0.93833001215E+03  0.00000000000E+00 0.  1.
          2    1    6    6  502    0 -0.22889601291E+03  0.22314670421E+02  0.14949206413E+03  0.27429766036E+03  0.00000000000E+00 0. -1.
          1    1    5    5  503    0  0.12039318113E+03  0.43861729614E+03  0.13948986598E+04  0.14671816253E+04  0.00000000000E+00 0. -1.
         -2    1    5    5    0  503  0.38960159277E+02  0.90116922727E+02  0.20684827618E+03  0.22896541908E+03  0.00000000000E+00 0.  1.
         -3    1    6    6    0  502 -0.16671409791E+03  0.54655813832E+01  0.19775623640E+03  0.25871024730E+03  0.00000000000E+00 0.  1.
<mgrwt>
<rscale>  0 0.31093774E+04</rscale>
<asrwt>0</asrwt>
<pdfrwt beam="1">  1        2 0.33632893E+00 0.31093774E+04</pdfrwt>
<pdfrwt beam="2">  1       -2 0.17009672E+00 0.31093774E+04</pdfrwt>
<totfact> 0.94910818E-01</totfact>
</mgrwt>
</event>
<event>
12    1  0.1562393E-007  0.1296414E+04  0.7818608E-02  0.9032414E-01
          1   -1    0    0  501    0  0.00000000000E+00  0.00000000000E+00  0.17194869302E+04  0.17194869302E+04  0.00000000000E+00 0. -1.
         -1   -1    0    0    0  501 -0.00000000000E+00 -0.00000000000E+00 -0.24435903701E+03  0.24435903701E+03  0.00000000000E+00 0.  1.
         23    2    1    2    0    0 -0.33570532804E+02  0.31197880977E+03  0.26438081897E+03  0.41999491900E+03  0.89670263333E+02 0.  0.
        254    2    1    2    0    0  0.33570532804E+02 -0.31197880977E+03  0.12107470742E+04  0.15438510482E+04  0.90504686230E+03 0.  0.
        -24    2    4    4    0    0 -0.29728287191E+03 -0.19366131488E+03  0.10123835499E+03  0.37721363252E+03  0.78479992486E+02 0.  0.
         24    2    4    4    0    0  0.33085340472E+03 -0.11831749489E+03  0.11095087192E+04  0.11666374157E+04  0.81057119901E+02 0.  0.
         13    1    3    3    0    0 -0.44527265212E+01  0.28553266374E+03  0.21856511776E+03  0.35961012157E+03  0.00000000000E+00 0. -1.
        -13    1    3    3    0    0 -0.29117806283E+02  0.26446146028E+02  0.45815701214E+02  0.60384797426E+02  0.00000000000E+00 0.  1.
          4    1    6    6  502    0  0.28139486969E+03 -0.12959410329E+03  0.96127925520E+03  0.10099680741E+04  0.00000000000E+00 0. -1.
          1    1    5    5  503    0 -0.17592296129E+03 -0.14123795663E+03  0.31633948786E+02  0.22781078863E+03  0.00000000000E+00 0. -1.
         -2    1    5    5    0  503 -0.12135991063E+03 -0.52423358248E+02  0.69604406209E+02  0.14940284389E+03  0.00000000000E+00 0.  1.
         -3    1    6    6    0  502  0.49458535033E+02  0.11276608398E+02  0.14822946404E+03  0.15666934159E+03  0.00000000000E+00 0.  1.
<mgrwt>
<rscale>  0 0.12964138E+04</rscale>
<asrwt>0</asrwt>
<pdfrwt beam="1">  1        1 0.26453644E+00 0.12964138E+04</pdfrwt>
<pdfrwt beam="2">  1       -1 0.37593699E-01 0.12964138E+04</pdfrwt>
<totfact> 0.30991356E+01</totfact>
</mgrwt>
</event>
<event>
12    1  0.1562393E-007  0.1075313E+04  0.7818608E-02  0.9229593E-01
          2   -1    0    0  501    0  0.00000000000E+00  0.00000000000E+00  0.55970759960E+03  0.55970759960E+03  0.00000000000E+00 0. -1.
         -2   -1    0    0    0  501 -0.00000000000E+00 -0.00000000000E+00 -0.51647443827E+03  0.51647443827E+03  0.00000000000E+00 0.  1.
         23    2    1    2    0    0  0.63948411200E+02  0.89463634313E+02 -0.79571943467E+02  0.16318063583E+03  0.90570881430E+02 0.  0.
        254    2    1    2    0    0 -0.63948411200E+02 -0.89463634313E+02  0.12280510480E+03  0.91300140204E+03  0.89799628352E+03 0.  0.
        -24    2    4    4    0    0  0.16081583487E+03  0.34189392521E+03  0.16047379310E+03  0.41831376268E+03  0.80506999330E+02 0.  0.
         24    2    4    4    0    0 -0.22476424607E+03 -0.43135755952E+03 -0.37668688292E+02  0.49468763936E+03  0.81906165775E+02 0.  0.
         13    1    3    3    0    0  0.34850955557E+02  0.74823610573E+02 -0.96077032477E+02  0.12666474637E+03  0.00000000000E+00 0.  1.
        -13    1    3    3    0    0  0.29097455644E+02  0.14640023740E+02  0.16505089010E+02  0.36515889463E+02  0.00000000000E+00 0. -1.
          4    1    6    6  502    0 -0.12862976316E+03 -0.28312776119E+03  0.11854997853E+02  0.31120328742E+03  0.00000000000E+00 0. -1.
          1    1    5    5  503    0  0.10814150604E+03  0.28216289015E+03  0.99919636069E+02  0.31826783623E+03  0.00000000000E+00 0. -1.
         -2    1    5    5    0  503  0.52674328825E+02  0.59731035055E+02  0.60554157027E+02  0.10004592645E+03  0.00000000000E+00 0.  1.
         -3    1    6    6    0  502 -0.96134482914E+02 -0.14822979833E+03 -0.49523686145E+02  0.18348435194E+03  0.00000000000E+00 0.  1.
<mgrwt>
<rscale>  0 0.10753133E+04</rscale>
<asrwt>0</asrwt>
<pdfrwt beam="1">  1        2 0.86108861E-01 0.10753133E+04</pdfrwt>
<pdfrwt beam="2">  1       -2 0.79457606E-01 0.10753133E+04</pdfrwt>
<totfact> 0.75297296E+01</totfact>
</mgrwt>
</event>
<event>
12    1  0.1562393E-007  0.1037255E+04  0.7818608E-02  0.9268602E-01
          1   -1    0    0  501    0  0.00000000000E+00  0.00000000000E+00  0.47059272092E+03  0.47059272092E+03  0.00000000000E+00 0. -1.
         -1   -1    0    0    0  501 -0.00000000000E+00 -0.00000000000E+00 -0.57156582330E+03  0.57156582330E+03  0.00000000000E+00 0.  1.
         23    2    1    2    0    0 -0.87445765741E+02 -0.30343488724E+02 -0.83968348436E+02  0.15407395592E+03  0.90114433360E+02 0.  0.
        254    2    1    2    0    0  0.87445765741E+02  0.30343488724E+02 -0.17004753941E+02  0.88808458829E+03  0.88308413249E+03 0.  0.
        -24    2    4    4    0    0  0.39444310213E+02  0.12569245757E+03  0.41144171540E+03  0.43958675235E+03  0.81226720823E+02 0.  0.
         24    2    4    4    0    0  0.48001455528E+02 -0.95348968841E+02 -0.42844646934E+03  0.44849783594E+03  0.78666169123E+02 0.  0.
         13    1    3    3    0    0 -0.93625529399E+02  0.32843006514E+01 -0.51415440389E+02  0.10686474581E+03  0.00000000000E+00 0. -1.
        -13    1    3    3    0    0  0.61797636585E+01 -0.33627789376E+02 -0.32552908046E+02  0.47209210112E+02  0.00000000000E+00 0.  1.
          4    1    6    6  502    0  0.27062056542E+02 -0.10097712303E+03 -0.39529784457E+03  0.40888766208E+03  0.00000000000E+00 0. -1.
          3    1    5    5  503    0  0.63836920187E+02  0.74946148448E+02  0.26440304431E+03  0.28213657577E+03  0.00000000000E+00 0. -1.
         -4    1    5    5    0  503 -0.24392609974E+02  0.50746309118E+02  0.14703867109E+03  0.15745017658E+03  0.00000000000E+00 0.  1.
         -3    1    6    6    0  502  0.20939398986E+02  0.56281541852E+01 -0.33148624769E+02  0.39610173864E+02  0.00000000000E+00 0.  1.
<mgrwt>
<rscale>  0 0.10372554E+04</rscale>
<asrwt>0</asrwt>
<pdfrwt beam="1">  1        1 0.72398880E-01 0.10372554E+04</pdfrwt>
<pdfrwt beam="2">  1       -1 0.87933203E-01 0.10372554E+04</pdfrwt>
<totfact> 0.61312607E+01</totfact>
</mgrwt>
</event>
<event>
12    1  0.1562393E-007  0.1602830E+04  0.7818608E-02  0.8818811E-01
          2   -1    0    0  501    0  0.00000000000E+00  0.00000000000E+00  0.12180190977E+04  0.12180190977E+04  0.00000000000E+00 0. -1.
         -2   -1    0    0    0  501 -0.00000000000E+00 -0.00000000000E+00 -0.52730401635E+03  0.52730401635E+03  0.00000000000E+00 0.  1.
         23    2    1    2    0    0  0.90488303097E+02  0.69123178603E+02  0.84874718788E+03  0.86125360903E+03  0.91759704204E+02 0.  0.
        254    2    1    2    0    0 -0.90488303097E+02 -0.69123178603E+02 -0.15803210653E+03  0.88406950502E+03  0.86234482441E+03 0.  0.
        -24    2    4    4    0    0  0.16620038868E+03  0.25400190683E+02 -0.44328119955E+03  0.48080340138E+03  0.80037178994E+02 0.  0.
         24    2    4    4    0    0 -0.25668869178E+03 -0.94523369287E+02  0.28524909301E+03  0.40326610364E+03  0.80204447811E+02 0.  0.
         11    1    3    3    0    0  0.91531759384E+02  0.17719730186E+02  0.60516550083E+03  0.61230493646E+03  0.00000000000E+00 0. -1.
        -11    1    3    3    0    0 -0.10434562867E+01  0.51403448417E+02  0.24358168705E+03  0.24894867258E+03  0.00000000000E+00 0.  1.
          2    1    6    6  502    0 -0.18491715316E+03 -0.36550273011E+02  0.15720695765E+03  0.24544715016E+03  0.00000000000E+00 0. -1.
          3    1    5    5  503    0  0.92535429348E+02 -0.88558340270E+00 -0.33288411164E+03  0.34550748433E+03  0.00000000000E+00 0. -1.
         -4    1    5    5    0  503  0.73664959336E+02  0.26285774086E+02 -0.11039708791E+03  0.13529591705E+03  0.00000000000E+00 0.  1.
         -1    1    6    6    0  502 -0.71771538626E+02 -0.57973096275E+02  0.12804213536E+03  0.15781895347E+03  0.00000000000E+00 0.  1.
<mgrwt>
<rscale>  0 0.16028304E+04</rscale>
<asrwt>0</asrwt>
<pdfrwt beam="1">  1        2 0.18738755E+00 0.16028304E+04</pdfrwt>
<pdfrwt beam="2">  1       -2 0.81123695E-01 0.16028304E+04</pdfrwt>
<totfact> 0.23731912E+01</totfact>
</mgrwt>
</event>
<event>
12    1  0.1562393E-007  0.2759438E+04  0.7818608E-02  0.8315973E-01
          4   -1    0    0  501    0  0.00000000000E+00  0.00000000000E+00  0.22299546138E+04  0.22299546138E+04  0.00000000000E+00 0. -1.
         -4   -1    0    0    0  501 -0.00000000000E+00 -0.00000000000E+00 -0.85366057468E+03  0.85366057468E+03  0.00000000000E+00 0.  1.
         23    2    1    2    0    0  0.37468579277E+03  0.86123230273E+03 -0.27617706317E+03  0.98335913412E+03  0.92794902171E+02 0.  0.
        254    2    1    2    0    0 -0.37468579277E+03 -0.86123230273E+03  0.16524711023E+04  0.21002560544E+04  0.89347872242E+03 0.  0.
        -24    2    4    4    0    0 -0.33805610133E+03  0.44961070760E+02  0.25741625775E+03  0.43442510213E+03  0.78476837831E+02 0.  0.
         24    2    4    4    0    0 -0.36629691445E+02 -0.90619337349E+03  0.13950548446E+04  0.16658309522E+04  0.79287941690E+02 0.  0.
         13    1    3    3    0    0  0.21896414395E+02  0.10190721636E+03 -0.96298522577E+01  0.10467696865E+03  0.00000000000E+00 0. -1.
        -13    1    3    3    0    0  0.35278937838E+03  0.75932508637E+03 -0.26654721091E+03  0.87868216548E+03  0.00000000000E+00 0.  1.
          4    1    6    6  502    0  0.14073480809E+02 -0.39184821718E+03  0.55550401310E+03  0.67994690729E+03  0.00000000000E+00 0. -1.
          1    1    5    5  503    0 -0.13821979646E+03 -0.20258654828E+02  0.10596986230E+03  0.17534177182E+03  0.00000000000E+00 0. -1.
         -2    1    5    5    0  503 -0.19983630487E+03  0.65219725588E+02  0.15144639545E+03  0.25908333031E+03  0.00000000000E+00 0.  1.
         -3    1    6    6    0  502 -0.50703172254E+02 -0.51434515631E+03  0.83955083146E+03  0.98588404496E+03  0.00000000000E+00 0.  1.
<mgrwt>
<rscale>  0 0.27594379E+04</rscale>
<asrwt>0</asrwt>
<pdfrwt beam="1">  1        4 0.34306994E+00 0.27594379E+04</pdfrwt>
<pdfrwt beam="2">  1       -4 0.13133240E+00 0.27594379E+04</pdfrwt>
<totfact> 0.12046084E-02</totfact>
</mgrwt>
</event>
<event>
12    1  0.1562393E-007  0.1541823E+04  0.7818608E-02  0.8857108E-01
         -2   -1    0    0    0  501 -0.00000000000E+00  0.00000000000E+00  0.15482123943E+04  0.15482123943E+04  0.00000000000E+00 0.  1.
          2   -1    0    0  501    0  0.00000000000E+00 -0.00000000000E+00 -0.38386478965E+03  0.38386478965E+03  0.00000000000E+00 0. -1.
         23    2    1    2    0    0 -0.40106532169E+03 -0.25355929667E+03  0.15293319728E+03  0.50152865452E+03  0.54742298874E+02 0.  0.
        254    2    1    2    0    0  0.40106532169E+03  0.25355929667E+03  0.10114144073E+04  0.14305485294E+04  0.89351232918E+03 0.  0.
        -24    2    4    4    0    0  0.38696231901E+03  0.29004827044E+03  0.81235474739E+02  0.49596190268E+03  0.74237261713E+02 0.  0.
         24    2    4    4    0    0  0.14103002680E+02 -0.36488973775E+02  0.93017893258E+03  0.93458662671E+03  0.81786162131E+02 0.  0.
         11    1    3    3    0    0 -0.21900034512E+03 -0.14039833534E+03  0.55190805477E+02  0.26593019524E+03  0.00000000000E+00 0. -1.
        -11    1    3    3    0    0 -0.18206497657E+03 -0.11316096133E+03  0.97742391802E+02  0.23559845929E+03  0.00000000000E+00 0.  1.
          4    1    6    6  502    0  0.17837862796E+02 -0.54160723027E+02  0.86709232835E+03  0.86896529226E+03  0.00000000000E+00 0. -1.
          1    1    5    5  503    0  0.36402935302E+03  0.24560300117E+03  0.76204731292E+02  0.44569649439E+03  0.00000000000E+00 0. -1.
         -2    1    5    5    0  503  0.22932965993E+02  0.44445269276E+02  0.50307434465E+01  0.50265408283E+02  0.00000000000E+00 0.  1.
         -3    1    6    6    0  502 -0.37348601160E+01  0.17671749252E+02  0.63086604230E+02  0.65621334449E+02  0.00000000000E+00 0.  1.
<mgrwt>
<rscale>  0 0.15418226E+04</rscale>
<asrwt>0</asrwt>
<pdfrwt beam="1">  1        2 0.59056122E-01 0.15418226E+04</pdfrwt>
<pdfrwt beam="2">  1       -2 0.23818652E+00 0.15418226E+04</pdfrwt>
<totfact> 0.60988700E+00</totfact>
</mgrwt>
</event>
<event>
12    1  0.1562393E-007  0.1885584E+04  0.7818608E-02  0.8662066E-01
         -2   -1    0    0    0  501 -0.00000000000E+00  0.00000000000E+00  0.14173244328E+04  0.14173244328E+04  0.00000000000E+00 0.  1.
          2   -1    0    0  501    0  0.00000000000E+00 -0.00000000000E+00 -0.62713692736E+03  0.62713692736E+03  0.00000000000E+00 0. -1.
         23    2    1    2    0    0 -0.70904421049E+03 -0.40920929148E+02  0.16457611544E+03  0.73477136542E+03  0.91572085245E+02 0.  0.
        254    2    1    2    0    0  0.70904421049E+03  0.40920929148E+02  0.62561138998E+03  0.13096899947E+04  0.90525137732E+03 0.  0.
        -24    2    4    4    0    0  0.63966272290E+03  0.75124280018E+02 -0.26310918551E+02  0.64951366682E+03  0.79772692356E+02 0.  0.
         24    2    4    4    0    0  0.69381487591E+02 -0.34203350869E+02  0.65192230853E+03  0.66017632790E+03  0.69616287837E+02 0.  0.
         11    1    3    3    0    0 -0.12901152349E+03 -0.26702023291E+02  0.61846001080E+02  0.14554002574E+03  0.00000000000E+00 0. -1.
        -11    1    3    3    0    0 -0.58003268700E+03 -0.14218905857E+02  0.10273011436E+03  0.58923133968E+03  0.00000000000E+00 0.  1.
          4    1    6    6  502    0  0.18761387558E+02 -0.18390323474E+02  0.55532996992E+02  0.61433764458E+02  0.00000000000E+00 0. -1.
          1    1    5    5  503    0  0.13374596682E+03  0.27699240481E+02 -0.36137498222E+02  0.14128393519E+03  0.00000000000E+00 0. -1.
         -2    1    5    5    0  503  0.50591675607E+03  0.47425039536E+02  0.98265796712E+01  0.50822973164E+03  0.00000000000E+00 0.  1.
         -3    1    6    6    0  502  0.50620100033E+02 -0.15813027395E+02  0.59638931153E+03  0.59874256344E+03  0.00000000000E+00 0.  1.
<mgrwt>
<rscale>  0 0.18855837E+04</rscale>
<asrwt>0</asrwt>
<pdfrwt beam="1">  1        2 0.96482605E-01 0.18855837E+04</pdfrwt>
<pdfrwt beam="2">  1       -2 0.21804991E+00 0.18855837E+04</pdfrwt>
<totfact> 0.44779195E+00</totfact>
</mgrwt>
</event>
<event>
12    1  0.1562393E-007  0.1059552E+04  0.7818608E-02  0.9245538E-01
         -2   -1    0    0    0  501 -0.00000000000E+00  0.00000000000E+00  0.53005976085E+03  0.53005976085E+03  0.00000000000E+00 0. -1.
          2   -1    0    0  501    0  0.00000000000E+00 -0.00000000000E+00 -0.52949221428E+03  0.52949221428E+03  0.00000000000E+00 0.  1.
         23    2    1    2    0    0 -0.22046472355E+02 -0.41556717576E+02 -0.11525061000E+03  0.15270157459E+03  0.88442410973E+02 0.  0.
        254    2    1    2    0    0  0.22046472355E+02  0.41556717576E+02  0.11581815657E+03  0.90685040054E+03  0.89819307270E+03 0.  0.
        -24    2    4    4    0    0 -0.96621462437E+02 -0.18788058472E+03  0.43400744988E+03  0.48921341251E+03  0.79576851596E+02 0.  0.
         24    2    4    4    0    0  0.11866793479E+03  0.22943730230E+03 -0.31818929331E+03  0.41763698803E+03  0.80328531431E+02 0.  0.
         13    1    3    3    0    0 -0.89508456565E+01 -0.40026484132E+02 -0.46045609634E+01  0.41272739812E+02  0.00000000000E+00 0. -1.
        -13    1    3    3    0    0 -0.13095626698E+02 -0.15302334438E+01 -0.11064604904E+03  0.11142883478E+03  0.00000000000E+00 0.  1.
          2    1    6    6  502    0  0.84133122860E+02  0.17219800543E+03 -0.28382248497E+03  0.34247005476E+03  0.00000000000E+00 0. -1.
          1    1    5    5  503    0 -0.27473911655E+02 -0.11770345355E+03  0.29529896351E+03  0.31907741482E+03  0.00000000000E+00 0. -1.
         -2    1    5    5    0  503 -0.69147550781E+02 -0.70177131171E+02  0.13870848637E+03  0.17013599769E+03  0.00000000000E+00 0.  1.
         -1    1    6    6    0  502  0.34534811931E+02  0.57239296874E+02 -0.34366808340E+02  0.75166933270E+02  0.00000000000E+00 0.  1.
<mgrwt>
<rscale>  0 0.10595518E+04</rscale>
<asrwt>0</asrwt>
<pdfrwt beam="1">  1        2 0.81460341E-01 0.10595518E+04</pdfrwt>
<pdfrwt beam="2">  1       -2 0.81547655E-01 0.10595518E+04</pdfrwt>
<totfact> 0.75910362E+01</totfact>
</mgrwt>
</event>
<event>
12    1  0.1562393E-007  0.1814334E+04  0.7818608E-02  0.8698714E-01
          2   -1    0    0  501    0  0.00000000000E+00  0.00000000000E+00  0.18478460251E+04  0.18478460251E+04  0.00000000000E+00 0.  1.
         -2   -1    0    0    0  501 -0.00000000000E+00 -0.00000000000E+00 -0.44535720964E+03  0.44535720964E+03  0.00000000000E+00 0. -1.
         23    2    1    2    0    0  0.23813604201E+03 -0.18808865214E+03  0.11717916616E+04  0.12139365574E+04  0.91979082807E+02 0.  0.
        254    2    1    2    0    0 -0.23813604201E+03  0.18808865214E+03  0.23069715393E+03  0.10792666774E+04  0.10097075163E+04 0.  0.
        -24    2    4    4    0    0  0.35468734827E+03  0.15849377550E+03 -0.79348669285E+02  0.40470236552E+03  0.81020993842E+02 0.  0.
         24    2    4    4    0    0 -0.59282339028E+03  0.29594876641E+02  0.31004582322E+03  0.67456431187E+03  0.81198334760E+02 0.  0.
         13    1    3    3    0    0  0.88940688711E+02 -0.71735241837E+02  0.62439993501E+03  0.63476898938E+03  0.00000000000E+00 0. -1.
        -13    1    3    3    0    0  0.14919535330E+03 -0.11635341031E+03  0.54739172655E+03  0.57916756801E+03  0.00000000000E+00 0.  1.
          4    1    6    6  502    0 -0.56466328782E+03  0.14207095870E+02  0.27930217933E+03  0.63012393826E+03  0.00000000000E+00 0. -1.
          3    1    5    5  503    0  0.32289760381E+03  0.12294990245E+03 -0.87266343812E+02  0.35636351640E+03  0.00000000000E+00 0. -1.
         -4    1    5    5    0  503  0.31789744467E+02  0.35543873050E+02  0.79176745270E+01  0.48338849123E+02  0.00000000000E+00 0.  1.
         -3    1    6    6    0  502 -0.28160102461E+02  0.15387780771E+02  0.30743643883E+02  0.44440373613E+02  0.00000000000E+00 0.  1.
<mgrwt>
<rscale>  0 0.18143335E+04</rscale>
<asrwt>0</asrwt>
<pdfrwt beam="1">  1        2 0.28428400E+00 0.18143335E+04</pdfrwt>
<pdfrwt beam="2">  1       -2 0.68516495E-01 0.18143335E+04</pdfrwt>
<totfact> 0.14907653E+01</totfact>
</mgrwt>
</event>
<event>
12    1  0.1562393E-007  0.1978189E+04  0.7818608E-02  0.8616886E-01
         -1   -1    0    0    0  501 -0.00000000000E+00  0.00000000000E+00  0.48856123382E+03  0.48856123382E+03  0.00000000000E+00 0.  1.
          1   -1    0    0  501    0  0.00000000000E+00 -0.00000000000E+00 -0.20024264228E+04  0.20024264228E+04  0.00000000000E+00 0. -1.
         23    2    1    2    0    0  0.47396660993E+03 -0.60790716984E+02 -0.13461623348E+04  0.14313405537E+04  0.90790365463E+02 0.  0.
        254    2    1    2    0    0 -0.47396660993E+03  0.60790716984E+02 -0.16770285417E+03  0.10596471029E+04  0.93079959002E+03 0.  0.
        -24    2    4    4    0    0 -0.42761126907E+03 -0.38007650510E+03 -0.19304215764E+03  0.60900335835E+03  0.79437199631E+02 0.  0.
         24    2    4    4    0    0 -0.46355340859E+02  0.44086722209E+03  0.25339303470E+02  0.45064374455E+03  0.76973885595E+02 0.  0.
         13    1    3    3    0    0  0.23317041964E+03 -0.71784046977E+02 -0.73099847570E+03  0.77063620826E+03  0.00000000000E+00 0. -1.
        -13    1    3    3    0    0  0.24079619029E+03  0.10993329993E+02 -0.61516385909E+03  0.66070434545E+03  0.00000000000E+00 0.  1.
          4    1    6    6  502    0 -0.62646190980E+02  0.30026149734E+03 -0.66896143892E+00  0.30672782648E+03  0.00000000000E+00 0. -1.
          3    1    5    5  503    0 -0.13011525369E+03 -0.16495710434E+03 -0.59714104314E+02  0.21841840529E+03  0.00000000000E+00 0. -1.
         -4    1    5    5    0  503 -0.29749601538E+03 -0.21511940076E+03 -0.13332805333E+03  0.39058495306E+03  0.00000000000E+00 0.  1.
         -3    1    6    6    0  502  0.16290850121E+02  0.14060572475E+03  0.26008264908E+02  0.14391591807E+03  0.00000000000E+00 0.  1.
<mgrwt>
<rscale>  0 0.19781890E+04</rscale>
<asrwt>0</asrwt>
<pdfrwt beam="1">  1        1 0.30806561E+00 0.19781890E+04</pdfrwt>
<pdfrwt beam="2">  1       -1 0.75163265E-01 0.19781890E+04</pdfrwt>
<totfact> 0.49102924E+00</totfact>
</mgrwt>
</event>
<event>
12    1  0.1562393E-007  0.1526388E+04  0.7818608E-02  0.8867092E-01
          2   -1    0    0  501    0  0.00000000000E+00  0.00000000000E+00  0.28035879539E+04  0.28035879539E+04  0.00000000000E+00 0. -1.
         -2   -1    0    0    0  501 -0.00000000000E+00 -0.00000000000E+00 -0.20775706723E+03  0.20775706723E+03  0.00000000000E+00 0.  1.
         23    2    1    2    0    0  0.76941293828E+02 -0.35891137184E+03  0.20174859005E+03  0.42849639404E+03  0.90384349202E+02 0.  0.
        254    2    1    2    0    0 -0.76941293828E+02  0.35891137184E+03  0.23940822966E+04  0.25828486271E+04  0.89707282422E+03 0.  0.
        -24    2    4    4    0    0 -0.12714167882E+03 -0.26264352014E+03  0.11482596236E+04  0.11873514434E+04  0.78464397754E+02 0.  0.
         24    2    4    4    0    0  0.50200384994E+02  0.62155489199E+03  0.12458226730E+04  0.13954971837E+04  0.80546227529E+02 0.  0.
         13    1    3    3    0    0 -0.10175948760E+02 -0.12719756197E+03  0.44093982868E+02  0.13500758879E+03  0.00000000000E+00 0.  1.
        -13    1    3    3    0    0  0.87117242588E+02 -0.23171380987E+03  0.15765460718E+03  0.29348880525E+03  0.00000000000E+00 0. -1.
          2    1    6    6  502    0  0.86033576307E+01  0.85702279912E+02  0.11732890330E+03  0.14555057573E+03  0.00000000000E+00 0. -1.
          3    1    5    5  503    0 -0.69207381238E+02 -0.92785642800E+02  0.57956003276E+03  0.59100648787E+03  0.00000000000E+00 0. -1.
         -4    1    5    5    0  503 -0.57934297585E+02 -0.16985787734E+03  0.56869959082E+03  0.59634495548E+03  0.00000000000E+00 0.  1.
         -1    1    6    6    0  502  0.41597027364E+02  0.53585261207E+03  0.11284937697E+04  0.12499466080E+04  0.00000000000E+00 0.  1.
<mgrwt>
<rscale>  0 0.15263882E+04</rscale>
<asrwt>0</asrwt>
<pdfrwt beam="1">  1        2 0.43132120E+00 0.15263882E+04</pdfrwt>
<pdfrwt beam="2">  1       -2 0.31962628E-01 0.15263882E+04</pdfrwt>
<totfact> 0.20299700E+01</totfact>
</mgrwt>
</event>
<event>
12    1  0.1562393E-007  0.1308251E+04  0.7818608E-02  0.9023047E-01
         -2   -1    0    0    0  501 -0.00000000000E+00  0.00000000000E+00  0.57951772816E+03  0.57951772816E+03  0.00000000000E+00 0.  1.
          2   -1    0    0  501    0  0.00000000000E+00 -0.00000000000E+00 -0.73833863766E+03  0.73833863766E+03  0.00000000000E+00 0. -1.
         23    2    1    2    0    0  0.18035018173E+03 -0.18648963040E+03  0.17868034335E+03  0.32766779308E+03  0.90193942280E+02 0.  0.
        254    2    1    2    0    0 -0.18035018173E+03  0.18648963040E+03 -0.33750125285E+03  0.99018857274E+03  0.89401439788E+03 0.  0.
        -24    2    4    4    0    0 -0.12381621737E+03  0.48301143491E+03 -0.43256305175E+03  0.66502449076E+03  0.80723463940E+02 0.  0.
         24    2    4    4    0    0 -0.56533964357E+02 -0.29652180451E+03  0.95061798898E+02  0.32516408198E+03  0.74656981774E+02 0.  0.
         11    1    3    3    0    0 -0.10194519591E+02 -0.15561091971E+02  0.14180851715E+02  0.23391715807E+02  0.00000000000E+00 0. -1.
        -11    1    3    3    0    0  0.19054470132E+03 -0.17092853843E+03  0.16449949164E+03  0.30427607727E+03  0.00000000000E+00 0.  1.
          2    1    6    6  502    0  0.40100478600E+01 -0.91260467250E+02  0.88148771292E+00  0.91352779854E+02  0.00000000000E+00 0. -1.
          1    1    5    5  503    0 -0.48982912138E+02  0.25275477507E+03 -0.27191891735E+03  0.37446521817E+03  0.00000000000E+00 0. -1.
         -2    1    5    5    0  503 -0.74833305237E+02  0.23025665984E+03 -0.16064413440E+03  0.29055927259E+03  0.00000000000E+00 0.  1.
         -1    1    6    6    0  502 -0.60544012217E+02 -0.20526133726E+03  0.94180311185E+02  0.23381130213E+03  0.00000000000E+00 0.  1.
<mgrwt>
<rscale>  0 0.13082512E+04</rscale>
<asrwt>0</asrwt>
<pdfrwt beam="1">  1        2 0.11359056E+00 0.13082512E+04</pdfrwt>
<pdfrwt beam="2">  1       -2 0.89156574E-01 0.13082512E+04</pdfrwt>
<totfact> 0.40504721E+01</totfact>
</mgrwt>
</event>
<event>
12    1  0.1562393E-007  0.1541672E+04  0.7818608E-02  0.8857205E-01
         -1   -1    0    0    0  501 -0.00000000000E+00  0.00000000000E+00  0.19612489651E+03  0.19612489651E+03  0.00000000000E+00 0.  1.
          1   -1    0    0  501    0  0.00000000000E+00 -0.00000000000E+00 -0.30296421412E+04  0.30296421412E+04  0.00000000000E+00 0. -1.
         23    2    1    2    0    0 -0.19281126639E+02 -0.27158711843E+03 -0.18350209470E+04  0.18573128925E+04  0.90432183091E+02 0.  0.
        254    2    1    2    0    0  0.19281126639E+02  0.27158711843E+03 -0.99849629767E+03  0.13684541453E+04  0.89528797962E+03 0.  0.
        -24    2    4    4    0    0 -0.11138228990E+03 -0.29978027474E+03 -0.24439039923E+03  0.41005009159E+03  0.78359318205E+02 0.  0.
         24    2    4    4    0    0  0.13066341654E+03  0.57136739317E+03 -0.75410589844E+03  0.95840405366E+03  0.79554997437E+02 0.  0.
         13    1    3    3    0    0  0.20346052707E+02 -0.11386961078E+02 -0.17756454275E+03  0.17908878129E+03  0.00000000000E+00 0.  1.
        -13    1    3    3    0    0 -0.39627179346E+02 -0.26020015735E+03 -0.16574564043E+04  0.16782241112E+04  0.00000000000E+00 0. -1.
          4    1    6    6  502    0  0.16303396096E+02  0.24354430444E+03 -0.29893062388E+03  0.38592634899E+03  0.00000000000E+00 0. -1.
          3    1    5    5  503    0 -0.11367284385E+03 -0.21026445793E+03 -0.16569861713E+03  0.29084134750E+03  0.00000000000E+00 0. -1.
         -4    1    5    5    0  503  0.22905539513E+01 -0.89515816811E+02 -0.78691782105E+02  0.11920874409E+03  0.00000000000E+00 0.  1.
         -3    1    6    6    0  502  0.11436002045E+03  0.32782308873E+03 -0.45517527456E+03  0.57247770468E+03  0.00000000000E+00 0.  1.
<mgrwt>
<rscale>  0 0.15416721E+04</rscale>
<asrwt>0</asrwt>
<pdfrwt beam="1">  1        1 0.46609873E+00 0.15416721E+04</pdfrwt>
<pdfrwt beam="2">  1       -1 0.30173065E-01 0.15416721E+04</pdfrwt>
<totfact> 0.55703535E+00</totfact>
</mgrwt>
</event>
<event>
12    1  0.1562393E-007  0.1256509E+04  0.7818608E-02  0.9064783E-01
          1   -1    0    0  501    0  0.00000000000E+00  0.00000000000E+00  0.14637943256E+04  0.14637943256E+04  0.00000000000E+00 0. -1.
         -1   -1    0    0    0  501 -0.00000000000E+00 -0.00000000000E+00 -0.26964424101E+03  0.26964424101E+03  0.00000000000E+00 0.  1.
         23    2    1    2    0    0 -0.98684202389E+02 -0.33379114876E+03  0.64035588384E+03  0.73516654368E+03  0.96224145536E+02 0.  0.
        254    2    1    2    0    0  0.98684202389E+02  0.33379114876E+03  0.55379420071E+03  0.99827202289E+03  0.75412459989E+03 0.  0.
        -24    2    4    4    0    0  0.20320588502E+02  0.41391036146E+03  0.68694035614E+03  0.80628502974E+03  0.80459820022E+02 0.  0.
         24    2    4    4    0    0  0.78363613887E+02 -0.80119212705E+02 -0.13314615543E+03  0.19198699316E+03  0.81062707878E+02 0.  0.
         11    1    3    3    0    0 -0.11251987265E+03 -0.28446189368E+03  0.50485072846E+03  0.59029954152E+03  0.00000000000E+00 0.  1.
        -11    1    3    3    0    0  0.13835670261E+02 -0.49329255073E+02  0.13550515538E+03  0.14486700215E+03  0.00000000000E+00 0. -1.
          2    1    6    6  502    0  0.53305618046E+02 -0.93392319209E+02 -0.11868765797E+03  0.16015734250E+03  0.00000000000E+00 0. -1.
          1    1    5    5  503    0  0.71552334844E+00  0.36588944840E+03  0.55756092469E+03  0.66689563289E+03  0.00000000000E+00 0. -1.
         -2    1    5    5    0  503  0.19605065153E+02  0.48020913063E+02  0.12937943145E+03  0.13938939685E+03  0.00000000000E+00 0.  1.
         -1    1    6    6    0  502  0.25057995841E+02  0.13273106504E+02 -0.14458497459E+02  0.31829650652E+02  0.00000000000E+00 0.  1.
<mgrwt>
<rscale>  0 0.12565090E+04</rscale>
<asrwt>0</asrwt>
<pdfrwt beam="1">  1        1 0.22519912E+00 0.12565090E+04</pdfrwt>
<pdfrwt beam="2">  1       -1 0.41483730E-01 0.12565090E+04</pdfrwt>
<totfact> 0.38913452E+01</totfact>
</mgrwt>
</event>
<event>
12    1  0.2264032E-007  0.1269713E+04  0.7818608E-02  0.9053934E-01
          3   -1    0    0  501    0  0.00000000000E+00  0.00000000000E+00  0.53783789533E+03  0.53783789533E+03  0.00000000000E+00 0. -1.
         -3   -1    0    0    0  501 -0.00000000000E+00 -0.00000000000E+00 -0.74937633672E+03  0.74937633672E+03  0.00000000000E+00 0.  1.
         23    2    1    2    0    0  0.11225371865E+02  0.91726834133E+02  0.23768368755E+03  0.27107325364E+03  0.91909479583E+02 0.  0.
        254    2    1    2    0    0 -0.11225371865E+02 -0.91726834133E+02 -0.44922212893E+03  0.10161409784E+04  0.90675363016E+03 0.  0.
        -24    2    4    4    0    0 -0.15053660018E+03 -0.25393357884E+03  0.17443254049E+03  0.35212323118E+03  0.80128199136E+02 0.  0.
         24    2    4    4    0    0  0.13931122831E+03  0.16220674471E+03 -0.62365466943E+03  0.66401774723E+03  0.79093461038E+02 0.  0.
         13    1    3    3    0    0  0.23196509170E+02  0.66767411974E+02  0.23237501266E+03  0.24288703516E+03  0.00000000000E+00 0. -1.
        -13    1    3    3    0    0 -0.11971137305E+02  0.24959422160E+02  0.53086748853E+01  0.28186218476E+02  0.00000000000E+00 0.  1.
          4    1    6    6  502    0  0.14174675103E+03  0.14426818151E+03 -0.60547646180E+03  0.63836290260E+03  0.00000000000E+00 0. -1.
          1    1    5    5  503    0 -0.15621913992E+03 -0.25159904482E+03  0.17748396405E+03  0.34526374922E+03  0.00000000000E+00 0. -1.
         -2    1    5    5    0  503  0.56825397431E+01 -0.23345340220E+01 -0.30514235544E+01  0.68594819586E+01  0.00000000000E+00 0.  1.
         -3    1    6    6    0  502 -0.24355227172E+01  0.17938563200E+02 -0.18178207630E+02  0.25654844634E+02  0.00000000000E+00 0.  1.
<mgrwt>
<rscale>  0 0.12697133E+04</rscale>
<asrwt>0</asrwt>
<pdfrwt beam="1">  1        3 0.82744292E-01 0.12697133E+04</pdfrwt>
<pdfrwt beam="2">  1       -3 0.11528867E+00 0.12697133E+04</pdfrwt>
<totfact> 0.21642524E+00</totfact>
</mgrwt>
</event>
<event>
12    1  0.1562393E-007  0.1748548E+04  0.7818608E-02  0.8734150E-01
         -2   -1    0    0    0  501 -0.00000000000E+00  0.00000000000E+00  0.57636489227E+03  0.57636489227E+03  0.00000000000E+00 0.  1.
          2   -1    0    0  501    0  0.00000000000E+00 -0.00000000000E+00 -0.13261656846E+04  0.13261656846E+04  0.00000000000E+00 0. -1.
         23    2    1    2    0    0 -0.58466068085E+03  0.52476350860E+02 -0.18514056194E+02  0.59458685684E+03  0.92784055310E+02 0.  0.
        254    2    1    2    0    0  0.58466068085E+03 -0.52476350860E+02 -0.73128673616E+03  0.13079437200E+04  0.91178649102E+03 0.  0.
        -24    2    4    4    0    0  0.22921074366E+02 -0.17242275327E+03  0.15615861792E+03  0.24772127806E+03  0.82008146905E+02 0.  0.
         24    2    4    4    0    0  0.56173960649E+03  0.11994640241E+03 -0.88744535408E+03  0.10602224420E+04  0.81079251795E+02 0.  0.
         13    1    3    3    0    0 -0.43248005067E+02  0.12667233498E+02  0.22106367013E+02  0.50195021758E+02  0.00000000000E+00 0. -1.
        -13    1    3    3    0    0 -0.54141267578E+03  0.39809117363E+02 -0.40620423208E+02  0.54439183508E+03  0.00000000000E+00 0.  1.
          2    1    6    6  502    0  0.50648029350E+03  0.12239957030E+03 -0.76194634070E+03  0.92307430287E+03  0.00000000000E+00 0. -1.
          3    1    5    5  503    0 -0.18749954923E+02 -0.95903421470E+02  0.48114638935E+02  0.10892219948E+03  0.00000000000E+00 0. -1.
         -4    1    5    5    0  503  0.41671029290E+02 -0.76519331803E+02  0.10804397898E+03  0.13879907858E+03  0.00000000000E+00 0.  1.
         -1    1    6    6    0  502  0.55259312989E+02 -0.24531678873E+01 -0.12549901338E+03  0.13714813912E+03  0.00000000000E+00 0.  1.
<mgrwt>
<rscale>  0 0.17485484E+04</rscale>
<asrwt>0</asrwt>
<pdfrwt beam="1">  1        2 0.20402549E+00 0.17485484E+04</pdfrwt>
<pdfrwt beam="2">  1       -2 0.88671522E-01 0.17485484E+04</pdfrwt>
<totfact> 0.16549421E+01</totfact>
</mgrwt>
</event>
<event>
12    1  0.1562393E-007  0.1582592E+04  0.7818608E-02  0.8831314E-01
         -1   -1    0    0    0  501 -0.00000000000E+00  0.00000000000E+00  0.35430097002E+03  0.35430097002E+03  0.00000000000E+00 0.  1.
          1   -1    0    0  501    0  0.00000000000E+00 -0.00000000000E+00 -0.17672809654E+04  0.17672809654E+04  0.00000000000E+00 0. -1.
         23    2    1    2    0    0  0.17074911397E+02  0.20027246976E+03  0.17536875512E+03  0.28199847363E+03  0.91478544563E+02 0.  0.
        254    2    1    2    0    0 -0.17074911397E+02 -0.20027246976E+03 -0.15883487505E+04  0.18395834618E+04  0.90598838014E+03 0.  0.
        -24    2    4    4    0    0  0.32529113126E+03 -0.39724910246E+03 -0.80735749831E+03  0.96086083307E+03  0.88352934177E+02 0.  0.
         24    2    4    4    0    0 -0.34236604266E+03  0.19697663270E+03 -0.78099125220E+03  0.87872262873E+03  0.78688126325E+02 0.  0.
         11    1    3    3    0    0 -0.51559775410E+01  0.82748199344E+02  0.18874615199E+02  0.85029992932E+02  0.00000000000E+00 0. -1.
        -11    1    3    3    0    0  0.22230888938E+02  0.11752427042E+03  0.15649413992E+03  0.19696848070E+03  0.00000000000E+00 0.  1.
          2    1    6    6  502    0 -0.22430819405E+02  0.41185149020E+02 -0.90515982310E+02  0.10194361781E+03  0.00000000000E+00 0. -1.
          3    1    5    5  503    0  0.13013072695E+03 -0.16834913613E+03 -0.41598762045E+03  0.46724847576E+03  0.00000000000E+00 0. -1.
         -4    1    5    5    0  503  0.19516040432E+03 -0.22889996633E+03 -0.39136987786E+03  0.49361235731E+03  0.00000000000E+00 0.  1.
         -1    1    6    6    0  502 -0.31993522325E+03  0.15579148368E+03 -0.69047526989E+03  0.77677901092E+03  0.00000000000E+00 0.  1.
<mgrwt>
<rscale>  0 0.15825920E+04</rscale>
<asrwt>0</asrwt>
<pdfrwt beam="1">  1        1 0.27188938E+00 0.15825920E+04</pdfrwt>
<pdfrwt beam="2">  1       -1 0.54507842E-01 0.15825920E+04</pdfrwt>
<totfact> 0.14010999E+01</totfact>
</mgrwt>
</event>
<event>
12    1  0.1562393E-007  0.2115575E+04  0.7818608E-02  0.8554413E-01
         -2   -1    0    0    0  501 -0.00000000000E+00  0.00000000000E+00  0.40369615338E+03  0.40369615338E+03  0.00000000000E+00 0. -1.
          2   -1    0    0  501    0  0.00000000000E+00 -0.00000000000E+00 -0.27716745660E+04  0.27716745660E+04  0.00000000000E+00 0.  1.
         23    2    1    2    0    0  0.83606099888E+03 -0.10563902286E+03 -0.67006385169E+03  0.10805907705E+04  0.92375597702E+02 0.  0.
        254    2    1    2    0    0 -0.83606099888E+03  0.10563902286E+03 -0.16979145609E+04  0.20947799488E+04  0.89164543451E+03 0.  0.
        -24    2    4    4    0    0 -0.96705255872E+03  0.13921036677E+03 -0.16689749131E+04  0.19355709833E+04  0.79922420143E+02 0.  0.
         24    2    4    4    0    0  0.13099155985E+03 -0.33571343911E+02 -0.28939647858E+02  0.15920896558E+03  0.78893394024E+02 0.  0.
         11    1    3    3    0    0  0.33410171748E+03 -0.74990125569E+02 -0.31208253427E+03  0.46329578538E+03  0.00000000000E+00 0.  1.
        -11    1    3    3    0    0  0.50195928140E+03 -0.30648897289E+02 -0.35798131743E+03  0.61729498517E+03  0.00000000000E+00 0. -1.
          4    1    6    6  502    0  0.24922710520E+02 -0.34651114637E+02 -0.31590023548E+02  0.53101514413E+02  0.00000000000E+00 0. -1.
          1    1    5    5  503    0  0.78849662301E+00 -0.13236711006E+01 -0.55152418084E+00  0.16364629630E+01  0.00000000000E+00 0. -1.
         -2    1    5    5    0  503 -0.96784105535E+03  0.14053403787E+03 -0.16684233889E+04  0.19339345203E+04  0.00000000000E+00 0.  1.
         -3    1    6    6    0  502  0.10606884933E+03  0.10797707254E+01  0.26503756903E+01  0.10610745117E+03  0.00000000000E+00 0.  1.
<mgrwt>
<rscale>  0 0.21155750E+04</rscale>
<asrwt>0</asrwt>
<pdfrwt beam="1">  1        2 0.42641147E+00 0.21155750E+04</pdfrwt>
<pdfrwt beam="2">  1       -2 0.62107100E-01 0.21155750E+04</pdfrwt>
<totfact> 0.53331240E+00</totfact>
</mgrwt>
</event>
<event>
12    1  0.1562393E-007  0.1740231E+04  0.7818608E-02  0.8738746E-01
         -1   -1    0    0    0  501 -0.00000000000E+00  0.00000000000E+00  0.10755700831E+04  0.10755700831E+04  0.00000000000E+00 0.  1.
          1   -1    0    0  501    0  0.00000000000E+00 -0.00000000000E+00 -0.70390649659E+03  0.70390649659E+03  0.00000000000E+00 0. -1.
         23    2    1    2    0    0 -0.12644046735E+02  0.51566925342E+03 -0.24017651785E+03  0.57632627766E+03  0.91610958705E+02 0.  0.
        254    2    1    2    0    0  0.12644046735E+02 -0.51566925342E+03  0.61184010438E+03  0.12031503021E+04  0.89841398318E+03 0.  0.
        -24    2    4    4    0    0  0.34475944057E+03 -0.17793028327E+02  0.16172529923E+02  0.35489895692E+03  0.80722086050E+02 0.  0.
         24    2    4    4    0    0 -0.33211539384E+03 -0.49787622510E+03  0.59566757446E+03  0.84825134514E+03  0.80802938934E+02 0.  0.
         11    1    3    3    0    0 -0.30316312606E+02  0.12014453753E+03 -0.88847442501E+02  0.15247182280E+03  0.00000000000E+00 0.  1.
        -11    1    3    3    0    0  0.17672265871E+02  0.39552471589E+03 -0.15132907535E+03  0.42385445486E+03  0.00000000000E+00 0. -1.
          2    1    6    6  502    0 -0.17912014436E+03 -0.33857529599E+03  0.37632109718E+03  0.53696817909E+03  0.00000000000E+00 0. -1.
          1    1    5    5  503    0  0.22490104028E+03 -0.67917356877E+01 -0.27888837799E+02  0.22672536882E+03  0.00000000000E+00 0. -1.
         -2    1    5    5    0  503  0.11985840029E+03 -0.11001292639E+02  0.44061367722E+02  0.12817358810E+03  0.00000000000E+00 0.  1.
         -1    1    6    6    0  502 -0.15299524948E+03 -0.15930092911E+03  0.21934647727E+03  0.31128316605E+03  0.00000000000E+00 0.  1.
<mgrwt>
<rscale>  0 0.17402308E+04</rscale>
<asrwt>0</asrwt>
<pdfrwt beam="1">  1        1 0.10829331E+00 0.17402308E+04</pdfrwt>
<pdfrwt beam="2">  1       -1 0.16547232E+00 0.17402308E+04</pdfrwt>
<totfact> 0.68101406E+00</totfact>
</mgrwt>
</event>
<event>
12    1  0.1562393E-007  0.2209930E+04  0.7818608E-02  0.8514306E-01
          1   -1    0    0  501    0  0.00000000000E+00  0.00000000000E+00  0.82742006259E+03  0.82742006259E+03  0.00000000000E+00 0. -1.
         -1   -1    0    0    0  501 -0.00000000000E+00 -0.00000000000E+00 -0.14756080817E+04  0.14756080817E+04  0.00000000000E+00 0.  1.
         23    2    1    2    0    0 -0.46524271068E+03  0.47160671131E+03 -0.94896484256E+03  0.11608703987E+04  0.90676017961E+02 0.  0.
        254    2    1    2    0    0  0.46524271068E+03 -0.47160671131E+03  0.30077682344E+03  0.11421577456E+04  0.88045099140E+03 0.  0.
        -24    2    4    4    0    0  0.70274089566E+03 -0.45722315249E+03  0.28865241325E+03  0.89023603107E+03  0.79386382543E+02 0.  0.
         24    2    4    4    0    0 -0.23749818498E+03 -0.14383558815E+02  0.12124410195E+02  0.25192171450E+03  0.81885739191E+02 0.  0.
         11    1    3    3    0    0 -0.64580302803E+02  0.34826039323E+02 -0.75396598204E+02  0.10520511179E+03  0.00000000000E+00 0. -1.
        -11    1    3    3    0    0 -0.40066240788E+03  0.43678067198E+03 -0.87356824435E+03  0.10556652869E+04  0.00000000000E+00 0.  1.
          2    1    6    6  502    0 -0.20387508114E+03 -0.44689146489E+01 -0.19311449567E+02  0.20483640300E+03  0.00000000000E+00 0. -1.
          3    1    5    5  503    0  0.53347425596E+03 -0.30632744945E+03  0.20203256417E+03  0.64749397298E+03  0.00000000000E+00 0. -1.
         -4    1    5    5    0  503  0.16926663970E+03 -0.15089570304E+03  0.86619849082E+02  0.24274205809E+03  0.00000000000E+00 0.  1.
         -1    1    6    6    0  502 -0.33623103840E+02 -0.99146441659E+01  0.31435859762E+02  0.47085311508E+02  0.00000000000E+00 0.  1.
<mgrwt>
<rscale>  0 0.22099301E+04</rscale>
<asrwt>0</asrwt>
<pdfrwt beam="1">  1        1 0.12729540E+00 0.22099301E+04</pdfrwt>
<pdfrwt beam="2">  1       -1 0.22701663E+00 0.22099301E+04</pdfrwt>
<totfact> 0.18838774E+00</totfact>
</mgrwt>
</event>
<event>
12    1  0.1562393E-007  0.1091803E+04  0.7818608E-02  0.9213219E-01
          2   -1    0    0  501    0  0.00000000000E+00  0.00000000000E+00  0.10011289740E+04  0.10011289740E+04  0.00000000000E+00 0. -1.
         -2   -1    0    0    0  501 -0.00000000000E+00 -0.00000000000E+00 -0.29767218632E+03  0.29767218632E+03  0.00000000000E+00 0.  1.
         23    2    1    2    0    0  0.14773290139E+03  0.12349407487E+02  0.11018981461E+03  0.20585207600E+03  0.90861234470E+02 0.  0.
        254    2    1    2    0    0 -0.14773290139E+03 -0.12349407487E+02  0.59326697307E+03  0.10929490843E+04  0.90586670188E+03 0.  0.
        -24    2    4    4    0    0 -0.41368047136E+03  0.18826229581E+03  0.68392200774E+02  0.46629235160E+03  0.78592872631E+02 0.  0.
         24    2    4    4    0    0  0.26594756996E+03 -0.20061170330E+03  0.52487477229E+03  0.62665673272E+03  0.78942818534E+02 0.  0.
         11    1    3    3    0    0  0.23195171276E+02 -0.23886944546E+02 -0.33641988464E+01  0.33465204678E+02  0.00000000000E+00 0. -1.
        -11    1    3    3    0    0  0.12453773012E+03  0.36236352033E+02  0.11355401345E+03  0.17238687132E+03  0.00000000000E+00 0.  1.
          2    1    6    6  502    0  0.25966613891E+03 -0.19769137696E+03  0.52659011992E+03  0.61952041017E+03  0.00000000000E+00 0. -1.
          3    1    5    5  503    0 -0.38039814784E+03  0.19215529171E+03  0.53145074662E+02  0.42947736375E+03  0.00000000000E+00 0. -1.
         -4    1    5    5    0  503 -0.33282323518E+02 -0.38929959000E+01  0.15247126112E+02  0.36814987851E+02  0.00000000000E+00 0.  1.
         -1    1    6    6    0  502  0.62814310574E+01 -0.29203263446E+01 -0.17153476234E+01  0.71363225514E+01  0.00000000000E+00 0.  1.
<mgrwt>
<rscale>  0 0.10918026E+04</rscale>
<asrwt>0</asrwt>
<pdfrwt beam="1">  1        2 0.15401984E+00 0.10918026E+04</pdfrwt>
<pdfrwt beam="2">  1       -2 0.45795721E-01 0.10918026E+04</pdfrwt>
<totfact> 0.11289154E+02</totfact>
</mgrwt>
</event>
<event>
12    1  0.1562393E-007  0.1235095E+04  0.7818608E-02  0.9082681E-01
          1   -1    0    0  501    0  0.00000000000E+00  0.00000000000E+00  0.90865330945E+03  0.90865330945E+03  0.00000000000E+00 0. -1.
         -1   -1    0    0    0  501 -0.00000000000E+00 -0.00000000000E+00 -0.41970349093E+03  0.41970349093E+03  0.00000000000E+00 0.  1.
         23    2    1    2    0    0 -0.11418584319E+03 -0.20453451241E+03 -0.50473447522E+02  0.25666471058E+03  0.91958856013E+02 0.  0.
        254    2    1    2    0    0  0.11418584319E+03  0.20453451241E+03  0.53942326605E+03  0.10716920898E+04  0.89592058902E+03 0.  0.
        -24    2    4    4    0    0 -0.27534612656E+03 -0.11960771191E+02  0.54763337034E+03  0.61834763988E+03  0.80578818389E+02 0.  0.
         24    2    4    4    0    0  0.38953196975E+03  0.21649528360E+03 -0.82101042995E+01  0.45334444992E+03  0.82755188239E+02 0.  0.
         13    1    3    3    0    0 -0.84456343980E+02 -0.13691084991E+03  0.10033121434E+02  0.16117728868E+03  0.00000000000E+00 0. -1.
        -13    1    3    3    0    0 -0.29729499213E+02 -0.67623662498E+02 -0.60506568956E+02  0.95487421894E+02  0.00000000000E+00 0.  1.
          2    1    6    6  502    0  0.82885859463E+01  0.18845707764E+02 -0.12127977721E+02  0.23894543346E+02  0.00000000000E+00 0. -1.
          1    1    5    5  503    0 -0.10907602899E+03 -0.64193531105E+01  0.13660165097E+03  0.17492512467E+03  0.00000000000E+00 0. -1.
         -2    1    5    5    0  503 -0.16627009757E+03 -0.55414180803E+01  0.41103171938E+03  0.44342251521E+03  0.00000000000E+00 0.  1.
         -1    1    6    6    0  502  0.38124338381E+03  0.19764957583E+03  0.39178734217E+01  0.42944990657E+03  0.00000000000E+00 0.  1.
<mgrwt>
<rscale>  0 0.12350951E+04</rscale>
<asrwt>0</asrwt>
<pdfrwt beam="1">  1        1 0.13979282E+00 0.12350951E+04</pdfrwt>
<pdfrwt beam="2">  1       -1 0.64569768E-01 0.12350951E+04</pdfrwt>
<totfact> 0.42988772E+01</totfact>
</mgrwt>
</event>
<event>
12    1  0.1562393E-007  0.1207408E+04  0.7818608E-02  0.9106397E-01
          2   -1    0    0  501    0  0.00000000000E+00  0.00000000000E+00  0.14550764229E+04  0.14550764229E+04  0.00000000000E+00 0. -1.
         -2   -1    0    0    0  501 -0.00000000000E+00 -0.00000000000E+00 -0.25047398201E+03  0.25047398201E+03  0.00000000000E+00 0.  1.
         23    2    1    2    0    0 -0.10136906905E+03  0.23644307461E+02  0.59392738079E+03  0.60952272309E+03  0.89070055952E+02 0.  0.
        254    2    1    2    0    0  0.10136906905E+03 -0.23644307461E+02  0.61067506013E+03  0.10960276819E+04  0.90416696959E+03 0.  0.
        -24    2    4    4    0    0 -0.13626808175E+03 -0.32790475943E+03  0.59985518095E+03  0.70161588758E+03  0.79674928482E+02 0.  0.
         24    2    4    4    0    0  0.23763715080E+03  0.30426045197E+03  0.10819879183E+02  0.39441179428E+03  0.79985971331E+02 0.  0.
         13    1    3    3    0    0 -0.43216805754E+02 -0.10616553899E+02  0.83190720285E+02  0.94345638255E+02  0.00000000000E+00 0.  1.
        -13    1    3    3    0    0 -0.58152263293E+02  0.34260861359E+02  0.51073666051E+03  0.51517708483E+03  0.00000000000E+00 0. -1.
          4    1    6    6  502    0  0.17872970288E+02  0.21043387610E+02  0.22687510772E+02  0.35735002085E+02  0.00000000000E+00 0. -1.
          1    1    5    5  503    0 -0.27263206691E+00 -0.37423120427E+02  0.10913232621E+03  0.11537083208E+03  0.00000000000E+00 0. -1.
         -4    1    5    5    0  503 -0.13599544968E+03 -0.29048163900E+03  0.49072285474E+03  0.58624505550E+03  0.00000000000E+00 0.  1.
         -3    1    6    6    0  502  0.21976418051E+03  0.28321706436E+03 -0.11867631589E+02  0.35867679220E+03  0.00000000000E+00 0.  1.
<mgrwt>
<rscale>  0 0.12074084E+04</rscale>
<asrwt>0</asrwt>
<pdfrwt beam="1">  1        2 0.22385791E+00 0.12074084E+04</pdfrwt>
<pdfrwt beam="2">  1       -2 0.38534460E-01 0.12074084E+04</pdfrwt>
<totfact> 0.84406326E+01</totfact>
</mgrwt>
</event>
<event>
12    1  0.1562393E-007  0.1380125E+04  0.7818608E-02  0.8968332E-01
          1   -1    0    0  501    0  0.00000000000E+00  0.00000000000E+00  0.99098486702E+03  0.99098486702E+03  0.00000000000E+00 0. -1.
         -1   -1    0    0    0  501 -0.00000000000E+00 -0.00000000000E+00 -0.48051798484E+03  0.48051798484E+03  0.00000000000E+00 0.  1.
         23    2    1    2    0    0 -0.53926821008E+02  0.37600628038E+03  0.22495443049E+03  0.45080118057E+03  0.91259978640E+02 0.  0.
        254    2    1    2    0    0  0.53926821008E+02 -0.37600628038E+03  0.28551245169E+03  0.10207016713E+04  0.90334141764E+03 0.  0.
        -24    2    4    4    0    0 -0.35221997954E+03 -0.23450164633E+03  0.37882945688E+03  0.57361029626E+03  0.80418147562E+02 0.  0.
         24    2    4    4    0    0  0.40614680055E+03 -0.14150463404E+03 -0.93317005188E+02  0.44709137504E+03  0.78764516875E+02 0.  0.
         11    1    3    3    0    0 -0.70378669346E+02  0.35963821130E+03  0.21873076425E+03  0.42677388317E+03  0.00000000000E+00 0. -1.
        -11    1    3    3    0    0  0.16451848337E+02  0.16368069071E+02  0.62236662427E+01  0.24027297399E+02  0.00000000000E+00 0.  1.
          4    1    6    6  502    0  0.39872295017E+03 -0.12300560460E+03 -0.87700957399E+02  0.42638225536E+03  0.00000000000E+00 0. -1.
          3    1    5    5  503    0 -0.16462226517E+03 -0.11082204145E+03  0.12464174256E+03  0.23434500005E+03  0.00000000000E+00 0. -1.
         -4    1    5    5    0  503 -0.18759771437E+03 -0.12367960488E+03  0.25418771432E+03  0.33926529621E+03  0.00000000000E+00 0.  1.
         -3    1    6    6    0  502  0.74238503810E+01 -0.18499029449E+02 -0.56160477892E+01  0.20709119677E+02  0.00000000000E+00 0.  1.
<mgrwt>
<rscale>  0 0.13801247E+04</rscale>
<asrwt>0</asrwt>
<pdfrwt beam="1">  1        1 0.15245921E+00 0.13801247E+04</pdfrwt>
<pdfrwt beam="2">  1       -1 0.73925844E-01 0.13801247E+04</pdfrwt>
<totfact> 0.27680610E+01</totfact>
</mgrwt>
</event>
<event>
12    1  0.1562393E-007  0.1980029E+04  0.7818608E-02  0.8616015E-01
          2   -1    0    0  501    0  0.00000000000E+00  0.00000000000E+00  0.49820240131E+03  0.49820240131E+03  0.00000000000E+00 0.  1.
         -2   -1    0    0    0  501 -0.00000000000E+00 -0.00000000000E+00 -0.19673311844E+04  0.19673311844E+04  0.00000000000E+00 0. -1.
         23    2    1    2    0    0  0.35761580113E+03 -0.66124097698E+03 -0.31402708420E+03  0.81991322666E+03  0.92282169414E+02 0.  0.
        254    2    1    2    0    0 -0.35761580113E+03  0.66124097698E+03 -0.11551016989E+04  0.16456203590E+04  0.89926511131E+03 0.  0.
        -24    2    4    4    0    0 -0.81172509263E+02 -0.13764087490E+03 -0.61205519871E+03  0.63770775261E+03  0.80781339249E+02 0.  0.
         24    2    4    4    0    0 -0.27644329186E+03  0.79888185187E+03 -0.54304650015E+03  0.10079126064E+04  0.79719595730E+02 0.  0.
         11    1    3    3    0    0  0.16568969000E+03 -0.28785713771E+03 -0.90276248813E+02  0.34418687686E+03  0.00000000000E+00 0. -1.
        -11    1    3    3    0    0  0.19192611113E+03 -0.37338383927E+03 -0.22375083539E+03  0.47572634980E+03  0.00000000000E+00 0.  1.
          4    1    6    6  502    0 -0.25187274235E+02  0.12268140273E+03 -0.53945845418E+02  0.13636451004E+03  0.00000000000E+00 0. -1.
          3    1    5    5  503    0 -0.19118658495E+02  0.69681532676E+01 -0.98695053895E+02  0.10077098752E+03  0.00000000000E+00 0. -1.
         -4    1    5    5    0  503 -0.62053850769E+02 -0.14460902816E+03 -0.51336014481E+03  0.53693676509E+03  0.00000000000E+00 0.  1.
         -3    1    6    6    0  502 -0.25125601763E+03  0.67620044914E+03 -0.48910065473E+03  0.87154809636E+03  0.00000000000E+00 0.  1.
<mgrwt>
<rscale>  0 0.19800294E+04</rscale>
<asrwt>0</asrwt>
<pdfrwt beam="1">  1        2 0.76646524E-01 0.19800294E+04</pdfrwt>
<pdfrwt beam="2">  1       -2 0.30266633E+00 0.19800294E+04</pdfrwt>
<totfact> 0.17635240E+00</totfact>
</mgrwt>
</event>
<event>
12    1  0.1806115E-007  0.2616254E+04  0.7818608E-02  0.8362701E-01
         -1   -1    0    0    0  501 -0.00000000000E+00  0.00000000000E+00  0.16371702269E+04  0.16371702269E+04  0.00000000000E+00 0.  1.
          1   -1    0    0  501    0  0.00000000000E+00 -0.00000000000E+00 -0.10452155559E+04  0.10452155559E+04  0.00000000000E+00 0. -1.
         23    2    1    2    0    0 -0.10657607898E+04 -0.42425445422E+03  0.33065358801E+03  0.11973710242E+04  0.92345392109E+02 0.  0.
        254    2    1    2    0    0  0.10657607898E+04  0.42425445422E+03  0.26130108293E+03  0.14850147585E+04  0.90617474814E+03 0.  0.
        -24    2    4    4    0    0  0.61682251936E+03 -0.58310977502E+02 -0.22286632103E+03  0.66304079675E+03  0.77996862855E+02 0.  0.
         24    2    4    4    0    0  0.44893827044E+03  0.48256543173E+03  0.48416740396E+03  0.82197396180E+03  0.82511527999E+02 0.  0.
         13    1    3    3    0    0 -0.67374111090E+03 -0.27686158924E+03  0.16415951097E+03  0.74667782153E+03  0.00000000000E+00 0. -1.
        -13    1    3    3    0    0 -0.39201967890E+03 -0.14739286498E+03  0.16649407704E+03  0.45069320272E+03  0.00000000000E+00 0.  1.
          2    1    6    6  502    0  0.41639904537E+03  0.45638425494E+03  0.47479884014E+03  0.77917179860E+03  0.00000000000E+00 0. -1.
          1    1    5    5  503    0  0.54641383008E+03 -0.76400636140E+02 -0.19455981798E+03  0.58502876313E+03  0.00000000000E+00 0. -1.
         -2    1    5    5    0  503  0.70408689274E+02  0.18089658638E+02 -0.28306503050E+02  0.78012033622E+02  0.00000000000E+00 0.  1.
         -1    1    6    6    0  502  0.32539225069E+02  0.26181176787E+02  0.93685638233E+01  0.42802163195E+02  0.00000000000E+00 0.  1.
<mgrwt>
<rscale>  0 0.26162536E+04</rscale>
<asrwt>0</asrwt>
<pdfrwt beam="1">  1        1 0.16080239E+00 0.26162536E+04</pdfrwt>
<pdfrwt beam="2">  1       -1 0.25187234E+00 0.26162536E+04</pdfrwt>
<totfact> 0.83199513E-01</totfact>
</mgrwt>
</event>
<event>
12    1  0.1562393E-007  0.1855474E+04  0.7818608E-02  0.8677343E-01
         -1   -1    0    0    0  501 -0.00000000000E+00  0.00000000000E+00  0.64184785028E+03  0.64184785028E+03  0.00000000000E+00 0.  1.
          1   -1    0    0  501    0  0.00000000000E+00 -0.00000000000E+00 -0.13409651573E+04  0.13409651573E+04  0.00000000000E+00 0. -1.
         23    2    1    2    0    0 -0.71529726157E+02 -0.30518703099E+03  0.35371841406E+03  0.48072340622E+03  0.87878616487E+02 0.  0.
        254    2    1    2    0    0  0.71529726157E+02  0.30518703099E+03 -0.10528357210E+04  0.15020896013E+04  0.10244776665E+04 0.  0.
        -24    2    4    4    0    0  0.27502208047E+03 -0.30432618654E+03 -0.33646820771E+03  0.53648592240E+03  0.79716482492E+02 0.  0.
         24    2    4    4    0    0 -0.20349235431E+03  0.60951321753E+03 -0.71636751334E+03  0.96560367891E+03  0.79325594524E+02 0.  0.
         11    1    3    3    0    0  0.98854369551E+01 -0.11482047195E+03  0.94969219499E+02  0.14933390537E+03  0.00000000000E+00 0. -1.
        -11    1    3    3    0    0 -0.81415163112E+02 -0.19036655905E+03  0.25874919456E+03  0.33138950085E+03  0.00000000000E+00 0.  1.
          2    1    6    6  502    0 -0.57947045568E+02  0.23974212350E+03 -0.22694868694E+03  0.33517137761E+03  0.00000000000E+00 0. -1.
          3    1    5    5  503    0  0.58233278150E+02 -0.30682915747E+02 -0.78275690094E+02  0.10227237976E+03  0.00000000000E+00 0. -1.
         -4    1    5    5    0  503  0.21678880232E+03 -0.27364327079E+03 -0.25819251761E+03  0.43421354264E+03  0.00000000000E+00 0.  1.
         -1    1    6    6    0  502 -0.14554530874E+03  0.36977109404E+03 -0.48941882640E+03  0.63043230130E+03  0.00000000000E+00 0.  1.
<mgrwt>
<rscale>  0 0.18554736E+04</rscale>
<asrwt>0</asrwt>
<pdfrwt beam="1">  1        1 0.20630233E+00 0.18554736E+04</pdfrwt>
<pdfrwt beam="2">  1       -1 0.98745825E-01 0.18554736E+04</pdfrwt>
<totfact> 0.77921638E+00</totfact>
</mgrwt>
</event>
<event>
12    1  0.1562393E-007  0.2889808E+04  0.7818608E-02  0.8275916E-01
         -1   -1    0    0    0  501 -0.00000000000E+00  0.00000000000E+00  0.13003113952E+04  0.13003113952E+04  0.00000000000E+00 0.  1.
          1   -1    0    0  501    0  0.00000000000E+00 -0.00000000000E+00 -0.16055754083E+04  0.16055754083E+04  0.00000000000E+00 0. -1.
         23    2    1    2    0    0  0.97700261279E+03  0.14994263614E+03 -0.99128978969E+03  0.14028836343E+04  0.91706840474E+02 0.  0.
        254    2    1    2    0    0 -0.97700261279E+03 -0.14994263614E+03  0.68602577667E+03  0.15030031692E+04  0.90076093442E+03 0.  0.
        -24    2    4    4    0    0 -0.94641182423E+03 -0.15501372297E+03  0.87173506988E+03  0.12982266508E+04  0.75801117905E+02 0.  0.
         24    2    4    4    0    0 -0.30590788558E+02  0.50710868331E+01 -0.18570929321E+03  0.20477651843E+03  0.80523093878E+02 0.  0.
         11    1    3    3    0    0  0.59781521154E+03  0.75623207562E+02 -0.54408149311E+03  0.81186610215E+03  0.00000000000E+00 0. -1.
        -11    1    3    3    0    0  0.37918740125E+03  0.74319428575E+02 -0.44720829658E+03  0.59101753211E+03  0.00000000000E+00 0.  1.
          4    1    6    6  502    0 -0.32340623603E+01 -0.30199818651E+02 -0.29597732039E+02  0.42408889961E+02  0.00000000000E+00 0. -1.
          1    1    5    5  503    0 -0.38406527644E+02  0.84814211256E+01  0.32504201988E+02  0.51024690267E+02  0.00000000000E+00 0. -1.
         -2    1    5    5    0  503 -0.90800529659E+03 -0.16349514410E+03  0.83923086789E+03  0.12472019606E+04  0.00000000000E+00 0.  1.
         -3    1    6    6    0  502 -0.27356726198E+02  0.35270905484E+02 -0.15611156117E+03  0.16236762847E+03  0.00000000000E+00 0.  1.
<mgrwt>
<rscale>  0 0.28898083E+04</rscale>
<asrwt>0</asrwt>
<pdfrwt beam="1">  1        1 0.24701160E+00 0.28898083E+04</pdfrwt>
<pdfrwt beam="2">  1       -1 0.20004791E+00 0.28898083E+04</pdfrwt>
<totfact> 0.71466159E-01</totfact>
</mgrwt>
</event>
<event>
12    1  0.1562393E-007  0.1122629E+04  0.7818608E-02  0.9183413E-01
         -1   -1    0    0    0  501 -0.00000000000E+00  0.00000000000E+00  0.18577055628E+03  0.18577055628E+03  0.00000000000E+00 0.  1.
          1   -1    0    0  501    0  0.00000000000E+00 -0.00000000000E+00 -0.16960373836E+04  0.16960373836E+04  0.00000000000E+00 0. -1.
         23    2    1    2    0    0 -0.84519161749E+02  0.15758874418E+02 -0.37446116804E+01  0.12543385603E+03  0.91256776719E+02 0.  0.
        254    2    1    2    0    0  0.84519161749E+02 -0.15758874418E+02 -0.15065222156E+04  0.17563740838E+04  0.89880415293E+03 0.  0.
        -24    2    4    4    0    0  0.43587369837E+03 -0.18071391333E+03 -0.61138482597E+03  0.77726288175E+03  0.87765497341E+02 0.  0.
         24    2    4    4    0    0 -0.35135453662E+03  0.16495503892E+03 -0.89513738964E+03  0.97911120206E+03  0.82022097006E+02 0.  0.
         11    1    3    3    0    0 -0.87244310543E+01 -0.16951730200E+02 -0.32782934454E+02  0.37923576380E+02  0.00000000000E+00 0. -1.
        -11    1    3    3    0    0 -0.75794730695E+02  0.32710604618E+02  0.29038322774E+02  0.87510279654E+02  0.00000000000E+00 0.  1.
          2    1    6    6  502    0 -0.26425851283E+03  0.84020547311E+02 -0.60279624428E+03  0.66351738945E+03  0.00000000000E+00 0. -1.
          3    1    5    5  503    0  0.41159149464E+03 -0.18407322651E+03 -0.59920181677E+03  0.74988887736E+03  0.00000000000E+00 0. -1.
         -4    1    5    5    0  503  0.24282203731E+02  0.33593131738E+01 -0.12183009196E+02  0.27374004385E+02  0.00000000000E+00 0.  1.
         -1    1    6    6    0  502 -0.87096023788E+02  0.80934491605E+02 -0.29234114535E+03  0.31559381261E+03  0.00000000000E+00 0.  1.
<mgrwt>
<rscale>  0 0.11226287E+04</rscale>
<asrwt>0</asrwt>
<pdfrwt beam="1">  1        1 0.26092883E+00 0.11226287E+04</pdfrwt>
<pdfrwt beam="2">  1       -1 0.28580086E-01 0.11226287E+04</pdfrwt>
<totfact> 0.53038237E+01</totfact>
</mgrwt>
</event>
<event>
12    1  0.1562393E-007  0.1457564E+04  0.7818608E-02  0.8913173E-01
          1   -1    0    0  501    0  0.00000000000E+00  0.00000000000E+00  0.60145609307E+03  0.60145609307E+03  0.00000000000E+00 0. -1.
         -1   -1    0    0    0  501 -0.00000000000E+00 -0.00000000000E+00 -0.88306211477E+03  0.88306211477E+03  0.00000000000E+00 0.  1.
         23    2    1    2    0    0 -0.28473773561E+03 -0.33737878658E+02 -0.42767222969E+03  0.52278763815E+03  0.90496165749E+02 0.  0.
        254    2    1    2    0    0  0.28473773561E+03  0.33737878658E+02  0.14606620799E+03  0.96173056969E+03  0.90629825611E+03 0.  0.
        -24    2    4    4    0    0 -0.12899029296E+03  0.37179243263E+03 -0.56755075049E+01  0.40158663509E+03  0.79821710445E+02 0.  0.
         24    2    4    4    0    0  0.41372802857E+03 -0.33805455397E+03  0.15174171550E+03  0.56014393461E+03  0.72690550758E+02 0.  0.
         13    1    3    3    0    0 -0.11007591496E+03  0.94200006406E+01 -0.23207127436E+03  0.25702630186E+03  0.00000000000E+00 0. -1.
        -13    1    3    3    0    0 -0.17466182065E+03 -0.43157879299E+02 -0.19560095534E+03  0.26576133629E+03  0.00000000000E+00 0.  1.
          2    1    6    6  502    0  0.25887471626E+03 -0.20087308027E+03  0.12850546536E+03  0.35196557747E+03  0.00000000000E+00 0. -1.
          3    1    5    5  503    0 -0.13112331294E+03  0.34020856379E+03 -0.23315859638E+02  0.36534753233E+03  0.00000000000E+00 0. -1.
         -4    1    5    5    0  503  0.21330199792E+01  0.31583868838E+02  0.17640352133E+02  0.36239102753E+02  0.00000000000E+00 0.  1.
         -1    1    6    6    0  502  0.15485331231E+03 -0.13718147370E+03  0.23236250139E+02  0.20817835714E+03  0.00000000000E+00 0.  1.
<mgrwt>
<rscale>  0 0.14575638E+04</rscale>
<asrwt>0</asrwt>
<pdfrwt beam="1">  1        1 0.92531707E-01 0.14575638E+04</pdfrwt>
<pdfrwt beam="2">  1       -1 0.13585571E+00 0.14575638E+04</pdfrwt>
<totfact> 0.15016686E+01</totfact>
</mgrwt>
</event>
<event>
12    1  0.1562393E-007  0.2302921E+04  0.7818608E-02  0.8476770E-01
          1   -1    0    0  501    0  0.00000000000E+00  0.00000000000E+00  0.27418643416E+04  0.27418643416E+04  0.00000000000E+00 0. -1.
         -1   -1    0    0    0  501 -0.00000000000E+00 -0.00000000000E+00 -0.48356204569E+03  0.48356204569E+03  0.00000000000E+00 0.  1.
         23    2    1    2    0    0 -0.91482855759E+03  0.12023147568E+03  0.46927610595E+03  0.10394943760E+04  0.94665709513E+02 0.  0.
        254    2    1    2    0    0  0.91482855759E+03 -0.12023147568E+03  0.17890261900E+04  0.21859320114E+04  0.85224242574E+03 0.  0.
        -24    2    4    4    0    0  0.15614087617E+03  0.25444686619E+03  0.91931331681E+03  0.96982165892E+03  0.79334070416E+02 0.  0.
         24    2    4    4    0    0  0.75868768142E+03 -0.37467834187E+03  0.86971287319E+03  0.12161103524E+04  0.80827283103E+02 0.  0.
         13    1    3    3    0    0 -0.20550546413E+03  0.60343593886E+02  0.13396937531E+03  0.25262944926E+03  0.00000000000E+00 0. -1.
        -13    1    3    3    0    0 -0.70932309345E+03  0.59887881792E+02  0.33530673064E+03  0.78686492672E+03  0.00000000000E+00 0.  1.
          4    1    6    6  502    0  0.68627359074E+03 -0.31053807948E+03  0.76840063798E+03  0.10760320072E+04  0.00000000000E+00 0. -1.
          1    1    5    5  503    0  0.12747644427E+03  0.17624961051E+03  0.75348453856E+03  0.78425322370E+03  0.00000000000E+00 0. -1.
         -2    1    5    5    0  503  0.28664431901E+02  0.78197255685E+02  0.16582877825E+03  0.18556843522E+03  0.00000000000E+00 0.  1.
         -1    1    6    6    0  502  0.72414090676E+02 -0.64140262392E+02  0.10131223521E+03  0.14007834519E+03  0.00000000000E+00 0.  1.
<mgrwt>
<rscale>  0 0.23029212E+04</rscale>
<asrwt>0</asrwt>
<pdfrwt beam="1">  1        1 0.42182527E+00 0.23029212E+04</pdfrwt>
<pdfrwt beam="2">  1       -1 0.74394162E-01 0.23029212E+04</pdfrwt>
<totfact> 0.15065286E+00</totfact>
</mgrwt>
</event>
<event>
12    1  0.1562393E-007  0.1407084E+04  0.7818608E-02  0.8948707E-01
          3   -1    0    0  501    0  0.00000000000E+00  0.00000000000E+00  0.16014897072E+04  0.16014897072E+04  0.00000000000E+00 0. -1.
         -3   -1    0    0    0  501 -0.00000000000E+00 -0.00000000000E+00 -0.30906922336E+03  0.30906922336E+03  0.00000000000E+00 0.  1.
         23    2    1    2    0    0  0.10526242494E+03 -0.29928052348E+03  0.72909065600E+03  0.80146907746E+03  0.10065032347E+03 0.  0.
        254    2    1    2    0    0 -0.10526242494E+03  0.29928052348E+03  0.56332982787E+03  0.11090898531E+04  0.90116080558E+03 0.  0.
        -24    2    4    4    0    0  0.17822559062E+03  0.31997969995E+03  0.69167633575E+03  0.78656143228E+03  0.78175212055E+02 0.  0.
         24    2    4    4    0    0 -0.28348801556E+03 -0.20699176474E+02 -0.12834650788E+03  0.32252842085E+03  0.82206114730E+02 0.  0.
         11    1    3    3    0    0  0.59533239742E+02 -0.53573071440E+02  0.13533768683E+03  0.15725956281E+03  0.00000000000E+00 0.  1.
        -11    1    3    3    0    0  0.45729185197E+02 -0.24570745204E+03  0.59375296917E+03  0.64420951465E+03  0.00000000000E+00 0. -1.
          4    1    6    6  502    0 -0.23465022362E+03 -0.37627242540E+02 -0.77353865342E+02  0.24992030192E+03  0.00000000000E+00 0. -1.
          3    1    5    5  503    0  0.62338057238E+02  0.95170757504E+02  0.14577357235E+03  0.18491468536E+03  0.00000000000E+00 0. -1.
         -4    1    5    5    0  503  0.11588753339E+03  0.22480894245E+03  0.54590276340E+03  0.60164674693E+03  0.00000000000E+00 0.  1.
         -1    1    6    6    0  502 -0.48837791939E+02  0.16928066067E+02 -0.50992642538E+02  0.72608118934E+02  0.00000000000E+00 0.  1.
<mgrwt>
<rscale>  0 0.14070838E+04</rscale>
<asrwt>0</asrwt>
<pdfrwt beam="1">  1        3 0.24638303E+00 0.14070838E+04</pdfrwt>
<pdfrwt beam="2">  1       -3 0.47549112E-01 0.14070838E+04</pdfrwt>
<totfact> 0.87080508E-01</totfact>
</mgrwt>
</event>
<event>
12    1  0.1562393E-007  0.1257256E+04  0.7818608E-02  0.9064166E-01
          2   -1    0    0  501    0  0.00000000000E+00  0.00000000000E+00  0.10803733201E+04  0.10803733201E+04  0.00000000000E+00 0.  1.
         -2   -1    0    0    0  501 -0.00000000000E+00 -0.00000000000E+00 -0.36577440359E+03  0.36577440359E+03  0.00000000000E+00 0. -1.
         23    2    1    2    0    0  0.28072757868E+03 -0.39456641495E+02  0.26759298823E+03  0.40053987747E+03  0.91985792973E+02 0.  0.
        254    2    1    2    0    0 -0.28072757868E+03  0.39456641495E+02  0.44700592832E+03  0.10456078462E+04  0.90172981995E+03 0.  0.
        -24    2    4    4    0    0  0.27916762069E+02  0.31601932589E+03 -0.11154357783E+03  0.34538964854E+03  0.78768519217E+02 0.  0.
         24    2    4    4    0    0 -0.30864434075E+03 -0.27656268440E+03  0.55854950614E+03  0.70021819771E+03  0.81115510920E+02 0.  0.
         11    1    3    3    0    0 -0.44828180487E+01  0.70266460511E+01  0.34060472018E+01  0.90039196979E+01  0.00000000000E+00 0. -1.
        -11    1    3    3    0    0  0.28521039673E+03 -0.46483287546E+02  0.26418694103E+03  0.39153595777E+03  0.00000000000E+00 0.  1.
          2    1    6    6  502    0 -0.19562536591E+02 -0.33964436626E+02  0.24289951082E+02  0.46111576819E+02  0.00000000000E+00 0. -1.
          3    1    5    5  503    0  0.53992288030E+01  0.14150767275E+03 -0.93757385695E+01  0.14192067359E+03  0.00000000000E+00 0. -1.
         -4    1    5    5    0  503  0.22517533266E+02  0.17451165314E+03 -0.10216783926E+03  0.20346897495E+03  0.00000000000E+00 0.  1.
         -1    1    6    6    0  502 -0.28908180415E+03 -0.24259824777E+03  0.53425955506E+03  0.65410662089E+03  0.00000000000E+00 0.  1.
<mgrwt>
<rscale>  0 0.12572556E+04</rscale>
<asrwt>0</asrwt>
<pdfrwt beam="1">  1        2 0.16621128E+00 0.12572556E+04</pdfrwt>
<pdfrwt beam="2">  1       -2 0.56272986E-01 0.12572556E+04</pdfrwt>
<totfact> 0.65281625E+01</totfact>
</mgrwt>
</event>
<event>
12    1  0.1562393E-007  0.1389920E+04  0.7818608E-02  0.8961148E-01
          4   -1    0    0  501    0  0.00000000000E+00  0.00000000000E+00  0.17498888496E+04  0.17498888496E+04  0.00000000000E+00 0.  1.
         -4   -1    0    0    0  501 -0.00000000000E+00 -0.00000000000E+00 -0.27600000093E+03  0.27600000093E+03  0.00000000000E+00 0. -1.
         23    2    1    2    0    0 -0.27169356640E+03 -0.18240816208E+03  0.73068337954E+03  0.80595142721E+03  0.92570893193E+02 0.  0.
        254    2    1    2    0    0  0.27169356640E+03  0.18240816208E+03  0.74320546912E+03  0.12199374233E+04  0.91038608065E+03 0.  0.
        -24    2    4    4    0    0 -0.17525036254E+03  0.27520160527E+02  0.71240664064E+03  0.73914266064E+03  0.85665642677E+02 0.  0.
         24    2    4    4    0    0  0.44694392894E+03  0.15488800156E+03  0.30798828477E+02  0.48079476267E+03  0.80410617015E+02 0.  0.
         11    1    3    3    0    0 -0.24545081191E+03 -0.18322952345E+03  0.70737396995E+03  0.77084180782E+03  0.00000000000E+00 0.  1.
        -11    1    3    3    0    0 -0.26242754491E+02  0.82136136829E+00  0.23309409594E+02  0.35109619386E+02  0.00000000000E+00 0. -1.
          4    1    6    6  502    0  0.17838967088E+02 -0.83559199920E+01 -0.49069797011E+01  0.20300950605E+02  0.00000000000E+00 0. -1.
          3    1    5    5  503    0  0.27591210575E+01 -0.12393902738E+02  0.78022415384E+02  0.79048838552E+02  0.00000000000E+00 0. -1.
         -4    1    5    5    0  503 -0.17800948360E+03  0.39914063264E+02  0.63438422526E+03  0.66009382209E+03  0.00000000000E+00 0.  1.
         -3    1    6    6    0  502  0.42910496185E+03  0.16324392155E+03  0.35705808178E+02  0.46049381206E+03  0.00000000000E+00 0.  1.
<mgrwt>
<rscale>  0 0.13899199E+04</rscale>
<asrwt>0</asrwt>
<pdfrwt beam="1">  1        4 0.26921366E+00 0.13899199E+04</pdfrwt>
<pdfrwt beam="2">  1       -4 0.42461540E-01 0.13899199E+04</pdfrwt>
<totfact> 0.50748916E-01</totfact>
</mgrwt>
</event>
<event>
12    1  0.1562393E-007  0.2503295E+04  0.7818608E-02  0.8401812E-01
         -2   -1    0    0    0  501 -0.00000000000E+00  0.00000000000E+00  0.55804909495E+03  0.55804909495E+03  0.00000000000E+00 0. -1.
          2   -1    0    0  501    0  0.00000000000E+00 -0.00000000000E+00 -0.28073192567E+04  0.28073192567E+04  0.00000000000E+00 0.  1.
         23    2    1    2    0    0 -0.75387960799E+03  0.77224965817E+03 -0.80939699434E+03  0.13515944496E+04  0.83546775790E+02 0.  0.
        254    2    1    2    0    0  0.75387960799E+03 -0.77224965817E+03 -0.14398731675E+04  0.20137739021E+04  0.90407222755E+03 0.  0.
        -24    2    4    4    0    0  0.13607813735E+03 -0.73606197795E+03 -0.99231167615E+03  0.12456229995E+04  0.81176963318E+02 0.  0.
         24    2    4    4    0    0  0.61780147065E+03 -0.36187680223E+02 -0.44756149131E+03  0.76815090264E+03  0.82196808913E+02 0.  0.
         11    1    3    3    0    0 -0.64246998424E+03  0.67090104147E+03 -0.72938401173E+03  0.11810490780E+04  0.00000000000E+00 0. -1.
        -11    1    3    3    0    0 -0.11140962375E+03  0.10134861670E+03 -0.80012982605E+02  0.17054537155E+03  0.00000000000E+00 0.  1.
          2    1    6    6  502    0  0.28593656429E+03  0.83197758113E+01 -0.24630752974E+03  0.37748686954E+03  0.00000000000E+00 0. -1.
          1    1    5    5  503    0  0.13785716240E+03 -0.67530383886E+03 -0.87856663633E+03  0.11166553660E+04  0.00000000000E+00 0. -1.
         -4    1    5    5    0  503 -0.17790250558E+01 -0.60758139088E+02 -0.11374503982E+03  0.12896763346E+03  0.00000000000E+00 0.  1.
         -1    1    6    6    0  502  0.33186490636E+03 -0.44507456035E+02 -0.20125396157E+03  0.39066403310E+03  0.00000000000E+00 0.  1.
<mgrwt>
<rscale>  0 0.25032954E+04</rscale>
<asrwt>0</asrwt>
<pdfrwt beam="1">  1        2 0.43189527E+00 0.25032954E+04</pdfrwt>
<pdfrwt beam="2">  1       -2 0.85853706E-01 0.25032954E+04</pdfrwt>
<totfact> 0.24035155E+00</totfact>
</mgrwt>
</event>
<event>
12    1  0.1562393E-007  0.1617412E+04  0.7818608E-02  0.8809922E-01
          2   -1    0    0  501    0  0.00000000000E+00  0.00000000000E+00  0.21694559933E+04  0.21694559933E+04  0.00000000000E+00 0. -1.
         -2   -1    0    0    0  501 -0.00000000000E+00 -0.00000000000E+00 -0.30146069955E+03  0.30146069955E+03  0.00000000000E+00 0.  1.
         23    2    1    2    0    0  0.28772861932E+01  0.22281568421E+03  0.14190679002E+04  0.14401978697E+04  0.10373567594E+03 0.  0.
        254    2    1    2    0    0 -0.28772861932E+01 -0.22281568421E+03  0.44892739353E+03  0.10307188232E+04  0.90066107936E+03 0.  0.
        -24    2    4    4    0    0  0.10460871867E+03 -0.47822339412E+03  0.53493578359E+03  0.72980943695E+03  0.82613092154E+02 0.  0.
         24    2    4    4    0    0 -0.10748600486E+03  0.25540770991E+03 -0.86008390059E+02  0.30090938622E+03  0.79766384091E+02 0.  0.
         13    1    3    3    0    0 -0.33471125262E+02  0.12335456309E+03  0.99184644424E+03  0.10000480156E+04  0.00000000000E+00 0. -1.
        -13    1    3    3    0    0  0.36348411455E+02  0.99461121116E+02  0.42722145600E+03  0.44014985413E+03  0.00000000000E+00 0.  1.
          2    1    6    6  502    0 -0.17152144765E+02  0.12870256690E+02  0.11504488988E+02  0.24335012722E+02  0.00000000000E+00 0. -1.
          1    1    5    5  503    0  0.36464652640E+02 -0.78645594713E+02  0.13456341200E+03  0.16006908605E+03  0.00000000000E+00 0. -1.
         -2    1    5    5    0  503  0.68144066029E+02 -0.39957779941E+03  0.40037237159E+03  0.56974035090E+03  0.00000000000E+00 0.  1.
         -3    1    6    6    0  502 -0.90333860097E+02  0.24253745322E+03 -0.97512879048E+02  0.27657437350E+03  0.00000000000E+00 0.  1.
<mgrwt>
<rscale>  0 0.16174124E+04</rscale>
<asrwt>0</asrwt>
<pdfrwt beam="1">  1        2 0.33376245E+00 0.16174124E+04</pdfrwt>
<pdfrwt beam="2">  1       -2 0.46378571E-01 0.16174124E+04</pdfrwt>
<totfact> 0.22690676E+01</totfact>
</mgrwt>
</event>
<event>
12    1  0.1562393E-007  0.1723133E+04  0.7818608E-02  0.8748280E-01
          2   -1    0    0  501    0  0.00000000000E+00  0.00000000000E+00  0.18353763438E+04  0.18353763438E+04  0.00000000000E+00 0. -1.
         -2   -1    0    0    0  501 -0.00000000000E+00 -0.00000000000E+00 -0.40443854750E+03  0.40443854750E+03  0.00000000000E+00 0.  1.
         23    2    1    2    0    0  0.18037950013E+03 -0.38442688534E+03  0.11200008821E+04  0.12012853948E+04  0.91453974844E+02 0.  0.
        254    2    1    2    0    0 -0.18037950013E+03  0.38442688534E+03  0.31093691422E+03  0.10385294966E+04  0.89528819738E+03 0.  0.
        -24    2    4    4    0    0  0.34998586858E+03  0.18107282893E+03  0.39837153610E+02  0.40440848467E+03  0.81741948124E+02 0.  0.
         24    2    4    4    0    0 -0.53036536871E+03  0.20335405640E+03  0.27109976061E+03  0.63412101189E+03  0.77292179001E+02 0.  0.
         11    1    3    3    0    0  0.53746822294E+02 -0.14791971152E+03  0.53569847723E+03  0.55833844616E+03  0.00000000000E+00 0.  1.
        -11    1    3    3    0    0  0.12663267783E+03 -0.23650717382E+03  0.58430240487E+03  0.64294694859E+03  0.00000000000E+00 0. -1.
          4    1    6    6  502    0  0.12573425123E+01  0.44701240531E+01  0.61916479308E+01  0.77394717741E+01  0.00000000000E+00 0. -1.
          1    1    5    5  503    0 -0.14227414050E+01  0.12178935324E+02 -0.14169881392E+01  0.12343359110E+02  0.00000000000E+00 0. -1.
         -2    1    5    5    0  503  0.35140860998E+03  0.16889389361E+03  0.41254141749E+02  0.39206512556E+03  0.00000000000E+00 0.  1.
         -3    1    6    6    0  502 -0.53162271122E+03  0.19888393235E+03  0.26490811268E+03  0.62638154011E+03  0.00000000000E+00 0.  1.
<mgrwt>
<rscale>  0 0.17231331E+04</rscale>
<asrwt>0</asrwt>
<pdfrwt beam="1">  1        2 0.28236559E+00 0.17231331E+04</pdfrwt>
<pdfrwt beam="2">  1       -2 0.62221316E-01 0.17231331E+04</pdfrwt>
<totfact> 0.18778570E+01</totfact>
</mgrwt>
</event>
<event>
12    1  0.1562393E-007  0.2093982E+04  0.7818608E-02  0.8563899E-01
          2   -1    0    0  501    0  0.00000000000E+00  0.00000000000E+00  0.15958896507E+04  0.15958896507E+04  0.00000000000E+00 0. -1.
         -2   -1    0    0    0  501 -0.00000000000E+00 -0.00000000000E+00 -0.68688370784E+03  0.68688370784E+03  0.00000000000E+00 0.  1.
         23    2    1    2    0    0  0.62814078887E+03 -0.12201005884E+03  0.97980011953E+03  0.11751844121E+04  0.10771640178E+03 0.  0.
        254    2    1    2    0    0 -0.62814078887E+03  0.12201005884E+03 -0.70794176653E+02  0.11075889464E+04  0.90127362862E+03 0.  0.
        -24    2    4    4    0    0  0.11049301370E+03 -0.15515309677E+03 -0.21858906108E+03  0.30097331014E+03  0.80762406355E+02 0.  0.
         24    2    4    4    0    0 -0.73863380257E+03  0.27716315561E+03  0.14779488442E+03  0.80661563627E+03  0.79913376076E+02 0.  0.
         13    1    3    3    0    0  0.59122178770E+03 -0.13734365226E+03  0.93878046972E+03  0.11179066381E+04  0.00000000000E+00 0. -1.
        -13    1    3    3    0    0  0.36919001165E+02  0.15333593420E+02  0.41019649802E+02  0.57277774084E+02  0.00000000000E+00 0.  1.
          2    1    6    6  502    0 -0.12257045507E+03  0.36658456273E+02 -0.42999072764E+01  0.12800721884E+03  0.00000000000E+00 0. -1.
          1    1    5    5  503    0 -0.12524059094E+02 -0.86167967803E+01 -0.11749560859E+02  0.19213365747E+02  0.00000000000E+00 0. -1.
         -2    1    5    5    0  503  0.12301707280E+03 -0.14653629999E+03 -0.20683950022E+03  0.28175994439E+03  0.00000000000E+00 0.  1.
         -1    1    6    6    0  502 -0.61606334750E+03  0.24050469934E+03  0.15209479170E+03  0.67860841742E+03  0.00000000000E+00 0.  1.
<mgrwt>
<rscale>  0 0.20939824E+04</rscale>
<asrwt>0</asrwt>
<pdfrwt beam="1">  1        2 0.24552148E+00 0.20939824E+04</pdfrwt>
<pdfrwt beam="2">  1       -2 0.10567442E+00 0.20939824E+04</pdfrwt>
<totfact> 0.74830398E+00</totfact>
</mgrwt>
</event>
<event>
12    1  0.1562393E-007  0.2308832E+04  0.7818608E-02  0.8474447E-01
         -1   -1    0    0    0  501 -0.00000000000E+00  0.00000000000E+00  0.68425204241E+03  0.68425204241E+03  0.00000000000E+00 0.  1.
          1   -1    0    0  501    0  0.00000000000E+00 -0.00000000000E+00 -0.19476390437E+04  0.19476390437E+04  0.00000000000E+00 0. -1.
         23    2    1    2    0    0 -0.43844195437E+03 -0.35749535415E+03 -0.14511875330E+04  0.15603090579E+04  0.92654328640E+02 0.  0.
        254    2    1    2    0    0  0.43844195437E+03  0.35749535415E+03  0.18780053179E+03  0.10715820281E+04  0.89049689932E+03 0.  0.
        -24    2    4    4    0    0 -0.57559863764E+01  0.45943051770E+03  0.34769878180E+03  0.58189164661E+03  0.81202915903E+02 0.  0.
         24    2    4    4    0    0  0.44419794074E+03 -0.10193516355E+03 -0.15989825001E+03  0.48969038153E+03  0.80787568842E+02 0.  0.
         13    1    3    3    0    0 -0.33639626250E+03 -0.25094946512E+03 -0.11658131403E+04  0.12390554296E+04  0.00000000000E+00 0. -1.
        -13    1    3    3    0    0 -0.10204569187E+03 -0.10654588902E+03 -0.28537439274E+03  0.32125362835E+03  0.00000000000E+00 0.  1.
          4    1    6    6  502    0  0.16210963888E+03 -0.37543633221E+02 -0.10023820373E+03  0.19425950916E+03  0.00000000000E+00 0. -1.
          1    1    5    5  503    0  0.20091082819E+02  0.74820127596E+02  0.87220893811E+02  0.11665842198E+03  0.00000000000E+00 0. -1.
         -2    1    5    5    0  503 -0.25847069196E+02  0.38461039010E+03  0.26047788799E+03  0.46523322462E+03  0.00000000000E+00 0.  1.
         -3    1    6    6    0  502  0.28208830186E+03 -0.64391530332E+02 -0.59660046280E+02  0.29543087237E+03  0.00000000000E+00 0.  1.
<mgrwt>
<rscale>  0 0.23088317E+04</rscale>
<asrwt>0</asrwt>
<pdfrwt beam="1">  1        1 0.29963678E+00 0.23088317E+04</pdfrwt>
<pdfrwt beam="2">  1       -1 0.10526955E+00 0.23088317E+04</pdfrwt>
<totfact> 0.24716004E+00</totfact>
</mgrwt>
</event>
<event>
12    1  0.1562393E-007  0.3598024E+04  0.7818608E-02  0.8090944E-01
         -2   -1    0    0    0  501 -0.00000000000E+00  0.00000000000E+00  0.26155182308E+04  0.26155182308E+04  0.00000000000E+00 0.  1.
          2   -1    0    0  501    0  0.00000000000E+00 -0.00000000000E+00 -0.12374007359E+04  0.12374007359E+04  0.00000000000E+00 0. -1.
         23    2    1    2    0    0  0.24566245288E+02 -0.16415529717E+02 -0.11584657832E+04  0.11610544208E+04  0.71633979820E+02 0.  0.
        254    2    1    2    0    0 -0.24566245288E+02  0.16415529717E+02  0.25365832781E+04  0.26918645459E+04  0.90055929099E+03 0.  0.
        -24    2    4    4    0    0 -0.28366901474E+03 -0.68425823074E+02  0.26205954130E+03  0.39969519192E+03  0.77011947573E+02 0.  0.
         24    2    4    4    0    0  0.25910276945E+03  0.84841352791E+02  0.22745237368E+04  0.22921693540E+04  0.79055788347E+02 0.  0.
         11    1    3    3    0    0  0.12988245556E+02 -0.21614245715E+02 -0.12537762823E+03  0.12788830987E+03  0.00000000000E+00 0.  1.
        -11    1    3    3    0    0  0.11577999731E+02  0.51987159984E+01 -0.10330881550E+04  0.10331661109E+04  0.00000000000E+00 0. -1.
          2    1    6    6  502    0  0.16483008962E+03  0.48634269939E+02  0.17164797683E+04  0.17250614614E+04  0.00000000000E+00 0. -1.
          1    1    5    5  503    0 -0.21777782083E+03 -0.21786606188E+02  0.16912993579E+03  0.27659857309E+03  0.00000000000E+00 0. -1.
         -2    1    5    5    0  503 -0.65891193909E+02 -0.46639216886E+02  0.92929605512E+02  0.12309661883E+03  0.00000000000E+00 0.  1.
         -1    1    6    6    0  502  0.94272679831E+02  0.36207082852E+02  0.55804396858E+03  0.56710789262E+03  0.00000000000E+00 0.  1.
<mgrwt>
<rscale>  0 0.35980240E+04</rscale>
<asrwt>0</asrwt>
<pdfrwt beam="1">  1        2 0.19036934E+00 0.35980240E+04</pdfrwt>
<pdfrwt beam="2">  1       -2 0.40238742E+00 0.35980240E+04</pdfrwt>
<totfact> 0.10493582E-01</totfact>
</mgrwt>
</event>
<event>
12    1  0.1562393E-007  0.1018987E+04  0.7818608E-02  0.9287962E-01
          2   -1    0    0  501    0  0.00000000000E+00  0.00000000000E+00  0.24537843665E+04  0.24537843665E+04  0.00000000000E+00 0. -1.
         -2   -1    0    0    0  501 -0.00000000000E+00 -0.00000000000E+00 -0.10578914064E+03  0.10578914064E+03  0.00000000000E+00 0.  1.
         23    2    1    2    0    0 -0.28475717800E+02 -0.60555953537E+02  0.28620419913E+03  0.30718925730E+03  0.89300090655E+02 0.  0.
        254    2    1    2    0    0  0.28475717800E+02  0.60555953537E+02  0.20617910267E+04  0.22523842498E+04  0.90430895217E+03 0.  0.
        -24    2    4    4    0    0 -0.19542570896E+03  0.15295397248E+02  0.19878375539E+04  0.19990937806E+04  0.80328361575E+02 0.  0.
         24    2    4    4    0    0  0.22390142676E+03  0.45260556289E+02  0.73953472739E+02  0.25329046924E+03  0.80663367264E+02 0.  0.
         13    1    3    3    0    0  0.38579614164E+01 -0.24539858228E+02  0.10003491549E+02  0.26779812384E+02  0.00000000000E+00 0.  1.
        -13    1    3    3    0    0 -0.32333679217E+02 -0.36016095309E+02  0.27620070758E+03  0.28040944492E+03  0.00000000000E+00 0. -1.
          4    1    6    6  502    0  0.23980742600E+02 -0.86349922832E+01 -0.13122860575E+02  0.28667901511E+02  0.00000000000E+00 0. -1.
          1    1    5    5  503    0 -0.53600393050E+02  0.60223559628E+01  0.26680194139E+03  0.27219946150E+03  0.00000000000E+00 0. -1.
         -2    1    5    5    0  503 -0.14182531591E+03  0.92730412849E+01  0.17210356125E+04  0.17268943191E+04  0.00000000000E+00 0.  1.
         -3    1    6    6    0  502  0.19992068416E+03  0.53895548572E+02  0.87076333314E+02  0.22462256773E+03  0.00000000000E+00 0.  1.
<mgrwt>
<rscale>  0 0.10189872E+04</rscale>
<asrwt>0</asrwt>
<pdfrwt beam="1">  1        2 0.37750524E+00 0.10189872E+04</pdfrwt>
<pdfrwt beam="2">  1       -2 0.16275254E-01 0.10189872E+04</pdfrwt>
<totfact> 0.11404958E+02</totfact>
</mgrwt>
</event>
<event>
12    1  0.1562393E-007  0.1618731E+04  0.7818608E-02  0.8809123E-01
         -1   -1    0    0    0  501 -0.00000000000E+00  0.00000000000E+00  0.31964184944E+03  0.31964184944E+03  0.00000000000E+00 0.  1.
          1   -1    0    0  501    0  0.00000000000E+00 -0.00000000000E+00 -0.20493959788E+04  0.20493959788E+04  0.00000000000E+00 0. -1.
         23    2    1    2    0    0  0.42409027520E+03 -0.34860622146E+03 -0.64467853202E+03  0.85173259182E+03  0.91973578644E+02 0.  0.
        254    2    1    2    0    0 -0.42409027520E+03  0.34860622146E+03 -0.10850755973E+04  0.15173052364E+04  0.90743995356E+03 0.  0.
        -24    2    4    4    0    0 -0.48671797388E+03  0.47435850197E+03 -0.11537788712E+04  0.13415139166E+04  0.80892089221E+02 0.  0.
         24    2    4    4    0    0  0.62627698685E+02 -0.12575228051E+03  0.68703273919E+02  0.17579131984E+03  0.80290619541E+02 0.  0.
         13    1    3    3    0    0  0.83540456957E+02 -0.65033766378E+02 -0.18549800325E+03  0.21358349170E+03  0.00000000000E+00 0. -1.
        -13    1    3    3    0    0  0.34054981824E+03 -0.28357245508E+03 -0.45918052878E+03  0.63814910012E+03  0.00000000000E+00 0.  1.
          2    1    6    6  502    0  0.59003359977E+02 -0.74979845676E+02  0.68083568769E+01  0.95654207798E+02  0.00000000000E+00 0. -1.
          1    1    5    5  503    0 -0.23009447313E+02  0.45792111340E+02 -0.63592844366E+02  0.81672528926E+02  0.00000000000E+00 0. -1.
         -2    1    5    5    0  503 -0.46370852657E+03  0.42856639063E+03 -0.10901860269E+04  0.12598413876E+04  0.00000000000E+00 0.  1.
         -1    1    6    6    0  502  0.36243387086E+01 -0.50772434835E+02  0.61894917042E+02  0.80137112038E+02  0.00000000000E+00 0.  1.
<mgrwt>
<rscale>  0 0.16187313E+04</rscale>
<asrwt>0</asrwt>
<pdfrwt beam="1">  1        1 0.31529169E+00 0.16187313E+04</pdfrwt>
<pdfrwt beam="2">  1       -1 0.49175669E-01 0.16187313E+04</pdfrwt>
<totfact> 0.10954410E+01</totfact>
</mgrwt>
</event>
<event>
12    1  0.1562393E-007  0.1449132E+04  0.7818608E-02  0.8919002E-01
         -2   -1    0    0    0  501 -0.00000000000E+00  0.00000000000E+00  0.75116482670E+03  0.75116482670E+03  0.00000000000E+00 0.  1.
          2   -1    0    0  501    0  0.00000000000E+00 -0.00000000000E+00 -0.69890903252E+03  0.69890903252E+03  0.00000000000E+00 0. -1.
         23    2    1    2    0    0 -0.10937122555E+03  0.11199187830E+03 -0.37243659160E+03  0.42308984925E+03  0.12566526963E+03 0.  0.
        254    2    1    2    0    0  0.10937122555E+03 -0.11199187830E+03  0.42469238578E+03  0.10269840100E+04  0.92186131735E+03 0.  0.
        -24    2    4    4    0    0 -0.20634604346E+02 -0.76240428252E+02 -0.28173823835E+03  0.30329401867E+03  0.79827545502E+02 0.  0.
         24    2    4    4    0    0  0.13000582990E+03 -0.35751450045E+02  0.70643062412E+03  0.72368999130E+03  0.80643008506E+02 0.  0.
         13    1    3    3    0    0 -0.50299285930E+02  0.93387308223E+02 -0.10754049553E+03  0.15105020914E+03  0.00000000000E+00 0.  1.
        -13    1    3    3    0    0 -0.59071939620E+02  0.18604570074E+02 -0.26489609607E+03  0.27203964011E+03  0.00000000000E+00 0. -1.
          2    1    6    6  502    0  0.10347686412E+03 -0.72749971447E+01  0.62363544946E+03  0.63220373363E+03  0.00000000000E+00 0. -1.
          1    1    5    5  503    0  0.86023362877E+01 -0.70730903382E+02 -0.24928136073E+03  0.25926445512E+03  0.00000000000E+00 0. -1.
         -2    1    5    5    0  503 -0.29236940634E+02 -0.55095248701E+01 -0.32456877615E+02  0.44029563551E+02  0.00000000000E+00 0.  1.
         -1    1    6    6    0  502  0.26528965779E+02 -0.28476452900E+02  0.82795174659E+02  0.91486257667E+02  0.00000000000E+00 0.  1.
<mgrwt>
<rscale>  0 0.14491320E+04</rscale>
<asrwt>0</asrwt>
<pdfrwt beam="1">  1        2 0.10752447E+00 0.14491320E+04</pdfrwt>
<pdfrwt beam="2">  1       -2 0.11556382E+00 0.14491320E+04</pdfrwt>
<totfact> 0.23197242E+01</totfact>
</mgrwt>
</event>
<event>
12    1  0.1562393E-007  0.1924766E+04  0.7818608E-02  0.8642626E-01
          1   -1    0    0  501    0  0.00000000000E+00  0.00000000000E+00  0.69028215189E+03  0.69028215189E+03  0.00000000000E+00 0. -1.
         -1   -1    0    0    0  501 -0.00000000000E+00 -0.00000000000E+00 -0.13417420466E+04  0.13417420466E+04  0.00000000000E+00 0.  1.
         23    2    1    2    0    0  0.68209901025E+03  0.99724885788E+02  0.44343917973E+02  0.69744374906E+03  0.96214798307E+02 0.  0.
        254    2    1    2    0    0 -0.68209901025E+03 -0.99724885788E+02 -0.69580381264E+03  0.13345804494E+04  0.90650864175E+03 0.  0.
        -24    2    4    4    0    0 -0.53027622886E+02 -0.16098126487E+03  0.17423717031E+03  0.25623345542E+03  0.81056127032E+02 0.  0.
         24    2    4    4    0    0 -0.62907138736E+03  0.61256379087E+02 -0.87004098295E+03  0.10783469940E+04  0.79860960388E+02 0.  0.
         11    1    3    3    0    0  0.47692664814E+03  0.10381164405E+03  0.59316550639E+02  0.49168520247E+03  0.00000000000E+00 0. -1.
        -11    1    3    3    0    0  0.20517236210E+03 -0.40867582634E+01 -0.14972632666E+02  0.20575854659E+03  0.00000000000E+00 0.  1.
          4    1    6    6  502    0 -0.38286542594E+03  0.45919605201E+02 -0.59350917205E+03  0.70777657621E+03  0.00000000000E+00 0. -1.
          1    1    5    5  503    0 -0.26827337255E+02 -0.42987344498E+01  0.39436940720E+02  0.47890055705E+02  0.00000000000E+00 0. -1.
         -2    1    5    5    0  503 -0.26200285631E+02 -0.15668253042E+03  0.13480022959E+03  0.20834339972E+03  0.00000000000E+00 0.  1.
         -3    1    6    6    0  502 -0.24620596142E+03  0.15336773886E+02 -0.27653181090E+03  0.37057041776E+03  0.00000000000E+00 0.  1.
<mgrwt>
<rscale>  0 0.19247655E+04</rscale>
<asrwt>0</asrwt>
<pdfrwt beam="1">  1        1 0.10619726E+00 0.19247655E+04</pdfrwt>
<pdfrwt beam="2">  1       -1 0.20642185E+00 0.19247655E+04</pdfrwt>
<totfact> 0.35324409E+00</totfact>
</mgrwt>
</event>
<event>
12    1  0.1562393E-007  0.1979283E+04  0.7818608E-02  0.8616368E-01
         -1   -1    0    0    0  501 -0.00000000000E+00  0.00000000000E+00  0.27867157723E+04  0.27867157723E+04  0.00000000000E+00 0.  1.
          1   -1    0    0  501    0  0.00000000000E+00 -0.00000000000E+00 -0.35144958592E+03  0.35144958592E+03  0.00000000000E+00 0. -1.
         23    2    1    2    0    0 -0.77077212496E+03  0.12133019290E+03  0.10961362778E+04  0.13484510771E+04  0.89414112103E+02 0.  0.
        254    2    1    2    0    0  0.77077212496E+03 -0.12133019290E+03  0.13391299085E+04  0.17897142811E+04  0.89498469914E+03 0.  0.
        -24    2    4    4    0    0 -0.13465465299E+03  0.78547700212E+02  0.52389574659E+03  0.55237442940E+03  0.79681492126E+02 0.  0.
         24    2    4    4    0    0  0.90542677795E+03 -0.19987789311E+03  0.81523416193E+03  0.12373398517E+04  0.81574183387E+02 0.  0.
         13    1    3    3    0    0 -0.49099929962E+03  0.77996916890E+02  0.77031401455E+03  0.91681378277E+03  0.00000000000E+00 0. -1.
        -13    1    3    3    0    0 -0.27977282534E+03  0.43333276007E+02  0.32582226329E+03  0.43163729434E+03  0.00000000000E+00 0.  1.
          4    1    6    6  502    0  0.13114071239E+03 -0.38279421659E+02  0.15864957616E+03  0.20936305449E+03  0.00000000000E+00 0. -1.
          1    1    5    5  503    0  0.10104806022E+02 -0.20699102873E+00  0.36441667742E+02  0.37817259258E+02  0.00000000000E+00 0. -1.
         -2    1    5    5    0  503 -0.14475945901E+03  0.78754691241E+02  0.48745407884E+03  0.51455717014E+03  0.00000000000E+00 0.  1.
         -3    1    6    6    0  502  0.77428606556E+03 -0.16159847145E+03  0.65658458576E+03  0.10279767972E+04  0.00000000000E+00 0.  1.
<mgrwt>
<rscale>  0 0.19792828E+04</rscale>
<asrwt>0</asrwt>
<pdfrwt beam="1">  1        1 0.54069169E-01 0.19792828E+04</pdfrwt>
<pdfrwt beam="2">  1       -1 0.42872549E+00 0.19792828E+04</pdfrwt>
<totfact> 0.30090905E-01</totfact>
</mgrwt>
</event>
<event>
12    1  0.1562393E-007  0.1184260E+04  0.7818608E-02  0.9126747E-01
         -2   -1    0    0    0  501 -0.00000000000E+00  0.00000000000E+00  0.12636444052E+03  0.12636444052E+03  0.00000000000E+00 0.  1.
          2   -1    0    0  501    0  0.00000000000E+00 -0.00000000000E+00 -0.27746559095E+04  0.27746559095E+04  0.00000000000E+00 0. -1.
         23    2    1    2    0    0  0.15787547522E+03 -0.87245861316E+02 -0.18635777282E+03  0.27511289841E+03  0.91768084792E+02 0.  0.
        254    2    1    2    0    0 -0.15787547522E+03  0.87245861316E+02 -0.24619336961E+04  0.26259074516E+04  0.89539707063E+03 0.  0.
        -24    2    4    4    0    0 -0.44853830990E+03  0.27475547099E+03 -0.11650000470E+04  0.12809480188E+04  0.83219786990E+02 0.  0.
         24    2    4    4    0    0  0.29066283468E+03 -0.18750960967E+03 -0.12969336491E+04  0.13449594328E+04  0.85054385607E+02 0.  0.
         13    1    3    3    0    0  0.14006803955E+03 -0.94781642751E+02 -0.12368407806E+03  0.20952414341E+03  0.00000000000E+00 0.  1.
        -13    1    3    3    0    0  0.17807435667E+02  0.75357814355E+01 -0.62673694760E+02  0.65588754994E+02  0.00000000000E+00 0. -1.
          2    1    6    6  502    0  0.27570667953E+03 -0.18652004816E+03 -0.12788989199E+04  0.13215091180E+04  0.00000000000E+00 0. -1.
          1    1    5    5  503    0 -0.13810987323E+03  0.13103446720E+03 -0.40594976273E+03  0.44837437320E+03  0.00000000000E+00 0. -1.
         -2    1    5    5    0  503 -0.31042843667E+03  0.14372100379E+03 -0.75905028428E+03  0.83257364556E+03  0.00000000000E+00 0.  1.
         -1    1    6    6    0  502  0.14956155148E+02 -0.98956151256E+00 -0.18034729183E+02  0.23450314827E+02  0.00000000000E+00 0.  1.
<mgrwt>
<rscale>  0 0.11842598E+04</rscale>
<asrwt>0</asrwt>
<pdfrwt beam="1">  1        2 0.42687013E+00 0.11842598E+04</pdfrwt>
<pdfrwt beam="2">  1       -2 0.19440684E-01 0.11842598E+04</pdfrwt>
<totfact> 0.53743190E+01</totfact>
</mgrwt>
</event>
<event>
12    1  0.1562393E-007  0.1695208E+04  0.7818608E-02  0.8764102E-01
         -2   -1    0    0    0  501 -0.00000000000E+00  0.00000000000E+00  0.67466283051E+03  0.67466283051E+03  0.00000000000E+00 0.  1.
          2   -1    0    0  501    0  0.00000000000E+00 -0.00000000000E+00 -0.10648759610E+04  0.10648759610E+04  0.00000000000E+00 0. -1.
         23    2    1    2    0    0  0.59434532404E+03 -0.20752106645E+02 -0.30503538030E+02  0.60238773851E+03  0.90903836761E+02 0.  0.
        254    2    1    2    0    0 -0.59434532404E+03  0.20752106645E+02 -0.35970959243E+03  0.11371510530E+04  0.90002472869E+03 0.  0.
        -24    2    4    4    0    0 -0.65994115485E+03  0.27325547407E+03 -0.45184050357E+03  0.84899857281E+03  0.80298530403E+02 0.  0.
         24    2    4    4    0    0  0.65595830818E+02 -0.25250336743E+03  0.92130911143E+02  0.28815248016E+03  0.80516976177E+02 0.  0.
         11    1    3    3    0    0  0.23961332516E+03  0.78639285357E+01  0.29256342811E+02  0.24152084912E+03  0.00000000000E+00 0. -1.
        -11    1    3    3    0    0  0.35473199888E+03 -0.28616035180E+02 -0.59759880841E+02  0.36086688939E+03  0.00000000000E+00 0.  1.
          2    1    6    6  502    0  0.61249600184E+02 -0.16788147399E+03  0.25830063249E+02  0.18056271763E+03  0.00000000000E+00 0. -1.
          3    1    5    5  503    0 -0.64326054444E+03  0.27895195701E+03 -0.44139915997E+03  0.82851164191E+03  0.00000000000E+00 0. -1.
         -4    1    5    5    0  503 -0.16680610414E+02 -0.56964829366E+01 -0.10441343599E+02  0.20486930902E+02  0.00000000000E+00 0.  1.
         -1    1    6    6    0  502  0.43462306341E+01 -0.84621893442E+02  0.66300847894E+02  0.10758976253E+03  0.00000000000E+00 0.  1.
<mgrwt>
<rscale>  0 0.16952076E+04</rscale>
<asrwt>0</asrwt>
<pdfrwt beam="1">  1        2 0.16382707E+00 0.16952076E+04</pdfrwt>
<pdfrwt beam="2">  1       -2 0.10379428E+00 0.16952076E+04</pdfrwt>
<totfact> 0.16484378E+01</totfact>
</mgrwt>
</event>
<event>
12    1  0.1562393E-007  0.1201730E+04  0.7818608E-02  0.9111343E-01
          2   -1    0    0  501    0  0.00000000000E+00  0.00000000000E+00  0.17230226711E+04  0.17230226711E+04  0.00000000000E+00 0. -1.
         -2   -1    0    0    0  501 -0.00000000000E+00 -0.00000000000E+00 -0.20953810767E+03  0.20953810767E+03  0.00000000000E+00 0.  1.
         23    2    1    2    0    0 -0.22705468822E+03  0.41039803274E+02  0.18098932116E+03  0.30706551125E+03  0.91071383692E+02 0.  0.
        254    2    1    2    0    0  0.22705468822E+03 -0.41039803274E+02  0.13324952422E+04  0.16254952675E+04  0.90191640253E+03 0.  0.
        -24    2    4    4    0    0  0.10524891867E+03 -0.43280449847E+02 -0.10915565995E+03  0.17674239626E+03  0.79827215384E+02 0.  0.
         24    2    4    4    0    0  0.12180576955E+03  0.22406465723E+01  0.14416509022E+04  0.14487528712E+04  0.75404854791E+02 0.  0.
         13    1    3    3    0    0 -0.42955765619E+01 -0.15463318790E+02  0.28627247481E+01  0.16302190006E+02  0.00000000000E+00 0. -1.
        -13    1    3    3    0    0 -0.22275911166E+03  0.56503122064E+02  0.17812659641E+03  0.29076332124E+03  0.00000000000E+00 0.  1.
          2    1    6    6  502    0  0.35710681475E+02 -0.32450098692E+02  0.37983221277E+03  0.38288480192E+03  0.00000000000E+00 0. -1.
          1    1    5    5  503    0  0.59276330698E+02  0.17701251933E+02 -0.58180901232E+02  0.84923700869E+02  0.00000000000E+00 0. -1.
         -2    1    5    5    0  503  0.45972587971E+02 -0.60981701780E+02 -0.50974758719E+02  0.91818695390E+02  0.00000000000E+00 0.  1.
         -1    1    6    6    0  502  0.86095088079E+02  0.34690745265E+02  0.10618186894E+04  0.10658680693E+04  0.00000000000E+00 0.  1.
<mgrwt>
<rscale>  0 0.12017303E+04</rscale>
<asrwt>0</asrwt>
<pdfrwt beam="1">  1        2 0.26508040E+00 0.12017303E+04</pdfrwt>
<pdfrwt beam="2">  1       -2 0.32236633E-01 0.12017303E+04</pdfrwt>
<totfact> 0.84154853E+01</totfact>
</mgrwt>
</event>
<event>
12    1  0.1562393E-007  0.1055899E+04  0.7818608E-02  0.9249275E-01
         -2   -1    0    0    0  501 -0.00000000000E+00  0.00000000000E+00  0.62154091407E+03  0.62154091407E+03  0.00000000000E+00 0. -1.
          2   -1    0    0  501    0  0.00000000000E+00 -0.00000000000E+00 -0.44845129051E+03  0.44845129051E+03  0.00000000000E+00 0.  1.
         23    2    1    2    0    0  0.45085901685E+02  0.10815146147E+03 -0.26979936983E+02  0.16563395959E+03  0.11391757731E+03 0.  0.
        254    2    1    2    0    0 -0.45085901685E+02 -0.10815146147E+03  0.20006956055E+03  0.90435824499E+03  0.87413187168E+03 0.  0.
        -24    2    4    4    0    0 -0.26938765766E+03 -0.30157418074E+03  0.36975751882E+03  0.55375718664E+03  0.80060617287E+02 0.  0.
         24    2    4    4    0    0  0.22430175598E+03  0.19342271926E+03 -0.16968795827E+03  0.35060105835E+03  0.80021702515E+02 0.  0.
         13    1    3    3    0    0  0.26565713826E+02  0.10504062790E+03 -0.62769218273E+02  0.12521679369E+03  0.00000000000E+00 0.  1.
        -13    1    3    3    0    0  0.18520187859E+02  0.31108335793E+01  0.35789281291E+02  0.40417165898E+02  0.00000000000E+00 0. -1.
          2    1    6    6  502    0  0.14136882837E+03  0.10727459497E+03 -0.14341601379E+03  0.22816909819E+03  0.00000000000E+00 0. -1.
          3    1    5    5  503    0 -0.24256355847E+03 -0.29570361505E+03  0.35805176775E+03  0.52390722103E+03  0.00000000000E+00 0. -1.
         -4    1    5    5    0  503 -0.26824099194E+02 -0.58705656885E+01  0.11705751066E+02  0.29849965613E+02  0.00000000000E+00 0.  1.
         -1    1    6    6    0  502  0.82932927609E+02  0.86148124295E+02 -0.26271944487E+02  0.12243196016E+03  0.00000000000E+00 0.  1.
<mgrwt>
<rscale>  0 0.10558993E+04</rscale>
<asrwt>0</asrwt>
<pdfrwt beam="1">  1        2 0.68992507E-01 0.10558993E+04</pdfrwt>
<pdfrwt beam="2">  1       -2 0.95621679E-01 0.10558993E+04</pdfrwt>
<totfact> 0.63818173E+01</totfact>
</mgrwt>
</event>
<event>
12    1  0.1562393E-007  0.1862906E+04  0.7818608E-02  0.8673544E-01
          1   -1    0    0  501    0  0.00000000000E+00  0.00000000000E+00  0.90867052023E+03  0.90867052023E+03  0.00000000000E+00 0. -1.
         -1   -1    0    0    0  501 -0.00000000000E+00 -0.00000000000E+00 -0.95480640105E+03  0.95480640105E+03  0.00000000000E+00 0.  1.
         23    2    1    2    0    0  0.25666702133E+03  0.13961604048E+03 -0.66250159285E+03  0.73005095612E+03  0.93249339991E+02 0.  0.
        254    2    1    2    0    0 -0.25666702133E+03 -0.13961604048E+03  0.61636571203E+03  0.11334259652E+04  0.90519452548E+03 0.  0.
        -24    2    4    4    0    0 -0.44505790771E+03 -0.21296429213E+03  0.73195844672E+03  0.88630785624E+03  0.79675073795E+02 0.  0.
         24    2    4    4    0    0  0.18839088638E+03  0.73348251646E+02 -0.11559273469E+03  0.24711810892E+03  0.82671563150E+02 0.  0.
         11    1    3    3    0    0  0.30207121566E+02  0.12338400568E+02 -0.17136846775E+03  0.17444729307E+03  0.00000000000E+00 0. -1.
        -11    1    3    3    0    0  0.22645989976E+03  0.12727763991E+03 -0.49113312510E+03  0.55560366305E+03  0.00000000000E+00 0.  1.
          2    1    6    6  502    0  0.76189853958E+02  0.67740990867E+02 -0.78973198367E+02  0.12895930269E+03  0.00000000000E+00 0. -1.
          1    1    5    5  503    0 -0.43817560068E+03 -0.21775571468E+03  0.72769323137E+03  0.87689956511E+03  0.00000000000E+00 0. -1.
         -2    1    5    5    0  503 -0.68823070207E+01  0.47914225587E+01  0.42652153534E+01  0.94082911347E+01  0.00000000000E+00 0.  1.
         -1    1    6    6    0  502  0.11220103242E+03  0.56072607786E+01 -0.36619536326E+02  0.11815880623E+03  0.00000000000E+00 0.  1.
<mgrwt>
<rscale>  0 0.18629057E+04</rscale>
<asrwt>0</asrwt>
<pdfrwt beam="1">  1        1 0.13979546E+00 0.18629057E+04</pdfrwt>
<pdfrwt beam="2">  1       -1 0.14689329E+00 0.18629057E+04</pdfrwt>
<totfact> 0.62018342E+00</totfact>
</mgrwt>
</event>
<event>
12    1  0.1562393E-007  0.2067259E+04  0.7818608E-02  0.8575805E-01
         -1   -1    0    0    0  501 -0.00000000000E+00  0.00000000000E+00  0.74143141588E+03  0.74143141588E+03  0.00000000000E+00 0.  1.
          1   -1    0    0  501    0  0.00000000000E+00 -0.00000000000E+00 -0.14409821753E+04  0.14409821753E+04  0.00000000000E+00 0. -1.
         23    2    1    2    0    0 -0.68017918643E+03  0.25842096049E+03 -0.71871326937E+03  0.10269974568E+04  0.93540869032E+02 0.  0.
        254    2    1    2    0    0  0.68017918643E+03 -0.25842096049E+03  0.19162509972E+02  0.11554161344E+04  0.89732609642E+03 0.  0.
        -24    2    4    4    0    0  0.38118906403E+02 -0.42281021459E+03  0.18041073290E+03  0.46861735141E+03  0.82659911152E+02 0.  0.
         24    2    4    4    0    0  0.64206028002E+03  0.16438925410E+03 -0.16124822292E+03  0.68679878297E+03  0.80164511119E+02 0.  0.
         11    1    3    3    0    0 -0.49139679369E+03  0.14672915226E+03 -0.53210976529E+03  0.73901356908E+03  0.00000000000E+00 0. -1.
        -11    1    3    3    0    0 -0.18878239273E+03  0.11169180824E+03 -0.18660350408E+03  0.28798388769E+03  0.00000000000E+00 0.  1.
          2    1    6    6  502    0  0.63203630422E+03  0.14933163410E+03 -0.15852665045E+03  0.66850618973E+03  0.00000000000E+00 0. -1.
          1    1    5    5  503    0  0.50169542121E+02 -0.37773637097E+03  0.13712997961E+03  0.40497701196E+03  0.00000000000E+00 0. -1.
         -2    1    5    5    0  503 -0.12050635719E+02 -0.45073843621E+02  0.43280753289E+02  0.63640339450E+02  0.00000000000E+00 0.  1.
         -1    1    6    6    0  502  0.10023975799E+02  0.15057619993E+02 -0.27215724693E+01  0.18292593238E+02  0.00000000000E+00 0.  1.
<mgrwt>
<rscale>  0 0.20672585E+04</rscale>
<asrwt>0</asrwt>
<pdfrwt beam="1">  1        1 0.22168956E+00 0.20672585E+04</pdfrwt>
<pdfrwt beam="2">  1       -1 0.11406637E+00 0.20672585E+04</pdfrwt>
<totfact> 0.46422978E+00</totfact>
</mgrwt>
</event>
<event>
12    1  0.1562393E-007  0.1898809E+04  0.7818608E-02  0.8655450E-01
         -2   -1    0    0    0  501 -0.00000000000E+00  0.00000000000E+00  0.67856821994E+03  0.67856821994E+03  0.00000000000E+00 0.  1.
          2   -1    0    0  501    0  0.00000000000E+00 -0.00000000000E+00 -0.13283390814E+04  0.13283390814E+04  0.00000000000E+00 0. -1.
         23    2    1    2    0    0  0.28597134622E+03  0.32250401910E+03  0.36678560836E+03  0.57357931927E+03  0.93129478715E+02 0.  0.
        254    2    1    2    0    0 -0.28597134622E+03 -0.32250401910E+03 -0.10165564699E+04  0.14333279821E+04  0.91392209441E+03 0.  0.
        -24    2    4    4    0    0 -0.42735874260E+03 -0.34833360020E+03 -0.18714789461E+03  0.58776778545E+03  0.80466410726E+02 0.  0.
         24    2    4    4    0    0  0.14138739638E+03  0.25829581100E+02 -0.82940857524E+03  0.84556019664E+03  0.79974360517E+02 0.  0.
         13    1    3    3    0    0  0.24868270079E+03  0.28303082562E+03  0.35573213749E+03  0.51816492313E+03  0.00000000000E+00 0.  1.
        -13    1    3    3    0    0  0.37288645431E+02  0.39473193477E+02  0.11053470872E+02  0.55414396141E+02  0.00000000000E+00 0. -1.
          2    1    6    6  502    0  0.10583311901E+03  0.53349628642E+02 -0.64066403483E+03  0.65153452517E+03  0.00000000000E+00 0. -1.
          1    1    5    5  503    0 -0.23071546963E+03 -0.23895088617E+03 -0.11265198378E+03  0.35073868247E+03  0.00000000000E+00 0. -1.
         -2    1    5    5    0  503 -0.19664327297E+03 -0.10938271403E+03 -0.74495910830E+02  0.23702910298E+03  0.00000000000E+00 0.  1.
         -1    1    6    6    0  502  0.35554277372E+02 -0.27520047542E+02 -0.18874454041E+03  0.19402567147E+03  0.00000000000E+00 0.  1.
<mgrwt>
<rscale>  0 0.18988088E+04</rscale>
<asrwt>0</asrwt>
<pdfrwt beam="1">  1        2 0.20435986E+00 0.18988088E+04</pdfrwt>
<pdfrwt beam="2">  1       -2 0.10439511E+00 0.18988088E+04</pdfrwt>
<totfact> 0.11112794E+01</totfact>
</mgrwt>
</event>
<event>
12    1  0.1562393E-007  0.1497433E+04  0.7818608E-02  0.8886162E-01
         -1   -1    0    0    0  501 -0.00000000000E+00  0.00000000000E+00  0.63775716933E+03  0.63775716933E+03  0.00000000000E+00 0.  1.
          1   -1    0    0  501    0  0.00000000000E+00 -0.00000000000E+00 -0.87898042032E+03  0.87898042032E+03  0.00000000000E+00 0. -1.
         23    2    1    2    0    0 -0.45336468602E+03 -0.14439630359E+02 -0.22344584884E+03  0.51408616507E+03  0.92781982616E+02 0.  0.
        254    2    1    2    0    0  0.45336468602E+03  0.14439630359E+02 -0.17777402155E+02  0.10026514246E+04  0.89400548194E+03 0.  0.
        -24    2    4    4    0    0  0.42989354872E+02  0.34133280841E+03  0.22510434975E+03  0.41895211792E+03  0.80577528535E+02 0.  0.
         24    2    4    4    0    0  0.41037533115E+03 -0.32689317805E+03 -0.24288175190E+03  0.58369930667E+03  0.80288684934E+02 0.  0.
         11    1    3    3    0    0 -0.54409120696E+02 -0.43171141194E+01  0.40223620103E+01  0.54728139795E+02  0.00000000000E+00 0.  1.
        -11    1    3    3    0    0 -0.39895556532E+03 -0.10122516239E+02 -0.22746821085E+03  0.45935802527E+03  0.00000000000E+00 0. -1.
          4    1    6    6  502    0  0.58419157855E+02 -0.77337973019E+02 -0.23756501176E+02  0.99791439629E+02  0.00000000000E+00 0. -1.
          1    1    5    5  503    0  0.42792657840E+02  0.72242061732E+02  0.60779604166E+02  0.10365465417E+03  0.00000000000E+00 0. -1.
         -2    1    5    5    0  503  0.19669703297E+00  0.26909074668E+03  0.16432474558E+03  0.31529746375E+03  0.00000000000E+00 0.  1.
         -3    1    6    6    0  502  0.35195617329E+03 -0.24955520503E+03 -0.21912525073E+03  0.48390786704E+03  0.00000000000E+00 0.  1.
<mgrwt>
<rscale>  0 0.14974326E+04</rscale>
<asrwt>0</asrwt>
<pdfrwt beam="1">  1        1 0.13522776E+00 0.14974326E+04</pdfrwt>
<pdfrwt beam="2">  1       -1 0.98116488E-01 0.14974326E+04</pdfrwt>
<totfact> 0.18245759E+01</totfact>
</mgrwt>
</event>
<event>
12    1  0.1562393E-007  0.2770275E+04  0.7818608E-02  0.8312557E-01
          1   -1    0    0  501    0  0.00000000000E+00  0.00000000000E+00  0.15788358516E+04  0.15788358516E+04  0.00000000000E+00 0. -1.
         -1   -1    0    0    0  501 -0.00000000000E+00 -0.00000000000E+00 -0.12152029000E+04  0.12152029000E+04  0.00000000000E+00 0.  1.
         23    2    1    2    0    0  0.56540468079E+03 -0.51369014028E+03 -0.81498806383E+03  0.11208198675E+04  0.92041392920E+02 0.  0.
        254    2    1    2    0    0 -0.56540468079E+03  0.51369014028E+03  0.11786210154E+04  0.16732188841E+04  0.90937006926E+03 0.  0.
        -24    2    4    4    0    0  0.10065693086E+03 -0.92928957558E+02  0.54643950741E+03  0.56919052219E+03  0.81327156721E+02 0.  0.
         24    2    4    4    0    0 -0.66606161164E+03  0.60661909784E+03  0.63218150798E+03  0.11040283619E+04  0.87180069166E+02 0.  0.
         13    1    3    3    0    0  0.53098437845E+02 -0.22734549114E+02 -0.85229172156E+02  0.10295783414E+03  0.00000000000E+00 0. -1.
        -13    1    3    3    0    0  0.51230624294E+03 -0.49095559117E+03 -0.72975889167E+03  0.10178620334E+04  0.00000000000E+00 0.  1.
          2    1    6    6  502    0 -0.15731269460E+03  0.19104807588E+03  0.15352753282E+03  0.29123419187E+03  0.00000000000E+00 0. -1.
          1    1    5    5  503    0 -0.81061646230E+01 -0.12736999323E+02  0.14141424041E+03  0.14221789075E+03  0.00000000000E+00 0. -1.
         -2    1    5    5    0  503  0.10876309548E+03 -0.80191958235E+02  0.40502526699E+03  0.42697263145E+03  0.00000000000E+00 0.  1.
         -1    1    6    6    0  502 -0.50874891704E+03  0.41557102196E+03  0.47865397516E+03  0.81279417002E+03  0.00000000000E+00 0.  1.
<mgrwt>
<rscale>  0 0.27702750E+04</rscale>
<asrwt>0</asrwt>
<pdfrwt beam="1">  1        1 0.24289782E+00 0.27702750E+04</pdfrwt>
<pdfrwt beam="2">  1       -1 0.18695429E+00 0.27702750E+04</pdfrwt>
<totfact> 0.92985178E-01</totfact>
</mgrwt>
</event>
<event>
12    1  0.1562393E-007  0.1256843E+04  0.7818608E-02  0.9064507E-01
         -2   -1    0    0    0  501 -0.00000000000E+00  0.00000000000E+00  0.24895718309E+03  0.24895718309E+03  0.00000000000E+00 0.  1.
          2   -1    0    0  501    0  0.00000000000E+00 -0.00000000000E+00 -0.15862714570E+04  0.15862714570E+04  0.00000000000E+00 0. -1.
         23    2    1    2    0    0  0.29670318838E+02  0.93299983635E+02  0.79717658231E+02  0.15491752994E+03  0.89773722679E+02 0.  0.
        254    2    1    2    0    0 -0.29670318838E+02 -0.93299983635E+02 -0.14170319322E+04  0.16803111102E+04  0.89770859160E+03 0.  0.
        -24    2    4    4    0    0 -0.24370554569E+03 -0.22505615851E+03 -0.13701766186E+04  0.14120237487E+04  0.79902649346E+02 0.  0.
         24    2    4    4    0    0  0.21403522685E+03  0.13175617487E+03 -0.46855313606E+02  0.26828736147E+03  0.81313713235E+02 0.  0.
         11    1    3    3    0    0  0.49846100983E+02  0.85076080593E+02  0.34046341645E+02  0.10431551491E+03  0.00000000000E+00 0.  1.
        -11    1    3    3    0    0 -0.20175782145E+02  0.82239030422E+01  0.45671316586E+02  0.50602015030E+02  0.00000000000E+00 0. -1.
          2    1    6    6  502    0  0.49813926928E+02  0.49068312974E+02  0.19869389900E+02  0.72690572354E+02  0.00000000000E+00 0. -1.
          3    1    5    5  503    0 -0.22741045345E+02  0.32570833098E+01 -0.11362499040E+03  0.11592412250E+03  0.00000000000E+00 0. -1.
         -4    1    5    5    0  503 -0.22096450034E+03 -0.22831324182E+03 -0.12565516282E+04  0.12960996262E+04  0.00000000000E+00 0.  1.
         -1    1    6    6    0  502  0.16422129992E+03  0.82687861900E+02 -0.66724703507E+02  0.19559678911E+03  0.00000000000E+00 0.  1.
<mgrwt>
<rscale>  0 0.12568431E+04</rscale>
<asrwt>0</asrwt>
<pdfrwt beam="1">  1        2 0.24404177E+00 0.12568431E+04</pdfrwt>
<pdfrwt beam="2">  1       -2 0.38301105E-01 0.12568431E+04</pdfrwt>
<totfact> 0.71805885E+01</totfact>
</mgrwt>
</event>
<event>
12    1  0.1562393E-007  0.3261190E+04  0.7818608E-02  0.8172841E-01
         -1   -1    0    0    0  501 -0.00000000000E+00  0.00000000000E+00  0.91000920833E+03  0.91000920833E+03  0.00000000000E+00 0.  1.
          1   -1    0    0  501    0  0.00000000000E+00 -0.00000000000E+00 -0.29217720150E+04  0.29217720150E+04  0.00000000000E+00 0. -1.
         23    2    1    2    0    0  0.12276073569E+04 -0.43355012361E+03 -0.18220869542E+04  0.22413627608E+04  0.93384285390E+02 0.  0.
        254    2    1    2    0    0 -0.12276073569E+04  0.43355012361E+03 -0.18967585252E+03  0.15904184625E+04  0.89357060414E+03 0.  0.
        -24    2    4    4    0    0 -0.46766994215E+03  0.34223729530E+03 -0.49144770031E+03  0.76348334951E+03  0.74461008247E+02 0.  0.
         24    2    4    4    0    0 -0.75993741472E+03  0.91312828311E+02  0.30177184779E+03  0.82693511302E+03  0.83141602788E+02 0.  0.
         13    1    3    3    0    0  0.84046073108E+03 -0.29062387814E+03 -0.11689008635E+04  0.14687292833E+04  0.00000000000E+00 0. -1.
        -13    1    3    3    0    0  0.38714662579E+03 -0.14292624548E+03 -0.65318609065E+03  0.77263347749E+03  0.00000000000E+00 0.  1.
          4    1    6    6  502    0 -0.62683786372E+03  0.50462703164E+02  0.26850412317E+03  0.68378845849E+03  0.00000000000E+00 0. -1.
          1    1    5    5  503    0 -0.44351764990E+03  0.33615490659E+03 -0.45254126464E+03  0.71728768511E+03  0.00000000000E+00 0. -1.
         -2    1    5    5    0  503 -0.24152292246E+02  0.60823887128E+01 -0.38906435667E+02  0.46195664401E+02  0.00000000000E+00 0.  1.
         -3    1    6    6    0  502 -0.13309955100E+03  0.40850125147E+02  0.33267724625E+02  0.14314665453E+03  0.00000000000E+00 0.  1.
<mgrwt>
<rscale>  0 0.32611896E+04</rscale>
<asrwt>0</asrwt>
<pdfrwt beam="1">  1        1 0.44950339E+00 0.32611896E+04</pdfrwt>
<pdfrwt beam="2">  1       -1 0.14000142E+00 0.32611896E+04</pdfrwt>
<totfact> 0.23752578E-01</totfact>
</mgrwt>
</event>
<event>
12    1  0.1562393E-007  0.1482526E+04  0.7818608E-02  0.8896156E-01
         -2   -1    0    0    0  501 -0.00000000000E+00  0.00000000000E+00  0.50574730516E+03  0.50574730516E+03  0.00000000000E+00 0.  1.
          2   -1    0    0  501    0  0.00000000000E+00 -0.00000000000E+00 -0.10864540378E+04  0.10864540378E+04  0.00000000000E+00 0. -1.
         23    2    1    2    0    0  0.35165895336E+03 -0.24591172392E+03 -0.10357646879E+02  0.43882528455E+03  0.91234610087E+02 0.  0.
        254    2    1    2    0    0 -0.35165895336E+03  0.24591172392E+03 -0.57034908579E+03  0.11533760584E+04  0.90600312199E+03 0.  0.
        -24    2    4    4    0    0  0.29744761774E+02  0.72073756218E+02 -0.69797670085E+03  0.70784753020E+03  0.88302173705E+02 0.  0.
         24    2    4    4    0    0 -0.38140371513E+03  0.17383796770E+03  0.12762761506E+03  0.44552852823E+03  0.80736784751E+02 0.  0.
         11    1    3    3    0    0  0.12679336619E+03 -0.60219515352E+02  0.32461416537E+02  0.14407182689E+03  0.00000000000E+00 0. -1.
        -11    1    3    3    0    0  0.22486558717E+03 -0.18569220857E+03 -0.42819063416E+02  0.29475345767E+03  0.00000000000E+00 0.  1.
          4    1    6    6  502    0 -0.72068595308E+02  0.25926421206E+02  0.56944635633E+02  0.95439788734E+02  0.00000000000E+00 0. -1.
          1    1    5    5  503    0  0.11185189279E+02  0.89398195094E+02 -0.47857189403E+03  0.48697864789E+03  0.00000000000E+00 0. -1.
         -4    1    5    5    0  503  0.18559572494E+02 -0.17324438876E+02 -0.21940480683E+03  0.22086888231E+03  0.00000000000E+00 0.  1.
         -3    1    6    6    0  502 -0.30933511982E+03  0.14791154649E+03  0.70682979431E+02  0.35008873950E+03  0.00000000000E+00 0.  1.
<mgrwt>
<rscale>  0 0.14825265E+04</rscale>
<asrwt>0</asrwt>
<pdfrwt beam="1">  1        2 0.16714678E+00 0.14825265E+04</pdfrwt>
<pdfrwt beam="2">  1       -2 0.77807278E-01 0.14825265E+04</pdfrwt>
<totfact> 0.31621046E+01</totfact>
</mgrwt>
</event>
<event>
12    1  0.1562393E-007  0.2969827E+04  0.7818608E-02  0.8252400E-01
         -1   -1    0    0    0  501 -0.00000000000E+00  0.00000000000E+00  0.12956178093E+04  0.12956178093E+04  0.00000000000E+00 0.  1.
          1   -1    0    0  501    0  0.00000000000E+00 -0.00000000000E+00 -0.17018659563E+04  0.17018659563E+04  0.00000000000E+00 0. -1.
         23    2    1    2    0    0  0.96002759751E+03  0.63878779889E+03 -0.88065887367E+03  0.14538203114E+04  0.91272153738E+02 0.  0.
        254    2    1    2    0    0 -0.96002759751E+03 -0.63878779889E+03  0.47441072662E+03  0.15436634542E+04  0.91001564945E+03 0.  0.
        -24    2    4    4    0    0 -0.63489916412E+03 -0.80244785045E+03  0.12683520000E+03  0.10341532064E+04  0.79788376662E+02 0.  0.
         24    2    4    4    0    0 -0.32512843338E+03  0.16366005156E+03  0.34757552662E+03  0.50951024778E+03  0.79365201543E+02 0.  0.
         11    1    3    3    0    0  0.15261320595E+03  0.64575814700E+02 -0.13680159814E+03  0.21488486157E+03  0.00000000000E+00 0.  1.
        -11    1    3    3    0    0  0.80741439155E+03  0.57421198419E+03 -0.74385727553E+03  0.12389354498E+04  0.00000000000E+00 0. -1.
          2    1    6    6  502    0 -0.32555480804E+03  0.15079539513E+03  0.34130993373E+03  0.49519456287E+03  0.00000000000E+00 0. -1.
          3    1    5    5  503    0 -0.42120042909E+03 -0.47778589316E+03  0.59853154908E+02  0.63974335583E+03  0.00000000000E+00 0. -1.
         -4    1    5    5    0  503 -0.21369873503E+03 -0.32466195728E+03  0.66982045089E+02  0.39440985057E+03  0.00000000000E+00 0.  1.
         -1    1    6    6    0  502  0.42637465102E+00  0.12864656425E+02  0.62655928876E+01  0.14315684913E+02  0.00000000000E+00 0.  1.
<mgrwt>
<rscale>  0 0.29698268E+04</rscale>
<asrwt>0</asrwt>
<pdfrwt beam="1">  1        1 0.26182553E+00 0.29698268E+04</pdfrwt>
<pdfrwt beam="2">  1       -1 0.19932582E+00 0.29698268E+04</pdfrwt>
<totfact> 0.61686266E-01</totfact>
</mgrwt>
</event>
<event>
12    1  0.1562393E-007  0.2950866E+04  0.7818608E-02  0.8257902E-01
         -1   -1    0    0    0  501 -0.00000000000E+00  0.00000000000E+00  0.12256176320E+04  0.12256176320E+04  0.00000000000E+00 0.  1.
          1   -1    0    0  501    0  0.00000000000E+00 -0.00000000000E+00 -0.17761672696E+04  0.17761672696E+04  0.00000000000E+00 0. -1.
         23    2    1    2    0    0 -0.40419811518E+03 -0.21558261378E+01 -0.15548109363E+04  0.16090858789E+04  0.91321159763E+02 0.  0.
        254    2    1    2    0    0  0.40419811518E+03  0.21558261378E+01  0.10042612987E+04  0.13926990226E+04  0.87617866195E+03 0.  0.
        -24    2    4    4    0    0  0.26995448086E+03 -0.32802827630E+03  0.13879871326E+03  0.45356512439E+03  0.77319256782E+02 0.  0.
         24    2    4    4    0    0  0.13424363432E+03  0.33018410244E+03  0.86546258541E+03  0.93913389822E+03  0.76838123174E+02 0.  0.
         11    1    3    3    0    0 -0.23670246750E+03 -0.20717834362E+02 -0.10620557952E+04  0.10883105250E+04  0.00000000000E+00 0. -1.
        -11    1    3    3    0    0 -0.16749564768E+03  0.18562008224E+02 -0.49275514108E+03  0.52077535387E+03  0.00000000000E+00 0.  1.
          4    1    6    6  502    0  0.11407795290E+03  0.23126072930E+03  0.69125644666E+03  0.73778776033E+03  0.00000000000E+00 0. -1.
          3    1    5    5  503    0  0.25852304705E+03 -0.31194628964E+03  0.14859254925E+03  0.43153725119E+03  0.00000000000E+00 0. -1.
         -4    1    5    5    0  503  0.11431433806E+02 -0.16081986664E+02 -0.97938359930E+01  0.22027873193E+02  0.00000000000E+00 0.  1.
         -3    1    6    6    0  502  0.20165681426E+02  0.98923373140E+02  0.17420613876E+03  0.20134613789E+03  0.00000000000E+00 0.  1.
<mgrwt>
<rscale>  0 0.29508656E+04</rscale>
<asrwt>0</asrwt>
<pdfrwt beam="1">  1        1 0.27325650E+00 0.29508656E+04</pdfrwt>
<pdfrwt beam="2">  1       -1 0.18855656E+00 0.29508656E+04</pdfrwt>
<totfact> 0.65377882E-01</totfact>
</mgrwt>
</event>
<event>
12    1  0.1562393E-007  0.1479784E+04  0.7818608E-02  0.8898009E-01
         -1   -1    0    0    0  501 -0.00000000000E+00  0.00000000000E+00  0.26790085320E+03  0.26790085320E+03  0.00000000000E+00 0.  1.
          1   -1    0    0  501    0  0.00000000000E+00 -0.00000000000E+00 -0.20434430693E+04  0.20434430693E+04  0.00000000000E+00 0. -1.
         23    2    1    2    0    0  0.26126628554E+03  0.22187039356E+03 -0.83511402376E+02  0.36416549657E+03  0.90309529201E+02 0.  0.
        254    2    1    2    0    0 -0.26126628554E+03 -0.22187039356E+03 -0.16920308137E+04  0.19471784259E+04  0.90058259159E+03 0.  0.
        -24    2    4    4    0    0 -0.18324012446E+03 -0.56655167906E+03 -0.10095888396E+04  0.11745163130E+04  0.75240921572E+02 0.  0.
         24    2    4    4    0    0 -0.78026161085E+02  0.34468128549E+03 -0.68244197414E+03  0.77266211290E+03  0.79915094096E+02 0.  0.
         13    1    3    3    0    0  0.18042795498E+03  0.11150720761E+03 -0.81862075294E+02  0.22735325742E+03  0.00000000000E+00 0. -1.
        -13    1    3    3    0    0  0.80838330561E+02  0.11036318595E+03 -0.16493270820E+01  0.13681223915E+03  0.00000000000E+00 0.  1.
          2    1    6    6  502    0 -0.81910985368E+02  0.22366685594E+03 -0.49796037594E+03  0.55199710866E+03  0.00000000000E+00 0. -1.
          1    1    5    5  503    0 -0.18253791591E+03 -0.54278007418E+03 -0.93703609998E+03  0.10981652664E+04  0.00000000000E+00 0. -1.
         -2    1    5    5    0  503 -0.70220855327E+00 -0.23771604879E+02 -0.72552739592E+02  0.76351046605E+02  0.00000000000E+00 0.  1.
         -1    1    6    6    0  502  0.38848242834E+01  0.12101442956E+03 -0.18448159820E+03  0.22066500424E+03  0.00000000000E+00 0.  1.
<mgrwt>
<rscale>  0 0.14797840E+04</rscale>
<asrwt>0</asrwt>
<pdfrwt beam="1">  1        1 0.31437586E+00 0.14797840E+04</pdfrwt>
<pdfrwt beam="2">  1       -1 0.41215516E-01 0.14797840E+04</pdfrwt>
<totfact> 0.15564891E+01</totfact>
</mgrwt>
</event>
<event>
12    1  0.1985159E-007  0.2128348E+04  0.7818608E-02  0.8548858E-01
          1   -1    0    0  501    0  0.00000000000E+00  0.00000000000E+00  0.23130705112E+04  0.23130705112E+04  0.00000000000E+00 0. -1.
         -1   -1    0    0    0  501 -0.00000000000E+00 -0.00000000000E+00 -0.48959425972E+03  0.48959425972E+03  0.00000000000E+00 0.  1.
         23    2    1    2    0    0  0.46705198053E+03  0.46129934781E+03  0.15113937594E+04  0.16502253647E+04  0.89431636888E+02 0.  0.
        254    2    1    2    0    0 -0.46705198053E+03 -0.46129934781E+03  0.31208249212E+03  0.11524394062E+04  0.89430781184E+03 0.  0.
        -24    2    4    4    0    0 -0.72422393809E+03 -0.39711681129E+03  0.26864761830E+03  0.87223838074E+03  0.80163431209E+02 0.  0.
         24    2    4    4    0    0  0.25717195756E+03 -0.64182536510E+02  0.43434873819E+02  0.28020102548E+03  0.79807347199E+02 0.  0.
         13    1    3    3    0    0  0.34382301345E+03  0.32356900198E+03  0.11769159066E+04  0.12680860440E+04  0.00000000000E+00 0. -1.
        -13    1    3    3    0    0  0.12322896708E+03  0.13773034582E+03  0.33447785276E+03  0.38213932076E+03  0.00000000000E+00 0.  1.
          2    1    6    6  502    0  0.25888582260E+03 -0.64930140715E+02  0.51581405026E+02  0.27184266343E+03  0.00000000000E+00 0. -1.
          1    1    5    5  503    0 -0.69597410984E+03 -0.39128604014E+03  0.27132614154E+03  0.84326899733E+03  0.00000000000E+00 0. -1.
         -2    1    5    5    0  503 -0.28249828245E+02 -0.58307711528E+01 -0.26785232405E+01  0.28969383404E+02  0.00000000000E+00 0.  1.
         -1    1    6    6    0  502 -0.17138650399E+01  0.74760420469E+00 -0.81465312063E+01  0.83583620475E+01  0.00000000000E+00 0.  1.
<mgrwt>
<rscale>  0 0.21283478E+04</rscale>
<asrwt>0</asrwt>
<pdfrwt beam="1">  1        1 0.35585699E+00 0.21283478E+04</pdfrwt>
<pdfrwt beam="2">  1       -1 0.75322195E-01 0.21283478E+04</pdfrwt>
<totfact> 0.29636353E+00</totfact>
</mgrwt>
</event>
<event>
12    1  0.1562393E-007  0.1729065E+04  0.7818608E-02  0.8744959E-01
          1   -1    0    0  501    0  0.00000000000E+00  0.00000000000E+00  0.11673898336E+04  0.11673898336E+04  0.00000000000E+00 0. -1.
         -1   -1    0    0    0  501 -0.00000000000E+00 -0.00000000000E+00 -0.64024544510E+03  0.64024544510E+03  0.00000000000E+00 0.  1.
         23    2    1    2    0    0 -0.58120659720E+03 -0.84745537488E+02 -0.32465663920E+02  0.59589266858E+03  0.95137470945E+02 0.  0.
        254    2    1    2    0    0  0.58120659720E+03  0.84745537488E+02  0.55961005244E+03  0.12117426101E+04  0.90009656574E+03 0.  0.
        -24    2    4    4    0    0  0.53834078661E+03  0.34130860663E+03  0.62007405212E+02  0.64453341974E+03  0.72636377761E+02 0.  0.
         24    2    4    4    0    0  0.42865810590E+02 -0.25656306914E+03  0.49760264723E+03  0.56720919039E+03  0.80347899632E+02 0.  0.
         13    1    3    3    0    0 -0.56954060305E+03 -0.93302199558E+02 -0.41850445920E+02  0.57864778474E+03  0.00000000000E+00 0.  1.
        -13    1    3    3    0    0 -0.11665994153E+02  0.85566620706E+01  0.93847819997E+01  0.17244883837E+02  0.00000000000E+00 0. -1.
          2    1    6    6  502    0 -0.10040703622E+02 -0.25840528234E+02  0.20061872008E+02  0.34220276695E+02  0.00000000000E+00 0. -1.
          1    1    5    5  503    0  0.28251193353E+03  0.13630615315E+03  0.33699870502E+02  0.31548065114E+03  0.00000000000E+00 0. -1.
         -2    1    5    5    0  503  0.25582885308E+03  0.20500245348E+03  0.28307534710E+02  0.32905276860E+03  0.00000000000E+00 0.  1.
         -1    1    6    6    0  502  0.52906514212E+02 -0.23072254090E+03  0.47754077522E+03  0.53298891370E+03  0.00000000000E+00 0.  1.
<mgrwt>
<rscale>  0 0.17290645E+04</rscale>
<asrwt>0</asrwt>
<pdfrwt beam="1">  1        1 0.17959844E+00 0.17290645E+04</pdfrwt>
<pdfrwt beam="2">  1       -1 0.98499299E-01 0.17290645E+04</pdfrwt>
<totfact> 0.10577541E+01</totfact>
</mgrwt>
</event>
<event>
12    1  0.1562393E-007  0.1700970E+04  0.7818608E-02  0.8760811E-01
         -2   -1    0    0    0  501 -0.00000000000E+00  0.00000000000E+00  0.67947747392E+03  0.67947747392E+03  0.00000000000E+00 0.  1.
          2   -1    0    0  501    0  0.00000000000E+00 -0.00000000000E+00 -0.10645312444E+04  0.10645312444E+04  0.00000000000E+00 0. -1.
         23    2    1    2    0    0 -0.40581738703E+03  0.42726032065E+03 -0.30716377820E+03  0.67080540653E+03  0.91603349133E+02 0.  0.
        254    2    1    2    0    0  0.40581738703E+03 -0.42726032065E+03 -0.77889992257E+02  0.10732033118E+04  0.89356553442E+03 0.  0.
        -24    2    4    4    0    0  0.42608889409E+03 -0.24886354109E+03 -0.43679729321E+03  0.66377188033E+03  0.79475946079E+02 0.  0.
         24    2    4    4    0    0 -0.20271507061E+02 -0.17839677955E+03  0.35890730096E+03  0.40943143145E+03  0.81137546320E+02 0.  0.
         13    1    3    3    0    0 -0.27863202612E+03  0.29997378451E+03 -0.16471252666E+03  0.44130521616E+03  0.00000000000E+00 0. -1.
        -13    1    3    3    0    0 -0.12718536091E+03  0.12728653613E+03 -0.14245125155E+03  0.22950019037E+03  0.00000000000E+00 0.  1.
          4    1    6    6  502    0  0.29901240482E+02 -0.47685028121E+02  0.87516996707E+02  0.10405369192E+03  0.00000000000E+00 0. -1.
          1    1    5    5  503    0  0.16341088359E+03 -0.14088443254E+03 -0.19260374149E+03  0.28921919273E+03  0.00000000000E+00 0. -1.
         -2    1    5    5    0  503  0.26267801050E+03 -0.10797910855E+03 -0.24419355172E+03  0.37455268760E+03  0.00000000000E+00 0.  1.
         -3    1    6    6    0  502 -0.50172747543E+02 -0.13071175143E+03  0.27139030425E+03  0.30537773953E+03  0.00000000000E+00 0.  1.
<mgrwt>
<rscale>  0 0.17009703E+04</rscale>
<asrwt>0</asrwt>
<pdfrwt beam="1">  1        2 0.16377404E+00 0.17009703E+04</pdfrwt>
<pdfrwt beam="2">  1       -2 0.10453500E+00 0.17009703E+04</pdfrwt>
<totfact> 0.16206290E+01</totfact>
</mgrwt>
</event>
<event>
12    1  0.1562393E-007  0.1457020E+04  0.7818608E-02  0.8913548E-01
         -2   -1    0    0    0  501 -0.00000000000E+00  0.00000000000E+00  0.27761604865E+03  0.27761604865E+03  0.00000000000E+00 0.  1.
          2   -1    0    0  501    0  0.00000000000E+00 -0.00000000000E+00 -0.19117304274E+04  0.19117304274E+04  0.00000000000E+00 0. -1.
         23    2    1    2    0    0 -0.11531511382E+03 -0.11291205422E+03 -0.11273077513E+04  0.11426195341E+04  0.93326984521E+02 0.  0.
        254    2    1    2    0    0  0.11531511382E+03  0.11291205422E+03 -0.50680662746E+03  0.10467269420E+04  0.90151962041E+03 0.  0.
        -24    2    4    4    0    0  0.20570003633E+03  0.41613919730E+03 -0.54150435644E+03  0.71708381646E+03  0.74147793708E+02 0.  0.
         24    2    4    4    0    0 -0.90384922506E+02 -0.30322714308E+03  0.34697728978E+02  0.32964312553E+03  0.85700194258E+02 0.  0.
         11    1    3    3    0    0  0.20633930345E+01 -0.52030467610E+02 -0.24629945135E+03  0.25174361340E+03  0.00000000000E+00 0.  1.
        -11    1    3    3    0    0 -0.11737850686E+03 -0.60881586607E+02 -0.88100829997E+03  0.89087592070E+03  0.00000000000E+00 0. -1.
          4    1    6    6  502    0 -0.40125539778E+02 -0.17474395702E+03  0.60625792576E+02  0.18926435529E+03  0.00000000000E+00 0. -1.
          1    1    5    5  503    0  0.28192186322E+02  0.97262421551E+02 -0.15812434822E+03  0.18777137033E+03  0.00000000000E+00 0. -1.
         -2    1    5    5    0  503  0.17750785001E+03  0.31887677575E+03 -0.38338000821E+03  0.52931244613E+03  0.00000000000E+00 0.  1.
         -3    1    6    6    0  502 -0.50259382729E+02 -0.12848318606E+03 -0.25928063598E+02  0.14037877024E+03  0.00000000000E+00 0.  1.
<mgrwt>
<rscale>  0 0.14570203E+04</rscale>
<asrwt>0</asrwt>
<pdfrwt beam="1">  1        2 0.29411237E+00 0.14570203E+04</pdfrwt>
<pdfrwt beam="2">  1       -2 0.42710162E-01 0.14570203E+04</pdfrwt>
<totfact> 0.37689798E+01</totfact>
</mgrwt>
</event>
<event>
12    1  0.1562393E-007  0.1731321E+04  0.7818608E-02  0.8743700E-01
          3   -1    0    0  501    0  0.00000000000E+00  0.00000000000E+00  0.75871746103E+03  0.75871746103E+03  0.00000000000E+00 0. -1.
         -3   -1    0    0    0  501 -0.00000000000E+00 -0.00000000000E+00 -0.98767690481E+03  0.98767690481E+03  0.00000000000E+00 0.  1.
         23    2    1    2    0    0  0.29780431282E+03 -0.49083283243E+03 -0.35232448773E+03  0.68128734827E+03  0.10205698472E+03 0.  0.
        254    2    1    2    0    0 -0.29780431282E+03  0.49083283243E+03  0.12336504395E+03  0.10651070176E+04  0.88861113356E+03 0.  0.
        -24    2    4    4    0    0  0.10562755714E+03  0.60445427017E+03 -0.63747072693E+01  0.61885027928E+03  0.80080495282E+02 0.  0.
         24    2    4    4    0    0 -0.40343186996E+03 -0.11362143774E+03  0.12973975122E+03  0.44625673828E+03  0.81520357018E+02 0.  0.
         13    1    3    3    0    0  0.21702766795E+03 -0.36088825059E+03 -0.20300468686E+03  0.46749571223E+03  0.00000000000E+00 0.  1.
        -13    1    3    3    0    0  0.80776644871E+02 -0.12994458184E+03 -0.14931980087E+03  0.21379163603E+03  0.00000000000E+00 0. -1.
          4    1    6    6  502    0 -0.74136115237E+02 -0.55465794741E+02  0.27776966386E+02  0.96665287618E+02  0.00000000000E+00 0. -1.
          1    1    5    5  503    0 -0.23140167280E+01  0.29259845444E+02 -0.16215376718E+02  0.33532546443E+02  0.00000000000E+00 0. -1.
         -2    1    5    5    0  503  0.10794157386E+03  0.57519442473E+03  0.98406694486E+01  0.58531773284E+03  0.00000000000E+00 0.  1.
         -3    1    6    6    0  502 -0.32929575472E+03 -0.58155642998E+02  0.10196278483E+03  0.34959145067E+03  0.00000000000E+00 0.  1.
<mgrwt>
<rscale>  0 0.17313206E+04</rscale>
<asrwt>0</asrwt>
<pdfrwt beam="1">  1        3 0.11672576E+00 0.17313206E+04</pdfrwt>
<pdfrwt beam="2">  1       -3 0.15195029E+00 0.17313206E+04</pdfrwt>
<totfact> 0.46923857E-01</totfact>
</mgrwt>
</event>
<event>
12    1  0.1562393E-007  0.1425893E+04  0.7818608E-02  0.8935286E-01
          1   -1    0    0  501    0  0.00000000000E+00  0.00000000000E+00  0.85888944483E+03  0.85888944483E+03  0.00000000000E+00 0. -1.
         -1   -1    0    0    0  501 -0.00000000000E+00 -0.00000000000E+00 -0.59180250839E+03  0.59180250839E+03  0.00000000000E+00 0.  1.
         23    2    1    2    0    0 -0.56268669647E+02 -0.42183885389E+03  0.27325058278E+02  0.43629928120E+03  0.92174953933E+02 0.  0.
        254    2    1    2    0    0  0.56268669647E+02  0.42183885389E+03  0.23976187816E+03  0.10143926720E+04  0.88904024263E+03 0.  0.
        -24    2    4    4    0    0 -0.30018759495E+03  0.52153281085E+03  0.14033001270E+03  0.62305170698E+03  0.79949059738E+02 0.  0.
         24    2    4    4    0    0  0.35645626460E+03 -0.99693956967E+02  0.99431865465E+02  0.39134096504E+03  0.79127121935E+02 0.  0.
         11    1    3    3    0    0 -0.85912552223E+01 -0.31965385532E+03  0.42276860296E+02  0.32255190249E+03  0.00000000000E+00 0.  1.
        -11    1    3    3    0    0 -0.47677414424E+02 -0.10218499857E+03 -0.14951802018E+02  0.11374737870E+03  0.00000000000E+00 0. -1.
          2    1    6    6  502    0  0.25019696304E+03 -0.31564422525E+02  0.70358804196E+02  0.26181137181E+03  0.00000000000E+00 0. -1.
          1    1    5    5  503    0 -0.27723788097E+03  0.50276140810E+03  0.11850609495E+03  0.58623678719E+03  0.00000000000E+00 0. -1.
         -2    1    5    5    0  503 -0.22949713981E+02  0.18771402752E+02  0.21823917751E+02  0.36814919789E+02  0.00000000000E+00 0.  1.
         -1    1    6    6    0  502  0.10625930156E+03 -0.68129534442E+02  0.29073061268E+02  0.12952959323E+03  0.00000000000E+00 0.  1.
<mgrwt>
<rscale>  0 0.14258933E+04</rscale>
<asrwt>0</asrwt>
<pdfrwt beam="1">  1        1 0.13213684E+00 0.14258933E+04</pdfrwt>
<pdfrwt beam="2">  1       -1 0.91046540E-01 0.14258933E+04</pdfrwt>
<totfact> 0.22562055E+01</totfact>
</mgrwt>
</event>
<event>
12    1  0.1562393E-007  0.2231604E+04  0.7818608E-02  0.8505388E-01
         -2   -1    0    0    0  501 -0.00000000000E+00  0.00000000000E+00  0.48311724001E+03  0.48311724001E+03  0.00000000000E+00 0.  1.
          2   -1    0    0  501    0  0.00000000000E+00 -0.00000000000E+00 -0.25770428176E+04  0.25770428176E+04  0.00000000000E+00 0. -1.
         23    2    1    2    0    0  0.51065876771E+03  0.16908377216E+03 -0.19192848693E+04  0.19956406213E+04  0.97802763460E+02 0.  0.
        254    2    1    2    0    0 -0.51065876771E+03 -0.16908377216E+03 -0.17464070826E+03  0.10645194364E+04  0.90185395401E+03 0.  0.
        -24    2    4    4    0    0 -0.16749986324E+03  0.34502514940E+03 -0.20312846878E+03  0.44072849875E+03  0.76693395257E+02 0.  0.
         24    2    4    4    0    0 -0.34315890447E+03 -0.51410892157E+03  0.28487760525E+02  0.62379093760E+03  0.78978252637E+02 0.  0.
         11    1    3    3    0    0  0.27961054974E+03  0.58668798106E+02 -0.11451665801E+04  0.11802671662E+04  0.00000000000E+00 0. -1.
        -11    1    3    3    0    0  0.23104821797E+03  0.11041497406E+03 -0.77411828927E+03  0.81537345511E+03  0.00000000000E+00 0.  1.
          4    1    6    6  502    0 -0.88575931970E+02 -0.95899141670E+02 -0.18865811715E+02  0.13190246377E+03  0.00000000000E+00 0. -1.
          3    1    5    5  503    0 -0.78223146849E+02  0.90397058122E+02 -0.81987908424E+02  0.14495691066E+03  0.00000000000E+00 0. -1.
         -4    1    5    5    0  503 -0.89276716392E+02  0.25462809128E+03 -0.12114056036E+03  0.29577158809E+03  0.00000000000E+00 0.  1.
         -3    1    6    6    0  502 -0.25458297250E+03 -0.41820977990E+03  0.47353572240E+02  0.49188847383E+03  0.00000000000E+00 0.  1.
<mgrwt>
<rscale>  0 0.22316037E+04</rscale>
<asrwt>0</asrwt>
<pdfrwt beam="1">  1        2 0.39646812E+00 0.22316037E+04</pdfrwt>
<pdfrwt beam="2">  1       -2 0.74325730E-01 0.22316037E+04</pdfrwt>
<totfact> 0.46629295E+00</totfact>
</mgrwt>
</event>
<event>
12    1  0.1562393E-007  0.1982579E+04  0.7818608E-02  0.8614809E-01
          2   -1    0    0  501    0  0.00000000000E+00  0.00000000000E+00  0.16859136248E+04  0.16859136248E+04  0.00000000000E+00 0. -1.
         -2   -1    0    0    0  501 -0.00000000000E+00 -0.00000000000E+00 -0.58286206840E+03  0.58286206840E+03  0.00000000000E+00 0.  1.
         23    2    1    2    0    0 -0.47145265436E+03  0.59368952891E+03  0.74751955747E+03  0.10686585612E+04  0.92253832476E+02 0.  0.
        254    2    1    2    0    0  0.47145265436E+03 -0.59368952891E+03  0.35553199892E+03  0.12001171320E+04  0.85973441606E+03 0.  0.
        -24    2    4    4    0    0  0.11657631477E+03 -0.38149833036E+02 -0.25766047060E+03  0.29674617405E+03  0.81387509945E+02 0.  0.
         24    2    4    4    0    0  0.35487633958E+03 -0.55553969588E+03  0.61319246951E+03  0.90337095793E+03  0.74246298686E+02 0.  0.
         11    1    3    3    0    0 -0.45036593807E+03  0.53890410912E+03  0.66353418187E+03  0.96619083390E+03  0.00000000000E+00 0. -1.
        -11    1    3    3    0    0 -0.21086716284E+02  0.54785419795E+02  0.83985375595E+02  0.10246772731E+03  0.00000000000E+00 0.  1.
          2    1    6    6  502    0  0.28347679723E+03 -0.40512282480E+03  0.49115486817E+03  0.69693378614E+03  0.00000000000E+00 0. -1.
          1    1    5    5  503    0  0.10689651080E+03 -0.60490527552E+02 -0.21731927477E+03  0.24962699200E+03  0.00000000000E+00 0. -1.
         -2    1    5    5    0  503  0.96798039705E+01  0.22340694516E+02 -0.40341195826E+02  0.47119182050E+02  0.00000000000E+00 0.  1.
         -1    1    6    6    0  502  0.71399542352E+02 -0.15041687107E+03  0.12203760135E+03  0.20643717178E+03  0.00000000000E+00 0.  1.
<mgrwt>
<rscale>  0 0.19825792E+04</rscale>
<asrwt>0</asrwt>
<pdfrwt beam="1">  1        2 0.25937133E+00 0.19825792E+04</pdfrwt>
<pdfrwt beam="2">  1       -2 0.89671088E-01 0.19825792E+04</pdfrwt>
<totfact> 0.99014161E+00</totfact>
</mgrwt>
</event>
<event>
12    1  0.1562393E-007  0.1623654E+04  0.7818608E-02  0.8806147E-01
         -1   -1    0    0    0  501 -0.00000000000E+00  0.00000000000E+00  0.29381642195E+03  0.29381642195E+03  0.00000000000E+00 0.  1.
          1   -1    0    0  501    0  0.00000000000E+00 -0.00000000000E+00 -0.22431119433E+04  0.22431119433E+04  0.00000000000E+00 0. -1.
         23    2    1    2    0    0  0.33140361381E+03 -0.45027288954E+03 -0.74255352373E+03  0.93405520482E+03  0.92191972266E+02 0.  0.
        254    2    1    2    0    0 -0.33140361381E+03  0.45027288954E+03 -0.12067419976E+04  0.16028731604E+04  0.89465193750E+03 0.  0.
        -24    2    4    4    0    0  0.11652612235E+03  0.56621373851E+03 -0.67728993536E+03  0.89401104742E+03  0.79735572345E+02 0.  0.
         24    2    4    4    0    0 -0.44792973615E+03 -0.11594084897E+03 -0.52945206222E+03  0.70886211297E+03  0.89903726442E+02 0.  0.
         11    1    3    3    0    0  0.24857943820E+03 -0.39432166625E+03 -0.59532284071E+03  0.75610224061E+03  0.00000000000E+00 0. -1.
        -11    1    3    3    0    0  0.82824175603E+02 -0.55951223291E+02 -0.14723068302E+03  0.17795296422E+03  0.00000000000E+00 0.  1.
          2    1    6    6  502    0 -0.42715118509E+03 -0.11251370046E+03 -0.46635272147E+03  0.64234128665E+03  0.00000000000E+00 0. -1.
          1    1    5    5  503    0  0.24654841682E+02  0.28812351630E+03 -0.36857392345E+03  0.46847599609E+03  0.00000000000E+00 0. -1.
         -2    1    5    5    0  503  0.91871280666E+02  0.27809022221E+03 -0.30871601191E+03  0.42553505133E+03  0.00000000000E+00 0.  1.
         -1    1    6    6    0  502 -0.20778551064E+02 -0.34271485031E+01 -0.63099340751E+02  0.66520826321E+02  0.00000000000E+00 0.  1.
<mgrwt>
<rscale>  0 0.16236541E+04</rscale>
<asrwt>0</asrwt>
<pdfrwt beam="1">  1        1 0.34509416E+00 0.16236541E+04</pdfrwt>
<pdfrwt beam="2">  1       -1 0.45202525E-01 0.16236541E+04</pdfrwt>
<totfact> 0.94772349E+00</totfact>
</mgrwt>
</event>
<event>
12    1  0.1562393E-007  0.2085761E+04  0.7818608E-02  0.8567542E-01
         -2   -1    0    0    0  501 -0.00000000000E+00  0.00000000000E+00  0.52857293380E+03  0.52857293380E+03  0.00000000000E+00 0.  1.
          2   -1    0    0  501    0  0.00000000000E+00 -0.00000000000E+00 -0.20576160063E+04  0.20576160063E+04  0.00000000000E+00 0. -1.
         23    2    1    2    0    0 -0.31377059038E+03 -0.41407372398E+03  0.20147745039E+03  0.56439639112E+03  0.89672130644E+02 0.  0.
        254    2    1    2    0    0  0.31377059038E+03  0.41407372398E+03 -0.17305205229E+04  0.20217925490E+04  0.90721265352E+03 0.  0.
        -24    2    4    4    0    0  0.43935420848E+03  0.59960426143E+03 -0.15549426262E+04  0.17252975905E+04  0.79043117058E+02 0.  0.
         24    2    4    4    0    0 -0.12558361810E+03 -0.18553053745E+03 -0.17557789674E+03  0.29649495848E+03  0.82999018759E+02 0.  0.
         13    1    3    3    0    0 -0.25341213680E+03 -0.34350060630E+03  0.12699126306E+03  0.44535060177E+03  0.00000000000E+00 0.  1.
        -13    1    3    3    0    0 -0.60358453580E+02 -0.70573117682E+02  0.74486187337E+02  0.11904578935E+03  0.00000000000E+00 0. -1.
          2    1    6    6  502    0 -0.45436236545E+01 -0.18306748302E+01  0.83923610070E+01  0.97173869697E+01  0.00000000000E+00 0. -1.
          1    1    5    5  503    0  0.23571556887E+03  0.26069220072E+03 -0.76880207683E+03  0.84532767982E+03  0.00000000000E+00 0. -1.
         -4    1    5    5    0  503  0.20363863961E+03  0.33891206071E+03 -0.78614054936E+03  0.87996991073E+03  0.00000000000E+00 0.  1.
         -1    1    6    6    0  502 -0.12103999445E+03 -0.18369986262E+03 -0.18397025775E+03  0.28677757151E+03  0.00000000000E+00 0.  1.
<mgrwt>
<rscale>  0 0.20857614E+04</rscale>
<asrwt>0</asrwt>
<pdfrwt beam="1">  1        2 0.31655631E+00 0.20857614E+04</pdfrwt>
<pdfrwt beam="2">  1       -2 0.81318912E-01 0.20857614E+04</pdfrwt>
<totfact> 0.76263389E+00</totfact>
</mgrwt>
</event>
<event>
12    1  0.1562393E-007  0.1338239E+04  0.7818608E-02  0.8999779E-01
          2   -1    0    0  501    0  0.00000000000E+00  0.00000000000E+00  0.92630641660E+03  0.92630641660E+03  0.00000000000E+00 0.  1.
         -2   -1    0    0    0  501 -0.00000000000E+00 -0.00000000000E+00 -0.48334022299E+03  0.48334022299E+03  0.00000000000E+00 0. -1.
         23    2    1    2    0    0  0.13209847489E+03 -0.33262459586E+03  0.19591739635E+03  0.41799833325E+03  0.90828693542E+02 0.  0.
        254    2    1    2    0    0 -0.13209847489E+03  0.33262459586E+03  0.24704879726E+03  0.99164830634E+03  0.89120375134E+03 0.  0.
        -24    2    4    4    0    0 -0.11128619397E+03  0.62899058383E+03  0.10319291450E+03  0.65207394466E+03  0.80857159101E+02 0.  0.
         24    2    4    4    0    0 -0.20812280929E+02 -0.29636598798E+03  0.14385588276E+03  0.33957436168E+03  0.79688658179E+02 0.  0.
         11    1    3    3    0    0  0.44362647200E+02 -0.62351534449E+02  0.71509607036E+01  0.76856324097E+02  0.00000000000E+00 0. -1.
        -11    1    3    3    0    0  0.87735827695E+02 -0.27027306141E+03  0.18876643564E+03  0.34114200915E+03  0.00000000000E+00 0.  1.
          2    1    6    6  502    0  0.81142202158E+01 -0.19844704895E+03  0.12790282134E+03  0.23623336664E+03  0.00000000000E+00 0. -1.
          3    1    5    5  503    0 -0.90006153722E+02  0.48183001425E+03  0.44364384303E+02  0.49216813076E+03  0.00000000000E+00 0. -1.
         -4    1    5    5    0  503 -0.21280040244E+02  0.14716056958E+03  0.58828530199E+02  0.15990581390E+03  0.00000000000E+00 0.  1.
         -1    1    6    6    0  502 -0.28926501145E+02 -0.97918939022E+02  0.15953061420E+02  0.10334099504E+03  0.00000000000E+00 0.  1.
<mgrwt>
<rscale>  0 0.13382394E+04</rscale>
<asrwt>0</asrwt>
<pdfrwt beam="1">  1        2 0.14250868E+00 0.13382394E+04</pdfrwt>
<pdfrwt beam="2">  1       -2 0.74360035E-01 0.13382394E+04</pdfrwt>
<totfact> 0.44800988E+01</totfact>
</mgrwt>
</event>
<event>
12    1  0.1562393E-007  0.1271139E+04  0.7818608E-02  0.9052771E-01
         -2   -1    0    0    0  501 -0.00000000000E+00  0.00000000000E+00  0.56873561940E+03  0.56873561940E+03  0.00000000000E+00 0. -1.
          2   -1    0    0  501    0  0.00000000000E+00 -0.00000000000E+00 -0.71025707910E+03  0.71025707910E+03  0.00000000000E+00 0.  1.
         23    2    1    2    0    0  0.17668866932E+03  0.10757196646E+03  0.19077182880E+03  0.29629500550E+03  0.92769746071E+02 0.  0.
        254    2    1    2    0    0 -0.17668866932E+03 -0.10757196646E+03 -0.33229328850E+03  0.98269769301E+03  0.90137967162E+03 0.  0.
        -24    2    4    4    0    0  0.36355349156E+03 -0.50240223401E+02 -0.12382478457E+03  0.39519553292E+03  0.78432841922E+02 0.  0.
         24    2    4    4    0    0 -0.54024216089E+03 -0.57331743058E+02 -0.20846850394E+03  0.58750216008E+03  0.80939173501E+02 0.  0.
         11    1    3    3    0    0  0.16526567639E+03  0.10602512127E+03  0.13245780126E+03  0.23685256859E+03  0.00000000000E+00 0. -1.
        -11    1    3    3    0    0  0.11422992931E+02  0.15468451854E+01  0.58314027542E+02  0.59442436909E+02  0.00000000000E+00 0.  1.
          2    1    6    6  502    0 -0.16351882621E+03 -0.50884871395E+02 -0.47024526008E+02  0.17759218087E+03  0.00000000000E+00 0. -1.
          3    1    5    5  503    0  0.15858181335E+02  0.12108761215E+02  0.23626815119E+01  0.20091945584E+02  0.00000000000E+00 0. -1.
         -4    1    5    5    0  503  0.34769531023E+03 -0.62348984616E+02 -0.12618746608E+03  0.37510358734E+03  0.00000000000E+00 0.  1.
         -1    1    6    6    0  502 -0.37672333468E+03 -0.64468716635E+01 -0.16144397793E+03  0.40990997921E+03  0.00000000000E+00 0.  1.
<mgrwt>
<rscale>  0 0.12711389E+04</rscale>
<asrwt>0</asrwt>
<pdfrwt beam="1">  1        2 0.10927032E+00 0.12711389E+04</pdfrwt>
<pdfrwt beam="2">  1       -2 0.87497788E-01 0.12711389E+04</pdfrwt>
<totfact> 0.44564733E+01</totfact>
</mgrwt>
</event>
<event>
12    1  0.1562393E-007  0.4193633E+04  0.7818608E-02  0.7966584E-01
          1   -1    0    0  501    0  0.00000000000E+00  0.00000000000E+00  0.35679690587E+04  0.35679690587E+04  0.00000000000E+00 0. -1.
         -1   -1    0    0    0  501 -0.00000000000E+00 -0.00000000000E+00 -0.12322529691E+04  0.12322529691E+04  0.00000000000E+00 0.  1.
         23    2    1    2    0    0  0.14106256712E+04  0.80213536669E+03 -0.22157645379E+03  0.16404439259E+04  0.93135484192E+02 0.  0.
        254    2    1    2    0    0 -0.14106256712E+04 -0.80213536669E+03  0.25572925433E+04  0.31597781019E+04  0.90064786158E+03 0.  0.
        -24    2    4    4    0    0 -0.63056670009E+03 -0.94019095481E+02  0.39868459605E+03  0.75644352071E+03  0.82482963783E+02 0.  0.
         24    2    4    4    0    0 -0.78005897106E+03 -0.70811627121E+03  0.21586079473E+04  0.24033345812E+04  0.80673336882E+02 0.  0.
         11    1    3    3    0    0  0.63428298025E+03  0.35313424587E+03 -0.14542737317E+03  0.74038355973E+03  0.00000000000E+00 0. -1.
        -11    1    3    3    0    0  0.77634269090E+03  0.44900112081E+03 -0.76149080615E+02  0.90006036613E+03  0.00000000000E+00 0.  1.
          4    1    6    6  502    0 -0.71740110768E+03 -0.63659542540E+03  0.19132712443E+04  0.21402160964E+04  0.00000000000E+00 0. -1.
          1    1    5    5  503    0 -0.32311951153E+03 -0.69255017911E+02  0.16428748102E+03  0.36904315826E+03  0.00000000000E+00 0. -1.
         -4    1    5    5    0  503 -0.30744718857E+03 -0.24764077570E+02  0.23439711503E+03  0.38740036245E+03  0.00000000000E+00 0.  1.
         -3    1    6    6    0  502 -0.62657863372E+02 -0.71520845807E+02  0.24533670295E+03  0.26311848480E+03  0.00000000000E+00 0.  1.
<mgrwt>
<rscale>  0 0.41936335E+04</rscale>
<asrwt>0</asrwt>
<pdfrwt beam="1">  1        1 0.54891831E+00 0.41936335E+04</pdfrwt>
<pdfrwt beam="2">  1       -1 0.18957738E+00 0.41936335E+04</pdfrwt>
<totfact> 0.30196430E-02</totfact>
</mgrwt>
</event>
<event>
12    1  0.1562393E-007  0.1780729E+04  0.7818608E-02  0.8716615E-01
         -1   -1    0    0    0  501 -0.00000000000E+00  0.00000000000E+00  0.65844732018E+03  0.65844732018E+03  0.00000000000E+00 0.  1.
          1   -1    0    0  501    0  0.00000000000E+00 -0.00000000000E+00 -0.12039671876E+04  0.12039671876E+04  0.00000000000E+00 0. -1.
         23    2    1    2    0    0  0.23039694735E+03  0.14972758440E+03 -0.83218416937E+03  0.88112629062E+03  0.91388978533E+02 0.  0.
        254    2    1    2    0    0 -0.23039694735E+03 -0.14972758440E+03  0.28666430198E+03  0.98128821714E+03  0.89735669619E+03 0.  0.
        -24    2    4    4    0    0 -0.70164937578E+02 -0.10201417426E+03 -0.31723986033E+03  0.34970269653E+03  0.79503690261E+02 0.  0.
         24    2    4    4    0    0 -0.16023200977E+03 -0.47713410132E+02  0.60390416230E+03  0.63158552061E+03  0.79051667494E+02 0.  0.
         13    1    3    3    0    0  0.11468929504E+03  0.23973707369E+02 -0.38359163417E+03  0.40108716614E+03  0.00000000000E+00 0.  1.
        -13    1    3    3    0    0  0.11570765231E+03  0.12575387703E+03 -0.44859253520E+03  0.48003912448E+03  0.00000000000E+00 0. -1.
          4    1    6    6  502    0 -0.56159323180E+02 -0.50831267553E+02  0.18435930526E+03  0.19931392520E+03  0.00000000000E+00 0. -1.
          3    1    5    5  503    0 -0.31963332836E+02 -0.51454829356E+01 -0.29872436560E+02  0.44051028441E+02  0.00000000000E+00 0. -1.
         -4    1    5    5    0  503 -0.38201604742E+02 -0.96868691328E+02 -0.28736742377E+03  0.30565166809E+03  0.00000000000E+00 0.  1.
         -3    1    6    6    0  502 -0.10407268659E+03  0.31178574213E+01  0.41954485704E+03  0.43227159541E+03  0.00000000000E+00 0.  1.
<mgrwt>
<rscale>  0 0.17807290E+04</rscale>
<asrwt>0</asrwt>
<pdfrwt beam="1">  1        1 0.18522572E+00 0.17807290E+04</pdfrwt>
<pdfrwt beam="2">  1       -1 0.10129959E+00 0.17807290E+04</pdfrwt>
<totfact> 0.92832194E+00</totfact>
</mgrwt>
</event>
<event>
12    1  0.1562393E-007  0.2370631E+04  0.7818608E-02  0.8450581E-01
          2   -1    0    0  501    0  0.00000000000E+00  0.00000000000E+00  0.11056282983E+04  0.11056282983E+04  0.00000000000E+00 0. -1.
         -2   -1    0    0    0  501 -0.00000000000E+00 -0.00000000000E+00 -0.12707459570E+04  0.12707459570E+04  0.00000000000E+00 0.  1.
         23    2    1    2    0    0  0.33453794420E+03 -0.16273118628E+03 -0.10148834994E+04  0.10843434632E+04  0.86111286507E+02 0.  0.
        254    2    1    2    0    0 -0.33453794420E+03  0.16273118628E+03  0.84976584075E+03  0.12920307921E+04  0.89935783114E+03 0.  0.
        -24    2    4    4    0    0  0.14183935480E+03  0.40062691179E+03  0.33542076063E+03  0.54723023545E+03  0.79583408515E+02 0.  0.
         24    2    4    4    0    0 -0.47637729900E+03 -0.23789572551E+03  0.51434508012E+03  0.74480055661E+03  0.81530978510E+02 0.  0.
         13    1    3    3    0    0  0.11711497163E+02  0.86365831235E+01 -0.64080395565E+02  0.65711846951E+02  0.00000000000E+00 0. -1.
        -13    1    3    3    0    0  0.32282644704E+03 -0.17136776940E+03 -0.95080310388E+03  0.10186316163E+04  0.00000000000E+00 0.  1.
          2    1    6    6  502    0 -0.45173546144E+03 -0.22396281380E+03  0.50809529950E+03  0.71581080074E+03  0.00000000000E+00 0. -1.
          3    1    5    5  503    0  0.11175392294E+03  0.26407007378E+03  0.26595953744E+03  0.39109643148E+03  0.00000000000E+00 0. -1.
         -4    1    5    5    0  503  0.30085431867E+02  0.13655683801E+03  0.69461223195E+02  0.15613380398E+03  0.00000000000E+00 0.  1.
         -1    1    6    6    0  502 -0.24641837567E+02 -0.13932911707E+02  0.62497806211E+01  0.28989755865E+02  0.00000000000E+00 0.  1.
<mgrwt>
<rscale>  0 0.23706309E+04</rscale>
<asrwt>0</asrwt>
<pdfrwt beam="1">  1        2 0.17009666E+00 0.23706309E+04</pdfrwt>
<pdfrwt beam="2">  1       -2 0.19549938E+00 0.23706309E+04</pdfrwt>
<totfact> 0.27743528E+00</totfact>
</mgrwt>
</event>
<event>
12    1  0.1562393E-007  0.1306087E+04  0.7818608E-02  0.9024752E-01
         -1   -1    0    0    0  501 -0.00000000000E+00  0.00000000000E+00  0.30826192498E+03  0.30826192498E+03  0.00000000000E+00 0.  1.
          1   -1    0    0  501    0  0.00000000000E+00 -0.00000000000E+00 -0.13834518407E+04  0.13834518407E+04  0.00000000000E+00 0. -1.
         23    2    1    2    0    0 -0.97002571975E+02  0.12039764081E+03 -0.68568818968E+03  0.70888177331E+03  0.91869386516E+02 0.  0.
        254    2    1    2    0    0  0.97002571975E+02 -0.12039764081E+03 -0.38950172608E+03  0.98283199242E+03  0.88901183334E+03 0.  0.
        -24    2    4    4    0    0 -0.13157648940E+03 -0.28364290946E+03  0.16026194005E+03  0.36017314082E+03  0.79215713650E+02 0.  0.
         24    2    4    4    0    0  0.22857906138E+03  0.16324526865E+03 -0.54976366613E+03  0.62265885159E+03  0.81034263309E+02 0.  0.
         11    1    3    3    0    0 -0.18307643111E+02  0.13084519485E+02 -0.20265895817E+02  0.30283344923E+02  0.00000000000E+00 0.  1.
        -11    1    3    3    0    0 -0.78694928864E+02  0.10731312133E+03 -0.66542229386E+03  0.67859842838E+03  0.00000000000E+00 0. -1.
          4    1    6    6  502    0  0.51997095344E+02  0.19043479976E+02 -0.55751249058E+02  0.78578329235E+02  0.00000000000E+00 0. -1.
          3    1    5    5  503    0 -0.15770546073E+02 -0.32253309831E+01  0.20702709236E+02  0.26224321785E+02  0.00000000000E+00 0. -1.
         -4    1    5    5    0  503 -0.11580594333E+03 -0.28041757848E+03  0.13955923082E+03  0.33394881904E+03  0.00000000000E+00 0.  1.
         -3    1    6    6    0  502  0.17658196603E+03  0.14420178867E+03 -0.49401241708E+03  0.54408052236E+03  0.00000000000E+00 0.  1.
<mgrwt>
<rscale>  0 0.13060866E+04</rscale>
<asrwt>0</asrwt>
<pdfrwt beam="1">  1        1 0.21283874E+00 0.13060866E+04</pdfrwt>
<pdfrwt beam="2">  1       -1 0.47424912E-01 0.13060866E+04</pdfrwt>
<totfact> 0.34384852E+01</totfact>
</mgrwt>
</event>
<event>
12    1  0.1562393E-007  0.1874439E+04  0.7818608E-02  0.8667686E-01
          2   -1    0    0  501    0  0.00000000000E+00  0.00000000000E+00  0.61219333293E+03  0.61219333293E+03  0.00000000000E+00 0. -1.
         -2   -1    0    0    0  501 -0.00000000000E+00 -0.00000000000E+00 -0.14348082611E+04  0.14348082611E+04  0.00000000000E+00 0.  1.
         23    2    1    2    0    0 -0.20976032584E+03  0.64423309445E+03 -0.55382434446E+03  0.87983240145E+03  0.91367258016E+02 0.  0.
        254    2    1    2    0    0  0.20976032584E+03 -0.64423309445E+03 -0.26879058373E+03  0.11671691926E+04  0.91159194378E+03 0.  0.
        -24    2    4    4    0    0 -0.74503937857E+01  0.12720485744E+02  0.27290775215E+03  0.28481106303E+03  0.80133521802E+02 0.  0.
         24    2    4    4    0    0  0.21721071963E+03 -0.65695358020E+03 -0.54169833588E+03  0.88235812957E+03  0.79688634507E+02 0.  0.
         13    1    3    3    0    0 -0.21298697451E+03  0.59851069861E+03 -0.53396996365E+03  0.82988097323E+03  0.00000000000E+00 0.  1.
        -13    1    3    3    0    0  0.32266486656E+01  0.45722395846E+02 -0.19854380819E+02  0.49951428220E+02  0.00000000000E+00 0. -1.
          2    1    6    6  502    0  0.83252804998E+01 -0.16793609708E+02 -0.10092955542E+01  0.18771102790E+02  0.00000000000E+00 0. -1.
          1    1    5    5  503    0  0.33160272293E+02 -0.95200234604E+01  0.13497270054E+03  0.13931211145E+03  0.00000000000E+00 0. -1.
         -2    1    5    5    0  503 -0.40610666079E+02  0.22240509204E+02  0.13793505160E+03  0.14549895158E+03  0.00000000000E+00 0.  1.
         -1    1    6    6    0  502  0.20888543913E+03 -0.64015997049E+03 -0.54068904032E+03  0.86358702678E+03  0.00000000000E+00 0.  1.
<mgrwt>
<rscale>  0 0.18744386E+04</rscale>
<asrwt>0</asrwt>
<pdfrwt beam="1">  1        2 0.94183590E-01 0.18744386E+04</pdfrwt>
<pdfrwt beam="2">  1       -2 0.22073973E+00 0.18744386E+04</pdfrwt>
<totfact> 0.44381857E+00</totfact>
</mgrwt>
</event>
<event>
12    1  0.1562393E-007  0.2060826E+04  0.7818608E-02  0.8578699E-01
          4   -1    0    0  501    0  0.00000000000E+00  0.00000000000E+00  0.44855207921E+03  0.44855207921E+03  0.00000000000E+00 0. -1.
         -4   -1    0    0    0  501 -0.00000000000E+00 -0.00000000000E+00 -0.23670620177E+04  0.23670620177E+04  0.00000000000E+00 0.  1.
         23    2    1    2    0    0  0.46773992700E+03 -0.99486901516E+01  0.15865762259E+03  0.50285567008E+03  0.93872083058E+02 0.  0.
        254    2    1    2    0    0 -0.46773992700E+03  0.99486901516E+01 -0.20771675611E+04  0.23127584268E+04  0.90296558533E+03 0.  0.
        -24    2    4    4    0    0 -0.30331667093E+03 -0.42785314384E+03 -0.91640587041E+03  0.10587764959E+04  0.78413222111E+02 0.  0.
         24    2    4    4    0    0 -0.16442325607E+03  0.43780183399E+03 -0.11607616906E+04  0.12539819309E+04  0.79984545706E+02 0.  0.
         13    1    3    3    0    0  0.52387470386E+00 -0.76484369299E+01  0.99059221385E+01  0.12525986013E+02  0.00000000000E+00 0.  1.
        -13    1    3    3    0    0  0.46721605229E+03 -0.23002532217E+01  0.14875170046E+03  0.49032968406E+03  0.00000000000E+00 0. -1.
          4    1    6    6  502    0 -0.14179475291E+03  0.39899444917E+03 -0.97711554363E+03  0.10649211746E+04  0.00000000000E+00 0. -1.
          3    1    5    5  503    0 -0.28625358046E+03 -0.42272410189E+03 -0.86561081300E+03  0.10049471918E+04  0.00000000000E+00 0. -1.
         -4    1    5    5    0  503 -0.17063090469E+02 -0.51290419561E+01 -0.50795057402E+02  0.53829304140E+02  0.00000000000E+00 0.  1.
         -3    1    6    6    0  502 -0.22628503156E+02  0.38807384826E+02 -0.18364614701E+03  0.18906075633E+03  0.00000000000E+00 0.  1.
<mgrwt>
<rscale>  0 0.20608256E+04</rscale>
<asrwt>0</asrwt>
<pdfrwt beam="1">  1        4 0.69008011E-01 0.20608256E+04</pdfrwt>
<pdfrwt beam="2">  1       -4 0.36416339E+00 0.20608256E+04</pdfrwt>
<totfact> 0.42870371E-02</totfact>
</mgrwt>
</event>
<event>
12    1  0.1562393E-007  0.3185325E+04  0.7818608E-02  0.8192704E-01
          2   -1    0    0  501    0  0.00000000000E+00  0.00000000000E+00  0.17135512822E+04  0.17135512822E+04  0.00000000000E+00 0. -1.
         -2   -1    0    0    0  501 -0.00000000000E+00 -0.00000000000E+00 -0.14803024908E+04  0.14803024908E+04  0.00000000000E+00 0.  1.
         23    2    1    2    0    0  0.48800219237E+03 -0.99054670728E+03  0.10825991716E+04  0.15488703000E+04  0.87460396370E+02 0.  0.
        254    2    1    2    0    0 -0.48800219237E+03  0.99054670728E+03 -0.84935038021E+03  0.16449834730E+04  0.87478319549E+03 0.  0.
        -24    2    4    4    0    0 -0.40549640986E+03  0.55950248313E+03 -0.12773918643E+02  0.69691178929E+03  0.89735734383E+02 0.  0.
         24    2    4    4    0    0 -0.82505782513E+02  0.43104422415E+03 -0.83657646157E+03  0.94807168373E+03  0.79833665404E+02 0.  0.
         11    1    3    3    0    0  0.37358390887E+03 -0.73136013992E+03  0.85422117628E+03  0.11849668389E+04  0.00000000000E+00 0. -1.
        -11    1    3    3    0    0  0.11441828350E+03 -0.25918656736E+03  0.22837799529E+03  0.36390346114E+03  0.00000000000E+00 0.  1.
          2    1    6    6  502    0 -0.91583641956E+02  0.35871952443E+03 -0.73585233244E+03  0.82373898526E+03  0.00000000000E+00 0. -1.
          1    1    5    5  503    0 -0.26671192317E+03  0.30219230931E+03  0.14281905345E+02  0.40331056841E+03  0.00000000000E+00 0. -1.
         -2    1    5    5    0  503 -0.13878448669E+03  0.25731017382E+03 -0.27055823988E+02  0.29360122089E+03  0.00000000000E+00 0.  1.
         -1    1    6    6    0  502  0.90778594440E+01  0.72324699715E+02 -0.10072412913E+03  0.12433269847E+03  0.00000000000E+00 0.  1.
<mgrwt>
<rscale>  0 0.31853252E+04</rscale>
<asrwt>0</asrwt>
<pdfrwt beam="1">  1        2 0.26362327E+00 0.31853252E+04</pdfrwt>
<pdfrwt beam="2">  1       -2 0.22773885E+00 0.31853252E+04</pdfrwt>
<totfact> 0.71783333E-01</totfact>
</mgrwt>
</event>
<event>
12    1  0.1562393E-007  0.2284750E+04  0.7818608E-02  0.8483958E-01
         -1   -1    0    0    0  501 -0.00000000000E+00  0.00000000000E+00  0.12401016645E+04  0.12401016645E+04  0.00000000000E+00 0.  1.
          1   -1    0    0  501    0  0.00000000000E+00 -0.00000000000E+00 -0.10523494059E+04  0.10523494059E+04  0.00000000000E+00 0. -1.
         23    2    1    2    0    0 -0.92169522609E+03  0.65917789825E+02 -0.19515599638E+03  0.94907128907E+03  0.93718749536E+02 0.  0.
        254    2    1    2    0    0  0.92169522609E+03 -0.65917789825E+02  0.38290825501E+03  0.13433797813E+04  0.89676265548E+03 0.  0.
        -24    2    4    4    0    0 -0.98439876444E+02  0.18743219335E+03  0.13082280328E+03  0.25973456019E+03  0.74338412144E+02 0.  0.
         24    2    4    4    0    0  0.10201351025E+04 -0.25334998318E+03  0.25208545172E+03  0.10836452211E+04  0.76668434733E+02 0.  0.
         13    1    3    3    0    0 -0.82223067089E+03  0.56478241530E+02 -0.20316336103E+03  0.84883945430E+03  0.00000000000E+00 0.  1.
        -13    1    3    3    0    0 -0.99464555196E+02  0.94395482948E+01  0.80073646519E+01  0.10023183477E+03  0.00000000000E+00 0. -1.
          4    1    6    6  502    0  0.24593775941E+03 -0.78283073060E+02  0.91382411330E+02  0.27379621278E+03  0.00000000000E+00 0. -1.
          1    1    5    5  503    0 -0.59489180941E+02  0.41744054462E+02  0.31815155493E+02  0.79333050181E+02  0.00000000000E+00 0. -1.
         -2    1    5    5    0  503 -0.38950695503E+02  0.14568813889E+03  0.99007647789E+02  0.18040151001E+03  0.00000000000E+00 0.  1.
         -3    1    6    6    0  502  0.77419734311E+03 -0.17506691012E+03  0.16070304039E+03  0.80984900833E+03  0.00000000000E+00 0.  1.
<mgrwt>
<rscale>  0 0.22847497E+04</rscale>
<asrwt>0</asrwt>
<pdfrwt beam="1">  1        1 0.16189991E+00 0.22847497E+04</pdfrwt>
<pdfrwt beam="2">  1       -1 0.19078487E+00 0.22847497E+04</pdfrwt>
<totfact> 0.21763051E+00</totfact>
</mgrwt>
</event>
<event>
12    1  0.1562393E-007  0.1415732E+04  0.7818608E-02  0.8942509E-01
         -2   -1    0    0    0  501 -0.00000000000E+00  0.00000000000E+00  0.41583817791E+03  0.41583817791E+03  0.00000000000E+00 0.  1.
          2   -1    0    0  501    0  0.00000000000E+00 -0.00000000000E+00 -0.12049736249E+04  0.12049736249E+04  0.00000000000E+00 0. -1.
         23    2    1    2    0    0  0.25097558385E+03  0.91973232145E+01 -0.61731073567E+03  0.67272491396E+03  0.91722031343E+02 0.  0.
        254    2    1    2    0    0 -0.25097558385E+03 -0.91973232145E+01 -0.17182471127E+03  0.94808688881E+03  0.89792632375E+03 0.  0.
        -24    2    4    4    0    0  0.31538592043E+03 -0.31169614042E+02 -0.18451159541E+03  0.37555779246E+03  0.80989523953E+02 0.  0.
         24    2    4    4    0    0 -0.56636150429E+03  0.21972290828E+02  0.12686884142E+02  0.57252909635E+03  0.79877869506E+02 0.  0.
         13    1    3    3    0    0  0.17036528882E+03 -0.34820754147E+02 -0.43814901647E+03  0.47139301775E+03  0.00000000000E+00 0. -1.
        -13    1    3    3    0    0  0.80610295031E+02  0.44018077362E+02 -0.17916171921E+03  0.20133189620E+03  0.00000000000E+00 0.  1.
          2    1    6    6  502    0 -0.21716379730E+02 -0.14512837939E+02  0.50882341126E+01  0.26610406611E+02  0.00000000000E+00 0. -1.
          3    1    5    5  503    0  0.12223325542E+03  0.27306083823E+02 -0.73885319429E+02  0.14541537529E+03  0.00000000000E+00 0. -1.
         -4    1    5    5    0  503  0.19315266501E+03 -0.58475697866E+02 -0.11062627598E+03  0.23014241717E+03  0.00000000000E+00 0.  1.
         -1    1    6    6    0  502 -0.54464512456E+03  0.36485128767E+02  0.75986500295E+01  0.54591868974E+03  0.00000000000E+00 0.  1.
<mgrwt>
<rscale>  0 0.14157317E+04</rscale>
<asrwt>0</asrwt>
<pdfrwt beam="1">  1        2 0.18538056E+00 0.14157317E+04</pdfrwt>
<pdfrwt beam="2">  1       -2 0.63975105E-01 0.14157317E+04</pdfrwt>
<totfact> 0.41315416E+01</totfact>
</mgrwt>
</event>
<event>
12    1  0.1562393E-007  0.1331353E+04  0.7818608E-02  0.9005065E-01
          1   -1    0    0  501    0  0.00000000000E+00  0.00000000000E+00  0.90095039997E+03  0.90095039997E+03  0.00000000000E+00 0. -1.
         -1   -1    0    0    0  501 -0.00000000000E+00 -0.00000000000E+00 -0.49184160389E+03  0.49184160389E+03  0.00000000000E+00 0.  1.
         23    2    1    2    0    0 -0.64093223464E+02 -0.10617300365E+03 -0.23577822444E+03  0.28160042796E+03  0.91251202239E+02 0.  0.
        254    2    1    2    0    0  0.64093223464E+02  0.10617300365E+03  0.64488702052E+03  0.11111915759E+04  0.89637425281E+03 0.  0.
        -24    2    4    4    0    0 -0.20742330996E+03  0.42278458490E+03  0.37996257090E+03  0.61025018994E+03  0.79135986082E+02 0.  0.
         24    2    4    4    0    0  0.27151653343E+03 -0.31661158125E+03  0.26492444962E+03  0.50094138595E+03  0.82420791348E+02 0.  0.
         11    1    3    3    0    0 -0.57817781616E+02 -0.95094391906E+02 -0.11456951995E+03  0.15972480754E+03  0.00000000000E+00 0.  1.
        -11    1    3    3    0    0 -0.62754418479E+01 -0.11078611748E+02 -0.12120870449E+03  0.12187562042E+03  0.00000000000E+00 0. -1.
          4    1    6    6  502    0  0.77467032579E+02 -0.15234786500E+03  0.10752908310E+03  0.20192453248E+03  0.00000000000E+00 0. -1.
          3    1    5    5  503    0 -0.12006166170E+03  0.30678014304E+03  0.29365103275E+03  0.44131597276E+03  0.00000000000E+00 0. -1.
         -4    1    5    5    0  503 -0.87361648262E+02  0.11600444186E+03  0.86311538150E+02  0.16893421719E+03  0.00000000000E+00 0.  1.
         -3    1    6    6    0  502  0.19404950085E+03 -0.16426371625E+03  0.15739536652E+03  0.29901685347E+03  0.00000000000E+00 0.  1.
<mgrwt>
<rscale>  0 0.13313525E+04</rscale>
<asrwt>0</asrwt>
<pdfrwt beam="1">  1        1 0.13860775E+00 0.13313525E+04</pdfrwt>
<pdfrwt beam="2">  1       -1 0.75667939E-01 0.13313525E+04</pdfrwt>
<totfact> 0.31255465E+01</totfact>
</mgrwt>
</event>
<event>
12    1  0.2222894E-007  0.1270400E+04  0.7818608E-02  0.9053373E-01
         -1   -1    0    0    0  501 -0.00000000000E+00  0.00000000000E+00  0.20610369461E+03  0.20610369461E+03  0.00000000000E+00 0.  1.
          1   -1    0    0  501    0  0.00000000000E+00 -0.00000000000E+00 -0.19576513906E+04  0.19576513906E+04  0.00000000000E+00 0. -1.
         23    2    1    2    0    0  0.22454528951E+03 -0.18082798834E+03 -0.60730289352E+03  0.67822385250E+03  0.89729823435E+02 0.  0.
        254    2    1    2    0    0 -0.22454528951E+03  0.18082798834E+03 -0.11442448025E+04  0.14855312327E+04  0.90243422307E+03 0.  0.
        -24    2    4    4    0    0  0.13751166127E+03  0.42596549924E+03 -0.81211086679E+03  0.93069137243E+03  0.79412261246E+02 0.  0.
         24    2    4    4    0    0 -0.36205695078E+03 -0.24513751090E+03 -0.33213393571E+03  0.55483986030E+03  0.79728818316E+02 0.  0.
         11    1    3    3    0    0  0.21987380761E+03 -0.18732261816E+03 -0.60410223577E+03  0.66960717276E+03  0.00000000000E+00 0. -1.
        -11    1    3    3    0    0  0.46714818907E+01  0.64946298261E+01 -0.32006577481E+01  0.86166797349E+01  0.00000000000E+00 0.  1.
          2    1    6    6  502    0 -0.35932180707E+03 -0.23981485184E+03 -0.33636764473E+03  0.54750937583E+03  0.00000000000E+00 0. -1.
          1    1    5    5  503    0  0.10890333883E+03  0.40423847574E+03 -0.74516648868E+03  0.85471736752E+03  0.00000000000E+00 0. -1.
         -2    1    5    5    0  503  0.28608322441E+02  0.21727023496E+02 -0.66944378106E+02  0.75974004915E+02  0.00000000000E+00 0.  1.
         -1    1    6    6    0  502 -0.27351437079E+01 -0.53226590589E+01  0.42337090167E+01  0.73304844723E+01  0.00000000000E+00 0.  1.
<mgrwt>
<rscale>  0 0.12704002E+04</rscale>
<asrwt>0</asrwt>
<pdfrwt beam="1">  1        1 0.30117714E+00 0.12704002E+04</pdfrwt>
<pdfrwt beam="2">  1       -1 0.31708261E-01 0.12704002E+04</pdfrwt>
<totfact> 0.29047616E+01</totfact>
</mgrwt>
</event>
<event>
12    1  0.1562393E-007  0.1591652E+04  0.7818608E-02  0.8825693E-01
          2   -1    0    0  501    0  0.00000000000E+00  0.00000000000E+00  0.11840107875E+04  0.11840107875E+04  0.00000000000E+00 0. -1.
         -2   -1    0    0    0  501 -0.00000000000E+00 -0.00000000000E+00 -0.53490989460E+03  0.53490989460E+03  0.00000000000E+00 0.  1.
         23    2    1    2    0    0 -0.12785655357E+03  0.19325529287E+03  0.71595108934E+03  0.75857910318E+03  0.95715134340E+02 0.  0.
        254    2    1    2    0    0  0.12785655357E+03 -0.19325529287E+03 -0.66850196429E+02  0.96034157894E+03  0.92956553990E+03 0.  0.
        -24    2    4    4    0    0 -0.24744103972E+03 -0.23650967174E+03  0.27312640884E+03  0.44546030481E+03  0.81688156935E+02 0.  0.
         24    2    4    4    0    0  0.37529759329E+03  0.43254378869E+02 -0.33997660527E+03  0.51488127413E+03  0.82458531992E+02 0.  0.
         13    1    3    3    0    0 -0.12612502773E+03  0.13585007746E+03  0.45361221472E+03  0.49002735383E+03  0.00000000000E+00 0. -1.
        -13    1    3    3    0    0 -0.17315258380E+01  0.57405215416E+02  0.26233887462E+03  0.26855174935E+03  0.00000000000E+00 0.  1.
          2    1    6    6  502    0  0.28534300841E+03  0.11945875072E+02 -0.21361760363E+03  0.35664522563E+03  0.00000000000E+00 0. -1.
          1    1    5    5  503    0 -0.24598205258E+03 -0.21724553914E+03  0.27175737658E+03  0.42609255590E+03  0.00000000000E+00 0. -1.
         -2    1    5    5    0  503 -0.14589871434E+01 -0.19264132603E+02  0.13690322660E+01  0.19367748909E+02  0.00000000000E+00 0.  1.
         -1    1    6    6    0  502  0.89954584879E+02  0.31308503797E+02 -0.12635900165E+03  0.15823604851E+03  0.00000000000E+00 0.  1.
<mgrwt>
<rscale>  0 0.15916521E+04</rscale>
<asrwt>0</asrwt>
<pdfrwt beam="1">  1        2 0.18215550E+00 0.15916521E+04</pdfrwt>
<pdfrwt beam="2">  1       -2 0.82293830E-01 0.15916521E+04</pdfrwt>
<totfact> 0.24098898E+01</totfact>
</mgrwt>
</event>
<event>
12    1  0.1562393E-007  0.1896395E+04  0.7818608E-02  0.8656653E-01
         -2   -1    0    0    0  501 -0.00000000000E+00  0.00000000000E+00  0.47650691637E+03  0.47650691637E+03  0.00000000000E+00 0. -1.
          2   -1    0    0  501    0  0.00000000000E+00 -0.00000000000E+00 -0.18868104172E+04  0.18868104172E+04  0.00000000000E+00 0.  1.
         23    2    1    2    0    0  0.72238756566E+03 -0.10716124371E+03 -0.38239401579E+03  0.82933273931E+03  0.90775999109E+02 0.  0.
        254    2    1    2    0    0 -0.72238756566E+03  0.10716124371E+03 -0.10279094851E+04  0.15339845943E+04  0.87360374245E+03 0.  0.
        -24    2    4    4    0    0 -0.43386567101E+03 -0.32915504300E+03 -0.28060724721E+03  0.61768778410E+03  0.78837228691E+02 0.  0.
         24    2    4    4    0    0 -0.28852189465E+03  0.43631628671E+03 -0.74730223785E+03  0.91629681017E+03  0.86731908133E+02 0.  0.
         13    1    3    3    0    0  0.54690585648E+03 -0.11659976615E+03 -0.30895228998E+03  0.63886856145E+03  0.00000000000E+00 0.  1.
        -13    1    3    3    0    0  0.17548170917E+03  0.94385224352E+01 -0.73441725812E+02  0.19046417787E+03  0.00000000000E+00 0. -1.
          2    1    6    6  502    0 -0.28923136398E+03  0.40105359501E+03 -0.68713006368E+03  0.84654975777E+03  0.00000000000E+00 0. -1.
          1    1    5    5  503    0 -0.35083947655E+03 -0.29521435303E+03 -0.21419850186E+03  0.50608383766E+03  0.00000000000E+00 0. -1.
         -2    1    5    5    0  503 -0.83026194461E+02 -0.33940689969E+02 -0.66408745355E+02  0.11160394644E+03  0.00000000000E+00 0.  1.
         -1    1    6    6    0  502  0.70946933332E+00  0.35262691707E+02 -0.60172174176E+02  0.69747052398E+02  0.00000000000E+00 0.  1.
<mgrwt>
<rscale>  0 0.18963947E+04</rscale>
<asrwt>0</asrwt>
<pdfrwt beam="1">  1        2 0.29027853E+00 0.18963947E+04</pdfrwt>
<pdfrwt beam="2">  1       -2 0.73308755E-01 0.18963947E+04</pdfrwt>
<totfact> 0.12149717E+01</totfact>
</mgrwt>
</event>
<event>
12    1  0.1562393E-007  0.1395667E+04  0.7818608E-02  0.8956961E-01
         -1   -1    0    0    0  501 -0.00000000000E+00  0.00000000000E+00  0.11735438183E+04  0.11735438183E+04  0.00000000000E+00 0.  1.
          1   -1    0    0  501    0  0.00000000000E+00 -0.00000000000E+00 -0.41495794348E+03  0.41495794348E+03  0.00000000000E+00 0. -1.
         23    2    1    2    0    0  0.35207682674E+03 -0.15389776763E+03  0.10802775250E+03  0.40958927624E+03  0.91928043018E+02 0.  0.
        254    2    1    2    0    0 -0.35207682674E+03  0.15389776763E+03  0.65055812233E+03  0.11789124856E+04  0.90496749294E+03 0.  0.
        -24    2    4    4    0    0  0.16532637415E+03  0.12969603651E+03 -0.11360258490E+03  0.25220057700E+03  0.80905573770E+02 0.  0.
         24    2    4    4    0    0 -0.51740320089E+03  0.24201731118E+02  0.76416070723E+03  0.92671190856E+03  0.81003573437E+02 0.  0.
         13    1    3    3    0    0 -0.64584829025E+00 -0.13136594226E+02 -0.38078338618E+01  0.13692582904E+02  0.00000000000E+00 0.  1.
        -13    1    3    3    0    0  0.35272267503E+03 -0.14076117340E+03  0.11183558636E+03  0.39589669333E+03  0.00000000000E+00 0. -1.
          4    1    6    6  502    0 -0.10182645575E+03 -0.27257898891E+02  0.16110276151E+03  0.19252459559E+03  0.00000000000E+00 0. -1.
          1    1    5    5  503    0  0.17962581882E+02  0.25292312033E+02  0.10859210193E+02  0.32867580408E+02  0.00000000000E+00 0. -1.
         -2    1    5    5    0  503  0.14736379227E+03  0.10440372448E+03 -0.12446179509E+03  0.21933299659E+03  0.00000000000E+00 0.  1.
         -3    1    6    6    0  502 -0.41557674514E+03  0.51459630009E+02  0.60305794572E+03  0.73418731297E+03  0.00000000000E+00 0.  1.
<mgrwt>
<rscale>  0 0.13956666E+04</rscale>
<asrwt>0</asrwt>
<pdfrwt beam="1">  1        1 0.63839684E-01 0.13956666E+04</pdfrwt>
<pdfrwt beam="2">  1       -1 0.18054520E+00 0.13956666E+04</pdfrwt>
<totfact> 0.11489336E+01</totfact>
</mgrwt>
</event>
<event>
12    1  0.1562393E-007  0.2399697E+04  0.7818608E-02  0.8439617E-01
         -2   -1    0    0    0  501 -0.00000000000E+00  0.00000000000E+00  0.30369150633E+03  0.30369150633E+03  0.00000000000E+00 0.  1.
          2   -1    0    0  501    0  0.00000000000E+00 -0.00000000000E+00 -0.47404550886E+04  0.47404550886E+04  0.00000000000E+00 0. -1.
         23    2    1    2    0    0  0.45412095616E+03  0.47972289496E+03 -0.35752967529E+04  0.36369389963E+04  0.90655904153E+02 0.  0.
        254    2    1    2    0    0 -0.45412095616E+03 -0.47972289496E+03 -0.86146682945E+03  0.14072075987E+04  0.89540394725E+03 0.  0.
        -24    2    4    4    0    0 -0.57492778732E+03 -0.28881140782E+03 -0.16335040694E+03  0.66872949927E+03  0.81004924702E+02 0.  0.
         24    2    4    4    0    0  0.12080683117E+03 -0.19091148713E+03 -0.69811642251E+03  0.73847809940E+03  0.83317930466E+02 0.  0.
         11    1    3    3    0    0  0.26391328192E+03  0.34058767822E+03 -0.22650061006E+04  0.23056241721E+04  0.00000000000E+00 0.  1.
        -11    1    3    3    0    0  0.19020767423E+03  0.13913521674E+03 -0.13102906522E+04  0.13313148242E+04  0.00000000000E+00 0. -1.
          4    1    6    6  502    0  0.23621678308E+02 -0.72470361892E+01 -0.15522048566E+03  0.15717475112E+03  0.00000000000E+00 0. -1.
          3    1    5    5  503    0 -0.74686661300E+02 -0.17160264187E+02 -0.39324806908E+02  0.86133689584E+02  0.00000000000E+00 0. -1.
         -4    1    5    5    0  503 -0.50024112602E+03 -0.27165114364E+03 -0.12402560003E+03  0.58259580969E+03  0.00000000000E+00 0.  1.
         -3    1    6    6    0  502  0.97185152859E+02 -0.18366445095E+03 -0.54289593684E+03  0.58130334828E+03  0.00000000000E+00 0.  1.
<mgrwt>
<rscale>  0 0.23996966E+04</rscale>
<asrwt>0</asrwt>
<pdfrwt beam="1">  1        2 0.72930074E+00 0.23996966E+04</pdfrwt>
<pdfrwt beam="2">  1       -2 0.46721773E-01 0.23996966E+04</pdfrwt>
<totfact> 0.27347449E-01</totfact>
</mgrwt>
</event>
<event>
12    1  0.1562393E-007  0.1788711E+04  0.7818608E-02  0.8712326E-01
         -2   -1    0    0    0  501 -0.00000000000E+00  0.00000000000E+00  0.16619995831E+04  0.16619995831E+04  0.00000000000E+00 0.  1.
          2   -1    0    0  501    0  0.00000000000E+00 -0.00000000000E+00 -0.48127095863E+03  0.48127095863E+03  0.00000000000E+00 0. -1.
         23    2    1    2    0    0  0.23571173220E+02 -0.64556299337E+03  0.28356426333E+03  0.71116690793E+03  0.89679991512E+02 0.  0.
        254    2    1    2    0    0 -0.23571173220E+02  0.64556299337E+03  0.89716436109E+03  0.14321036338E+04  0.91033496494E+03 0.  0.
        -24    2    4    4    0    0  0.14099662356E+03 -0.19614037369E+03  0.22842914810E+03  0.34158414276E+03  0.78414009163E+02 0.  0.
         24    2    4    4    0    0 -0.16456779678E+03  0.84170336706E+03  0.66873521298E+03  0.10905194910E+04  0.80491349301E+02 0.  0.
         13    1    3    3    0    0  0.29573268685E+01 -0.43499279673E+02  0.46611399975E+02  0.63824413212E+02  0.00000000000E+00 0. -1.
        -13    1    3    3    0    0  0.20613846352E+02 -0.60206371370E+03  0.23695286336E+03  0.64734249472E+03  0.00000000000E+00 0.  1.
          2    1    6    6  502    0 -0.17345066288E+03  0.78630660910E+03  0.62111668871E+03  0.10169312450E+04  0.00000000000E+00 0. -1.
          3    1    5    5  503    0  0.15101101272E+03 -0.18639823457E+03  0.21800651766E+03  0.32415346605E+03  0.00000000000E+00 0. -1.
         -4    1    5    5    0  503 -0.10014389161E+02 -0.97421391217E+01  0.10422630447E+02  0.17430676704E+02  0.00000000000E+00 0.  1.
         -1    1    6    6    0  502  0.88828660964E+01  0.55396757965E+02  0.47618524271E+02  0.73588246051E+02  0.00000000000E+00 0.  1.
<mgrwt>
<rscale>  0 0.17887114E+04</rscale>
<asrwt>0</asrwt>
<pdfrwt beam="1">  1        2 0.74041687E-01 0.17887114E+04</pdfrwt>
<pdfrwt beam="2">  1       -2 0.25569224E+00 0.17887114E+04</pdfrwt>
<totfact> 0.36066683E+00</totfact>
</mgrwt>
</event>
<event>
12    1  0.1846158E-007  0.2026139E+04  0.7818608E-02  0.8594496E-01
         -1   -1    0    0    0  501 -0.00000000000E+00  0.00000000000E+00  0.10121548340E+04  0.10121548340E+04  0.00000000000E+00 0.  1.
          1   -1    0    0  501    0  0.00000000000E+00 -0.00000000000E+00 -0.10139852464E+04  0.10139852464E+04  0.00000000000E+00 0. -1.
         23    2    1    2    0    0 -0.27106324200E+03 -0.15179395815E+03 -0.75172885884E+03  0.81852431350E+03  0.91482717986E+02 0.  0.
        254    2    1    2    0    0  0.27106324200E+03  0.15179395815E+03  0.74989844645E+03  0.12076157669E+04  0.89413168698E+03 0.  0.
        -24    2    4    4    0    0  0.16117503073E+03 -0.36441126710E+03  0.38535868202E+03  0.56132056215E+03  0.88354386182E+02 0.  0.
         24    2    4    4    0    0  0.10988821127E+03  0.51620522524E+03  0.36453976442E+03  0.64629520479E+03  0.79151742538E+02 0.  0.
         11    1    3    3    0    0 -0.89166787056E+01 -0.19348702583E+02 -0.16965273013E+02  0.27234168597E+02  0.00000000000E+00 0.  1.
        -11    1    3    3    0    0 -0.26214656330E+03 -0.13244525556E+03 -0.73476358582E+03  0.79129014490E+03  0.00000000000E+00 0. -1.
          2    1    6    6  502    0  0.15474962566E+02  0.37019921937E+02  0.54952408599E+02  0.68042018617E+02  0.00000000000E+00 0. -1.
          1    1    5    5  503    0  0.99026640437E+01 -0.38955952786E+02  0.88383183555E+01  0.41155131928E+02  0.00000000000E+00 0. -1.
         -2    1    5    5    0  503  0.15127236669E+03 -0.32545531431E+03  0.37652036367E+03  0.52016543022E+03  0.00000000000E+00 0.  1.
         -1    1    6    6    0  502  0.94413248705E+02  0.47918530330E+03  0.30958735583E+03  0.57825318617E+03  0.00000000000E+00 0.  1.
<mgrwt>
<rscale>  0 0.20261393E+04</rscale>
<asrwt>0</asrwt>
<pdfrwt beam="1">  1        1 0.15599773E+00 0.20261393E+04</pdfrwt>
<pdfrwt beam="2">  1       -1 0.15571613E+00 0.20261393E+04</pdfrwt>
<totfact> 0.43036662E+00</totfact>
</mgrwt>
</event>
<event>
12    1  0.1562393E-007  0.2821973E+04  0.7818608E-02  0.8296479E-01
          1   -1    0    0  501    0  0.00000000000E+00  0.00000000000E+00  0.20725700996E+04  0.20725700996E+04  0.00000000000E+00 0. -1.
         -1   -1    0    0    0  501 -0.00000000000E+00 -0.00000000000E+00 -0.96058659568E+03  0.96058659568E+03  0.00000000000E+00 0.  1.
         23    2    1    2    0    0  0.36709807347E+03 -0.11248300329E+04 -0.27359151844E+02  0.11869187277E+04  0.89576472091E+02 0.  0.
        254    2    1    2    0    0 -0.36709807347E+03  0.11248300329E+04  0.11393426558E+04  0.18462379676E+04  0.84290530150E+03 0.  0.
        -24    2    4    4    0    0  0.14026621384E+03  0.85913097880E+03  0.71227843580E+03  0.11274582101E+04  0.77722557575E+02 0.  0.
         24    2    4    4    0    0 -0.50736428731E+03  0.26569905413E+03  0.42706421999E+03  0.71877975752E+03  0.79031540727E+02 0.  0.
         11    1    3    3    0    0  0.18991177331E+03 -0.62547787312E+03 -0.57557831694E+02  0.65620267859E+03  0.00000000000E+00 0.  1.
        -11    1    3    3    0    0  0.17718630016E+03 -0.49935215982E+03  0.30198679850E+02  0.53071604907E+03  0.00000000000E+00 0. -1.
          2    1    6    6  502    0 -0.45137900864E+03  0.23969667310E+03  0.34726596950E+03  0.61789251339E+03  0.00000000000E+00 0. -1.
          1    1    5    5  503    0  0.14433089341E+03  0.85744075288E+03  0.70960383544E+03  0.11223072907E+04  0.00000000000E+00 0. -1.
         -2    1    5    5    0  503 -0.40646795677E+01  0.16902259219E+01  0.26746003554E+01  0.51509194050E+01  0.00000000000E+00 0.  1.
         -1    1    6    6    0  502 -0.55985278667E+02  0.26002381028E+02  0.79798250490E+02  0.10088724413E+03  0.00000000000E+00 0.  1.
<mgrwt>
<rscale>  0 0.28219731E+04</rscale>
<asrwt>0</asrwt>
<pdfrwt beam="1">  1        1 0.31885694E+00 0.28219731E+04</pdfrwt>
<pdfrwt beam="2">  1       -1 0.14778255E+00 0.28219731E+04</pdfrwt>
<totfact> 0.83471603E-01</totfact>
</mgrwt>
</event>
<event>
12    1  0.1562393E-007  0.1810060E+04  0.7818608E-02  0.8700968E-01
          2   -1    0    0  501    0  0.00000000000E+00  0.00000000000E+00  0.18384048544E+04  0.18384048544E+04  0.00000000000E+00 0. -1.
         -2   -1    0    0    0  501 -0.00000000000E+00 -0.00000000000E+00 -0.44553799395E+03  0.44553799395E+03  0.00000000000E+00 0.  1.
         23    2    1    2    0    0  0.62926648373E+03  0.14975108746E+02  0.18427850698E+03  0.66205488023E+03  0.90319072629E+02 0.  0.
        254    2    1    2    0    0 -0.62926648373E+03 -0.14975108746E+02  0.12085883534E+04  0.16218879681E+04  0.87956478528E+03 0.  0.
        -24    2    4    4    0    0 -0.66377413962E+03  0.19762896888E+03  0.45279868903E+03  0.83101873496E+03  0.76890619024E+02 0.  0.
         24    2    4    4    0    0  0.34507655894E+02 -0.21260407763E+03  0.75578966441E+03  0.79086923312E+03  0.88684017299E+02 0.  0.
         13    1    3    3    0    0  0.71611928016E+02 -0.11251295349E+01  0.52537496046E+02  0.88824110699E+02  0.00000000000E+00 0. -1.
        -13    1    3    3    0    0  0.55765455571E+03  0.16100238281E+02  0.13174101093E+03  0.57323076953E+03  0.00000000000E+00 0.  1.
          2    1    6    6  502    0  0.10278099261E+02 -0.50374279963E+01  0.68913510473E+01  0.13360603448E+02  0.00000000000E+00 0. -1.
          3    1    5    5  503    0 -0.13999136234E+03  0.12952918102E+02  0.10828100664E+03  0.17745460268E+03  0.00000000000E+00 0. -1.
         -4    1    5    5    0  503 -0.52378277729E+03  0.18467605078E+03  0.34451768239E+03  0.65356413227E+03  0.00000000000E+00 0.  1.
         -1    1    6    6    0  502  0.24229556633E+02 -0.20756664963E+03  0.74889831336E+03  0.77750862967E+03  0.00000000000E+00 0.  1.
<mgrwt>
<rscale>  0 0.18100599E+04</rscale>
<asrwt>0</asrwt>
<pdfrwt beam="1">  1        2 0.28283151E+00 0.18100599E+04</pdfrwt>
<pdfrwt beam="2">  1       -2 0.68544308E-01 0.18100599E+04</pdfrwt>
<totfact> 0.15080430E+01</totfact>
</mgrwt>
</event>
<event>
12    1  0.1562393E-007  0.1475505E+04  0.7818608E-02  0.8900907E-01
          1   -1    0    0  501    0  0.00000000000E+00  0.00000000000E+00  0.48150833180E+03  0.48150833180E+03  0.00000000000E+00 0. -1.
         -1   -1    0    0    0  501 -0.00000000000E+00 -0.00000000000E+00 -0.11303615550E+04  0.11303615550E+04  0.00000000000E+00 0.  1.
         23    2    1    2    0    0 -0.28711943195E+03  0.11957184300E+03  0.17035520442E+03  0.36610651463E+03  0.90984012533E+02 0.  0.
        254    2    1    2    0    0  0.28711943195E+03 -0.11957184300E+03 -0.81920842763E+03  0.12457633722E+04  0.88548796589E+03 0.  0.
        -24    2    4    4    0    0  0.21532499443E+03 -0.33857912855E+03 -0.18369901726E+02  0.40889925159E+03  0.76553674914E+02 0.  0.
         24    2    4    4    0    0  0.71794437521E+02  0.21900728556E+03 -0.80083852590E+03  0.83686412060E+03  0.76684935880E+02 0.  0.
         11    1    3    3    0    0 -0.20728604079E+03  0.12806539997E+03  0.12385119620E+03  0.27332648642E+03  0.00000000000E+00 0. -1.
        -11    1    3    3    0    0 -0.79833391162E+02 -0.84935569719E+01  0.46504008220E+02  0.92780028212E+02  0.00000000000E+00 0.  1.
          4    1    6    6  502    0  0.62823877985E+02  0.21508913211E+03 -0.79376579124E+03  0.82478743064E+03  0.00000000000E+00 0. -1.
          1    1    5    5  503    0  0.75927433363E+02 -0.12190622460E+03 -0.43434086752E+02  0.15004206952E+03  0.00000000000E+00 0. -1.
         -2    1    5    5    0  503  0.13939756107E+03 -0.21667290395E+03  0.25064185025E+02  0.25885718207E+03  0.00000000000E+00 0.  1.
         -3    1    6    6    0  502  0.89705595359E+01  0.39181534432E+01 -0.70727346644E+01  0.12076689961E+02  0.00000000000E+00 0.  1.
<mgrwt>
<rscale>  0 0.14755047E+04</rscale>
<asrwt>0</asrwt>
<pdfrwt beam="1">  1        1 0.74078205E-01 0.14755047E+04</pdfrwt>
<pdfrwt beam="2">  1       -1 0.17390178E+00 0.14755047E+04</pdfrwt>
<totfact> 0.10424344E+01</totfact>
</mgrwt>
</event>
<event>
12    1  0.1562393E-007  0.1727623E+04  0.7818608E-02  0.8745765E-01
          2   -1    0    0  501    0  0.00000000000E+00  0.00000000000E+00  0.16211859588E+04  0.16211859588E+04  0.00000000000E+00 0. -1.
         -2   -1    0    0    0  501 -0.00000000000E+00 -0.00000000000E+00 -0.46026194249E+03  0.46026194249E+03  0.00000000000E+00 0.  1.
         23    2    1    2    0    0  0.16541646507E+03  0.59207444673E+03  0.56523733275E+03  0.83973893041E+03  0.88053799011E+02 0.  0.
        254    2    1    2    0    0 -0.16541646507E+03 -0.59207444673E+03  0.59568668354E+03  0.12417089709E+04  0.89949084819E+03 0.  0.
        -24    2    4    4    0    0 -0.36262444500E+03 -0.73960862924E+03  0.49284027217E+03  0.96325891100E+03  0.80366555118E+02 0.  0.
         24    2    4    4    0    0  0.19720797993E+03  0.14753418251E+03  0.10284641136E+03  0.27845005986E+03  0.79370833087E+02 0.  0.
         13    1    3    3    0    0  0.66443019440E+02  0.15616116712E+03  0.11313697778E+03  0.20396313562E+03  0.00000000000E+00 0. -1.
        -13    1    3    3    0    0  0.98973445630E+02  0.43591327961E+03  0.45210035497E+03  0.63577579479E+03  0.00000000000E+00 0.  1.
          2    1    6    6  502    0  0.10172212634E+03  0.30500809190E+02  0.57402892243E+02  0.12071777991E+03  0.00000000000E+00 0. -1.
          3    1    5    5  503    0 -0.34025741581E+02 -0.28926453882E+02  0.26822753554E+02  0.52095594176E+02  0.00000000000E+00 0. -1.
         -4    1    5    5    0  503 -0.32859870342E+03 -0.71068217536E+03  0.46601751862E+03  0.91116331683E+03  0.00000000000E+00 0.  1.
         -1    1    6    6    0  502  0.95485853596E+02  0.11703337332E+03  0.45443519119E+02  0.15773227995E+03  0.00000000000E+00 0.  1.
<mgrwt>
<rscale>  0 0.17276229E+04</rscale>
<asrwt>0</asrwt>
<pdfrwt beam="1">  1        2 0.24941322E+00 0.17276229E+04</pdfrwt>
<pdfrwt beam="2">  1       -2 0.70809531E-01 0.17276229E+04</pdfrwt>
<totfact> 0.18675612E+01</totfact>
</mgrwt>
</event>
<event>
12    1  0.1562393E-007  0.1640613E+04  0.7818608E-02  0.8795979E-01
         -2   -1    0    0    0  501 -0.00000000000E+00  0.00000000000E+00  0.23436258246E+04  0.23436258246E+04  0.00000000000E+00 0.  1.
          2   -1    0    0  501    0  0.00000000000E+00 -0.00000000000E+00 -0.28712028392E+03  0.28712028392E+03  0.00000000000E+00 0. -1.
         23    2    1    2    0    0 -0.26209774528E+03 -0.43313133237E+03  0.13974136296E+04  0.14892205028E+04  0.93353492947E+02 0.  0.
        254    2    1    2    0    0  0.26209774528E+03  0.43313133237E+03  0.65909191117E+03  0.11415256058E+04  0.78254749515E+03 0.  0.
        -24    2    4    4    0    0  0.46193122629E+03  0.75676838937E+02  0.18369720727E+03  0.50904391701E+03  0.79206083834E+02 0.  0.
         24    2    4    4    0    0 -0.19983348101E+03  0.35745449343E+03  0.47539470390E+03  0.63248168879E+03  0.79535068686E+02 0.  0.
         11    1    3    3    0    0 -0.25597205405E+03 -0.43212050500E+03  0.13948259883E+04  0.14824943038E+04  0.00000000000E+00 0.  1.
        -11    1    3    3    0    0 -0.61256912340E+01 -0.10108273650E+01  0.25876413008E+01  0.67261989681E+01  0.00000000000E+00 0. -1.
          2    1    6    6  502    0 -0.56032125087E+02  0.44725736711E+02  0.10158485616E+03  0.12433613138E+03  0.00000000000E+00 0. -1.
          1    1    5    5  503    0  0.35079394718E+01  0.11226067030E+02  0.34203874275E+01  0.12248643617E+02  0.00000000000E+00 0. -1.
         -2    1    5    5    0  503  0.45842328682E+03  0.64450771907E+02  0.18027681984E+03  0.49679527340E+03  0.00000000000E+00 0.  1.
         -1    1    6    6    0  502 -0.14380135592E+03  0.31272875672E+03  0.37380984774E+03  0.50814555741E+03  0.00000000000E+00 0.  1.
<mgrwt>
<rscale>  0 0.16406127E+04</rscale>
<asrwt>0</asrwt>
<pdfrwt beam="1">  1        2 0.44172353E-01 0.16406127E+04</pdfrwt>
<pdfrwt beam="2">  1       -2 0.36055781E+00 0.16406127E+04</pdfrwt>
<totfact> 0.14786660E+00</totfact>
</mgrwt>
</event>
<event>
12    1  0.1562393E-007  0.1158254E+04  0.7818608E-02  0.9150203E-01
          2   -1    0    0  501    0  0.00000000000E+00  0.00000000000E+00  0.42793419198E+04  0.42793419198E+04  0.00000000000E+00 0. -1.
         -2   -1    0    0    0  501 -0.00000000000E+00 -0.00000000000E+00 -0.78373697347E+02  0.78373697347E+02  0.00000000000E+00 0.  1.
         23    2    1    2    0    0  0.10946514359E+03  0.16666898176E+03  0.50923433078E+03  0.55477585359E+03  0.93249541216E+02 0.  0.
        254    2    1    2    0    0 -0.10946514359E+03 -0.16666898176E+03  0.36917338916E+04  0.38029397635E+04  0.89089311995E+03 0.  0.
        -24    2    4    4    0    0 -0.31673532520E+03  0.56981856163E+01  0.49158029032E+03  0.59037342266E+03  0.80844670855E+02 0.  0.
         24    2    4    4    0    0  0.20727018160E+03 -0.17236716737E+03  0.32001536013E+04  0.32125663408E+04  0.83234931706E+02 0.  0.
         11    1    3    3    0    0 -0.16261213099E+01 -0.84140090263E+01  0.59010323255E+01  0.10404902735E+02  0.00000000000E+00 0.  1.
        -11    1    3    3    0    0  0.11109126490E+03  0.17508299078E+03  0.50333329846E+03  0.54437095085E+03  0.00000000000E+00 0. -1.
          2    1    6    6  502    0  0.11602055913E+03 -0.10707490322E+03  0.13897314601E+04  0.13986705603E+04  0.00000000000E+00 0. -1.
          3    1    5    5  503    0 -0.30891830780E+03 -0.41633187646E+01  0.48748657211E+03  0.57714037470E+03  0.00000000000E+00 0. -1.
         -4    1    5    5    0  503 -0.78170173946E+01  0.98615043809E+01  0.40937182102E+01  0.13233047963E+02  0.00000000000E+00 0.  1.
         -1    1    6    6    0  502  0.91249622474E+02 -0.65292264155E+02  0.18104221412E+04  0.18138957806E+04  0.00000000000E+00 0.  1.
<mgrwt>
<rscale>  0 0.11582536E+04</rscale>
<asrwt>0</asrwt>
<pdfrwt beam="1">  1        2 0.65836011E+00 0.11582536E+04</pdfrwt>
<pdfrwt beam="2">  1       -2 0.12057495E-01 0.11582536E+04</pdfrwt>
<totfact> 0.10453456E+01</totfact>
</mgrwt>
</event>
<event>
12    1  0.1562393E-007  0.2035804E+04  0.7818608E-02  0.8590062E-01
          2   -1    0    0  501    0  0.00000000000E+00  0.00000000000E+00  0.19681978860E+04  0.19681978860E+04  0.00000000000E+00 0. -1.
         -2   -1    0    0    0  501 -0.00000000000E+00 -0.00000000000E+00 -0.52643288239E+03  0.52643288239E+03  0.00000000000E+00 0.  1.
         23    2    1    2    0    0  0.19992243263E+03 -0.59750457646E+03  0.12015588449E+04  0.13595486324E+04  0.87453576831E+02 0.  0.
        254    2    1    2    0    0 -0.19992243263E+03  0.59750457646E+03  0.24020615865E+03  0.11350821359E+04  0.91308912967E+03 0.  0.
        -24    2    4    4    0    0  0.23309551284E+02  0.66647007057E+03  0.45229184733E+03  0.80965320642E+03  0.79023473415E+02 0.  0.
         24    2    4    4    0    0 -0.22323198391E+03 -0.68965494114E+02 -0.21208568868E+03  0.32542892952E+03  0.79592027291E+02 0.  0.
         11    1    3    3    0    0  0.68442763796E+02 -0.13920219095E+03  0.36623264642E+03  0.39772856722E+03  0.00000000000E+00 0.  1.
        -11    1    3    3    0    0  0.13147966883E+03 -0.45830238551E+03  0.83532619850E+03  0.96182006518E+03  0.00000000000E+00 0. -1.
          4    1    6    6  502    0  0.35510235361E+01 -0.11095464151E+02 -0.17667807886E+02  0.21162951788E+02  0.00000000000E+00 0. -1.
          3    1    5    5  503    0 -0.17012320276E+02  0.48829912209E+03  0.33936721198E+03  0.59489121379E+03  0.00000000000E+00 0. -1.
         -4    1    5    5    0  503  0.40321871560E+02  0.17817094848E+03  0.11292463536E+03  0.21476199263E+03  0.00000000000E+00 0.  1.
         -3    1    6    6    0  502 -0.22678300745E+03 -0.57870029963E+02 -0.19441788080E+03  0.30426597774E+03  0.00000000000E+00 0.  1.
<mgrwt>
<rscale>  0 0.20358036E+04</rscale>
<asrwt>0</asrwt>
<pdfrwt beam="1">  1        2 0.30279967E+00 0.20358036E+04</pdfrwt>
<pdfrwt beam="2">  1       -2 0.80989675E-01 0.20358036E+04</pdfrwt>
<totfact> 0.86668244E+00</totfact>
</mgrwt>
</event>
<event>
12    1  0.1562393E-007  0.2062123E+04  0.7818608E-02  0.8578114E-01
          1   -1    0    0  501    0  0.00000000000E+00  0.00000000000E+00  0.73184714032E+03  0.73184714032E+03  0.00000000000E+00 0. -1.
         -1   -1    0    0    0  501 -0.00000000000E+00 -0.00000000000E+00 -0.14526091611E+04  0.14526091611E+04  0.00000000000E+00 0.  1.
         23    2    1    2    0    0  0.80045720199E+03  0.19198156291E+03 -0.39678802067E+03  0.91836486418E+03  0.91458393203E+02 0.  0.
        254    2    1    2    0    0 -0.80045720199E+03 -0.19198156291E+03 -0.32397400014E+03  0.12660914373E+04  0.90578127717E+03 0.  0.
        -24    2    4    4    0    0 -0.15820013384E+03  0.88424503780E+02  0.27633424631E+03  0.33990437371E+03  0.79549936326E+02 0.  0.
         24    2    4    4    0    0 -0.64225706815E+03 -0.28040606670E+03 -0.60030824644E+03  0.92618706357E+03  0.79566212330E+02 0.  0.
         13    1    3    3    0    0  0.12061125140E+03  0.60757393154E+02 -0.79733087594E+02  0.15683080068E+03  0.00000000000E+00 0.  1.
        -13    1    3    3    0    0  0.67984595059E+03  0.13122416976E+03 -0.31705493308E+03  0.76153406349E+03  0.00000000000E+00 0. -1.
          2    1    6    6  502    0 -0.25410960402E+03 -0.10319011793E+03 -0.28583274868E+03  0.39613160883E+03  0.00000000000E+00 0. -1.
          1    1    5    5  503    0 -0.89441682563E+02  0.40524603988E+02  0.80777850291E+02  0.12714998705E+03  0.00000000000E+00 0. -1.
         -2    1    5    5    0  503 -0.68758451278E+02  0.47899899793E+02  0.19555639602E+03  0.21275438667E+03  0.00000000000E+00 0.  1.
         -1    1    6    6    0  502 -0.38814746413E+03 -0.17721594876E+03 -0.31447549776E+03  0.53005545474E+03  0.00000000000E+00 0.  1.
<mgrwt>
<rscale>  0 0.20621230E+04</rscale>
<asrwt>0</asrwt>
<pdfrwt beam="1">  1        1 0.11259187E+00 0.20621230E+04</pdfrwt>
<pdfrwt beam="2">  1       -1 0.22347833E+00 0.20621230E+04</pdfrwt>
<totfact> 0.24486184E+00</totfact>
</mgrwt>
</event>
<event>
12    1  0.1562393E-007  0.1252700E+04  0.7818608E-02  0.9067939E-01
          2   -1    0    0  501    0  0.00000000000E+00  0.00000000000E+00  0.79857315294E+03  0.79857315294E+03  0.00000000000E+00 0. -1.
         -2   -1    0    0    0  501 -0.00000000000E+00 -0.00000000000E+00 -0.49126887156E+03  0.49126887156E+03  0.00000000000E+00 0.  1.
         23    2    1    2    0    0 -0.82860079603E+02  0.27947131838E+03  0.37650223268E+02  0.30791367048E+03  0.91778421051E+02 0.  0.
        254    2    1    2    0    0  0.82860079603E+02 -0.27947131838E+03  0.26965405811E+03  0.98192835402E+03  0.89805343426E+03 0.  0.
        -24    2    4    4    0    0  0.31509942781E+03  0.21537255069E+03  0.82686240477E+02  0.39876330272E+03  0.80636047984E+02 0.  0.
         24    2    4    4    0    0 -0.23223934820E+03 -0.49484386907E+03  0.18696781763E+03  0.58316505130E+03  0.79491777092E+02 0.  0.
         11    1    3    3    0    0 -0.36813355136E+02  0.11232489409E+03  0.60932141739E+02  0.13298432557E+03  0.00000000000E+00 0. -1.
        -11    1    3    3    0    0 -0.46046724467E+02  0.16714642428E+03 -0.23281918472E+02  0.17492934491E+03  0.00000000000E+00 0.  1.
          2    1    6    6  502    0 -0.96696189380E+02 -0.29850090871E+03  0.10350042192E+03  0.33040169927E+03  0.00000000000E+00 0. -1.
          1    1    5    5  503    0  0.11516897604E+03  0.94529866073E+02  0.70497557370E+02  0.16483232152E+03  0.00000000000E+00 0. -1.
         -2    1    5    5    0  503  0.19993045176E+03  0.12084268462E+03  0.12188683107E+02  0.23393098120E+03  0.00000000000E+00 0.  1.
         -1    1    6    6    0  502 -0.13554315882E+03 -0.19634296035E+03  0.83467395713E+02  0.25276335203E+03  0.00000000000E+00 0.  1.
<mgrwt>
<rscale>  0 0.12526997E+04</rscale>
<asrwt>0</asrwt>
<pdfrwt beam="1">  1        2 0.12285741E+00 0.12526997E+04</pdfrwt>
<pdfrwt beam="2">  1       -2 0.75579826E-01 0.12526997E+04</pdfrwt>
<totfact> 0.53319473E+01</totfact>
</mgrwt>
</event>
<event>
12    1  0.1562393E-007  0.1720616E+04  0.7818608E-02  0.8749693E-01
          2   -1    0    0  501    0  0.00000000000E+00  0.00000000000E+00  0.69265009725E+03  0.69265009725E+03  0.00000000000E+00 0. -1.
         -2   -1    0    0    0  501 -0.00000000000E+00 -0.00000000000E+00 -0.10685475683E+04  0.10685475683E+04  0.00000000000E+00 0.  1.
         23    2    1    2    0    0  0.41931502117E+02  0.11342790663E+02  0.49795110127E+03  0.50904341294E+03  0.96348260132E+02 0.  0.
        254    2    1    2    0    0 -0.41931502117E+02 -0.11342790663E+02 -0.87384857232E+03  0.12521542526E+04  0.89576338126E+03 0.  0.
        -24    2    4    4    0    0 -0.36493248757E+03 -0.84338421517E+02 -0.82478687017E+03  0.90937083586E+03  0.79957776887E+02 0.  0.
         24    2    4    4    0    0  0.32300098545E+03  0.72995630854E+02 -0.49061702144E+02  0.34278341674E+03  0.73725310757E+02 0.  0.
         11    1    3    3    0    0  0.45323729614E+02 -0.79200329666E+01  0.48089788537E+03  0.48309392828E+03  0.00000000000E+00 0. -1.
        -11    1    3    3    0    0 -0.33922274970E+01  0.19262823629E+02  0.17053215905E+02  0.25949484663E+02  0.00000000000E+00 0.  1.
          2    1    6    6  502    0  0.48979243907E+02 -0.68754276728E+01 -0.27389823223E+02  0.56537069747E+02  0.00000000000E+00 0. -1.
          1    1    5    5  503    0 -0.13142103598E+03 -0.40137604051E+01 -0.35631172033E+03  0.37979684177E+03  0.00000000000E+00 0. -1.
         -2    1    5    5    0  503 -0.23351145159E+03 -0.80324661112E+02 -0.46847514984E+03  0.52957399410E+03  0.00000000000E+00 0.  1.
         -1    1    6    6    0  502  0.27402174155E+03  0.79871058527E+02 -0.21671878921E+02  0.28624634699E+03  0.00000000000E+00 0.  1.
<mgrwt>
<rscale>  0 0.17206157E+04</rscale>
<asrwt>0</asrwt>
<pdfrwt beam="1">  1        2 0.10656155E+00 0.17206157E+04</pdfrwt>
<pdfrwt beam="2">  1       -2 0.16439193E+00 0.17206157E+04</pdfrwt>
<totfact> 0.92201471E+00</totfact>
</mgrwt>
</event>
<event>
12    1  0.1562393E-007  0.3218348E+04  0.7818608E-02  0.8183988E-01
          2   -1    0    0  501    0  0.00000000000E+00  0.00000000000E+00  0.15886894345E+04  0.15886894345E+04  0.00000000000E+00 0. -1.
         -2   -1    0    0    0  501 -0.00000000000E+00 -0.00000000000E+00 -0.16299230888E+04  0.16299230888E+04  0.00000000000E+00 0.  1.
         23    2    1    2    0    0 -0.30323653324E+03  0.18688842293E+03  0.14181264922E+04  0.14649858740E+04  0.90670752202E+02 0.  0.
        254    2    1    2    0    0  0.30323653324E+03 -0.18688842293E+03 -0.14593601465E+04  0.17536266493E+04  0.90476223960E+03 0.  0.
        -24    2    4    4    0    0 -0.76594899851E+02  0.24018128641E+03 -0.94265429661E+03  0.97892244412E+03  0.78346663385E+02 0.  0.
         24    2    4    4    0    0  0.37983143309E+03 -0.42706970933E+03 -0.51670584989E+03  0.77470420517E+03  0.80754046419E+02 0.  0.
         13    1    3    3    0    0 -0.98115991595E+02  0.11068552289E+03  0.52430084685E+03  0.54476546402E+03  0.00000000000E+00 0. -1.
        -13    1    3    3    0    0 -0.20512054164E+03  0.76202900038E+02  0.89382564537E+03  0.92022040996E+03  0.00000000000E+00 0.  1.
          2    1    6    6  502    0  0.30589102368E+03 -0.31106404619E+03 -0.42710168182E+03  0.61052928334E+03  0.00000000000E+00 0. -1.
          1    1    5    5  503    0 -0.36415213909E+02  0.19531382514E+03 -0.79515025675E+03  0.81959593027E+03  0.00000000000E+00 0. -1.
         -2    1    5    5    0  503 -0.40179685942E+02  0.44867461270E+02 -0.14750403986E+03  0.15932651386E+03  0.00000000000E+00 0.  1.
         -1    1    6    6    0  502  0.73940409410E+02 -0.11600566314E+03 -0.89604168067E+02  0.16417492183E+03  0.00000000000E+00 0.  1.
<mgrwt>
<rscale>  0 0.32183484E+04</rscale>
<asrwt>0</asrwt>
<pdfrwt beam="1">  1        2 0.24441376E+00 0.32183484E+04</pdfrwt>
<pdfrwt beam="2">  1       -2 0.25075740E+00 0.32183484E+04</pdfrwt>
<totfact> 0.60489194E-01</totfact>
</mgrwt>
</event>
<event>
12    1  0.1562393E-007  0.1210494E+04  0.7818608E-02  0.9103721E-01
         -1   -1    0    0    0  501 -0.00000000000E+00  0.00000000000E+00  0.27210653081E+03  0.27210653081E+03  0.00000000000E+00 0. -1.
          1   -1    0    0  501    0  0.00000000000E+00 -0.00000000000E+00 -0.13462510827E+04  0.13462510827E+04  0.00000000000E+00 0.  1.
         23    2    1    2    0    0  0.93174377498E+02 -0.57942650374E+01  0.79927180402E+02  0.15258553399E+03  0.90437563462E+02 0.  0.
        254    2    1    2    0    0 -0.93174377498E+02  0.57942650374E+01 -0.11540717323E+04  0.14657720795E+04  0.89882767408E+03 0.  0.
        -24    2    4    4    0    0  0.33024964395E+03  0.60570172202E+02 -0.16144956179E+03  0.38230899564E+03  0.85794137644E+02 0.  0.
         24    2    4    4    0    0 -0.42342402145E+03 -0.54775907165E+02 -0.99262217048E+03  0.10834630839E+04  0.79405156187E+02 0.  0.
         11    1    3    3    0    0  0.80742850936E+02 -0.41269828676E+02  0.67323121970E+02  0.11293807811E+03  0.00000000000E+00 0. -1.
        -11    1    3    3    0    0  0.12431526562E+02  0.35475563638E+02  0.12604058433E+02  0.39647455872E+02  0.00000000000E+00 0.  1.
          4    1    6    6  502    0 -0.17649380593E+03 -0.39469329211E+02 -0.33250827535E+03  0.37850976824E+03  0.00000000000E+00 0. -1.
          3    1    5    5  503    0  0.16206986690E+03  0.89003889453E+00 -0.11240701897E+03  0.19723785601E+03  0.00000000000E+00 0. -1.
         -4    1    5    5    0  503  0.16817977705E+03  0.59680133308E+02 -0.49042542820E+02  0.18507113963E+03  0.00000000000E+00 0.  1.
         -3    1    6    6    0  502 -0.24693021552E+03 -0.15306577954E+02 -0.66011389513E+03  0.70495331562E+03  0.00000000000E+00 0.  1.
<mgrwt>
<rscale>  0 0.12104936E+04</rscale>
<asrwt>0</asrwt>
<pdfrwt beam="1">  1        1 0.20711555E+00 0.12104936E+04</pdfrwt>
<pdfrwt beam="2">  1       -1 0.41862543E-01 0.12104936E+04</pdfrwt>
<totfact> 0.46431517E+01</totfact>
</mgrwt>
</event>
<event>
12    1  0.1562393E-007  0.2857558E+04  0.7818608E-02  0.8285618E-01
          2   -1    0    0  501    0  0.00000000000E+00  0.00000000000E+00  0.14624796391E+04  0.14624796391E+04  0.00000000000E+00 0. -1.
         -2   -1    0    0    0  501 -0.00000000000E+00 -0.00000000000E+00 -0.13958553926E+04  0.13958553926E+04  0.00000000000E+00 0.  1.
         23    2    1    2    0    0 -0.11457536899E+03 -0.48232264520E+03  0.12207878719E+04  0.13207901468E+04  0.91656611927E+02 0.  0.
        254    2    1    2    0    0  0.11457536899E+03  0.48232264520E+03 -0.11541636254E+04  0.15375448849E+04  0.88667240268E+03 0.  0.
        -24    2    4    4    0    0 -0.31685232189E+03  0.41753285511E+03 -0.84321616099E+03  0.99612777964E+03  0.80795917194E+02 0.  0.
         24    2    4    4    0    0  0.43142769088E+03  0.64789790089E+02 -0.31094746439E+03  0.54141710526E+03  0.78208611412E+02 0.  0.
         11    1    3    3    0    0 -0.95246494794E+02 -0.20391468185E+03  0.54183267284E+03  0.58671606216E+03  0.00000000000E+00 0.  1.
        -11    1    3    3    0    0 -0.19328874197E+02 -0.27840796335E+03  0.67895519908E+03  0.73407408468E+03  0.00000000000E+00 0. -1.
          2    1    6    6  502    0  0.13380339714E+03  0.27564729058E+02 -0.55567054030E+02  0.14748173063E+03  0.00000000000E+00 0. -1.
          1    1    5    5  503    0 -0.20546505081E+03  0.23645097179E+03 -0.56444496818E+03  0.64554091371E+03  0.00000000000E+00 0. -1.
         -2    1    5    5    0  503 -0.11138727108E+03  0.18108188332E+03 -0.27877119280E+03  0.35058686593E+03  0.00000000000E+00 0.  1.
         -1    1    6    6    0  502  0.29762429374E+03  0.37225061031E+02 -0.25538041036E+03  0.39393537463E+03  0.00000000000E+00 0.  1.
<mgrwt>
<rscale>  0 0.28575585E+04</rscale>
<asrwt>0</asrwt>
<pdfrwt beam="1">  1        2 0.22499687E+00 0.28575585E+04</pdfrwt>
<pdfrwt beam="2">  1       -2 0.21474698E+00 0.28575585E+04</pdfrwt>
<totfact> 0.12325151E+00</totfact>
</mgrwt>
</event>
<event>
12    1  0.1562393E-007  0.2949400E+04  0.7818608E-02  0.8258329E-01
          2   -1    0    0  501    0  0.00000000000E+00  0.00000000000E+00  0.86035102448E+03  0.86035102448E+03  0.00000000000E+00 0. -1.
         -2   -1    0    0    0  501 -0.00000000000E+00 -0.00000000000E+00 -0.25277358924E+04  0.25277358924E+04  0.00000000000E+00 0.  1.
         23    2    1    2    0    0 -0.26546408298E+03 -0.12691965539E+04 -0.10811875999E+04  0.16907585677E+04  0.91470411627E+02 0.  0.
        254    2    1    2    0    0  0.26546408298E+03  0.12691965539E+04 -0.58619726805E+03  0.16973283492E+04  0.92518388241E+03 0.  0.
        -24    2    4    4    0    0 -0.15804674766E+01 -0.59658849586E+02 -0.29096187610E+03  0.30814078533E+03  0.82038125458E+02 0.  0.
         24    2    4    4    0    0  0.26704455046E+03  0.13288554035E+04 -0.29523539195E+03  0.13891875639E+04  0.74220453697E+02 0.  0.
         13    1    3    3    0    0 -0.15688415717E+03 -0.71059081532E+03 -0.54831199907E+03  0.91115201472E+03  0.00000000000E+00 0. -1.
        -13    1    3    3    0    0 -0.10857992581E+03 -0.55860573857E+03 -0.53287560082E+03  0.77960655295E+03  0.00000000000E+00 0.  1.
          2    1    6    6  502    0  0.40210496057E+02  0.34200083956E+03 -0.91510910534E+02  0.35630844082E+03  0.00000000000E+00 0. -1.
          3    1    5    5  503    0  0.75489983872E+01 -0.32122310900E+02 -0.27129255225E+02  0.42717990628E+02  0.00000000000E+00 0. -1.
         -4    1    5    5    0  503 -0.91294658638E+01 -0.27536538686E+02 -0.26383262088E+03  0.26542279470E+03  0.00000000000E+00 0.  1.
         -1    1    6    6    0  502  0.22683405440E+03  0.98685456392E+03 -0.20372448141E+03  0.10328791231E+04  0.00000000000E+00 0.  1.
<mgrwt>
<rscale>  0 0.29494001E+04</rscale>
<asrwt>0</asrwt>
<pdfrwt beam="1">  1        2 0.13236169E+00 0.29494001E+04</pdfrwt>
<pdfrwt beam="2">  1       -2 0.38888245E+00 0.29494001E+04</pdfrwt>
<totfact> 0.23521002E-01</totfact>
</mgrwt>
</event>
<event>
12    1  0.2004391E-007  0.2169288E+04  0.7818608E-02  0.8531321E-01
         -2   -1    0    0    0  501 -0.00000000000E+00  0.00000000000E+00  0.95379445536E+03  0.95379445536E+03  0.00000000000E+00 0.  1.
          2   -1    0    0  501    0  0.00000000000E+00 -0.00000000000E+00 -0.12334449974E+04  0.12334449974E+04  0.00000000000E+00 0. -1.
         23    2    1    2    0    0 -0.77085560033E+03 -0.20793475914E+03 -0.50916339239E+03  0.95127490970E+03  0.90671787491E+02 0.  0.
        254    2    1    2    0    0  0.77085560033E+03  0.20793475914E+03  0.22951285033E+03  0.12359645431E+04  0.91513768506E+03 0.  0.
        -24    2    4    4    0    0 -0.32289273472E+02 -0.41343469188E+01 -0.25633144155E+03  0.27029236500E+03  0.79325056873E+02 0.  0.
         24    2    4    4    0    0  0.80314487381E+03  0.21206910606E+03  0.48584429188E+03  0.96567217806E+03  0.80393317249E+02 0.  0.
         11    1    3    3    0    0 -0.66728824833E+02 -0.38493333747E+01 -0.69553480218E+02  0.96463672133E+02  0.00000000000E+00 0. -1.
        -11    1    3    3    0    0 -0.70412677550E+03 -0.20408542577E+03 -0.43960991217E+03  0.85481123756E+03  0.00000000000E+00 0.  1.
          4    1    6    6  502    0  0.72207422854E+03  0.17266917416E+03  0.41159403603E+03  0.84889073839E+03  0.00000000000E+00 0. -1.
          1    1    5    5  503    0 -0.51984321308E+02  0.16199626548E+02 -0.19955291788E+03  0.20684816798E+03  0.00000000000E+00 0. -1.
         -2    1    5    5    0  503  0.19695047835E+02 -0.20333973467E+02 -0.56778523663E+02  0.63444197020E+02  0.00000000000E+00 0.  1.
         -3    1    6    6    0  502  0.81070645269E+02  0.39399931906E+02  0.74250255848E+02  0.11678143967E+03  0.00000000000E+00 0.  1.
<mgrwt>
<rscale>  0 0.21692884E+04</rscale>
<asrwt>0</asrwt>
<pdfrwt beam="1">  1        2 0.18976077E+00 0.21692884E+04</pdfrwt>
<pdfrwt beam="2">  1       -2 0.14673761E+00 0.21692884E+04</pdfrwt>
<totfact> 0.52651202E+00</totfact>
</mgrwt>
</event>
<event>
12    1  0.1562393E-007  0.1627587E+04  0.7818608E-02  0.8803777E-01
         -2   -1    0    0    0  501 -0.00000000000E+00  0.00000000000E+00  0.33280175830E+03  0.33280175830E+03  0.00000000000E+00 0. -1.
          2   -1    0    0  501    0  0.00000000000E+00 -0.00000000000E+00 -0.19899527815E+04  0.19899527815E+04  0.00000000000E+00 0.  1.
         23    2    1    2    0    0 -0.15495505910E+03  0.64232201454E+02  0.18548811454E+03  0.26561135100E+03  0.89480182733E+02 0.  0.
        254    2    1    2    0    0  0.15495505910E+03 -0.64232201454E+02 -0.18426391378E+04  0.20571431888E+04  0.89910080705E+03 0.  0.
        -24    2    4    4    0    0  0.36395519087E+03 -0.12050718514E+03 -0.17734011938E+04  0.18159972539E+04  0.76869169150E+02 0.  0.
         24    2    4    4    0    0 -0.20900013177E+03  0.56274983684E+02 -0.69237943952E+02  0.24114593496E+03  0.80681721588E+02 0.  0.
         13    1    3    3    0    0 -0.30223322968E+02  0.30064970413E+02  0.40820052738E+01  0.42825395085E+02  0.00000000000E+00 0.  1.
        -13    1    3    3    0    0 -0.12473173613E+03  0.34167231041E+02  0.18140610926E+03  0.22278595591E+03  0.00000000000E+00 0. -1.
          2    1    6    6  502    0 -0.24747050675E+02 -0.10736066786E+01 -0.38443537953E+02  0.45732644345E+02  0.00000000000E+00 0. -1.
          3    1    5    5  503    0  0.20703230826E+02 -0.26969238489E+02 -0.11816131736E+03  0.12295552249E+03  0.00000000000E+00 0. -1.
         -4    1    5    5    0  503  0.34325196004E+03 -0.93537946649E+02 -0.16552398765E+04  0.16930417314E+04  0.00000000000E+00 0.  1.
         -1    1    6    6    0  502 -0.18425308110E+03  0.57348590363E+02 -0.30794405998E+02  0.19541329062E+03  0.00000000000E+00 0.  1.
<mgrwt>
<rscale>  0 0.16275869E+04</rscale>
<asrwt>0</asrwt>
<pdfrwt beam="1">  1        2 0.30614659E+00 0.16275869E+04</pdfrwt>
<pdfrwt beam="2">  1       -2 0.51200270E-01 0.16275869E+04</pdfrwt>
<totfact> 0.23349322E+01</totfact>
</mgrwt>
</event>
<event>
12    1  0.1562393E-007  0.1099846E+04  0.7818608E-02  0.9205342E-01
          1   -1    0    0  501    0  0.00000000000E+00  0.00000000000E+00  0.11042948628E+04  0.11042948628E+04  0.00000000000E+00 0. -1.
         -1   -1    0    0    0  501 -0.00000000000E+00 -0.00000000000E+00 -0.27385388448E+03  0.27385388448E+03  0.00000000000E+00 0.  1.
         23    2    1    2    0    0 -0.29605498490E+02 -0.96269542091E+02 -0.20793982992E+02  0.13550709347E+03  0.88235323866E+02 0.  0.
        254    2    1    2    0    0  0.29605498490E+02  0.96269542091E+02  0.85123496128E+03  0.12426416538E+04  0.89967383542E+03 0.  0.
        -24    2    4    4    0    0 -0.15390144125E+03  0.24931294948E+03  0.93016741589E+03  0.97860471774E+03  0.81321409251E+02 0.  0.
         24    2    4    4    0    0  0.18350693974E+03 -0.15304340739E+03 -0.78932454606E+02  0.26403693604E+03  0.79925526113E+02 0.  0.
         11    1    3    3    0    0 -0.88615103559E+01  0.12631274119E+02  0.12389521218E+02  0.19788271467E+02  0.00000000000E+00 0. -1.
        -11    1    3    3    0    0 -0.20743988134E+02 -0.10890081621E+03 -0.33183504210E+02  0.11571882201E+03  0.00000000000E+00 0.  1.
          4    1    6    6  502    0  0.35079126497E+02 -0.30261598739E+02 -0.51817906721E+02  0.69508308359E+02  0.00000000000E+00 0. -1.
          3    1    5    5  503    0 -0.20117786340E+02  0.10647678216E+03  0.33213871696E+03  0.34936822662E+03  0.00000000000E+00 0. -1.
         -4    1    5    5    0  503 -0.13378365491E+03  0.14283616732E+03  0.59802869892E+03  0.62923649112E+03  0.00000000000E+00 0.  1.
         -3    1    6    6    0  502  0.14842781325E+03 -0.12278180865E+03 -0.27114547885E+02  0.19452862768E+03  0.00000000000E+00 0.  1.
<mgrwt>
<rscale>  0 0.10998462E+04</rscale>
<asrwt>0</asrwt>
<pdfrwt beam="1">  1        1 0.16989151E+00 0.10998462E+04</pdfrwt>
<pdfrwt beam="2">  1       -1 0.42131367E-01 0.10998462E+04</pdfrwt>
<totfact> 0.69373444E+01</totfact>
</mgrwt>
</event>
<event>
12    1  0.1562393E-007  0.2034294E+04  0.7818608E-02  0.8590753E-01
          3   -1    0    0  501    0  0.00000000000E+00  0.00000000000E+00  0.82342326128E+03  0.82342326128E+03  0.00000000000E+00 0. -1.
         -3   -1    0    0    0  501 -0.00000000000E+00 -0.00000000000E+00 -0.12564476430E+04  0.12564476430E+04  0.00000000000E+00 0.  1.
         23    2    1    2    0    0 -0.38855714956E+03  0.67900534190E+03 -0.37390802305E+03  0.87188318314E+03  0.91368279745E+02 0.  0.
        254    2    1    2    0    0  0.38855714956E+03 -0.67900534190E+03 -0.59116358652E+02  0.12079877211E+04  0.91853942634E+03 0.  0.
        -24    2    4    4    0    0  0.36886258276E+02  0.98720801835E+02 -0.29169786799E+03  0.31971532170E+03  0.77613452279E+02 0.  0.
         24    2    4    4    0    0  0.35167089129E+03 -0.77772614373E+03  0.23258150933E+03  0.88827239943E+03  0.80020789091E+02 0.  0.
         11    1    3    3    0    0 -0.39078330390E+03  0.67599732233E+03 -0.36440497491E+03  0.86166986494E+03  0.00000000000E+00 0.  1.
        -11    1    3    3    0    0  0.22261543336E+01  0.30080195637E+01 -0.95030481340E+01  0.10213318200E+02  0.00000000000E+00 0. -1.
          4    1    6    6  502    0  0.20263550543E+03 -0.51593198016E+03  0.12352171896E+03  0.56789485934E+03  0.00000000000E+00 0. -1.
          3    1    5    5  503    0  0.39119274961E+01  0.71567153381E+02 -0.98294801392E+02  0.12165125811E+03  0.00000000000E+00 0. -1.
         -4    1    5    5    0  503  0.32974330780E+02  0.27153648454E+02 -0.19340306659E+03  0.19806406358E+03  0.00000000000E+00 0.  1.
         -3    1    6    6    0  502  0.14903538586E+03 -0.26179416357E+03  0.10905979037E+03  0.32037754009E+03  0.00000000000E+00 0.  1.
<mgrwt>
<rscale>  0 0.20342942E+04</rscale>
<asrwt>0</asrwt>
<pdfrwt beam="1">  1        3 0.12668050E+00 0.20342942E+04</pdfrwt>
<pdfrwt beam="2">  1       -3 0.19329964E+00 0.20342942E+04</pdfrwt>
<totfact> 0.19396958E-01</totfact>
</mgrwt>
</event>
<event>
12    1  0.1562393E-007  0.2145992E+04  0.7818608E-02  0.8541250E-01
          2   -1    0    0  501    0  0.00000000000E+00  0.00000000000E+00  0.24188616567E+04  0.24188616567E+04  0.00000000000E+00 0. -1.
         -2   -1    0    0    0  501 -0.00000000000E+00 -0.00000000000E+00 -0.47597621392E+03  0.47597621392E+03  0.00000000000E+00 0.  1.
         23    2    1    2    0    0  0.14162091087E+02  0.60389789451E+03 -0.61947727956E+02  0.61338220886E+03  0.86642837792E+02 0.  0.
        254    2    1    2    0    0 -0.14162091087E+02 -0.60389789451E+03  0.20048331707E+04  0.22814556618E+04  0.90597497885E+03 0.  0.
        -24    2    4    4    0    0 -0.35627040902E+03 -0.36345443659E+02  0.10820768016E+04  0.11426785208E+04  0.81082684561E+02 0.  0.
         24    2    4    4    0    0  0.34210831793E+03 -0.56755245085E+03  0.92275636912E+03  0.11387771409E+04  0.78614084778E+02 0.  0.
         13    1    3    3    0    0  0.13067961665E+02  0.36136115149E+03 -0.79413227799E+02  0.37021495672E+03  0.00000000000E+00 0. -1.
        -13    1    3    3    0    0  0.10941294220E+01  0.24253674302E+03  0.17465499843E+02  0.24316725215E+03  0.00000000000E+00 0.  1.
          4    1    6    6  502    0  0.75589938119E+02 -0.85917757658E+02  0.19784517272E+03  0.22855724052E+03  0.00000000000E+00 0. -1.
          3    1    5    5  503    0 -0.39890179890E+02  0.15539251536E+02  0.82527502467E+02  0.92970336416E+02  0.00000000000E+00 0. -1.
         -4    1    5    5    0  503 -0.31638022913E+03 -0.51884695195E+02  0.99954929913E+03  0.10497081844E+04  0.00000000000E+00 0.  1.
         -3    1    6    6    0  502  0.26651837981E+03 -0.48163469319E+03  0.72491119640E+03  0.91021990043E+03  0.00000000000E+00 0.  1.
<mgrwt>
<rscale>  0 0.21459922E+04</rscale>
<asrwt>0</asrwt>
<pdfrwt beam="1">  1        2 0.37213256E+00 0.21459922E+04</pdfrwt>
<pdfrwt beam="2">  1       -2 0.73227111E-01 0.21459922E+04</pdfrwt>
<totfact> 0.59943540E+00</totfact>
</mgrwt>
</event>
<event>
12    1  0.1562393E-007  0.1980638E+04  0.7818608E-02  0.8615727E-01
          2   -1    0    0  501    0  0.00000000000E+00  0.00000000000E+00  0.14444987177E+04  0.14444987177E+04  0.00000000000E+00 0.  1.
         -2   -1    0    0    0  501 -0.00000000000E+00 -0.00000000000E+00 -0.67894231534E+03  0.67894231534E+03  0.00000000000E+00 0. -1.
         23    2    1    2    0    0  0.36607335848E+03  0.66430994360E+03  0.10660340869E+03  0.77158161245E+03  0.93040276048E+02 0.  0.
        254    2    1    2    0    0 -0.36607335848E+03 -0.66430994360E+03  0.65895299371E+03  0.13518594206E+04  0.90442658092E+03 0.  0.
        -24    2    4    4    0    0 -0.37171294838E+03 -0.47164881512E+03 -0.53266686326E+02  0.60945819331E+03  0.89324289679E+02 0.  0.
         24    2    4    4    0    0  0.56395898923E+01 -0.19266112848E+03  0.71221968004E+03  0.74240122732E+03  0.82174170518E+02 0.  0.
         11    1    3    3    0    0  0.17927258733E+03  0.38809553735E+03  0.24663868324E+02  0.42821152843E+03  0.00000000000E+00 0.  1.
        -11    1    3    3    0    0  0.18680077116E+03  0.27621440625E+03  0.81939540367E+02  0.34337008402E+03  0.00000000000E+00 0. -1.
          2    1    6    6  502    0 -0.26926605055E+02 -0.24473748773E+02  0.16626976775E+03  0.17020470647E+03  0.00000000000E+00 0. -1.
          3    1    5    5  503    0 -0.53399534007E+02 -0.12713648241E+03 -0.59640228629E+01  0.13802450855E+03  0.00000000000E+00 0. -1.
         -4    1    5    5    0  503 -0.31831341437E+03 -0.34451233271E+03 -0.47302663463E+02  0.47143368476E+03  0.00000000000E+00 0.  1.
         -1    1    6    6    0  502  0.32566194947E+02 -0.16818737971E+03  0.54594991229E+03  0.57219652085E+03  0.00000000000E+00 0.  1.
<mgrwt>
<rscale>  0 0.19806376E+04</rscale>
<asrwt>0</asrwt>
<pdfrwt beam="1">  1        2 0.22223057E+00 0.19806376E+04</pdfrwt>
<pdfrwt beam="2">  1       -2 0.10445266E+00 0.19806376E+04</pdfrwt>
<totfact> 0.94546359E+00</totfact>
</mgrwt>
</event>
<event>
12    1  0.1562393E-007  0.2262045E+04  0.7818608E-02  0.8493038E-01
          2   -1    0    0  501    0  0.00000000000E+00  0.00000000000E+00  0.12212749932E+04  0.12212749932E+04  0.00000000000E+00 0. -1.
         -2   -1    0    0    0  501 -0.00000000000E+00 -0.00000000000E+00 -0.10474400686E+04  0.10474400686E+04  0.00000000000E+00 0.  1.
         23    2    1    2    0    0  0.22784508183E+03 -0.89678752768E+03 -0.11840210769E+03  0.93747346306E+03  0.93253330901E+02 0.  0.
        254    2    1    2    0    0 -0.22784508183E+03  0.89678752768E+03  0.29223703226E+03  0.13312415988E+04  0.91140576045E+03 0.  0.
        -24    2    4    4    0    0 -0.53529655549E+03  0.59884681363E+03  0.37071249726E+03  0.88828067738E+03  0.80342377778E+02 0.  0.
         24    2    4    4    0    0  0.30745147366E+03  0.29794071404E+03 -0.78475465001E+02  0.44296092139E+03  0.82224701469E+02 0.  0.
         13    1    3    3    0    0  0.13359010400E+03 -0.58925945724E+03 -0.35193494150E+02  0.60523681801E+03  0.00000000000E+00 0. -1.
        -13    1    3    3    0    0  0.94254977827E+02 -0.30752807043E+03 -0.83208613539E+02  0.33223664505E+03  0.00000000000E+00 0.  1.
          2    1    6    6  502    0  0.28595002148E+03  0.29914781144E+03 -0.79509736952E+02  0.42140079039E+03  0.00000000000E+00 0. -1.
          3    1    5    5  503    0 -0.53322658588E+03  0.59848501365E+03  0.37388129401E+03  0.88447844827E+03  0.00000000000E+00 0. -1.
         -4    1    5    5    0  503 -0.20699696157E+01  0.36179998695E+00 -0.31687967438E+01  0.38022291151E+01  0.00000000000E+00 0.  1.
         -1    1    6    6    0  502  0.21501452189E+02 -0.12070973987E+01  0.10342719510E+01  0.21560131002E+02  0.00000000000E+00 0.  1.
<mgrwt>
<rscale>  0 0.22620454E+04</rscale>
<asrwt>0</asrwt>
<pdfrwt beam="1">  1        2 0.18788846E+00 0.22620454E+04</pdfrwt>
<pdfrwt beam="2">  1       -2 0.16114463E+00 0.22620454E+04</pdfrwt>
<totfact> 0.41329556E+00</totfact>
</mgrwt>
</event>
<event>
12    1  0.1562393E-007  0.1377919E+04  0.7818608E-02  0.8969959E-01
         -2   -1    0    0    0  501 -0.00000000000E+00  0.00000000000E+00  0.14316922268E+03  0.14316922268E+03  0.00000000000E+00 0.  1.
          2   -1    0    0  501    0  0.00000000000E+00 -0.00000000000E+00 -0.33154135100E+04  0.33154135100E+04  0.00000000000E+00 0. -1.
         23    2    1    2    0    0  0.10048187369E+03  0.35502238982E+03 -0.62731395867E+03  0.73324598983E+03  0.89383301813E+02 0.  0.
        254    2    1    2    0    0 -0.10048187369E+03 -0.35502238982E+03 -0.25449303286E+04  0.27253367428E+04  0.90258101023E+03 0.  0.
        -24    2    4    4    0    0 -0.22734998758E+03 -0.20665618015E+03 -0.24863170705E+04  0.25065335895E+04  0.80890460417E+02 0.  0.
         24    2    4    4    0    0  0.12686811388E+03 -0.14836620967E+03 -0.58613258182E+02  0.21880315338E+03  0.79569186258E+02 0.  0.
         13    1    3    3    0    0  0.95535144025E+02  0.35985211294E+03 -0.61061003793E+03  0.71516790011E+03  0.00000000000E+00 0. -1.
        -13    1    3    3    0    0  0.49467296694E+01 -0.48297231140E+01 -0.16703920742E+02  0.18078089720E+02  0.00000000000E+00 0.  1.
          4    1    6    6  502    0 -0.49074145122E+01 -0.39574799152E+02 -0.12913766568E+02  0.41916736659E+02  0.00000000000E+00 0. -1.
          3    1    5    5  503    0 -0.61640844682E+02 -0.81951236377E+02 -0.11030113354E+04  0.11077678479E+04  0.00000000000E+00 0. -1.
         -4    1    5    5    0  503 -0.16570914290E+03 -0.12470494377E+03 -0.13833057350E+04  0.13987657415E+04  0.00000000000E+00 0.  1.
         -3    1    6    6    0  502  0.13177552840E+03 -0.10879141052E+03 -0.45699491614E+02  0.17688641672E+03  0.00000000000E+00 0.  1.
<mgrwt>
<rscale>  0 0.13779190E+04</rscale>
<asrwt>0</asrwt>
<pdfrwt beam="1">  1        2 0.51006358E+00 0.13779190E+04</pdfrwt>
<pdfrwt beam="2">  1       -2 0.22026036E-01 0.13779190E+04</pdfrwt>
<totfact> 0.19385359E+01</totfact>
</mgrwt>
</event>
<event>
12    1  0.1562393E-007  0.2419080E+04  0.7818608E-02  0.8432395E-01
          2   -1    0    0  501    0  0.00000000000E+00  0.00000000000E+00  0.24011319408E+04  0.24011319408E+04  0.00000000000E+00 0.  1.
         -2   -1    0    0    0  501 -0.00000000000E+00 -0.00000000000E+00 -0.60929074036E+03  0.60929074036E+03  0.00000000000E+00 0. -1.
         23    2    1    2    0    0 -0.99014876206E+03  0.28149384726E+03  0.57924903462E+03  0.11845566225E+04  0.89507490333E+02 0.  0.
        254    2    1    2    0    0  0.99014876206E+03 -0.28149384726E+03  0.12125921658E+04  0.18258660586E+04  0.89653429740E+03 0.  0.
        -24    2    4    4    0    0  0.86057661905E+03  0.34477652183E+01  0.40065049604E+03  0.95259811189E+03  0.79487976755E+02 0.  0.
         24    2    4    4    0    0  0.12957214301E+03 -0.28494161247E+03  0.81194166978E+03  0.87326794675E+03  0.73259599579E+02 0.  0.
         13    1    3    3    0    0 -0.68392339436E+03  0.15187915019E+03  0.40245485000E+03  0.80795321146E+03  0.00000000000E+00 0. -1.
        -13    1    3    3    0    0 -0.30622536770E+03  0.12961469706E+03  0.17679418462E+03  0.37660341107E+03  0.00000000000E+00 0.  1.
          2    1    6    6  502    0  0.82236835826E+02 -0.24831332921E+03  0.65477165517E+03  0.70508746056E+03  0.00000000000E+00 0. -1.
          3    1    5    5  503    0  0.76895560419E+03  0.24632547811E+02  0.36994526040E+03  0.85367381319E+03  0.00000000000E+00 0. -1.
         -4    1    5    5    0  503  0.91621014859E+02 -0.21184782593E+02  0.30705235646E+02  0.98924298700E+02  0.00000000000E+00 0.  1.
         -1    1    6    6    0  502  0.47335307182E+02 -0.36628283263E+02  0.15717001461E+03  0.16818048619E+03  0.00000000000E+00 0.  1.
<mgrwt>
<rscale>  0 0.24190804E+04</rscale>
<asrwt>0</asrwt>
<pdfrwt beam="1">  1        2 0.36940491E+00 0.24190804E+04</pdfrwt>
<pdfrwt beam="2">  1       -2 0.93737038E-01 0.24190804E+04</pdfrwt>
<totfact> 0.34266046E+00</totfact>
</mgrwt>
</event>
<event>
12    1  0.1562393E-007  0.2866601E+04  0.7818608E-02  0.8282885E-01
          1   -1    0    0  501    0  0.00000000000E+00  0.00000000000E+00  0.35244050837E+04  0.35244050837E+04  0.00000000000E+00 0. -1.
         -1   -1    0    0    0  501 -0.00000000000E+00 -0.00000000000E+00 -0.58289272569E+03  0.58289272569E+03  0.00000000000E+00 0.  1.
         23    2    1    2    0    0  0.13938004232E+03 -0.44091876848E+03  0.30499240375E+04  0.30861455375E+04  0.91768662191E+02 0.  0.
        254    2    1    2    0    0 -0.13938004232E+03  0.44091876848E+03 -0.10841167945E+03  0.10211522720E+04  0.90397052699E+03 0.  0.
        -24    2    4    4    0    0  0.12109293691E+03 -0.12655948102E+03 -0.30589921864E+03  0.36138546582E+03  0.79651248159E+02 0.  0.
         24    2    4    4    0    0 -0.26047297923E+03  0.56747824951E+03  0.19748753919E+03  0.65976680613E+03  0.80082293729E+02 0.  0.
         13    1    3    3    0    0 -0.63763527269E+01 -0.52953757935E+02  0.48942745879E+03  0.49232509155E+03  0.00000000000E+00 0.  1.
        -13    1    3    3    0    0  0.14575639505E+03 -0.38796501055E+03  0.25604965787E+04  0.25938204459E+04  0.00000000000E+00 0. -1.
          4    1    6    6  502    0 -0.16038149223E+03  0.39990844544E+03  0.16753365118E+03  0.46229483240E+03  0.00000000000E+00 0. -1.
          3    1    5    5  503    0  0.10856386569E+03 -0.81516196741E+02 -0.27079355842E+03  0.30291938621E+03  0.00000000000E+00 0. -1.
         -4    1    5    5    0  503  0.12529071218E+02 -0.45043284281E+02 -0.35105660227E+02  0.58466079605E+02  0.00000000000E+00 0.  1.
         -3    1    6    6    0  502 -0.10009148699E+03  0.16756980406E+03  0.29953888012E+02  0.19747197373E+03  0.00000000000E+00 0.  1.
<mgrwt>
<rscale>  0 0.28666008E+04</rscale>
<asrwt>0</asrwt>
<pdfrwt beam="1">  1        1 0.54221616E+00 0.28666008E+04</pdfrwt>
<pdfrwt beam="2">  1       -1 0.89675806E-01 0.28666008E+04</pdfrwt>
<totfact> 0.25041283E-01</totfact>
</mgrwt>
</event>
<event>
12    1  0.1562393E-007  0.2514601E+04  0.7818608E-02  0.8397802E-01
          1   -1    0    0  501    0  0.00000000000E+00  0.00000000000E+00  0.18435906818E+04  0.18435906818E+04  0.00000000000E+00 0. -1.
         -1   -1    0    0    0  501 -0.00000000000E+00 -0.00000000000E+00 -0.85745980716E+03  0.85745980716E+03  0.00000000000E+00 0.  1.
         23    2    1    2    0    0  0.72387022538E+03 -0.24447715981E+03 -0.40512376785E+03  0.86977667237E+03  0.92892452092E+02 0.  0.
        254    2    1    2    0    0 -0.72387022538E+03  0.24447715981E+03  0.13912546425E+04  0.18312738166E+04  0.91335487420E+03 0.  0.
        -24    2    4    4    0    0  0.99534412929E+02 -0.18061474035E+03  0.48267753848E+03  0.53100199029E+03  0.80353741347E+02 0.  0.
         24    2    4    4    0    0 -0.82340463831E+03  0.42509190017E+03  0.90857710399E+03  0.13002718263E+04  0.80598674724E+02 0.  0.
         11    1    3    3    0    0  0.57022521083E+03 -0.23165247878E+03 -0.32288988817E+03  0.69503779888E+03  0.00000000000E+00 0.  1.
        -11    1    3    3    0    0  0.15364501455E+03 -0.12824681030E+02 -0.82233879680E+02  0.17473887349E+03  0.00000000000E+00 0. -1.
          2    1    6    6  502    0 -0.46293349994E+03  0.24406116492E+03  0.45714782297E+03  0.69487942093E+03  0.00000000000E+00 0. -1.
          3    1    5    5  503    0  0.71496628794E+02 -0.17954325275E+03  0.42339961822E+03  0.46541893413E+03  0.00000000000E+00 0. -1.
         -4    1    5    5    0  503  0.28037784135E+02 -0.10714876003E+01  0.59277920268E+02  0.65583056166E+02  0.00000000000E+00 0.  1.
         -3    1    6    6    0  502 -0.36047113838E+03  0.18103073525E+03  0.45142928102E+03  0.60539240536E+03  0.00000000000E+00 0.  1.
<mgrwt>
<rscale>  0 0.25146013E+04</rscale>
<asrwt>0</asrwt>
<pdfrwt beam="1">  1        1 0.28362934E+00 0.25146013E+04</pdfrwt>
<pdfrwt beam="2">  1       -1 0.13191689E+00 0.25146013E+04</pdfrwt>
<totfact> 0.16497641E+00</totfact>
</mgrwt>
</event>
<event>
12    1  0.1562393E-007  0.1281464E+04  0.7818608E-02  0.9044395E-01
          2   -1    0    0  501    0  0.00000000000E+00  0.00000000000E+00  0.14019170510E+04  0.14019170510E+04  0.00000000000E+00 0. -1.
         -2   -1    0    0    0  501 -0.00000000000E+00 -0.00000000000E+00 -0.29284013190E+03  0.29284013190E+03  0.00000000000E+00 0.  1.
         23    2    1    2    0    0  0.30714847210E+03  0.50404223834E+02  0.20828828039E+03  0.38516318759E+03  0.89921652767E+02 0.  0.
        254    2    1    2    0    0 -0.30714847210E+03 -0.50404223834E+02  0.90078863870E+03  0.13095939953E+04  0.89818455299E+03 0.  0.
        -24    2    4    4    0    0 -0.46351661718E+03  0.23320058399E+03  0.81072803594E+03  0.96580801682E+03  0.79214962690E+02 0.  0.
         24    2    4    4    0    0  0.15636814509E+03 -0.28360480782E+03  0.90060602761E+02  0.34378597848E+03  0.72077756728E+02 0.  0.
         13    1    3    3    0    0  0.21675153468E+03  0.53994641272E+01  0.17564773749E+03  0.27903854516E+03  0.00000000000E+00 0.  1.
        -13    1    3    3    0    0  0.90396937420E+02  0.45004759707E+02  0.32640542899E+02  0.10612464243E+03  0.00000000000E+00 0. -1.
          4    1    6    6  502    0  0.15410762686E+03 -0.23774167715E+03  0.62171447953E+02  0.29006129464E+03  0.00000000000E+00 0. -1.
          3    1    5    5  503    0 -0.31729097821E+03  0.19872599239E+03  0.56453147343E+03  0.67739306861E+03  0.00000000000E+00 0. -1.
         -4    1    5    5    0  503 -0.14622563897E+03  0.34474591592E+02  0.24619656251E+03  0.28841494821E+03  0.00000000000E+00 0.  1.
         -1    1    6    6    0  502  0.22605182266E+01 -0.45863130670E+02  0.27889154808E+02  0.53724683838E+02  0.00000000000E+00 0.  1.
<mgrwt>
<rscale>  0 0.12814641E+04</rscale>
<asrwt>0</asrwt>
<pdfrwt beam="1">  1        2 0.21567954E+00 0.12814641E+04</pdfrwt>
<pdfrwt beam="2">  1       -2 0.45052329E-01 0.12814641E+04</pdfrwt>
<totfact> 0.66160415E+01</totfact>
</mgrwt>
</event>
<event>
12    1  0.1562393E-007  0.1261548E+04  0.7818608E-02  0.9060626E-01
         -1   -1    0    0    0  501 -0.00000000000E+00  0.00000000000E+00  0.31460789953E+03  0.31460789953E+03  0.00000000000E+00 0.  1.
          1   -1    0    0  501    0  0.00000000000E+00 -0.00000000000E+00 -0.12646728892E+04  0.12646728892E+04  0.00000000000E+00 0. -1.
         23    2    1    2    0    0 -0.11787359634E+03  0.18780018379E+03  0.15706483249E+02  0.23962587240E+03  0.89502912571E+02 0.  0.
        254    2    1    2    0    0  0.11787359634E+03 -0.18780018379E+03 -0.96577147288E+03  0.13396549163E+04  0.90155291758E+03 0.  0.
        -24    2    4    4    0    0  0.89271076741E+02  0.15404656020E+03  0.98589066035E+02  0.21848742218E+03  0.79481330250E+02 0.  0.
         24    2    4    4    0    0  0.28602519596E+02 -0.34184674399E+03 -0.10643605389E+04  0.11211674941E+04  0.80472930699E+02 0.  0.
         11    1    3    3    0    0 -0.29869963411E+02  0.62515676327E+02 -0.35931762061E+02  0.78048164780E+02  0.00000000000E+00 0. -1.
        -11    1    3    3    0    0 -0.88003632926E+02  0.12528450747E+03  0.51638245310E+02  0.16157770761E+03  0.00000000000E+00 0.  1.
          2    1    6    6  502    0 -0.20448149800E+02 -0.21947106745E+03 -0.67834974811E+03  0.71326296486E+03  0.00000000000E+00 0. -1.
          3    1    5    5  503    0  0.47354928736E+02  0.43155549364E+02 -0.35954564236E+00  0.64070429916E+02  0.00000000000E+00 0. -1.
         -4    1    5    5    0  503  0.41916148005E+02  0.11089101083E+03  0.98948611678E+02  0.15441699226E+03  0.00000000000E+00 0.  1.
         -1    1    6    6    0  502  0.49050669395E+02 -0.12237567654E+03 -0.38601079080E+03  0.40790452926E+03  0.00000000000E+00 0.  1.
<mgrwt>
<rscale>  0 0.12615484E+04</rscale>
<asrwt>0</asrwt>
<pdfrwt beam="1">  1        1 0.19456506E+00 0.12615484E+04</pdfrwt>
<pdfrwt beam="2">  1       -1 0.48401215E-01 0.12615484E+04</pdfrwt>
<totfact> 0.40333901E+01</totfact>
</mgrwt>
</event>
<event>
12    1  0.1562393E-007  0.2115090E+04  0.7818608E-02  0.8554625E-01
          2   -1    0    0  501    0  0.00000000000E+00  0.00000000000E+00  0.21423783131E+04  0.21423783131E+04  0.00000000000E+00 0. -1.
         -2   -1    0    0    0  501 -0.00000000000E+00 -0.00000000000E+00 -0.52203742797E+03  0.52203742797E+03  0.00000000000E+00 0.  1.
         23    2    1    2    0    0 -0.14478907027E+03 -0.46452232475E+03  0.15689129676E+04  0.16450541532E+04  0.89277108595E+02 0.  0.
        254    2    1    2    0    0  0.14478907027E+03  0.46452232475E+03  0.51427917520E+02  0.10193615878E+04  0.89426413937E+03 0.  0.
        -24    2    4    4    0    0  0.32413269944E+03 -0.15363613835E+03  0.38171523369E+02  0.37062776336E+03  0.85098789208E+02 0.  0.
         24    2    4    4    0    0 -0.17934362917E+03  0.61815846309E+03  0.13256394151E+02  0.64873382446E+03  0.79973871921E+02 0.  0.
         11    1    3    3    0    0 -0.87248844152E+01 -0.85098707044E+02  0.18866981575E+03  0.20715745926E+03  0.00000000000E+00 0.  1.
        -11    1    3    3    0    0 -0.13606418586E+03 -0.37942361770E+03  0.13802431518E+04  0.14378966940E+04  0.00000000000E+00 0. -1.
          4    1    6    6  502    0 -0.10112132868E+03  0.27366695579E+03 -0.27904436501E+02  0.29308323627E+03  0.00000000000E+00 0. -1.
          1    1    5    5  503    0  0.25007242938E+03 -0.79976260869E+02  0.43067896217E+02  0.26605876404E+03  0.00000000000E+00 0. -1.
         -4    1    5    5    0  503  0.74060270061E+02 -0.73659877479E+02 -0.48963728476E+01  0.10456899932E+03  0.00000000000E+00 0.  1.
         -3    1    6    6    0  502 -0.78222300491E+02  0.34449150730E+03  0.41160830652E+02  0.35565058819E+03  0.00000000000E+00 0.  1.
<mgrwt>
<rscale>  0 0.21150902E+04</rscale>
<asrwt>0</asrwt>
<pdfrwt beam="1">  1        2 0.32959666E+00 0.21150902E+04</pdfrwt>
<pdfrwt beam="2">  1       -2 0.80313452E-01 0.21150902E+04</pdfrwt>
<totfact> 0.70156122E+00</totfact>
</mgrwt>
</event>
<event>
12    1  0.1562393E-007  0.1735306E+04  0.7818608E-02  0.8741480E-01
         -2   -1    0    0    0  501 -0.00000000000E+00  0.00000000000E+00  0.62607480972E+03  0.62607480972E+03  0.00000000000E+00 0.  1.
          2   -1    0    0  501    0  0.00000000000E+00 -0.00000000000E+00 -0.12024469301E+04  0.12024469301E+04  0.00000000000E+00 0. -1.
         23    2    1    2    0    0  0.26215651963E+02  0.45954288740E+03  0.23206655139E+03  0.52376966571E+03  0.92805456047E+02 0.  0.
        254    2    1    2    0    0 -0.26215651963E+02 -0.45954288740E+03 -0.80843867181E+03  0.13047520742E+04  0.91484313583E+03 0.  0.
        -24    2    4    4    0    0  0.12546973847E+03 -0.65858296705E+03 -0.31275824236E+03  0.74388015841E+03  0.77883195614E+02 0.  0.
         24    2    4    4    0    0 -0.15168539044E+03  0.19904007964E+03 -0.49568042946E+03  0.56087191575E+03  0.79074690987E+02 0.  0.
         13    1    3    3    0    0 -0.45093406349E+00  0.79465560141E+02  0.82232147615E+02  0.11435516906E+03  0.00000000000E+00 0. -1.
        -13    1    3    3    0    0  0.26666586027E+02  0.38007732726E+03  0.14983440377E+03  0.40941449664E+03  0.00000000000E+00 0.  1.
          4    1    6    6  502    0  0.92799294401E+00  0.41495830649E+02 -0.10364935394E+03  0.11165103540E+03  0.00000000000E+00 0. -1.
          1    1    5    5  503    0  0.50771113068E+02 -0.36360500665E+03 -0.13311677865E+03  0.39052065700E+03  0.00000000000E+00 0. -1.
         -2    1    5    5    0  503  0.74698625405E+02 -0.29497796039E+03 -0.17964146370E+03  0.35335950141E+03  0.00000000000E+00 0.  1.
         -3    1    6    6    0  502 -0.15261338338E+03  0.15754424900E+03 -0.39203107551E+03  0.44922088035E+03  0.00000000000E+00 0.  1.
<mgrwt>
<rscale>  0 0.17353060E+04</rscale>
<asrwt>0</asrwt>
<pdfrwt beam="1">  1        2 0.18499184E+00 0.17353060E+04</pdfrwt>
<pdfrwt beam="2">  1       -2 0.96319201E-01 0.17353060E+04</pdfrwt>
<totfact> 0.16166801E+01</totfact>
</mgrwt>
</event>
<event>
12    1  0.1562393E-007  0.1081739E+04  0.7818608E-02  0.9223176E-01
          2   -1    0    0  501    0  0.00000000000E+00  0.00000000000E+00  0.83644664241E+03  0.83644664241E+03  0.00000000000E+00 0. -1.
         -2   -1    0    0    0  501 -0.00000000000E+00 -0.00000000000E+00 -0.34974083806E+03  0.34974083806E+03  0.00000000000E+00 0.  1.
         23    2    1    2    0    0 -0.22073462397E+03  0.40624470529E+02  0.32041735987E+03  0.40190353636E+03  0.92114310530E+02 0.  0.
        254    2    1    2    0    0  0.22073462397E+03 -0.40624470529E+02  0.16628844448E+03  0.78428394412E+03  0.73285423954E+03 0.  0.
        -24    2    4    4    0    0 -0.85072649449E+02  0.22912696973E+03  0.25222712010E+03  0.35987638708E+03  0.78459989301E+02 0.  0.
         24    2    4    4    0    0  0.30580727342E+03 -0.26975144026E+03 -0.85938675616E+02  0.42440755704E+03  0.80326773276E+02 0.  0.
         13    1    3    3    0    0 -0.16631484649E+03  0.15334650484E+02  0.28992276175E+03  0.33459077609E+03  0.00000000000E+00 0.  1.
        -13    1    3    3    0    0 -0.54419777489E+02  0.25289820045E+02  0.30494598121E+02  0.67312760265E+02  0.00000000000E+00 0. -1.
          4    1    6    6  502    0  0.20440080426E+03 -0.18481361222E+03 -0.95848592679E+02  0.29175796949E+03  0.00000000000E+00 0. -1.
          3    1    5    5  503    0 -0.94186327871E+02  0.21228131316E+03  0.24892999897E+03  0.34044171992E+03  0.00000000000E+00 0. -1.
         -4    1    5    5    0  503  0.91136784218E+01  0.16845656578E+02  0.32971211242E+01  0.19434667160E+02  0.00000000000E+00 0.  1.
         -3    1    6    6    0  502  0.10140646916E+03 -0.84937828047E+02  0.99099170630E+01  0.13264958755E+03  0.00000000000E+00 0.  1.
<mgrwt>
<rscale>  0 0.10817385E+04</rscale>
<asrwt>0</asrwt>
<pdfrwt beam="1">  1        2 0.12868410E+00 0.10817385E+04</pdfrwt>
<pdfrwt beam="2">  1       -2 0.53806283E-01 0.10817385E+04</pdfrwt>
<totfact> 0.10493518E+02</totfact>
</mgrwt>
</event>
<event>
12    1  0.1562393E-007  0.1271081E+04  0.7818608E-02  0.9052818E-01
          2   -1    0    0  501    0  0.00000000000E+00  0.00000000000E+00  0.84300920472E+03  0.84300920472E+03  0.00000000000E+00 0. -1.
         -2   -1    0    0    0  501 -0.00000000000E+00 -0.00000000000E+00 -0.47913059379E+03  0.47913059379E+03  0.00000000000E+00 0.  1.
         23    2    1    2    0    0 -0.13762255458E+03  0.22873072300E+03 -0.95249250345E+02  0.29740598358E+03  0.90112086904E+02 0.  0.
        254    2    1    2    0    0  0.13762255458E+03 -0.22873072300E+03  0.45912786127E+03  0.10247338149E+04  0.87636937833E+03 0.  0.
        -24    2    4    4    0    0  0.35113129238E+03 -0.27525356817E+03 -0.57756318805E+02  0.45803148335E+03  0.86019393771E+02 0.  0.
         24    2    4    4    0    0 -0.21350873779E+03  0.46522845176E+02  0.51688418008E+03  0.56670233157E+03  0.78942515527E+02 0.  0.
         13    1    3    3    0    0 -0.10355168809E+03  0.22167461411E+03 -0.70222229915E+02  0.25454616128E+03  0.00000000000E+00 0.  1.
        -13    1    3    3    0    0 -0.34070866493E+02  0.70561088856E+01 -0.25027020430E+02  0.42859822302E+02  0.00000000000E+00 0. -1.
          2    1    6    6  502    0 -0.21432954844E+03  0.30748600440E+02  0.48363216449E+03  0.52988933023E+03  0.00000000000E+00 0. -1.
          1    1    5    5  503    0  0.30156124242E+03 -0.24704346369E+03 -0.77907025453E+02  0.39754139469E+03  0.00000000000E+00 0. -1.
         -2    1    5    5    0  503  0.49570049958E+02 -0.28210104485E+02  0.20150706648E+02  0.60490088662E+02  0.00000000000E+00 0.  1.
         -1    1    6    6    0  502  0.82081064696E+00  0.15774244736E+02  0.33252015586E+02  0.36813001340E+02  0.00000000000E+00 0.  1.
<mgrwt>
<rscale>  0 0.12710806E+04</rscale>
<asrwt>0</asrwt>
<pdfrwt beam="1">  1        2 0.12969372E+00 0.12710806E+04</pdfrwt>
<pdfrwt beam="2">  1       -2 0.73712399E-01 0.12710806E+04</pdfrwt>
<totfact> 0.52327905E+01</totfact>
</mgrwt>
</event>
<event>
12    1  0.1562393E-007  0.3205231E+04  0.7818608E-02  0.8187437E-01
          1   -1    0    0  501    0  0.00000000000E+00  0.00000000000E+00  0.10419664966E+04  0.10419664966E+04  0.00000000000E+00 0. -1.
         -1   -1    0    0    0  501 -0.00000000000E+00 -0.00000000000E+00 -0.24649315251E+04  0.24649315251E+04  0.00000000000E+00 0.  1.
         23    2    1    2    0    0 -0.44189065165E+03 -0.13198098574E+04 -0.11795297734E+04  0.18266322849E+04  0.90164349991E+02 0.  0.
        254    2    1    2    0    0  0.44189065165E+03  0.13198098574E+04 -0.24343525514E+03  0.16802657368E+04  0.90932217341E+03 0.  0.
        -24    2    4    4    0    0 -0.23229155996E+02 -0.31780011981E+02 -0.23166217583E+03  0.24838886732E+03  0.80499086004E+02 0.  0.
         24    2    4    4    0    0  0.46511980764E+03  0.13515898694E+04 -0.11773079309E+02  0.14318768695E+04  0.83672895247E+02 0.  0.
         11    1    3    3    0    0 -0.15829515316E+03 -0.43490206720E+03 -0.44628152284E+03  0.64293418107E+03  0.00000000000E+00 0. -1.
        -11    1    3    3    0    0 -0.28359549849E+03 -0.88490779024E+03 -0.73324825055E+03  0.11836981038E+04  0.00000000000E+00 0.  1.
          4    1    6    6  502    0  0.27350863761E+03  0.90766883323E+03  0.69141361090E+01  0.94800711545E+03  0.00000000000E+00 0. -1.
          1    1    5    5  503    0 -0.83197480185E+01 -0.49598768745E+02 -0.21220809709E+03  0.21808606681E+03  0.00000000000E+00 0. -1.
         -2    1    5    5    0  503 -0.14909407978E+02  0.17818756764E+02 -0.19454078747E+02  0.30302800510E+02  0.00000000000E+00 0.  1.
         -3    1    6    6    0  502  0.19161117004E+03  0.44392103619E+03 -0.18687215418E+02  0.48386975404E+03  0.00000000000E+00 0.  1.
<mgrwt>
<rscale>  0 0.32052308E+04</rscale>
<asrwt>0</asrwt>
<pdfrwt beam="1">  1        1 0.16030254E+00 0.32052308E+04</pdfrwt>
<pdfrwt beam="2">  1       -1 0.37922023E+00 0.32052308E+04</pdfrwt>
<totfact> 0.11618478E-01</totfact>
</mgrwt>
</event>
<event>
12    1  0.1562393E-007  0.1138812E+04  0.7818608E-02  0.9168167E-01
          1   -1    0    0  501    0  0.00000000000E+00  0.00000000000E+00  0.35207733381E+04  0.35207733381E+04  0.00000000000E+00 0. -1.
         -1   -1    0    0    0  501 -0.00000000000E+00 -0.00000000000E+00 -0.92088667211E+02  0.92088667211E+02  0.00000000000E+00 0.  1.
         23    2    1    2    0    0 -0.53806920345E+01  0.18876568846E+03  0.78452832426E+03  0.81204208030E+03  0.90918708825E+02 0.  0.
        254    2    1    2    0    0  0.53806920345E+01 -0.18876568846E+03  0.26441563467E+04  0.28008199251E+04  0.90408408347E+03 0.  0.
        -24    2    4    4    0    0  0.71643159232E+02 -0.33803728517E+03  0.34233699207E+03  0.49168254339E+03  0.71799435285E+02 0.  0.
         24    2    4    4    0    0 -0.66262467198E+02  0.14927159671E+03  0.23018193546E+04  0.23091373817E+04  0.84085563896E+02 0.  0.
         11    1    3    3    0    0  0.26924873654E+02  0.15014254551E+03  0.66630787973E+03  0.68354511437E+03  0.00000000000E+00 0. -1.
        -11    1    3    3    0    0 -0.32305565689E+02  0.38623142950E+02  0.11822044453E+03  0.12849696592E+03  0.00000000000E+00 0.  1.
          4    1    6    6  502    0 -0.50595384254E+02  0.10285106498E+03  0.20073754597E+04  0.20106452871E+04  0.00000000000E+00 0. -1.
          3    1    5    5  503    0  0.37852682676E+02 -0.16626755512E+03  0.11912968608E+03  0.20801347931E+03  0.00000000000E+00 0. -1.
         -4    1    5    5    0  503  0.33790476556E+02 -0.17176973005E+03  0.22320730599E+03  0.28366906408E+03  0.00000000000E+00 0.  1.
         -1    1    6    6    0  502 -0.15667082943E+02  0.46420531727E+02  0.29444389494E+03  0.29849209457E+03  0.00000000000E+00 0.  1.
<mgrwt>
<rscale>  0 0.11388122E+04</rscale>
<asrwt>0</asrwt>
<pdfrwt beam="1">  1        1 0.54165734E+00 0.11388122E+04</pdfrwt>
<pdfrwt beam="2">  1       -1 0.14167490E-01 0.11388122E+04</pdfrwt>
<totfact> 0.88659721E+00</totfact>
</mgrwt>
</event>
<event>
12    1  0.1562393E-007  0.1781945E+04  0.7818608E-02  0.8715960E-01
          1   -1    0    0  501    0  0.00000000000E+00  0.00000000000E+00  0.16051331965E+04  0.16051331965E+04  0.00000000000E+00 0. -1.
         -1   -1    0    0    0  501 -0.00000000000E+00 -0.00000000000E+00 -0.49455844107E+03  0.49455844107E+03  0.00000000000E+00 0.  1.
         23    2    1    2    0    0 -0.61174042563E+02 -0.23587315022E+03  0.11347167731E+04  0.11642280880E+04  0.92013473169E+02 0.  0.
        254    2    1    2    0    0  0.61174042563E+02  0.23587315022E+03 -0.24142017648E+02  0.93546354960E+03  0.90284594984E+03 0.  0.
        -24    2    4    4    0    0  0.38233147237E+03 -0.99263300932E+02  0.15351250218E+03  0.43204024097E+03  0.84036443372E+02 0.  0.
         24    2    4    4    0    0 -0.32115742981E+03  0.33513645115E+03 -0.17765451983E+03  0.50342330863E+03  0.80095965253E+02 0.  0.
         13    1    3    3    0    0 -0.51318259217E+02 -0.23757299952E+03  0.11221342835E+04  0.11481549738E+04  0.00000000000E+00 0. -1.
        -13    1    3    3    0    0 -0.98557833461E+01  0.16998493049E+01  0.12582489615E+02  0.16073114133E+02  0.00000000000E+00 0.  1.
          4    1    6    6  502    0 -0.17048153249E+03  0.12053662184E+03 -0.75873164152E+02  0.22214807486E+03  0.00000000000E+00 0. -1.
          1    1    5    5  503    0  0.33410671102E+03 -0.56832774088E+02  0.11949924559E+03  0.35935682581E+03  0.00000000000E+00 0. -1.
         -2    1    5    5    0  503  0.48224761352E+02 -0.42430526844E+02  0.34013256591E+02  0.72683415162E+02  0.00000000000E+00 0.  1.
         -3    1    6    6    0  502 -0.15067589732E+03  0.21459982930E+03 -0.10178135568E+03  0.28127523377E+03  0.00000000000E+00 0.  1.
<mgrwt>
<rscale>  0 0.17819452E+04</rscale>
<asrwt>0</asrwt>
<pdfrwt beam="1">  1        1 0.24694357E+00 0.17819452E+04</pdfrwt>
<pdfrwt beam="2">  1       -1 0.76085914E-01 0.17819452E+04</pdfrwt>
<totfact> 0.90737235E+00</totfact>
</mgrwt>
</event>
<event>
12    1  0.1562393E-007  0.1610181E+04  0.7818608E-02  0.8814318E-01
          2   -1    0    0  501    0  0.00000000000E+00  0.00000000000E+00  0.45722462248E+03  0.45722462248E+03  0.00000000000E+00 0. -1.
         -2   -1    0    0    0  501 -0.00000000000E+00 -0.00000000000E+00 -0.14176201544E+04  0.14176201544E+04  0.00000000000E+00 0.  1.
         23    2    1    2    0    0 -0.45582134614E+03 -0.14959004619E+02 -0.70966738707E+03  0.84861846184E+03  0.92350539125E+02 0.  0.
        254    2    1    2    0    0  0.45582134614E+03  0.14959004619E+02 -0.25072814483E+03  0.10262263150E+04  0.88446536146E+03 0.  0.
        -24    2    4    4    0    0  0.13123244174E+03  0.32050280042E+03 -0.41299405920E+03  0.54490803255E+03  0.80104133216E+02 0.  0.
         24    2    4    4    0    0  0.32458890441E+03 -0.30554379580E+03  0.16226591436E+03  0.48131828248E+03  0.81376250036E+02 0.  0.
         13    1    3    3    0    0 -0.44285556651E+03 -0.90258598043E+00 -0.69661280175E+03  0.82546427119E+03  0.00000000000E+00 0.  1.
        -13    1    3    3    0    0 -0.12965779636E+02 -0.14056418639E+02 -0.13054585317E+02  0.23154190643E+02  0.00000000000E+00 0. -1.
          4    1    6    6  502    0  0.10127485193E+02 -0.17552762964E+02  0.27419403471E+02  0.34095294847E+02  0.00000000000E+00 0. -1.
          1    1    5    5  503    0  0.55796368008E+02  0.52038334129E+02 -0.79521635119E+02  0.11020396251E+03  0.00000000000E+00 0. -1.
         -2    1    5    5    0  503  0.75436073729E+02  0.26846446629E+03 -0.33347242408E+03  0.43470407003E+03  0.00000000000E+00 0.  1.
         -3    1    6    6    0  502  0.31446141921E+03 -0.28799103284E+03  0.13484651089E+03  0.44722298764E+03  0.00000000000E+00 0.  1.
<mgrwt>
<rscale>  0 0.16101812E+04</rscale>
<asrwt>0</asrwt>
<pdfrwt beam="1">  1        2 0.70342251E-01 0.16101812E+04</pdfrwt>
<pdfrwt beam="2">  1       -2 0.21809540E+00 0.16101812E+04</pdfrwt>
<totfact> 0.66449417E+00</totfact>
</mgrwt>
</event>
<event>
12    1  0.1562393E-007  0.1529892E+04  0.7818608E-02  0.8864815E-01
          1   -1    0    0  501    0  0.00000000000E+00  0.00000000000E+00  0.38441610578E+03  0.38441610578E+03  0.00000000000E+00 0. -1.
         -1   -1    0    0    0  501 -0.00000000000E+00 -0.00000000000E+00 -0.15221583468E+04  0.15221583468E+04  0.00000000000E+00 0.  1.
         23    2    1    2    0    0 -0.26671529266E+03  0.34818789817E+03 -0.89259008001E+02  0.45647308258E+03  0.89602705522E+02 0.  0.
        254    2    1    2    0    0  0.26671529266E+03 -0.34818789817E+03 -0.10484832330E+04  0.14501013700E+04  0.90061369831E+03 0.  0.
        -24    2    4    4    0    0 -0.18495144602E+03 -0.44773561516E+03 -0.32859142272E+03  0.59074449654E+03  0.79577123832E+02 0.  0.
         24    2    4    4    0    0  0.45166673868E+03  0.99547716985E+02 -0.71989181030E+03  0.85935687346E+03  0.79607955920E+02 0.  0.
         11    1    3    3    0    0 -0.17055234803E+03  0.27798806382E+03 -0.86360840321E+02  0.33737762491E+03  0.00000000000E+00 0. -1.
        -11    1    3    3    0    0 -0.96162944624E+02  0.70199834349E+02 -0.28981676796E+01  0.11909545767E+03  0.00000000000E+00 0.  1.
          4    1    6    6  502    0  0.23153441752E+02 -0.10050081934E+02 -0.24218306218E+02  0.34980171068E+02  0.00000000000E+00 0. -1.
          3    1    5    5  503    0 -0.62027598405E+01 -0.97315845917E+02 -0.62492932842E+02  0.11581975113E+03  0.00000000000E+00 0. -1.
         -4    1    5    5    0  503 -0.17874868618E+03 -0.35041976924E+03 -0.26609848988E+03  0.47492474541E+03  0.00000000000E+00 0.  1.
         -1    1    6    6    0  502  0.42851329693E+03  0.10959779892E+03 -0.69567350408E+03  0.82437670239E+03  0.00000000000E+00 0.  1.
<mgrwt>
<rscale>  0 0.15298917E+04</rscale>
<asrwt>0</asrwt>
<pdfrwt beam="1">  1        1 0.59140940E-01 0.15298917E+04</pdfrwt>
<pdfrwt beam="2">  1       -1 0.23417821E+00 0.15298917E+04</pdfrwt>
<totfact> 0.54074364E+00</totfact>
</mgrwt>
</event>
<event>
12    1  0.1562393E-007  0.1195663E+04  0.7818608E-02  0.9116661E-01
         -1   -1    0    0    0  501 -0.00000000000E+00  0.00000000000E+00  0.29346630806E+03  0.29346630806E+03  0.00000000000E+00 0.  1.
          1   -1    0    0  501    0  0.00000000000E+00 -0.00000000000E+00 -0.12178657006E+04  0.12178657006E+04  0.00000000000E+00 0. -1.
         23    2    1    2    0    0  0.17932796419E+03  0.14883615203E+03 -0.13258568094E+03  0.28067109406E+03  0.82985428609E+02 0.  0.
        254    2    1    2    0    0 -0.17932796419E+03 -0.14883615203E+03 -0.79181371158E+03  0.12306609146E+04  0.91282342978E+03 0.  0.
        -24    2    4    4    0    0 -0.35254417419E+03 -0.40005518309E+03 -0.73338462156E+03  0.91017530568E+03  0.78959101114E+02 0.  0.
         24    2    4    4    0    0  0.17321621000E+03  0.25121903106E+03 -0.58429090016E+02  0.32048560891E+03  0.78627030866E+02 0.  0.
         11    1    3    3    0    0 -0.59162727951E+01  0.30077382528E+01 -0.16702958754E+02  0.17973246905E+02  0.00000000000E+00 0. -1.
        -11    1    3    3    0    0  0.18524423698E+03  0.14582841378E+03 -0.11588272218E+03  0.26269784716E+03  0.00000000000E+00 0.  1.
          4    1    6    6  502    0  0.13979310680E+02  0.72256773003E+02 -0.29127098673E+02  0.79150807002E+02  0.00000000000E+00 0. -1.
          1    1    5    5  503    0 -0.21255759428E+03 -0.18323738384E+03 -0.39778526414E+03  0.48681596737E+03  0.00000000000E+00 0. -1.
         -2    1    5    5    0  503 -0.13998657990E+03 -0.21681779925E+03 -0.33559935742E+03  0.42335933830E+03  0.00000000000E+00 0.  1.
         -3    1    6    6    0  502  0.15923689932E+03  0.17896225806E+03 -0.29301991343E+02  0.24133480190E+03  0.00000000000E+00 0.  1.
<mgrwt>
<rscale>  0 0.11956631E+04</rscale>
<asrwt>0</asrwt>
<pdfrwt beam="1">  1        1 0.18736395E+00 0.11956631E+04</pdfrwt>
<pdfrwt beam="2">  1       -1 0.45148663E-01 0.11956631E+04</pdfrwt>
<totfact> 0.49946529E+01</totfact>
</mgrwt>
</event>
<event>
12    1  0.1562393E-007  0.1242461E+04  0.7818608E-02  0.9076481E-01
          1   -1    0    0  501    0  0.00000000000E+00  0.00000000000E+00  0.82066766553E+03  0.82066766553E+03  0.00000000000E+00 0. -1.
         -1   -1    0    0    0  501 -0.00000000000E+00 -0.00000000000E+00 -0.47026030585E+03  0.47026030585E+03  0.00000000000E+00 0.  1.
         23    2    1    2    0    0 -0.26570117164E+03 -0.83531157225E+02  0.14262227426E+03  0.32573121324E+03  0.90471781952E+02 0.  0.
        254    2    1    2    0    0  0.26570117164E+03  0.83531157225E+02  0.20778508542E+03  0.96519675813E+03  0.90047519308E+03 0.  0.
        -24    2    4    4    0    0  0.21669823334E+03 -0.19015777828E+03 -0.27243190980E+03  0.40466353770E+03  0.80095744514E+02 0.  0.
         24    2    4    4    0    0  0.49002938299E+02  0.27368893551E+03  0.48021699522E+03  0.56053322044E+03  0.79260376820E+02 0.  0.
         13    1    3    3    0    0 -0.25434786452E+03 -0.89675368170E+02  0.15218229699E+03  0.30966749806E+03  0.00000000000E+00 0. -1.
        -13    1    3    3    0    0 -0.11353307122E+02  0.61442109450E+01 -0.95600227313E+01  0.16063715179E+02  0.00000000000E+00 0.  1.
          4    1    6    6  502    0  0.45993369852E+02  0.26795125448E+03  0.48236696384E+03  0.55370673885E+03  0.00000000000E+00 0. -1.
          1    1    5    5  503    0  0.11667440089E+03 -0.15304068993E+03 -0.17998823915E+03  0.26349598636E+03  0.00000000000E+00 0. -1.
         -2    1    5    5    0  503  0.10002383245E+03 -0.37117088353E+02 -0.92443670651E+02  0.14116755133E+03  0.00000000000E+00 0.  1.
         -3    1    6    6    0  502  0.30095684469E+01  0.57376810254E+01 -0.21499686159E+01  0.68264815853E+01  0.00000000000E+00 0.  1.
<mgrwt>
<rscale>  0 0.12424612E+04</rscale>
<asrwt>0</asrwt>
<pdfrwt beam="1">  1        1 0.12625656E+00 0.12424612E+04</pdfrwt>
<pdfrwt beam="2">  1       -1 0.72347739E-01 0.12424612E+04</pdfrwt>
<totfact> 0.40357837E+01</totfact>
</mgrwt>
</event>
<event>
12    1  0.1562393E-007  0.2886287E+04  0.7818608E-02  0.8276969E-01
          2   -1    0    0  501    0  0.00000000000E+00  0.00000000000E+00  0.11147260526E+04  0.11147260526E+04  0.00000000000E+00 0.  1.
         -2   -1    0    0    0  501 -0.00000000000E+00 -0.00000000000E+00 -0.18683187138E+04  0.18683187138E+04  0.00000000000E+00 0. -1.
         23    2    1    2    0    0 -0.76934977217E+03 -0.66231771002E+02 -0.14389393428E+04  0.16353723537E+04  0.87238659638E+02 0.  0.
        254    2    1    2    0    0  0.76934977217E+03  0.66231771002E+02  0.68534668155E+03  0.13476724127E+04  0.86616115048E+03 0.  0.
        -24    2    4    4    0    0  0.55614040610E+03  0.31781545795E+03  0.76287527745E+03  0.99933390455E+03  0.79942149279E+02 0.  0.
         24    2    4    4    0    0  0.21320936607E+03 -0.25158368695E+03 -0.77528595897E+02  0.34833850815E+03  0.81095300454E+02 0.  0.
         11    1    3    3    0    0 -0.76479356165E+03 -0.72437987286E+02 -0.14318046316E+04  0.16248756744E+04  0.00000000000E+00 0. -1.
        -11    1    3    3    0    0 -0.45562105247E+01  0.62062162836E+01 -0.71347111406E+01  0.10496679378E+02  0.00000000000E+00 0.  1.
          4    1    6    6  502    0  0.11501483438E+03 -0.15378994472E+03 -0.83986546540E+02  0.20960319469E+03  0.00000000000E+00 0. -1.
          1    1    5    5  503    0  0.29738778190E+03  0.13463438443E+03  0.34729121165E+03  0.47663098513E+03  0.00000000000E+00 0. -1.
         -2    1    5    5    0  503  0.25875262419E+03  0.18318107352E+03  0.41558406580E+03  0.52270291942E+03  0.00000000000E+00 0.  1.
         -3    1    6    6    0  502  0.98194531689E+02 -0.97793742226E+02  0.64579506430E+01  0.13873531345E+03  0.00000000000E+00 0.  1.
<mgrwt>
<rscale>  0 0.28862873E+04</rscale>
<asrwt>0</asrwt>
<pdfrwt beam="1">  1        2 0.17149631E+00 0.28862873E+04</pdfrwt>
<pdfrwt beam="2">  1       -2 0.28743365E+00 0.28862873E+04</pdfrwt>
<totfact> 0.69929029E-01</totfact>
</mgrwt>
</event>
<event>
12    1  0.1562393E-007  0.1852345E+04  0.7818608E-02  0.8678948E-01
         -2   -1    0    0    0  501 -0.00000000000E+00  0.00000000000E+00  0.75031443025E+03  0.75031443025E+03  0.00000000000E+00 0. -1.
          2   -1    0    0  501    0  0.00000000000E+00 -0.00000000000E+00 -0.11432478722E+04  0.11432478722E+04  0.00000000000E+00 0.  1.
         23    2    1    2    0    0 -0.54260154743E+03  0.31321214386E+03 -0.46706735227E+03  0.78679645577E+03  0.91533954988E+02 0.  0.
        254    2    1    2    0    0  0.54260154743E+03 -0.31321214386E+03  0.74133910323E+02  0.11067658467E+04  0.90934950178E+03 0.  0.
        -24    2    4    4    0    0  0.63459757989E+03  0.51090088362E+02  0.24375430345E+03  0.68685012843E+03  0.83801270509E+02 0.  0.
         24    2    4    4    0    0 -0.91996032459E+02 -0.36430223222E+03 -0.16962039313E+03  0.41991571825E+03  0.79867053788E+02 0.  0.
         13    1    3    3    0    0 -0.48977603351E+03  0.30136835919E+03 -0.44943721622E+03  0.72986112532E+03  0.00000000000E+00 0.  1.
        -13    1    3    3    0    0 -0.52825513922E+02  0.11843784669E+02 -0.17630136042E+02  0.56935330449E+02  0.00000000000E+00 0. -1.
          2    1    6    6  502    0 -0.58169368261E+02 -0.13577904907E+03 -0.32415738497E+02  0.15122964548E+03  0.00000000000E+00 0. -1.
          1    1    5    5  503    0  0.44087441956E+02 -0.12866261359E+02  0.33204112955E+02  0.56672359548E+02  0.00000000000E+00 0. -1.
         -2    1    5    5    0  503  0.59051013794E+03  0.63956349720E+02  0.21055019050E+03  0.63017776888E+03  0.00000000000E+00 0.  1.
         -1    1    6    6    0  502 -0.33826664198E+02 -0.22852318315E+03 -0.13720465463E+03  0.26868607277E+03  0.00000000000E+00 0.  1.
<mgrwt>
<rscale>  0 0.18523449E+04</rscale>
<asrwt>0</asrwt>
<pdfrwt beam="1">  1        2 0.17588429E+00 0.18523449E+04</pdfrwt>
<pdfrwt beam="2">  1       -2 0.11543299E+00 0.18523449E+04</pdfrwt>
<totfact> 0.11259354E+01</totfact>
</mgrwt>
</event>
<event>
12    1  0.1562393E-007  0.1253833E+04  0.7818608E-02  0.9066999E-01
         -2   -1    0    0    0  501 -0.00000000000E+00  0.00000000000E+00  0.11345827658E+03  0.11345827658E+03  0.00000000000E+00 0.  1.
          2   -1    0    0  501    0  0.00000000000E+00 -0.00000000000E+00 -0.34640420640E+04  0.34640420640E+04  0.00000000000E+00 0. -1.
         23    2    1    2    0    0  0.26602654770E+03  0.11923760800E+03 -0.55318961544E+03  0.63240187849E+03  0.94475679630E+02 0.  0.
        254    2    1    2    0    0 -0.26602654770E+03 -0.11923760800E+03 -0.27973941720E+04  0.29450984621E+04  0.87361494193E+03 0.  0.
        -24    2    4    4    0    0  0.23252194527E+03  0.13431517398E+01 -0.18374661390E+04  0.18538454687E+04  0.79955930867E+02 0.  0.
         24    2    4    4    0    0 -0.49854849297E+03 -0.12058075974E+03 -0.95992803304E+03  0.10912529934E+04  0.79252429444E+02 0.  0.
         13    1    3    3    0    0  0.20909498356E+03  0.11621729281E+03 -0.37046049690E+03  0.44098543181E+03  0.00000000000E+00 0.  1.
        -13    1    3    3    0    0  0.56931564136E+02  0.30203151899E+01 -0.18272911854E+03  0.19141644668E+03  0.00000000000E+00 0. -1.
          4    1    6    6  502    0 -0.38166457103E+02  0.11704305834E+02 -0.68903171060E+02  0.79632381635E+02  0.00000000000E+00 0. -1.
          3    1    5    5  503    0  0.42699502651E+02  0.19801585296E+02 -0.59122813798E+03  0.59309869452E+03  0.00000000000E+00 0. -1.
         -4    1    5    5    0  503  0.18982244262E+03 -0.18458433557E+02 -0.12462380010E+04  0.12607467742E+04  0.00000000000E+00 0.  1.
         -3    1    6    6    0  502 -0.46038203587E+03 -0.13228506558E+03 -0.89102486198E+03  0.10116206118E+04  0.00000000000E+00 0.  1.
<mgrwt>
<rscale>  0 0.12538329E+04</rscale>
<asrwt>0</asrwt>
<pdfrwt beam="1">  1        2 0.53292955E+00 0.12538329E+04</pdfrwt>
<pdfrwt beam="2">  1       -2 0.17455119E-01 0.12538329E+04</pdfrwt>
<totfact> 0.23459961E+01</totfact>
</mgrwt>
</event>
<event>
12    1  0.1562393E-007  0.1733068E+04  0.7818608E-02  0.8742726E-01
         -2   -1    0    0    0  501 -0.00000000000E+00  0.00000000000E+00  0.19502576594E+03  0.19502576594E+03  0.00000000000E+00 0.  1.
          2   -1    0    0  501    0  0.00000000000E+00 -0.00000000000E+00 -0.38501650771E+04  0.38501650771E+04  0.00000000000E+00 0. -1.
         23    2    1    2    0    0  0.21951297443E+03  0.58680870159E+03 -0.15994092175E+04  0.17201316782E+04  0.90624208281E+02 0.  0.
        254    2    1    2    0    0 -0.21951297443E+03 -0.58680870159E+03 -0.20557300936E+04  0.23250591648E+04  0.88732378747E+03 0.  0.
        -24    2    4    4    0    0 -0.28280266171E+03 -0.22869256168E+03 -0.18096503760E+03  0.41366993241E+03  0.78082231707E+02 0.  0.
         24    2    4    4    0    0  0.63289687277E+02 -0.35811613991E+03 -0.18747650560E+04  0.19113892324E+04  0.80075141304E+02 0.  0.
         13    1    3    3    0    0  0.69064665222E+02  0.19338051027E+03 -0.41435403509E+03  0.46244482496E+03  0.00000000000E+00 0.  1.
        -13    1    3    3    0    0  0.15044830921E+03  0.39342819132E+03 -0.11850551824E+04  0.12576868532E+04  0.00000000000E+00 0. -1.
          4    1    6    6  502    0  0.71916988378E+02 -0.32844105740E+03 -0.17866774046E+04  0.18180378790E+04  0.00000000000E+00 0. -1.
          3    1    5    5  503    0 -0.46344917715E+02 -0.80592767158E+02 -0.43880233506E+02  0.10280330933E+03  0.00000000000E+00 0. -1.
         -4    1    5    5    0  503 -0.23645774400E+03 -0.14809979452E+03 -0.13708480410E+03  0.31086662308E+03  0.00000000000E+00 0.  1.
         -3    1    6    6    0  502 -0.86273011005E+01 -0.29675082512E+02 -0.88087651468E+02  0.93351353431E+02  0.00000000000E+00 0.  1.
<mgrwt>
<rscale>  0 0.17330683E+04</rscale>
<asrwt>0</asrwt>
<pdfrwt beam="1">  1        2 0.59233311E+00 0.17330683E+04</pdfrwt>
<pdfrwt beam="2">  1       -2 0.30003963E-01 0.17330683E+04</pdfrwt>
<totfact> 0.44353593E+00</totfact>
</mgrwt>
</event>
<event>
12    1  0.1562393E-007  0.1456760E+04  0.7818608E-02  0.8913727E-01
          2   -1    0    0  501    0  0.00000000000E+00  0.00000000000E+00  0.11258136851E+04  0.11258136851E+04  0.00000000000E+00 0.  1.
         -2   -1    0    0    0  501 -0.00000000000E+00 -0.00000000000E+00 -0.47124807649E+03  0.47124807649E+03  0.00000000000E+00 0. -1.
         23    2    1    2    0    0  0.40834374672E+03 -0.15099930891E+03  0.30602386981E+03  0.53952904025E+03  0.88857017721E+02 0.  0.
        254    2    1    2    0    0 -0.40834374672E+03  0.15099930891E+03  0.34854173879E+03  0.10575327213E+04  0.89852585175E+03 0.  0.
        -24    2    4    4    0    0 -0.16365805373E+03  0.50723525354E+03  0.29554826330E+03  0.61445903307E+03  0.78355385257E+02 0.  0.
         24    2    4    4    0    0 -0.24468569299E+03 -0.35623594463E+03  0.52993475486E+02  0.44307368827E+03  0.82041746627E+02 0.  0.
         11    1    3    3    0    0  0.35435366579E+03 -0.15816311915E+03  0.25124961950E+03  0.46228612787E+03  0.00000000000E+00 0.  1.
        -11    1    3    3    0    0  0.53990080925E+02  0.71638102391E+01  0.54774250310E+02  0.77242912377E+02  0.00000000000E+00 0. -1.
          2    1    6    6  502    0 -0.42298333006E+02 -0.50543044987E+02  0.38156489538E+02  0.76155538640E+02  0.00000000000E+00 0. -1.
          3    1    5    5  503    0 -0.40293770120E+02  0.74217667552E+02  0.20696624219E+02  0.86949412542E+02  0.00000000000E+00 0. -1.
         -4    1    5    5    0  503 -0.12336428361E+03  0.43301758599E+03  0.27485163908E+03  0.52750962053E+03  0.00000000000E+00 0.  1.
         -1    1    6    6    0  502 -0.20238735998E+03 -0.30569289965E+03  0.14836985948E+02  0.36691814963E+03  0.00000000000E+00 0.  1.
<mgrwt>
<rscale>  0 0.14567601E+04</rscale>
<asrwt>0</asrwt>
<pdfrwt beam="1">  1        2 0.17320210E+00 0.14567601E+04</pdfrwt>
<pdfrwt beam="2">  1       -2 0.72499705E-01 0.14567601E+04</pdfrwt>
<totfact> 0.35045914E+01</totfact>
</mgrwt>
</event>
<event>
12    1  0.1562393E-007  0.2356168E+04  0.7818608E-02  0.8456098E-01
         -1   -1    0    0    0  501 -0.00000000000E+00  0.00000000000E+00  0.11580558699E+04  0.11580558699E+04  0.00000000000E+00 0.  1.
          1   -1    0    0  501    0  0.00000000000E+00 -0.00000000000E+00 -0.11984581213E+04  0.11984581213E+04  0.00000000000E+00 0. -1.
         23    2    1    2    0    0  0.94797487224E+03  0.17077496377E+03 -0.13712880278E+03  0.97727025941E+03  0.91828126033E+02 0.  0.
        254    2    1    2    0    0 -0.94797487224E+03 -0.17077496377E+03  0.96726551397E+02  0.13792437318E+04  0.98241376176E+03 0.  0.
        -24    2    4    4    0    0 -0.14685886969E+03 -0.34580068682E+03 -0.27823477766E+03  0.47427761592E+03  0.79868785214E+02 0.  0.
         24    2    4    4    0    0 -0.80111600254E+03  0.17502572304E+03  0.37496132906E+03  0.90496611587E+03  0.77115623118E+02 0.  0.
         11    1    3    3    0    0  0.19228473168E+03  0.32744510054E+02  0.91801792212E+01  0.19526878057E+03  0.00000000000E+00 0.  1.
        -11    1    3    3    0    0  0.75569014056E+03  0.13803045372E+03 -0.14630898200E+03  0.78200147884E+03  0.00000000000E+00 0. -1.
          2    1    6    6  502    0 -0.60884377263E+03  0.15692732626E+03  0.31156298352E+03  0.70170393892E+03  0.00000000000E+00 0. -1.
          1    1    5    5  503    0  0.64741421630E+01 -0.54633182419E+02 -0.40027322774E+02  0.68035914828E+02  0.00000000000E+00 0. -1.
         -2    1    5    5    0  503 -0.15333301186E+03 -0.29116750440E+03 -0.23820745489E+03  0.40624170109E+03  0.00000000000E+00 0.  1.
         -1    1    6    6    0  502 -0.19227222991E+03  0.18098396786E+02  0.63398345542E+02  0.20326217695E+03  0.00000000000E+00 0.  1.
<mgrwt>
<rscale>  0 0.23561676E+04</rscale>
<asrwt>0</asrwt>
<pdfrwt beam="1">  1        1 0.18437817E+00 0.23561676E+04</pdfrwt>
<pdfrwt beam="2">  1       -1 0.17816244E+00 0.23561676E+04</pdfrwt>
<totfact> 0.20677614E+00</totfact>
</mgrwt>
</event>
<event>
12    1  0.1562393E-007  0.2026423E+04  0.7818608E-02  0.8594366E-01
          1   -1    0    0  501    0  0.00000000000E+00  0.00000000000E+00  0.11744708671E+04  0.11744708671E+04  0.00000000000E+00 0. -1.
         -1   -1    0    0    0  501 -0.00000000000E+00 -0.00000000000E+00 -0.87409362671E+03  0.87409362671E+03  0.00000000000E+00 0.  1.
         23    2    1    2    0    0 -0.50731384423E+03  0.62543901078E+03  0.29446525610E+02  0.81076519580E+03  0.89060721448E+02 0.  0.
        254    2    1    2    0    0  0.50731384423E+03 -0.62543901078E+03  0.27093071475E+03  0.12377992980E+04  0.90011241359E+03 0.  0.
        -24    2    4    4    0    0 -0.23024220313E+01 -0.52422269052E+03  0.43623937706E+03  0.68661465795E+03  0.79499459203E+02 0.  0.
         24    2    4    4    0    0  0.50961626626E+03 -0.10121632027E+03 -0.16530866231E+03  0.55118464002E+03  0.80771723010E+02 0.  0.
         11    1    3    3    0    0 -0.65588207205E+02  0.52198551701E+02 -0.17213044134E+02  0.85573305489E+02  0.00000000000E+00 0. -1.
        -11    1    3    3    0    0 -0.44172563702E+03  0.57324045908E+03  0.46659569744E+02  0.72519189031E+03  0.00000000000E+00 0.  1.
          2    1    6    6  502    0  0.35810068293E+03 -0.91013709078E+02 -0.14920585937E+03  0.39847456986E+03  0.00000000000E+00 0. -1.
          1    1    5    5  503    0  0.16228167660E+02 -0.31176241465E+03  0.30358632766E+03  0.43545816671E+03  0.00000000000E+00 0. -1.
         -2    1    5    5    0  503 -0.18530589691E+02 -0.21246027586E+03  0.13265304940E+03  0.25115649123E+03  0.00000000000E+00 0.  1.
         -1    1    6    6    0  502  0.15151558333E+03 -0.10202611187E+02 -0.16102802942E+02  0.15271007016E+03  0.00000000000E+00 0.  1.
<mgrwt>
<rscale>  0 0.20264230E+04</rscale>
<asrwt>0</asrwt>
<pdfrwt beam="1">  1        1 0.18068783E+00 0.20264230E+04</pdfrwt>
<pdfrwt beam="2">  1       -1 0.13447594E+00 0.20264230E+04</pdfrwt>
<totfact> 0.48050140E+00</totfact>
</mgrwt>
</event>
<event>
12    1  0.1562393E-007  0.1692434E+04  0.7818608E-02  0.8765691E-01
         -2   -1    0    0    0  501 -0.00000000000E+00  0.00000000000E+00  0.28590617551E+03  0.28590617551E+03  0.00000000000E+00 0. -1.
          2   -1    0    0  501    0  0.00000000000E+00 -0.00000000000E+00 -0.25046082308E+04  0.25046082308E+04  0.00000000000E+00 0.  1.
         23    2    1    2    0    0 -0.55103096204E+03 -0.10350501198E+03 -0.42206393775E+03  0.70744635526E+03  0.89409000631E+02 0.  0.
        254    2    1    2    0    0  0.55103096204E+03  0.10350501198E+03 -0.17966381176E+04  0.20830680511E+04  0.89270127775E+03 0.  0.
        -24    2    4    4    0    0  0.26313461717E+03 -0.32532700752E+03 -0.12758643186E+04  0.13450979535E+04  0.79882766732E+02 0.  0.
         24    2    4    4    0    0  0.28789634487E+03  0.42883201950E+03 -0.52077379900E+03  0.73797009762E+03  0.81322253543E+02 0.  0.
         11    1    3    3    0    0 -0.44514017882E+01  0.37037059764E+01  0.32461700393E+01  0.66385266260E+01  0.00000000000E+00 0.  1.
        -11    1    3    3    0    0 -0.54657956025E+03 -0.10720871795E+03 -0.42531010779E+03  0.70080782864E+03  0.00000000000E+00 0. -1.
          4    1    6    6  502    0  0.13952627382E+03  0.25040285332E+03 -0.33356945419E+03  0.43981558727E+03  0.00000000000E+00 0. -1.
          1    1    5    5  503    0  0.19382525651E+03 -0.26675416553E+03 -0.90205182655E+03  0.96042881708E+03  0.00000000000E+00 0. -1.
         -2    1    5    5    0  503  0.69309360666E+02 -0.58572841990E+02 -0.37381249203E+03  0.38466913639E+03  0.00000000000E+00 0.  1.
         -3    1    6    6    0  502  0.14837007105E+03  0.17842916618E+03 -0.18720434481E+03  0.29815451035E+03  0.00000000000E+00 0.  1.
<mgrwt>
<rscale>  0 0.16924337E+04</rscale>
<asrwt>0</asrwt>
<pdfrwt beam="1">  1        2 0.38532435E+00 0.16924337E+04</pdfrwt>
<pdfrwt beam="2">  1       -2 0.43985564E-01 0.16924337E+04</pdfrwt>
<totfact> 0.16173388E+01</totfact>
</mgrwt>
</event>
<event>
12    1  0.1562393E-007  0.1791498E+04  0.7818608E-02  0.8710834E-01
          2   -1    0    0  501    0  0.00000000000E+00  0.00000000000E+00  0.12377360781E+04  0.12377360781E+04  0.00000000000E+00 0. -1.
         -2   -1    0    0    0  501 -0.00000000000E+00 -0.00000000000E+00 -0.64825286359E+03  0.64825286359E+03  0.00000000000E+00 0.  1.
         23    2    1    2    0    0 -0.59987459106E+01  0.63851096736E+03  0.43725772486E+03  0.77940634058E+03  0.92453693261E+02 0.  0.
        254    2    1    2    0    0  0.59987459106E+01 -0.63851096736E+03  0.15222548968E+03  0.11065826011E+04  0.89085364289E+03 0.  0.
        -24    2    4    4    0    0 -0.13676604867E+03 -0.50119953582E+03  0.48271895887E+03  0.71371172272E+03  0.80379743229E+02 0.  0.
         24    2    4    4    0    0  0.14276479458E+03 -0.13731143153E+03 -0.33049346919E+03  0.39287087842E+03  0.76716218211E+02 0.  0.
         11    1    3    3    0    0 -0.41768526588E+02  0.45458532717E+03  0.28694340278E+03  0.53919286520E+03  0.00000000000E+00 0. -1.
        -11    1    3    3    0    0  0.35769780677E+02  0.18392564019E+03  0.15031432208E+03  0.24021347538E+03  0.00000000000E+00 0.  1.
          2    1    6    6  502    0  0.73146889240E+02 -0.31716765952E+02 -0.17594434609E+03  0.19316530115E+03  0.00000000000E+00 0. -1.
          1    1    5    5  503    0 -0.84272645020E+02 -0.42056049558E+03  0.38112897859E+03  0.57378768501E+03  0.00000000000E+00 0. -1.
         -2    1    5    5    0  503 -0.52493403651E+02 -0.80639040240E+02  0.10158998028E+03  0.13992403771E+03  0.00000000000E+00 0.  1.
         -1    1    6    6    0  502  0.69617905341E+02 -0.10559466558E+03 -0.15454912309E+03  0.19970557727E+03  0.00000000000E+00 0.  1.
<mgrwt>
<rscale>  0 0.17914976E+04</rscale>
<asrwt>0</asrwt>
<pdfrwt beam="1">  1        2 0.19042093E+00 0.17914976E+04</pdfrwt>
<pdfrwt beam="2">  1       -2 0.99731210E-01 0.17914976E+04</pdfrwt>
<totfact> 0.14127156E+01</totfact>
</mgrwt>
</event>
<event>
12    1  0.1562393E-007  0.1536456E+04  0.7818608E-02  0.8860566E-01
          2   -1    0    0  501    0  0.00000000000E+00  0.00000000000E+00  0.79095527538E+03  0.79095527538E+03  0.00000000000E+00 0. -1.
         -2   -1    0    0    0  501 -0.00000000000E+00 -0.00000000000E+00 -0.74615358662E+03  0.74615358662E+03  0.00000000000E+00 0.  1.
         23    2    1    2    0    0 -0.15194777014E+03 -0.18793756937E+03  0.44552434969E+03  0.51503741829E+03  0.91449118295E+02 0.  0.
        254    2    1    2    0    0  0.15194777014E+03  0.18793756937E+03 -0.40072266093E+03  0.10220714437E+04  0.90864884870E+03 0.  0.
        -24    2    4    4    0    0  0.46128226487E+03 -0.11136134673E+03 -0.31721187087E+03  0.57621410088E+03  0.78845682200E+02 0.  0.
         24    2    4    4    0    0 -0.30933449473E+03  0.29929891610E+03 -0.83510790068E+02  0.44585734283E+03  0.80913826341E+02 0.  0.
         11    1    3    3    0    0 -0.71564545320E+02 -0.81570162936E+02  0.11244760094E+03  0.15626784245E+03  0.00000000000E+00 0. -1.
        -11    1    3    3    0    0 -0.80383224822E+02 -0.10636740643E+03  0.33307674876E+03  0.35876957584E+03  0.00000000000E+00 0.  1.
          4    1    6    6  502    0 -0.13977712237E+03  0.88122568629E+02 -0.51898349409E+02  0.17319546677E+03  0.00000000000E+00 0. -1.
          1    1    5    5  503    0  0.37489020098E+03 -0.61028449970E+02 -0.23389194598E+03  0.44606342250E+03  0.00000000000E+00 0. -1.
         -2    1    5    5    0  503  0.86392063892E+02 -0.50332896759E+02 -0.83319924887E+02  0.13015067838E+03  0.00000000000E+00 0.  1.
         -3    1    6    6    0  502 -0.16955737237E+03  0.21117634747E+03 -0.31612440659E+02  0.27266187606E+03  0.00000000000E+00 0.  1.
<mgrwt>
<rscale>  0 0.15364558E+04</rscale>
<asrwt>0</asrwt>
<pdfrwt beam="1">  1        2 0.12168543E+00 0.15364558E+04</pdfrwt>
<pdfrwt beam="2">  1       -2 0.11479286E+00 0.15364558E+04</pdfrwt>
<totfact> 0.19957182E+01</totfact>
</mgrwt>
</event>
<event>
12    1  0.1562393E-007  0.1562686E+04  0.7818608E-02  0.8843805E-01
         -2   -1    0    0    0  501 -0.00000000000E+00  0.00000000000E+00  0.18903160416E+03  0.18903160416E+03  0.00000000000E+00 0.  1.
          2   -1    0    0  501    0  0.00000000000E+00 -0.00000000000E+00 -0.32296008871E+04  0.32296008871E+04  0.00000000000E+00 0. -1.
         23    2    1    2    0    0 -0.16775005186E+03  0.48739132810E+03 -0.11549645776E+04  0.12666941828E+04  0.69861223642E+02 0.  0.
        254    2    1    2    0    0  0.16775005186E+03 -0.48739132810E+03 -0.18856047054E+04  0.21519383085E+04  0.89980164043E+03 0.  0.
        -24    2    4    4    0    0  0.50296452183E+02 -0.69922574898E+03 -0.16865312059E+04  0.18281752625E+04  0.79943109942E+02 0.  0.
         24    2    4    4    0    0  0.11745359968E+03  0.21183442088E+03 -0.19907349947E+03  0.32376304600E+03  0.80765597993E+02 0.  0.
         13    1    3    3    0    0 -0.16670041690E+03  0.44131934724E+03 -0.10135550240E+04  0.11179649288E+04  0.00000000000E+00 0.  1.
        -13    1    3    3    0    0 -0.10496349565E+01  0.46071980854E+02 -0.14140955359E+03  0.14872925402E+03  0.00000000000E+00 0. -1.
          4    1    6    6  502    0  0.20307980850E+02 -0.17250020509E+01 -0.11650313103E+02  0.23475934778E+02  0.00000000000E+00 0. -1.
          1    1    5    5  503    0  0.13775531470E+02 -0.83360076826E+02 -0.27549216921E+03  0.28815725390E+03  0.00000000000E+00 0. -1.
         -2    1    5    5    0  503  0.36520920713E+02 -0.61586567215E+03 -0.14110390367E+04  0.15400180086E+04  0.00000000000E+00 0.  1.
         -3    1    6    6    0  502  0.97145618827E+02  0.21355942293E+03 -0.18742318637E+03  0.30028711123E+03  0.00000000000E+00 0.  1.
<mgrwt>
<rscale>  0 0.15626857E+04</rscale>
<asrwt>0</asrwt>
<pdfrwt beam="1">  1        2 0.49686162E+00 0.15626857E+04</pdfrwt>
<pdfrwt beam="2">  1       -2 0.29081789E-01 0.15626857E+04</pdfrwt>
<totfact> 0.13076001E+01</totfact>
</mgrwt>
</event>
<event>
12    1  0.1562393E-007  0.1366302E+04  0.7818608E-02  0.8978579E-01
         -1   -1    0    0    0  501 -0.00000000000E+00  0.00000000000E+00  0.43968207151E+03  0.43968207151E+03  0.00000000000E+00 0.  1.
          1   -1    0    0  501    0  0.00000000000E+00 -0.00000000000E+00 -0.10614379204E+04  0.10614379204E+04  0.00000000000E+00 0. -1.
         23    2    1    2    0    0  0.22412665078E+03  0.33252952598E+03 -0.21564854519E+03  0.46436450924E+03  0.91222043180E+02 0.  0.
        254    2    1    2    0    0 -0.22412665078E+03 -0.33252952598E+03 -0.40610730373E+03  0.10367554827E+04  0.86552304853E+03 0.  0.
        -24    2    4    4    0    0 -0.42723407027E+03  0.12003456925E+03 -0.20083843122E+03  0.49356842482E+03  0.79601921507E+02 0.  0.
         24    2    4    4    0    0  0.20310741949E+03 -0.45256409522E+03 -0.20526887250E+03  0.54318705788E+03  0.82764640358E+02 0.  0.
         11    1    3    3    0    0  0.17333848157E+03  0.21321758921E+03 -0.18457208787E+03  0.33102088327E+03  0.00000000000E+00 0. -1.
        -11    1    3    3    0    0  0.50788169209E+02  0.11931193676E+03 -0.31076457322E+02  0.13334362597E+03  0.00000000000E+00 0.  1.
          4    1    6    6  502    0  0.20589072918E+03 -0.45465845828E+03 -0.20207245907E+03  0.53845945508E+03  0.00000000000E+00 0. -1.
          1    1    5    5  503    0 -0.10991028902E+03  0.31032255829E+02 -0.91484182704E+02  0.14633054439E+03  0.00000000000E+00 0. -1.
         -2    1    5    5    0  503 -0.31732378125E+03  0.89002313417E+02 -0.10935424852E+03  0.34723788043E+03  0.00000000000E+00 0.  1.
         -1    1    6    6    0  502 -0.27833096929E+01  0.20943630534E+01 -0.31964134337E+01  0.47276028054E+01  0.00000000000E+00 0.  1.
<mgrwt>
<rscale>  0 0.13663019E+04</rscale>
<asrwt>0</asrwt>
<pdfrwt beam="1">  1        1 0.16329814E+00 0.13663019E+04</pdfrwt>
<pdfrwt beam="2">  1       -1 0.67643396E-01 0.13663019E+04</pdfrwt>
<totfact> 0.29347797E+01</totfact>
</mgrwt>
</event>
<event>
12    1  0.1562393E-007  0.1316796E+04  0.7818608E-02  0.9016351E-01
          4   -1    0    0  501    0  0.00000000000E+00  0.00000000000E+00  0.34823492779E+03  0.34823492779E+03  0.00000000000E+00 0. -1.
         -4   -1    0    0    0  501 -0.00000000000E+00 -0.00000000000E+00 -0.12448143903E+04  0.12448143903E+04  0.00000000000E+00 0.  1.
         23    2    1    2    0    0 -0.49429114318E+02 -0.31887529224E+03 -0.41952410192E+03  0.53701666726E+03  0.90894111344E+02 0.  0.
        254    2    1    2    0    0  0.49429114318E+02  0.31887529224E+03 -0.47705536061E+03  0.10560326509E+04  0.88515447989E+03 0.  0.
        -24    2    4    4    0    0 -0.38453718830E+03  0.26648603976E+03 -0.12847884366E+03  0.49154829424E+03  0.78925621515E+02 0.  0.
         24    2    4    4    0    0  0.43396630262E+03  0.52389252482E+02 -0.34857651696E+03  0.56448435662E+03  0.77882058976E+02 0.  0.
         13    1    3    3    0    0  0.26515785969E+01 -0.35675672092E+02 -0.10337430002E+03  0.10938935210E+03  0.00000000000E+00 0. -1.
        -13    1    3    3    0    0 -0.52080692915E+02 -0.28319962015E+03 -0.31614980190E+03  0.42762731515E+03  0.00000000000E+00 0.  1.
          4    1    6    6  502    0  0.28261932350E+03  0.26590417428E+02 -0.17832970152E+03  0.33523456677E+03  0.00000000000E+00 0. -1.
          1    1    5    5  503    0 -0.26517870730E+03  0.17285899219E+03 -0.49076380316E+02  0.32032556734E+03  0.00000000000E+00 0. -1.
         -2    1    5    5    0  503 -0.11935848100E+03  0.93627047570E+02 -0.79402463339E+02  0.17122272690E+03  0.00000000000E+00 0.  1.
         -1    1    6    6    0  502  0.15134697912E+03  0.25798835054E+02 -0.17024681544E+03  0.22924978985E+03  0.00000000000E+00 0.  1.
<mgrwt>
<rscale>  0 0.13167959E+04</rscale>
<asrwt>0</asrwt>
<pdfrwt beam="1">  1        4 0.53574603E-01 0.13167959E+04</pdfrwt>
<pdfrwt beam="2">  1       -4 0.19150991E+00 0.13167959E+04</pdfrwt>
<totfact> 0.97933580E-01</totfact>
</mgrwt>
</event>
<event>
12    1  0.1719222E-007  0.2034374E+04  0.7818608E-02  0.8590716E-01
          2   -1    0    0  501    0  0.00000000000E+00  0.00000000000E+00  0.22520513392E+04  0.22520513392E+04  0.00000000000E+00 0. -1.
         -2   -1    0    0    0  501 -0.00000000000E+00 -0.00000000000E+00 -0.45943399989E+03  0.45943399989E+03  0.00000000000E+00 0.  1.
         23    2    1    2    0    0  0.62650182956E+03  0.11286773436E+03  0.14110076842E+04  0.15506655732E+04  0.91527957370E+02 0.  0.
        254    2    1    2    0    0 -0.62650182956E+03 -0.11286773436E+03  0.38160965505E+03  0.11608197659E+04  0.89254295815E+03 0.  0.
        -24    2    4    4    0    0 -0.81897221109E+03  0.58810100297E+02  0.27417498217E+03  0.86933437969E+03  0.79976449182E+02 0.  0.
         24    2    4    4    0    0  0.19247038153E+03 -0.17167783466E+03  0.10743467288E+03  0.29148538620E+03  0.83086670122E+02 0.  0.
         11    1    3    3    0    0  0.55423014031E+03  0.69251165126E+02  0.12378790652E+04  0.13580542524E+04  0.00000000000E+00 0. -1.
        -11    1    3    3    0    0  0.72271689249E+02  0.43616569235E+02  0.17312861902E+03  0.19261132081E+03  0.00000000000E+00 0.  1.
          2    1    6    6  502    0  0.20011259894E+03 -0.17111952927E+03  0.10424234933E+03  0.28318441508E+03  0.00000000000E+00 0. -1.
          3    1    5    5  503    0 -0.80161050441E+03  0.48616983853E+02  0.25799972201E+03  0.84350866531E+03  0.00000000000E+00 0. -1.
         -4    1    5    5    0  503 -0.17361706681E+02  0.10193116444E+02  0.16175260165E+02  0.25825714377E+02  0.00000000000E+00 0.  1.
         -1    1    6    6    0  502 -0.76422174081E+01 -0.55830538419E+00  0.31923235527E+01  0.83009711167E+01  0.00000000000E+00 0.  1.
<mgrwt>
<rscale>  0 0.20343736E+04</rscale>
<asrwt>0</asrwt>
<pdfrwt beam="1">  1        2 0.34646943E+00 0.20343736E+04</pdfrwt>
<pdfrwt beam="2">  1       -2 0.70682155E-01 0.20343736E+04</pdfrwt>
<totfact> 0.81377626E+00</totfact>
</mgrwt>
</event>
<event>
12    1  0.1562393E-007  0.1191168E+04  0.7818608E-02  0.9120622E-01
          2   -1    0    0  501    0  0.00000000000E+00  0.00000000000E+00  0.19164688752E+04  0.19164688752E+04  0.00000000000E+00 0. -1.
         -2   -1    0    0    0  501 -0.00000000000E+00 -0.00000000000E+00 -0.18509065754E+03  0.18509065754E+03  0.00000000000E+00 0.  1.
         23    2    1    2    0    0  0.13776961006E+03  0.24551297966E+02  0.60960339935E+03  0.63201865760E+03  0.90818761128E+02 0.  0.
        254    2    1    2    0    0 -0.13776961006E+03 -0.24551297966E+02  0.11217748183E+04  0.14695408751E+04  0.93892939512E+03 0.  0.
        -24    2    4    4    0    0  0.21419618620E+03  0.34721006338E+03  0.63269092598E+03  0.75707325108E+03  0.80170227594E+02 0.  0.
         24    2    4    4    0    0 -0.35196579626E+03 -0.37176136134E+03  0.48908389233E+03  0.71246762405E+03  0.79502390330E+02 0.  0.
         13    1    3    3    0    0  0.96557504702E+02  0.19397465073E+02  0.23066014454E+03  0.25080613159E+03  0.00000000000E+00 0.  1.
        -13    1    3    3    0    0  0.41212105357E+02  0.51538328925E+01  0.37894325481E+03  0.38121252601E+03  0.00000000000E+00 0. -1.
          2    1    6    6  502    0 -0.22776611138E+03 -0.29192926720E+03  0.35773244030E+03  0.51485201503E+03  0.00000000000E+00 0. -1.
          3    1    5    5  503    0  0.20725909182E+03  0.33529267624E+03  0.62979977758E+03  0.74298403060E+03  0.00000000000E+00 0. -1.
         -4    1    5    5    0  503  0.69370943812E+01  0.11917387143E+02  0.28911483946E+01  0.14089220483E+02  0.00000000000E+00 0.  1.
         -1    1    6    6    0  502 -0.12419968488E+03 -0.79832094149E+02  0.13135145203E+03  0.19761560902E+03  0.00000000000E+00 0.  1.
<mgrwt>
<rscale>  0 0.11911683E+04</rscale>
<asrwt>0</asrwt>
<pdfrwt beam="1">  1        2 0.29484135E+00 0.11911683E+04</pdfrwt>
<pdfrwt beam="2">  1       -2 0.28475487E-01 0.11911683E+04</pdfrwt>
<totfact> 0.83019061E+01</totfact>
</mgrwt>
</event>
<event>
12    1  0.1562393E-007  0.1922883E+04  0.7818608E-02  0.8643549E-01
         -1   -1    0    0    0  501 -0.00000000000E+00  0.00000000000E+00  0.57759387889E+03  0.57759387889E+03  0.00000000000E+00 0.  1.
          1   -1    0    0  501    0  0.00000000000E+00 -0.00000000000E+00 -0.16003795411E+04  0.16003795411E+04  0.00000000000E+00 0. -1.
         23    2    1    2    0    0  0.32124027379E+03 -0.67848670818E+03 -0.40826759872E+03  0.85927680448E+03  0.90192393631E+02 0.  0.
        254    2    1    2    0    0 -0.32124027379E+03  0.67848670818E+03 -0.61451806345E+03  0.13186966155E+04  0.89319022983E+03 0.  0.
        -24    2    4    4    0    0 -0.78997675519E+02  0.34484512408E+03  0.19173491323E+03  0.41004948563E+03  0.78863878795E+02 0.  0.
         24    2    4    4    0    0 -0.24224259827E+03  0.33364158410E+03 -0.80625297668E+03  0.90864712984E+03  0.74816850425E+02 0.  0.
         11    1    3    3    0    0  0.22011976358E+03 -0.41716034368E+03 -0.21173951160E+03  0.51701942268E+03  0.00000000000E+00 0.  1.
        -11    1    3    3    0    0  0.10112051021E+03 -0.26132636450E+03 -0.19652808712E+03  0.34225738180E+03  0.00000000000E+00 0. -1.
          2    1    6    6  502    0 -0.19289719116E+03  0.29216101002E+03 -0.62648616653E+03  0.71767144223E+03  0.00000000000E+00 0. -1.
          1    1    5    5  503    0  0.15831514217E+02  0.68241667693E+02  0.36922021747E+02  0.79188368728E+02  0.00000000000E+00 0. -1.
         -2    1    5    5    0  503 -0.94829189736E+02  0.27660345639E+03  0.15481289148E+03  0.33086111691E+03  0.00000000000E+00 0.  1.
         -1    1    6    6    0  502 -0.49345407115E+02  0.41480574078E+02 -0.17976681015E+03  0.19097568761E+03  0.00000000000E+00 0.  1.
<mgrwt>
<rscale>  0 0.19228827E+04</rscale>
<asrwt>0</asrwt>
<pdfrwt beam="1">  1        1 0.24621224E+00 0.19228827E+04</pdfrwt>
<pdfrwt beam="2">  1       -1 0.88860597E-01 0.19228827E+04</pdfrwt>
<totfact> 0.64692456E+00</totfact>
</mgrwt>
</event>
<event>
12    1  0.1562393E-007  0.2668459E+04  0.7818608E-02  0.8345312E-01
         -2   -1    0    0    0  501 -0.00000000000E+00  0.00000000000E+00  0.51738668822E+03  0.51738668822E+03  0.00000000000E+00 0.  1.
          2   -1    0    0  501    0  0.00000000000E+00 -0.00000000000E+00 -0.34406909943E+04  0.34406909943E+04  0.00000000000E+00 0. -1.
         23    2    1    2    0    0  0.41541314545E+03  0.64764371577E+03  0.32696077848E+02  0.77556195558E+03  0.91743389143E+02 0.  0.
        254    2    1    2    0    0 -0.41541314545E+03 -0.64764371577E+03 -0.29560003839E+04  0.31825157269E+04  0.89356455754E+03 0.  0.
        -24    2    4    4    0    0 -0.61238499778E+03 -0.36127673071E+03 -0.25169575473E+04  0.26165688895E+04  0.76296766665E+02 0.  0.
         24    2    4    4    0    0  0.19697185233E+03 -0.28636698505E+03 -0.43904283658E+03  0.56594683746E+03  0.82056381480E+02 0.  0.
         13    1    3    3    0    0  0.41225183085E+03  0.65013331250E+03  0.29437304814E+02  0.77038396334E+03  0.00000000000E+00 0.  1.
        -13    1    3    3    0    0  0.31613146009E+01 -0.24895967349E+01  0.32587730341E+01  0.51779922360E+01  0.00000000000E+00 0. -1.
          2    1    6    6  502    0  0.48318181445E+02 -0.66359235945E+02 -0.54095324961E+02  0.98308183973E+02  0.00000000000E+00 0. -1.
          1    1    5    5  503    0 -0.11869548403E+03 -0.37852453743E+02 -0.46867133735E+03  0.48494767618E+03  0.00000000000E+00 0. -1.
         -2    1    5    5    0  503 -0.49368951375E+03 -0.32342427697E+03 -0.20482862100E+04  0.21316212133E+04  0.00000000000E+00 0.  1.
         -1    1    6    6    0  502  0.14865367089E+03 -0.22000774911E+03 -0.38494751162E+03  0.46763865349E+03  0.00000000000E+00 0.  1.
<mgrwt>
<rscale>  0 0.26684585E+04</rscale>
<asrwt>0</asrwt>
<pdfrwt beam="1">  1        2 0.52933709E+00 0.26684585E+04</pdfrwt>
<pdfrwt beam="2">  1       -2 0.79597949E-01 0.26684585E+04</pdfrwt>
<totfact> 0.10995820E+00</totfact>
</mgrwt>
</event>
<event>
12    1  0.1562393E-007  0.2566986E+04  0.7818608E-02  0.8379502E-01
         -2   -1    0    0    0  501 -0.00000000000E+00  0.00000000000E+00  0.64469508167E+03  0.64469508167E+03  0.00000000000E+00 0.  1.
          2   -1    0    0  501    0  0.00000000000E+00 -0.00000000000E+00 -0.25552462660E+04  0.25552462660E+04  0.00000000000E+00 0. -1.
         23    2    1    2    0    0 -0.15706497384E+02 -0.81988185392E+02 -0.22296937670E+04  0.22331021447E+04  0.90786218385E+02 0.  0.
        254    2    1    2    0    0  0.15706497384E+02  0.81988185392E+02  0.31914258268E+03  0.96683920297E+03  0.90882192960E+03 0.  0.
        -24    2    4    4    0    0 -0.38812375165E+03  0.23091495567E+03  0.25178745203E+03  0.52353555486E+03  0.82041409418E+02 0.  0.
         24    2    4    4    0    0  0.40383024903E+03 -0.14892677028E+03  0.67355130652E+02  0.44330364811E+03  0.81996084402E+02 0.  0.
         13    1    3    3    0    0 -0.46632770966E+01 -0.51480378482E+02 -0.42713692526E+03  0.43025333054E+03  0.00000000000E+00 0.  1.
        -13    1    3    3    0    0 -0.11043220287E+02 -0.30507806910E+02 -0.18025568418E+04  0.18028488142E+04  0.00000000000E+00 0. -1.
          4    1    6    6  502    0  0.27962166231E+03 -0.10946517969E+03  0.84267374319E+02  0.31188441765E+03  0.00000000000E+00 0. -1.
          3    1    5    5  503    0 -0.15883052221E+03  0.12914604201E+03  0.81502793722E+02  0.22033733305E+03  0.00000000000E+00 0. -1.
         -4    1    5    5    0  503 -0.22929322944E+03  0.10176891367E+03  0.17028465831E+03  0.30319822181E+03  0.00000000000E+00 0.  1.
         -3    1    6    6    0  502  0.12420858672E+03 -0.39461590589E+02 -0.16912243666E+02  0.13141923046E+03  0.00000000000E+00 0.  1.
<mgrwt>
<rscale>  0 0.25669863E+04</rscale>
<asrwt>0</asrwt>
<pdfrwt beam="1">  1        2 0.39311482E+00 0.25669863E+04</pdfrwt>
<pdfrwt beam="2">  1       -2 0.99183857E-01 0.25669863E+04</pdfrwt>
<totfact> 0.24142852E+00</totfact>
</mgrwt>
</event>
<event>
12    1  0.1562393E-007  0.1354260E+04  0.7818608E-02  0.8987610E-01
         -1   -1    0    0    0  501 -0.00000000000E+00  0.00000000000E+00  0.54362368867E+03  0.54362368867E+03  0.00000000000E+00 0.  1.
          1   -1    0    0  501    0  0.00000000000E+00 -0.00000000000E+00 -0.84342297698E+03  0.84342297698E+03  0.00000000000E+00 0. -1.
         23    2    1    2    0    0  0.26974773716E+03 -0.82427093429E+01 -0.34758385527E+03  0.44914821377E+03  0.89932182969E+02 0.  0.
        254    2    1    2    0    0 -0.26974773716E+03  0.82427093429E+01  0.47784566958E+02  0.93789845187E+03  0.89696062189E+03 0.  0.
        -24    2    4    4    0    0 -0.10507570296E+03 -0.43407660769E+03  0.54660064309E+02  0.45838052454E+03  0.87530440164E+02 0.  0.
         24    2    4    4    0    0 -0.16467203420E+03  0.44231931703E+03 -0.68754973504E+01  0.47951792733E+03  0.84421046551E+02 0.  0.
         11    1    3    3    0    0  0.10541262607E+03 -0.12258828100E+02 -0.20795032784E+03  0.23346400033E+03  0.00000000000E+00 0. -1.
        -11    1    3    3    0    0  0.16433511109E+03  0.40161187573E+01 -0.13963352743E+03  0.21568421344E+03  0.00000000000E+00 0.  1.
          2    1    6    6  502    0 -0.15955208793E+03  0.38811108803E+03 -0.29261271458E+02  0.42064629729E+03  0.00000000000E+00 0. -1.
          3    1    5    5  503    0 -0.11067879840E+03 -0.43498331349E+03  0.56564791115E+02  0.45239347368E+03  0.00000000000E+00 0. -1.
         -2    1    5    5    0  503  0.56030954342E+01  0.90670580563E+00 -0.19047268057E+01  0.59870508655E+01  0.00000000000E+00 0.  1.
         -1    1    6    6    0  502 -0.51199462639E+01  0.54208228999E+02  0.22385774108E+02  0.58871630039E+02  0.00000000000E+00 0.  1.
<mgrwt>
<rscale>  0 0.13542595E+04</rscale>
<asrwt>0</asrwt>
<pdfrwt beam="1">  1        1 0.12975738E+00 0.13542595E+04</pdfrwt>
<pdfrwt beam="2">  1       -1 0.83634414E-01 0.13542595E+04</pdfrwt>
<totfact> 0.28158178E+01</totfact>
</mgrwt>
</event>
<event>
12    1  0.1562393E-007  0.1441586E+04  0.7818608E-02  0.8924254E-01
          1   -1    0    0  501    0  0.00000000000E+00  0.00000000000E+00  0.15071954120E+04  0.15071954120E+04  0.00000000000E+00 0. -1.
         -1   -1    0    0    0  501 -0.00000000000E+00 -0.00000000000E+00 -0.34470833486E+03  0.34470833486E+03  0.00000000000E+00 0.  1.
         23    2    1    2    0    0  0.20960238964E+03 -0.33117764843E+03  0.55875458631E+03  0.68507962461E+03  0.59292560824E+02 0.  0.
        254    2    1    2    0    0 -0.20960238964E+03  0.33117764843E+03  0.60373249079E+03  0.11668241222E+04  0.91835386162E+03 0.  0.
        -24    2    4    4    0    0  0.25920431105E+03 -0.33603259761E+02 -0.54857683681E+02  0.27637078419E+03  0.71101272570E+02 0.  0.
         24    2    4    4    0    0 -0.46880670069E+03  0.36478090819E+03  0.65859017447E+03  0.89045333801E+03  0.79506576294E+02 0.  0.
         11    1    3    3    0    0  0.18276107678E+03 -0.24309781336E+03  0.43746425942E+03  0.53279746276E+03  0.00000000000E+00 0. -1.
        -11    1    3    3    0    0  0.26841312857E+02 -0.88079835075E+02  0.12129032688E+03  0.15228216185E+03  0.00000000000E+00 0.  1.
          2    1    6    6  502    0 -0.27574780443E+02  0.13108755921E+02  0.63150300675E+02  0.70143912591E+02  0.00000000000E+00 0. -1.
          1    1    5    5  503    0  0.10617657309E+03 -0.11097111418E+02 -0.58343496448E+02  0.12165761025E+03  0.00000000000E+00 0. -1.
         -2    1    5    5    0  503  0.15302773796E+03 -0.22506148343E+02  0.34858127670E+01  0.15471317394E+03  0.00000000000E+00 0.  1.
         -1    1    6    6    0  502 -0.44123192025E+03  0.35167215227E+03  0.59543987379E+03  0.82030942542E+03  0.00000000000E+00 0.  1.
<mgrwt>
<rscale>  0 0.14415864E+04</rscale>
<asrwt>0</asrwt>
<pdfrwt beam="1">  1        1 0.23187621E+00 0.14415864E+04</pdfrwt>
<pdfrwt beam="2">  1       -1 0.53032052E-01 0.14415864E+04</pdfrwt>
<totfact> 0.22532501E+01</totfact>
</mgrwt>
</event>
<event>
12    1  0.1562393E-007  0.1267825E+04  0.7818608E-02  0.9055477E-01
          2   -1    0    0  501    0  0.00000000000E+00  0.00000000000E+00  0.74784934506E+03  0.74784934506E+03  0.00000000000E+00 0. -1.
         -2   -1    0    0    0  501 -0.00000000000E+00 -0.00000000000E+00 -0.53733437129E+03  0.53733437129E+03  0.00000000000E+00 0.  1.
         23    2    1    2    0    0 -0.93156979309E+02  0.37628727757E+02 -0.23577353708E+03  0.27167958482E+03  0.90147058062E+02 0.  0.
        254    2    1    2    0    0  0.93156979309E+02 -0.37628727757E+02  0.44628851084E+03  0.10135041315E+04  0.90439098059E+03 0.  0.
        -24    2    4    4    0    0  0.38147244414E+03  0.21476970146E+03  0.43171995577E+03  0.61977589578E+03  0.78056328885E+02 0.  0.
         24    2    4    4    0    0 -0.28831546483E+03 -0.25239842922E+03  0.14568555069E+02  0.39372823574E+03  0.89324724968E+02 0.  0.
         11    1    3    3    0    0 -0.80608306213E+02  0.19829116510E+02 -0.23571105813E+03  0.24990117210E+03  0.00000000000E+00 0.  1.
        -11    1    3    3    0    0 -0.12548673096E+02  0.17799611247E+02 -0.62478944244E-01  0.21778412720E+02  0.00000000000E+00 0. -1.
          4    1    6    6  502    0 -0.71977934436E+01  0.26760116418E+01 -0.10842700227E+02  0.13286587861E+02  0.00000000000E+00 0. -1.
          1    1    5    5  503    0  0.44479823183E+02  0.43835635142E+02  0.94778458860E+02  0.11350318869E+03  0.00000000000E+00 0. -1.
         -2    1    5    5    0  503  0.33699262096E+03  0.17093406632E+03  0.33694149691E+03  0.50627270710E+03  0.00000000000E+00 0.  1.
         -3    1    6    6    0  502 -0.28111767139E+03 -0.25507444086E+03  0.25411255296E+02  0.38044164788E+03  0.00000000000E+00 0.  1.
<mgrwt>
<rscale>  0 0.12678252E+04</rscale>
<asrwt>0</asrwt>
<pdfrwt beam="1">  1        2 0.11505375E+00 0.12678252E+04</pdfrwt>
<pdfrwt beam="2">  1       -2 0.82666826E-01 0.12678252E+04</pdfrwt>
<totfact> 0.47481527E+01</totfact>
</mgrwt>
</event>
<event>
12    1  0.1562393E-007  0.1524037E+04  0.7818608E-02  0.8868624E-01
         -2   -1    0    0    0  501 -0.00000000000E+00  0.00000000000E+00  0.53981394679E+03  0.53981394679E+03  0.00000000000E+00 0.  1.
          2   -1    0    0  501    0  0.00000000000E+00 -0.00000000000E+00 -0.10756896755E+04  0.10756896755E+04  0.00000000000E+00 0. -1.
         23    2    1    2    0    0 -0.49547212559E+02  0.25073048726E+03  0.30308729610E+03  0.40719957500E+03  0.92891772046E+02 0.  0.
        254    2    1    2    0    0  0.49547212559E+02 -0.25073048726E+03 -0.83896302477E+03  0.12083040472E+04  0.83115522626E+03 0.  0.
        -24    2    4    4    0    0 -0.72913019933E+02  0.21287674332E+03 -0.68343867165E+00  0.23863196159E+03  0.79447653695E+02 0.  0.
         24    2    4    4    0    0  0.12246023249E+03 -0.46360723058E+03 -0.83827958610E+03  0.96967208566E+03  0.87310460117E+02 0.  0.
         11    1    3    3    0    0 -0.12432382722E+02  0.22368108172E+03  0.26862452612E+03  0.34978125521E+03  0.00000000000E+00 0.  1.
        -11    1    3    3    0    0 -0.37114829837E+02  0.27049405538E+02  0.34462769972E+02  0.57418319793E+02  0.00000000000E+00 0. -1.
          4    1    6    6  502    0  0.78967951917E+02 -0.33000141964E+03 -0.66515892154E+03  0.74670828661E+03  0.00000000000E+00 0. -1.
          1    1    5    5  503    0 -0.47336096630E+02  0.13790148672E+03  0.37714663311E+02  0.15059854552E+03  0.00000000000E+00 0. -1.
         -2    1    5    5    0  503 -0.25576923303E+02  0.74975256603E+02 -0.38398101982E+02  0.88033416065E+02  0.00000000000E+00 0.  1.
         -3    1    6    6    0  502  0.43492280575E+02 -0.13360581094E+03 -0.17312066456E+03  0.22296379904E+03  0.00000000000E+00 0.  1.
<mgrwt>
<rscale>  0 0.15240371E+04</rscale>
<asrwt>0</asrwt>
<pdfrwt beam="1">  1        2 0.16549072E+00 0.15240371E+04</pdfrwt>
<pdfrwt beam="2">  1       -2 0.83048300E-01 0.15240371E+04</pdfrwt>
<totfact> 0.27639672E+01</totfact>
</mgrwt>
</event>
<event>
12    1  0.1562393E-007  0.1791754E+04  0.7818608E-02  0.8710697E-01
          1   -1    0    0  501    0  0.00000000000E+00  0.00000000000E+00  0.81813502543E+03  0.81813502543E+03  0.00000000000E+00 0. -1.
         -1   -1    0    0    0  501 -0.00000000000E+00 -0.00000000000E+00 -0.98100674101E+03  0.98100674101E+03  0.00000000000E+00 0.  1.
         23    2    1    2    0    0  0.43606216361E+03 -0.39904334920E+03  0.20865621089E+03  0.63343367519E+03  0.91186629802E+02 0.  0.
        254    2    1    2    0    0 -0.43606216361E+03  0.39904334920E+03 -0.37152792647E+03  0.11657080912E+04  0.93351837088E+03 0.  0.
        -24    2    4    4    0    0 -0.31289682853E+03  0.35199122891E+03 -0.67407732670E+03  0.82601421624E+03  0.78211204642E+02 0.  0.
         24    2    4    4    0    0 -0.12316533508E+03  0.47052120285E+02  0.30254940023E+03  0.33969387500E+03  0.80449905815E+02 0.  0.
         11    1    3    3    0    0  0.13004877215E+03 -0.17125707784E+03  0.53431456573E+02  0.22157750427E+03  0.00000000000E+00 0. -1.
        -11    1    3    3    0    0  0.30601339147E+03 -0.22778627135E+03  0.15522475431E+03  0.41185617092E+03  0.00000000000E+00 0.  1.
          4    1    6    6  502    0 -0.65593555482E+02  0.18593080206E+01  0.70219586058E+02  0.96108073611E+02  0.00000000000E+00 0. -1.
          3    1    5    5  503    0 -0.92293903927E+01  0.62092579159E+01 -0.17312518673E+01  0.11257609156E+02  0.00000000000E+00 0. -1.
         -4    1    5    5    0  503 -0.30366743813E+03  0.34578197099E+03 -0.67234607483E+03  0.81475660708E+03  0.00000000000E+00 0.  1.
         -3    1    6    6    0  502 -0.57571779603E+02  0.45192812265E+02  0.23232981417E+03  0.24358580139E+03  0.00000000000E+00 0.  1.
<mgrwt>
<rscale>  0 0.17917544E+04</rscale>
<asrwt>0</asrwt>
<pdfrwt beam="1">  1        1 0.12586693E+00 0.17917544E+04</pdfrwt>
<pdfrwt beam="2">  1       -1 0.15092411E+00 0.17917544E+04</pdfrwt>
<totfact> 0.69096773E+00</totfact>
</mgrwt>
</event>
<event>
12    1  0.1562393E-007  0.2235909E+04  0.7818608E-02  0.8503629E-01
         -2   -1    0    0    0  501 -0.00000000000E+00  0.00000000000E+00  0.36078470964E+03  0.36078470964E+03  0.00000000000E+00 0.  1.
          2   -1    0    0  501    0  0.00000000000E+00 -0.00000000000E+00 -0.34641764440E+04  0.34641764440E+04  0.00000000000E+00 0. -1.
         23    2    1    2    0    0  0.61365536235E+03 -0.58559823851E+03 -0.19253296497E+04  0.21057605786E+04  0.88516403031E+02 0.  0.
        254    2    1    2    0    0 -0.61365536235E+03  0.58559823851E+03 -0.11780620847E+04  0.17192005751E+04  0.92104404957E+03 0.  0.
        -24    2    4    4    0    0 -0.39272203413E+03  0.81476897212E+03 -0.73788768214E+03  0.11700200466E+04  0.79934997679E+02 0.  0.
         24    2    4    4    0    0 -0.22093332822E+03 -0.22917073361E+03 -0.44017440252E+03  0.54918052850E+03  0.80715473055E+02 0.  0.
         13    1    3    3    0    0  0.44804631891E+03 -0.44912090957E+03 -0.13474343433E+04  0.14893066859E+04  0.00000000000E+00 0. -1.
        -13    1    3    3    0    0  0.16560904344E+03 -0.13647732894E+03 -0.57789530643E+03  0.61645389266E+03  0.00000000000E+00 0.  1.
          2    1    6    6  502    0 -0.12999670830E+03 -0.12424015280E+03 -0.31255018185E+03  0.36058615602E+03  0.00000000000E+00 0. -1.
          3    1    5    5  503    0 -0.38621273604E+03  0.79425150032E+03 -0.70205235471E+03  0.11282168373E+04  0.00000000000E+00 0. -1.
         -4    1    5    5    0  503 -0.65092980981E+01  0.20517471797E+02 -0.35835327428E+02  0.41803209237E+02  0.00000000000E+00 0.  1.
         -1    1    6    6    0  502 -0.90936619919E+02 -0.10493058080E+03 -0.12762422067E+03  0.18859437248E+03  0.00000000000E+00 0.  1.
<mgrwt>
<rscale>  0 0.22359087E+04</rscale>
<asrwt>0</asrwt>
<pdfrwt beam="1">  1        2 0.53295020E+00 0.22359087E+04</pdfrwt>
<pdfrwt beam="2">  1       -2 0.55505342E-01 0.22359087E+04</pdfrwt>
<totfact> 0.24010330E+00</totfact>
</mgrwt>
</event>
<event>
12    1  0.1562393E-007  0.1173256E+04  0.7818608E-02  0.9136593E-01
          1   -1    0    0  501    0  0.00000000000E+00  0.00000000000E+00  0.14985719023E+04  0.14985719023E+04  0.00000000000E+00 0. -1.
         -1   -1    0    0    0  501 -0.00000000000E+00 -0.00000000000E+00 -0.22964023566E+03  0.22964023566E+03  0.00000000000E+00 0.  1.
         23    2    1    2    0    0  0.98487835653E+02 -0.14691698511E+03  0.12884800349E+02  0.19941811188E+03  0.91198196145E+02 0.  0.
        254    2    1    2    0    0 -0.98487835653E+02  0.14691698511E+03  0.12560468663E+04  0.15287940261E+04  0.85338911968E+03 0.  0.
        -24    2    4    4    0    0  0.96287438998E+02  0.58981483751E+02  0.12901705440E+04  0.12976749191E+04  0.81670537996E+02 0.  0.
         24    2    4    4    0    0 -0.19477527465E+03  0.87935501355E+02 -0.34123677637E+02  0.23111910703E+03  0.81126791164E+02 0.  0.
         13    1    3    3    0    0  0.10709347071E+02 -0.84032041219E+02  0.30452061159E+02  0.90018898543E+02  0.00000000000E+00 0. -1.
        -13    1    3    3    0    0  0.87778488583E+02 -0.62884943886E+02 -0.17567260810E+02  0.10939921333E+03  0.00000000000E+00 0.  1.
          2    1    6    6  502    0 -0.19041928487E+00  0.15252215524E+02  0.10686290071E+02  0.18624261955E+02  0.00000000000E+00 0. -1.
          1    1    5    5  503    0 -0.40036630138E+00 -0.13003604284E+02  0.50178596625E+02  0.51837684909E+02  0.00000000000E+00 0. -1.
         -2    1    5    5    0  503  0.96687805300E+02  0.71985088034E+02  0.12399919473E+04  0.12458372342E+04  0.00000000000E+00 0.  1.
         -1    1    6    6    0  502 -0.19458485537E+03  0.72683285831E+02 -0.44809967709E+02  0.21249484507E+03  0.00000000000E+00 0.  1.
<mgrwt>
<rscale>  0 0.11732560E+04</rscale>
<asrwt>0</asrwt>
<pdfrwt beam="1">  1        1 0.23054952E+00 0.11732560E+04</pdfrwt>
<pdfrwt beam="2">  1       -1 0.35329268E-01 0.11732560E+04</pdfrwt>
<totfact> 0.49596071E+01</totfact>
</mgrwt>
</event>
<event>
12    1  0.1562393E-007  0.1997379E+04  0.7818608E-02  0.8607847E-01
          1   -1    0    0  501    0  0.00000000000E+00  0.00000000000E+00  0.97938607957E+03  0.97938607957E+03  0.00000000000E+00 0. -1.
         -1   -1    0    0    0  501 -0.00000000000E+00 -0.00000000000E+00 -0.10183738828E+04  0.10183738828E+04  0.00000000000E+00 0.  1.
         23    2    1    2    0    0 -0.62631466245E+03  0.20085760193E+03 -0.45765355092E+03  0.80668850947E+03  0.93197349704E+02 0.  0.
        254    2    1    2    0    0  0.62631466245E+03 -0.20085760193E+03  0.41866574771E+03  0.11910714529E+04  0.90042010468E+03 0.  0.
        -24    2    4    4    0    0  0.70813883822E+02 -0.46878566262E+03  0.94753177369E+02  0.48981193941E+03  0.78504571517E+02 0.  0.
         24    2    4    4    0    0  0.55550077863E+03  0.26792806069E+03  0.32391257034E+03  0.70125951347E+03  0.80492181277E+02 0.  0.
         11    1    3    3    0    0 -0.30041442152E+03  0.10781303714E+03 -0.27707227050E+03  0.42266005101E+03  0.00000000000E+00 0. -1.
        -11    1    3    3    0    0 -0.32590024093E+03  0.93044564789E+02 -0.18058128042E+03  0.38402845846E+03  0.00000000000E+00 0.  1.
          4    1    6    6  502    0  0.16479352376E+03  0.76859257504E+02  0.13796978537E+03  0.22825405278E+03  0.00000000000E+00 0. -1.
          3    1    5    5  503    0  0.75525505248E+01 -0.95570015997E+02 -0.11725051505E+02  0.96582326592E+02  0.00000000000E+00 0. -1.
         -4    1    5    5    0  503  0.63261333297E+02 -0.37321564662E+03  0.10647822887E+03  0.39322961282E+03  0.00000000000E+00 0.  1.
         -3    1    6    6    0  502  0.39070725487E+03  0.19106880319E+03  0.18594278497E+03  0.47300546069E+03  0.00000000000E+00 0.  1.
<mgrwt>
<rscale>  0 0.19973795E+04</rscale>
<asrwt>0</asrwt>
<pdfrwt beam="1">  1        1 0.15067478E+00 0.19973795E+04</pdfrwt>
<pdfrwt beam="2">  1       -1 0.15667290E+00 0.19973795E+04</pdfrwt>
<totfact> 0.45153646E+00</totfact>
</mgrwt>
</event>
<event>
12    1  0.1562393E-007  0.2087357E+04  0.7818608E-02  0.8566833E-01
         -2   -1    0    0    0  501 -0.00000000000E+00  0.00000000000E+00  0.38009156168E+03  0.38009156168E+03  0.00000000000E+00 0.  1.
          2   -1    0    0  501    0  0.00000000000E+00 -0.00000000000E+00 -0.28657947839E+04  0.28657947839E+04  0.00000000000E+00 0. -1.
         23    2    1    2    0    0 -0.23849724229E+03  0.69533277067E+03 -0.35644770516E+03  0.82299370134E+03  0.99473963351E+02 0.  0.
        254    2    1    2    0    0  0.23849724229E+03 -0.69533277067E+03 -0.21292555170E+04  0.24228926442E+04  0.89236265722E+03 0.  0.
        -24    2    4    4    0    0  0.47871036614E+03 -0.62164406626E+03 -0.19515001740E+04  0.21048191767E+04  0.79409554685E+02 0.  0.
         24    2    4    4    0    0 -0.24021312386E+03 -0.73688704418E+02 -0.17775534299E+03  0.31807346755E+03  0.80258325221E+02 0.  0.
         13    1    3    3    0    0 -0.14681819938E+03  0.47845095054E+03 -0.28962230534E+03  0.57823176625E+03  0.00000000000E+00 0.  1.
        -13    1    3    3    0    0 -0.91679042905E+02  0.21688182013E+03 -0.66825399820E+02  0.24476193510E+03  0.00000000000E+00 0. -1.
          4    1    6    6  502    0 -0.13363838697E+03 -0.79163004420E+02 -0.12301131976E+03  0.19813577297E+03  0.00000000000E+00 0. -1.
          1    1    5    5  503    0  0.41670616800E+03 -0.49094796386E+03 -0.15958569852E+04  0.17208815912E+04  0.00000000000E+00 0. -1.
         -2    1    5    5    0  503  0.62004198145E+02 -0.13069610240E+03 -0.35564318885E+03  0.38393758548E+03  0.00000000000E+00 0.  1.
         -3    1    6    6    0  502 -0.10657473688E+03  0.54743000024E+01 -0.54744023239E+02  0.11993769459E+03  0.00000000000E+00 0.  1.
<mgrwt>
<rscale>  0 0.20873566E+04</rscale>
<asrwt>0</asrwt>
<pdfrwt beam="1">  1        2 0.44089150E+00 0.20873566E+04</pdfrwt>
<pdfrwt beam="2">  1       -2 0.58475626E-01 0.20873566E+04</pdfrwt>
<totfact> 0.53264469E+00</totfact>
</mgrwt>
</event>
<event>
12    1  0.1562393E-007  0.3604762E+04  0.7818608E-02  0.8089402E-01
         -2   -1    0    0    0  501 -0.00000000000E+00  0.00000000000E+00  0.13482852265E+04  0.13482852265E+04  0.00000000000E+00 0.  1.
          2   -1    0    0  501    0  0.00000000000E+00 -0.00000000000E+00 -0.24094139176E+04  0.24094139176E+04  0.00000000000E+00 0. -1.
         23    2    1    2    0    0  0.85072196422E+02  0.16534027188E+04 -0.84719909938E+03  0.18619325730E+04  0.89826293540E+02 0.  0.
        254    2    1    2    0    0 -0.85072196422E+02 -0.16534027188E+04 -0.21392959173E+03  0.18957665712E+04  0.89843597050E+03 0.  0.
        -24    2    4    4    0    0 -0.11022948496E+03  0.41330376868E+02  0.95281394124E+02  0.17095968358E+03  0.79309078520E+02 0.  0.
         24    2    4    4    0    0  0.25157288538E+02 -0.16947330957E+04 -0.30921098585E+03  0.17248068876E+04  0.81204747739E+02 0.  0.
         11    1    3    3    0    0 -0.77348711719E+00  0.91390751437E+02 -0.70106852243E+02  0.11518610360E+03  0.00000000000E+00 0.  1.
        -11    1    3    3    0    0  0.85845683539E+02  0.15620119674E+04 -0.77709224713E+03  0.17467464694E+04  0.00000000000E+00 0. -1.
          2    1    6    6  502    0  0.44065442279E+01 -0.12442210141E+03 -0.15701430950E+01  0.12451000883E+03  0.00000000000E+00 0. -1.
          1    1    5    5  503    0 -0.31587791324E+02 -0.15709122310E+02  0.55964648539E+02  0.66155929217E+02  0.00000000000E+00 0. -1.
         -2    1    5    5    0  503 -0.78641693636E+02  0.57039499178E+02  0.39316745585E+02  0.10480375436E+03  0.00000000000E+00 0.  1.
         -1    1    6    6    0  502  0.20750744310E+02 -0.15703109943E+04 -0.30764084276E+03  0.16002968788E+04  0.00000000000E+00 0.  1.
<mgrwt>
<rscale>  0 0.36047620E+04</rscale>
<asrwt>0</asrwt>
<pdfrwt beam="1">  1        2 0.37067906E+00 0.36047620E+04</pdfrwt>
<pdfrwt beam="2">  1       -2 0.20742850E+00 0.36047620E+04</pdfrwt>
<totfact> 0.38054996E-01</totfact>
</mgrwt>
</event>
<event>
12    1  0.1562393E-007  0.1426764E+04  0.7818608E-02  0.8934670E-01
          2   -1    0    0  501    0  0.00000000000E+00  0.00000000000E+00  0.11055262380E+04  0.11055262380E+04  0.00000000000E+00 0. -1.
         -2   -1    0    0    0  501 -0.00000000000E+00 -0.00000000000E+00 -0.46033617866E+03  0.46033617866E+03  0.00000000000E+00 0.  1.
         23    2    1    2    0    0  0.47632198624E+03  0.84532128367E+02  0.19339199467E+03  0.52945330889E+03  0.94297547082E+02 0.  0.
        254    2    1    2    0    0 -0.47632198624E+03 -0.84532128367E+02  0.45179806464E+03  0.10364091077E+04  0.79749233983E+03 0.  0.
        -24    2    4    4    0    0 -0.16622911560E+03  0.37522050094E+02  0.62447329078E+03  0.65302532183E+03  0.86227356078E+02 0.  0.
         24    2    4    4    0    0 -0.31009287064E+03 -0.12205417846E+03 -0.17267522614E+03  0.38338378591E+03  0.78176612047E+02 0.  0.
         13    1    3    3    0    0  0.37734491323E+01  0.13021504920E+02 -0.79557005053E+00  0.13580553760E+02  0.00000000000E+00 0. -1.
        -13    1    3    3    0    0  0.47254853711E+03  0.71510623447E+02  0.19418756472E+03  0.51587275513E+03  0.00000000000E+00 0.  1.
          2    1    6    6  502    0 -0.10608789636E+02  0.93764695240E+01 -0.13841875468E+02  0.19800558446E+02  0.00000000000E+00 0. -1.
          1    1    5    5  503    0 -0.77729377325E+02 -0.26062329941E+02  0.26246865077E+03  0.27497435113E+03  0.00000000000E+00 0. -1.
         -2    1    5    5    0  503 -0.88499738274E+02  0.63584380036E+02  0.36200464001E+03  0.37805097070E+03  0.00000000000E+00 0.  1.
         -1    1    6    6    0  502 -0.29948408101E+03 -0.13143064798E+03 -0.15883335067E+03  0.36358322746E+03  0.00000000000E+00 0.  1.
<mgrwt>
<rscale>  0 0.14267638E+04</rscale>
<asrwt>0</asrwt>
<pdfrwt beam="1">  1        2 0.17008096E+00 0.14267638E+04</pdfrwt>
<pdfrwt beam="2">  1       -2 0.70820951E-01 0.14267638E+04</pdfrwt>
<totfact> 0.38055846E+01</totfact>
</mgrwt>
</event>
<event>
12    1  0.1562393E-007  0.1510791E+04  0.7818608E-02  0.8877309E-01
          1   -1    0    0  501    0  0.00000000000E+00  0.00000000000E+00  0.62575283187E+03  0.62575283187E+03  0.00000000000E+00 0. -1.
         -1   -1    0    0    0  501 -0.00000000000E+00 -0.00000000000E+00 -0.91189703461E+03  0.91189703461E+03  0.00000000000E+00 0.  1.
         23    2    1    2    0    0 -0.67320197183E+02  0.25890143355E+03  0.31409892132E+03  0.42105611121E+03  0.84072321101E+02 0.  0.
        254    2    1    2    0    0  0.67320197183E+02 -0.25890143355E+03 -0.60024312405E+03  0.11165937553E+04  0.90273354047E+03 0.  0.
        -24    2    4    4    0    0 -0.70743028373E+01 -0.57966406300E+03 -0.27286019168E+03  0.64542495336E+03  0.77847379709E+02 0.  0.
         24    2    4    4    0    0  0.74394500021E+02  0.32076262944E+03 -0.32738293237E+03  0.47116880190E+03  0.79982806912E+02 0.  0.
         11    1    3    3    0    0 -0.33022170117E+02  0.23105092553E+03  0.23993494110E+03  0.33472939797E+03  0.00000000000E+00 0. -1.
        -11    1    3    3    0    0 -0.34298027066E+02  0.27850508027E+02  0.74163980217E+02  0.86326713244E+02  0.00000000000E+00 0.  1.
          2    1    6    6  502    0  0.61146476069E+02  0.13079552942E+03 -0.17764889211E+03  0.22892245612E+03  0.00000000000E+00 0. -1.
          3    1    5    5  503    0 -0.13076722509E+02 -0.57639822407E+03 -0.27425198304E+03  0.63845130088E+03  0.00000000000E+00 0. -1.
         -4    1    5    5    0  503  0.60024196719E+01 -0.32658389220E+01  0.13917913628E+01  0.69736524849E+01  0.00000000000E+00 0.  1.
         -1    1    6    6    0  502  0.13248023951E+02  0.18996710003E+03 -0.14973404026E+03  0.24224634578E+03  0.00000000000E+00 0.  1.
<mgrwt>
<rscale>  0 0.15107907E+04</rscale>
<asrwt>0</asrwt>
<pdfrwt beam="1">  1        1 0.96269666E-01 0.15107907E+04</pdfrwt>
<pdfrwt beam="2">  1       -1 0.14029185E+00 0.15107907E+04</pdfrwt>
<totfact> 0.12981502E+01</totfact>
</mgrwt>
</event>
<event>
12    1  0.1562393E-007  0.1247019E+04  0.7818608E-02  0.9072668E-01
         -2   -1    0    0    0  501 -0.00000000000E+00  0.00000000000E+00  0.18600733672E+03  0.18600733672E+03  0.00000000000E+00 0.  1.
          2   -1    0    0  501    0  0.00000000000E+00 -0.00000000000E+00 -0.20900479321E+04  0.20900479321E+04  0.00000000000E+00 0. -1.
         23    2    1    2    0    0 -0.79555332608E+02  0.49529474235E+01 -0.95177141240E+03  0.95891453123E+03  0.85408864304E+02 0.  0.
        254    2    1    2    0    0  0.79555332608E+02 -0.49529474235E+01 -0.95226918303E+03  0.13171407376E+04  0.90647092792E+03 0.  0.
        -24    2    4    4    0    0  0.34992973822E+02 -0.26995431159E+03  0.36697345114E+02  0.28910420580E+03  0.90192616723E+02 0.  0.
         24    2    4    4    0    0  0.44562358786E+02  0.26500136417E+03 -0.98896652815E+03  0.10280365318E+04  0.81195998474E+02 0.  0.
         13    1    3    3    0    0 -0.40848444912E+02  0.99103988549E+01 -0.82955776632E+03  0.83062199532E+03  0.00000000000E+00 0. -1.
        -13    1    3    3    0    0 -0.38706887696E+02 -0.49574514315E+01 -0.12221364608E+03  0.12829253590E+03  0.00000000000E+00 0.  1.
          2    1    6    6  502    0 -0.23023360543E+02  0.55958565611E+02 -0.18897443524E+03  0.19842573767E+03  0.00000000000E+00 0. -1.
          3    1    5    5  503    0  0.40313965313E+02 -0.46775208485E+02  0.21340277471E+02  0.65334090417E+02  0.00000000000E+00 0. -1.
         -4    1    5    5    0  503 -0.53209914910E+01 -0.22317910310E+03  0.15357067644E+02  0.22377011538E+03  0.00000000000E+00 0.  1.
         -1    1    6    6    0  502  0.67585719330E+02  0.20904279855E+03 -0.79999209291E+03  0.82961079417E+03  0.00000000000E+00 0.  1.
<mgrwt>
<rscale>  0 0.12470192E+04</rscale>
<asrwt>0</asrwt>
<pdfrwt beam="1">  1        2 0.32154584E+00 0.12470192E+04</pdfrwt>
<pdfrwt beam="2">  1       -2 0.28616513E-01 0.12470192E+04</pdfrwt>
<totfact> 0.65660474E+01</totfact>
</mgrwt>
</event>
<event>
12    1  0.1562393E-007  0.2858270E+04  0.7818608E-02  0.8285403E-01
          2   -1    0    0  501    0  0.00000000000E+00  0.00000000000E+00  0.14736183463E+04  0.14736183463E+04  0.00000000000E+00 0. -1.
         -2   -1    0    0    0  501 -0.00000000000E+00 -0.00000000000E+00 -0.13859941037E+04  0.13859941037E+04  0.00000000000E+00 0.  1.
         23    2    1    2    0    0  0.10945045586E+04 -0.16982163514E+03 -0.62389852289E+03  0.12743379564E+04  0.88928306190E+02 0.  0.
        254    2    1    2    0    0 -0.10945045586E+04  0.16982163514E+03  0.71152276557E+03  0.15852744936E+04  0.88320493514E+03 0.  0.
        -24    2    4    4    0    0  0.81319929586E+02  0.20700497915E+03  0.96804952501E+02  0.25537717450E+03  0.79889361536E+02 0.  0.
         24    2    4    4    0    0 -0.11758244882E+04 -0.37183344013E+02  0.61471781307E+03  0.13298973191E+04  0.82480673021E+02 0.  0.
         11    1    3    3    0    0  0.55432020641E+03 -0.95694603655E+02 -0.36657521378E+03  0.67142068464E+03  0.00000000000E+00 0.  1.
        -11    1    3    3    0    0  0.54018435222E+03 -0.74127031486E+02 -0.25732330911E+03  0.60291727177E+03  0.00000000000E+00 0. -1.
          2    1    6    6  502    0 -0.10129924093E+04 -0.40776954992E+02  0.55929154035E+03  0.11578529304E+04  0.00000000000E+00 0. -1.
          1    1    5    5  503    0  0.92828702228E+02  0.19331548937E+03  0.75020579475E+02  0.22719184345E+03  0.00000000000E+00 0. -1.
         -2    1    5    5    0  503 -0.11508772642E+02  0.13689489786E+02  0.21784373027E+02  0.28185331052E+02  0.00000000000E+00 0.  1.
         -1    1    6    6    0  502 -0.16283207888E+03  0.35936109788E+01  0.55426272716E+02  0.17204438863E+03  0.00000000000E+00 0.  1.
<mgrwt>
<rscale>  0 0.28582696E+04</rscale>
<asrwt>0</asrwt>
<pdfrwt beam="1">  1        2 0.22671051E+00 0.28582696E+04</pdfrwt>
<pdfrwt beam="2">  1       -2 0.21322986E+00 0.28582696E+04</pdfrwt>
<totfact> 0.12421187E+00</totfact>
</mgrwt>
</event>
<event>
12    1  0.1562393E-007  0.1478014E+04  0.7818608E-02  0.8899206E-01
          1   -1    0    0  501    0  0.00000000000E+00  0.00000000000E+00  0.44715680544E+03  0.44715680544E+03  0.00000000000E+00 0. -1.
         -1   -1    0    0    0  501 -0.00000000000E+00 -0.00000000000E+00 -0.12213427207E+04  0.12213427207E+04  0.00000000000E+00 0.  1.
         23    2    1    2    0    0  0.27226926571E+03 -0.32743531129E+03 -0.60195146198E+02  0.44035330342E+03  0.94568176841E+02 0.  0.
        254    2    1    2    0    0 -0.27226926571E+03  0.32743531129E+03 -0.71399076903E+03  0.12281462227E+04  0.90399993911E+03 0.  0.
        -24    2    4    4    0    0 -0.18864281513E+03 -0.13056344997E+03  0.11970511327E+03  0.27023710044E+03  0.77883567867E+02 0.  0.
         24    2    4    4    0    0 -0.83626450583E+02  0.45799876126E+03 -0.83369588231E+03  0.95790912225E+03  0.76057963135E+02 0.  0.
         13    1    3    3    0    0  0.24778167712E+03 -0.32842037093E+03 -0.60577553755E+02  0.41584292657E+03  0.00000000000E+00 0.  1.
        -13    1    3    3    0    0  0.24487588592E+02  0.98505964060E+00  0.38240755652E+00  0.24510376845E+02  0.00000000000E+00 0. -1.
          4    1    6    6  502    0 -0.97258381815E+02  0.36932934133E+03 -0.66684508178E+03  0.76846972503E+03  0.00000000000E+00 0. -1.
          3    1    5    5  503    0 -0.14463494417E+03 -0.12251807222E+03  0.66859610424E+02  0.20099789203E+03  0.00000000000E+00 0. -1.
         -4    1    5    5    0  503 -0.44007870961E+02 -0.80453777460E+01  0.52845502851E+02  0.69239208409E+02  0.00000000000E+00 0.  1.
         -3    1    6    6    0  502  0.13631931232E+02  0.88669419930E+02 -0.16685080053E+03  0.18943939722E+03  0.00000000000E+00 0.  1.
<mgrwt>
<rscale>  0 0.14780145E+04</rscale>
<asrwt>0</asrwt>
<pdfrwt beam="1">  1        1 0.68793354E-01 0.14780145E+04</pdfrwt>
<pdfrwt beam="2">  1       -1 0.18789888E+00 0.14780145E+04</pdfrwt>
<totfact> 0.91485043E+00</totfact>
</mgrwt>
</event>
<event>
12    1  0.2138269E-007  0.2709101E+04  0.7818608E-02  0.8332058E-01
         -1   -1    0    0    0  501 -0.00000000000E+00  0.00000000000E+00  0.11331539939E+04  0.11331539939E+04  0.00000000000E+00 0.  1.
          1   -1    0    0  501    0  0.00000000000E+00 -0.00000000000E+00 -0.16192035442E+04  0.16192035442E+04  0.00000000000E+00 0. -1.
         23    2    1    2    0    0  0.10519247018E+03  0.10328226325E+04 -0.83429914040E+03  0.13349017891E+04  0.90109293699E+02 0.  0.
        254    2    1    2    0    0 -0.10519247018E+03 -0.10328226325E+04  0.34824959013E+03  0.14174557491E+04  0.90006387414E+03 0.  0.
        -24    2    4    4    0    0  0.10574769907E+03 -0.49839848203E+03 -0.25942423859E+03  0.57740662982E+03  0.80708474366E+02 0.  0.
         24    2    4    4    0    0 -0.21094016925E+03 -0.53442415048E+03  0.60767382873E+03  0.84004911926E+03  0.79436219847E+02 0.  0.
         13    1    3    3    0    0  0.11054093090E+03  0.92980719104E+03 -0.77794761190E+03  0.12173591076E+04  0.00000000000E+00 0. -1.
        -13    1    3    3    0    0 -0.53484607213E+01  0.10301544147E+03 -0.56351528503E+02  0.11754268152E+03  0.00000000000E+00 0.  1.
          2    1    6    6  502    0 -0.21445256861E+03 -0.48920665085E+03  0.55016194808E+03  0.76680585582E+03  0.00000000000E+00 0. -1.
          3    1    5    5  503    0  0.11231720129E+03 -0.39578319826E+03 -0.22532628330E+03  0.46907507680E+03  0.00000000000E+00 0. -1.
         -4    1    5    5    0  503 -0.65695022198E+01 -0.10261528378E+03 -0.34097955292E+02  0.10833155302E+03  0.00000000000E+00 0.  1.
         -1    1    6    6    0  502  0.35123993544E+01 -0.45217499634E+02  0.57511880650E+02  0.73243263433E+02  0.00000000000E+00 0.  1.
<mgrwt>
<rscale>  0 0.27091009E+04</rscale>
<asrwt>0</asrwt>
<pdfrwt beam="1">  1        1 0.24910824E+00 0.27091009E+04</pdfrwt>
<pdfrwt beam="2">  1       -1 0.17433138E+00 0.27091009E+04</pdfrwt>
<totfact> 0.10803616E+00</totfact>
</mgrwt>
</event>
<event>
12    1  0.1562393E-007  0.1056674E+04  0.7818608E-02  0.9248480E-01
          2   -1    0    0  501    0  0.00000000000E+00  0.00000000000E+00  0.28532443258E+03  0.28532443258E+03  0.00000000000E+00 0. -1.
         -2   -1    0    0    0  501 -0.00000000000E+00 -0.00000000000E+00 -0.97832545960E+03  0.97832545960E+03  0.00000000000E+00 0.  1.
         23    2    1    2    0    0  0.71005452669E+02  0.57671084320E+02 -0.19725862348E+02  0.12930736570E+03  0.89238763461E+02 0.  0.
        254    2    1    2    0    0 -0.71005452669E+02 -0.57671084320E+02 -0.67327516467E+03  0.11343425265E+04  0.90833132266E+03 0.  0.
        -24    2    4    4    0    0 -0.39694043827E+03 -0.58556845014E+02 -0.31928556183E+02  0.41036310792E+03  0.79923913852E+02 0.  0.
         24    2    4    4    0    0  0.32593498560E+03  0.88576069464E+00 -0.64134660849E+03  0.72397941855E+03  0.81156188015E+02 0.  0.
         13    1    3    3    0    0  0.69826387375E+02  0.64342507681E+02  0.13045607226E+02  0.95842947244E+02  0.00000000000E+00 0. -1.
        -13    1    3    3    0    0  0.11790652942E+01 -0.66714233614E+01 -0.32771469575E+02  0.33464418458E+02  0.00000000000E+00 0.  1.
          2    1    6    6  502    0  0.45516245813E+01 -0.13427650625E+02 -0.26087321986E+02  0.29691201660E+02  0.00000000000E+00 0. -1.
          3    1    5    5  503    0 -0.70935280984E+02 -0.23204315720E+02 -0.34997680043E+02  0.82432347805E+02  0.00000000000E+00 0. -1.
         -4    1    5    5    0  503 -0.32600515729E+03 -0.35352529295E+02  0.30691238603E+01  0.32793076011E+03  0.00000000000E+00 0.  1.
         -1    1    6    6    0  502  0.32138336102E+03  0.14313411319E+02 -0.61525928650E+03  0.69428821689E+03  0.00000000000E+00 0.  1.
<mgrwt>
<rscale>  0 0.10566743E+04</rscale>
<asrwt>0</asrwt>
<pdfrwt beam="1">  1        2 0.43896067E-01 0.10566743E+04</pdfrwt>
<pdfrwt beam="2">  1       -2 0.15051161E+00 0.10566743E+04</pdfrwt>
<totfact> 0.34279781E+01</totfact>
</mgrwt>
</event>
<event>
12    1  0.1562393E-007  0.1979080E+04  0.7818608E-02  0.8616465E-01
         -1   -1    0    0    0  501 -0.00000000000E+00  0.00000000000E+00  0.41983608861E+03  0.41983608861E+03  0.00000000000E+00 0.  1.
          1   -1    0    0  501    0  0.00000000000E+00 -0.00000000000E+00 -0.23323126303E+04  0.23323126303E+04  0.00000000000E+00 0. -1.
         23    2    1    2    0    0 -0.53678153208E+03 -0.56830474041E+03 -0.75892867036E+03  0.10929050015E+04  0.85813311719E+02 0.  0.
        254    2    1    2    0    0  0.53678153208E+03  0.56830474041E+03 -0.11535478714E+04  0.16592437175E+04  0.90072877783E+03 0.  0.
        -24    2    4    4    0    0  0.70077089042E+03  0.38776482370E+03 -0.11486046240E+04  0.14027409845E+04  0.83356389961E+02 0.  0.
         24    2    4    4    0    0 -0.16398935835E+03  0.18053991671E+03 -0.49432473302E+01  0.25650273300E+03  0.79259353788E+02 0.  0.
         13    1    3    3    0    0 -0.89278651335E+02 -0.64885353319E+02 -0.13893742758E+03  0.17743842719E+03  0.00000000000E+00 0. -1.
        -13    1    3    3    0    0 -0.44750288074E+03 -0.50341938709E+03 -0.61999124278E+03  0.91546657432E+03  0.00000000000E+00 0.  1.
          2    1    6    6  502    0  0.31467986460E+01 -0.33701451927E+00 -0.96787737345E+01  0.10183053644E+02  0.00000000000E+00 0. -1.
          1    1    5    5  503    0  0.17989580576E+03  0.89123548085E+02 -0.35168683488E+03  0.40495572299E+03  0.00000000000E+00 0. -1.
         -2    1    5    5    0  503  0.52087508467E+03  0.29864127562E+03 -0.79691778915E+03  0.99778526147E+03  0.00000000000E+00 0.  1.
         -1    1    6    6    0  502 -0.16713615699E+03  0.18087693123E+03  0.47355264043E+01  0.24631967935E+03  0.00000000000E+00 0.  1.
<mgrwt>
<rscale>  0 0.19790796E+04</rscale>
<asrwt>0</asrwt>
<pdfrwt beam="1">  1        1 0.35881733E+00 0.19790796E+04</pdfrwt>
<pdfrwt beam="2">  1       -1 0.64590167E-01 0.19790796E+04</pdfrwt>
<totfact> 0.39956426E+00</totfact>
</mgrwt>
</event>
<event>
12    1  0.1562393E-007  0.1583221E+04  0.7818608E-02  0.8830923E-01
          2   -1    0    0  501    0  0.00000000000E+00  0.00000000000E+00  0.30157320634E+04  0.30157320634E+04  0.00000000000E+00 0. -1.
         -2   -1    0    0    0  501 -0.00000000000E+00 -0.00000000000E+00 -0.20779275973E+03  0.20779275973E+03  0.00000000000E+00 0.  1.
         23    2    1    2    0    0  0.10322194436E+03 -0.45246060098E+03  0.48935664129E+03  0.68064806361E+03  0.91850415760E+02 0.  0.
        254    2    1    2    0    0 -0.10322194436E+03  0.45246060098E+03  0.23185826624E+04  0.25428767596E+04  0.93542572480E+03 0.  0.
        -24    2    4    4    0    0 -0.18547147562E+03  0.42099613095E+03  0.38348806479E+03  0.60415305590E+03  0.79375113049E+02 0.  0.
         24    2    4    4    0    0  0.82249531258E+02  0.31464470028E+02  0.19350945976E+04  0.19387237037E+04  0.79394578491E+02 0.  0.
         11    1    3    3    0    0  0.10298846216E+03 -0.41754098281E+03  0.41102622771E+03  0.59488625428E+03  0.00000000000E+00 0.  1.
        -11    1    3    3    0    0  0.23348220405E+00 -0.34919618170E+02  0.78330413581E+02  0.85761809326E+02  0.00000000000E+00 0. -1.
          4    1    6    6  502    0  0.14565598162E+02 -0.17403791893E+02  0.89378877687E+03  0.89407685703E+03  0.00000000000E+00 0. -1.
          1    1    5    5  503    0 -0.81243205986E+02  0.25577942643E+03  0.25597374873E+03  0.37087212560E+03  0.00000000000E+00 0. -1.
         -2    1    5    5    0  503 -0.10422826964E+03  0.16521670452E+03  0.12751431606E+03  0.23328093031E+03  0.00000000000E+00 0.  1.
         -3    1    6    6    0  502  0.67683933095E+02  0.48868261921E+02  0.10413058208E+04  0.10446468466E+04  0.00000000000E+00 0.  1.
<mgrwt>
<rscale>  0 0.15832211E+04</rscale>
<asrwt>0</asrwt>
<pdfrwt beam="1">  1        2 0.46395875E+00 0.15832211E+04</pdfrwt>
<pdfrwt beam="2">  1       -2 0.31968119E-01 0.15832211E+04</pdfrwt>
<totfact> 0.14967312E+01</totfact>
</mgrwt>
</event>
<event>
12    1  0.1562393E-007  0.1694700E+04  0.7818608E-02  0.8764393E-01
         -2   -1    0    0    0  501 -0.00000000000E+00  0.00000000000E+00  0.31646901106E+03  0.31646901106E+03  0.00000000000E+00 0.  1.
          2   -1    0    0  501    0  0.00000000000E+00 -0.00000000000E+00 -0.22687911572E+04  0.22687911572E+04  0.00000000000E+00 0. -1.
         23    2    1    2    0    0 -0.49333843997E+03 -0.20366865132E+03 -0.28994875531E+03  0.61407359423E+03  0.90290434373E+02 0.  0.
        254    2    1    2    0    0  0.49333843997E+03  0.20366865132E+03 -0.16623733909E+04  0.19711865741E+04  0.91500135697E+03 0.  0.
        -24    2    4    4    0    0 -0.66593661575E+02 -0.12023039895E+03 -0.10962980473E+04  0.11075930053E+04  0.77477689041E+02 0.  0.
         24    2    4    4    0    0  0.55993210155E+03  0.32389905028E+03 -0.56607534353E+03  0.86359356873E+03  0.83174541077E+02 0.  0.
         13    1    3    3    0    0 -0.46981239366E+03 -0.16899282494E+03 -0.27096463808E+03  0.56807050197E+03  0.00000000000E+00 0. -1.
        -13    1    3    3    0    0 -0.23526046309E+02 -0.34675826385E+02 -0.18984117231E+02  0.46003092260E+02  0.00000000000E+00 0.  1.
          4    1    6    6  502    0  0.28919981104E+03  0.12449091766E+03 -0.24882080112E+03  0.40130575669E+03  0.00000000000E+00 0. -1.
          3    1    5    5  503    0 -0.18431477129E+02 -0.19953427400E+02 -0.51684658898E+03  0.51755990490E+03  0.00000000000E+00 0. -1.
         -4    1    5    5    0  503 -0.48162184446E+02 -0.10027697155E+03 -0.57945145834E+03  0.59003310044E+03  0.00000000000E+00 0.  1.
         -3    1    6    6    0  502  0.27073229051E+03  0.19940813261E+03 -0.31725454241E+03  0.46228781203E+03  0.00000000000E+00 0.  1.
<mgrwt>
<rscale>  0 0.16947001E+04</rscale>
<asrwt>0</asrwt>
<pdfrwt beam="1">  1        2 0.34904479E+00 0.16947001E+04</pdfrwt>
<pdfrwt beam="2">  1       -2 0.48687541E-01 0.16947001E+04</pdfrwt>
<totfact> 0.17971775E+01</totfact>
</mgrwt>
</event>
<event>
12    1  0.1562393E-007  0.2059789E+04  0.7818608E-02  0.8579166E-01
          1   -1    0    0  501    0  0.00000000000E+00  0.00000000000E+00  0.16270430459E+04  0.16270430459E+04  0.00000000000E+00 0. -1.
         -1   -1    0    0    0  501 -0.00000000000E+00 -0.00000000000E+00 -0.65190816170E+03  0.65190816170E+03  0.00000000000E+00 0.  1.
         23    2    1    2    0    0  0.35507460216E+03  0.49056134631E+03 -0.23015301665E+03  0.65410238298E+03  0.90283491057E+02 0.  0.
        254    2    1    2    0    0 -0.35507460216E+03 -0.49056134631E+03  0.12052879009E+04  0.16248488246E+04  0.90591741970E+03 0.  0.
        -24    2    4    4    0    0 -0.27765108407E+03 -0.66960913819E+03  0.48856462193E+03  0.87765744497E+03  0.78234765174E+02 0.  0.
         24    2    4    4    0    0 -0.77423518087E+02  0.17904779188E+03  0.71672327894E+03  0.74719137965E+03  0.80933221403E+02 0.  0.
         11    1    3    3    0    0  0.16637827031E+03  0.17275810428E+03 -0.12146782353E+03  0.26885223372E+03  0.00000000000E+00 0.  1.
        -11    1    3    3    0    0  0.18869633185E+03  0.31780324204E+03 -0.10868519312E+03  0.38525014926E+03  0.00000000000E+00 0. -1.
          4    1    6    6  502    0 -0.17699097047E+02  0.11801676530E+03  0.50473409029E+03  0.51864989813E+03  0.00000000000E+00 0. -1.
          3    1    5    5  503    0 -0.18460500617E+03 -0.49926300266E+03  0.32375171884E+03  0.62302305702E+03  0.00000000000E+00 0. -1.
         -4    1    5    5    0  503 -0.93046077901E+02 -0.17034613553E+03  0.16481290309E+03  0.25463438795E+03  0.00000000000E+00 0.  1.
         -3    1    6    6    0  502 -0.59724421039E+02  0.61031026571E+02  0.21198918864E+03  0.22854148152E+03  0.00000000000E+00 0.  1.
<mgrwt>
<rscale>  0 0.20597890E+04</rscale>
<asrwt>0</asrwt>
<pdfrwt beam="1">  1        1 0.25031431E+00 0.20597890E+04</pdfrwt>
<pdfrwt beam="2">  1       -1 0.10029356E+00 0.20597890E+04</pdfrwt>
<totfact> 0.46710761E+00</totfact>
</mgrwt>
</event>
<event>
12    1  0.1562393E-007  0.1163010E+04  0.7818608E-02  0.9145864E-01
         -1   -1    0    0    0  501 -0.00000000000E+00  0.00000000000E+00  0.18968896684E+03  0.18968896684E+03  0.00000000000E+00 0.  1.
          1   -1    0    0  501    0  0.00000000000E+00 -0.00000000000E+00 -0.17826460172E+04  0.17826460172E+04  0.00000000000E+00 0. -1.
         23    2    1    2    0    0 -0.19352987655E+03 -0.26267668343E+02 -0.41278857074E+03  0.47083777942E+03  0.11467347940E+03 0.  0.
        254    2    1    2    0    0  0.19352987655E+03  0.26267668343E+02 -0.11801684796E+04  0.15014972046E+04  0.90749788521E+03 0.  0.
        -24    2    4    4    0    0  0.23922988420E+03  0.25715738443E+03 -0.73990724575E+02  0.36800517113E+03  0.81193108023E+02 0.  0.
         24    2    4    4    0    0 -0.45700007649E+02 -0.23088971609E+03 -0.11061777551E+04  0.11334920335E+04  0.76002713901E+02 0.  0.
         11    1    3    3    0    0  0.78282564557E+01  0.15357527381E+01 -0.83384348959E+02  0.83765086921E+02  0.00000000000E+00 0. -1.
        -11    1    3    3    0    0 -0.20135813301E+03 -0.27803421081E+02 -0.32940422178E+03  0.38707269250E+03  0.00000000000E+00 0.  1.
          4    1    6    6  502    0 -0.59998913377E+02 -0.21434474835E+03 -0.10471214120E+04  0.10705170677E+04  0.00000000000E+00 0. -1.
          1    1    5    5  503    0  0.21250223898E+03  0.20167512255E+03 -0.85854273632E+02  0.30528840942E+03  0.00000000000E+00 0. -1.
         -2    1    5    5    0  503  0.26727645223E+02  0.55482261878E+02  0.11863549056E+02  0.62716761703E+02  0.00000000000E+00 0.  1.
         -3    1    6    6    0  502  0.14298905729E+02 -0.16544967737E+02 -0.59056343026E+02  0.62974965772E+02  0.00000000000E+00 0.  1.
<mgrwt>
<rscale>  0 0.11630104E+04</rscale>
<asrwt>0</asrwt>
<pdfrwt beam="1">  1        1 0.27425324E+00 0.11630104E+04</pdfrwt>
<pdfrwt beam="2">  1       -1 0.29182918E-01 0.11630104E+04</pdfrwt>
<totfact> 0.44528282E+01</totfact>
</mgrwt>
</event>
<event>
12    1  0.1562393E-007  0.2528118E+04  0.7818608E-02  0.8393036E-01
          2   -1    0    0  501    0  0.00000000000E+00  0.00000000000E+00  0.21294251645E+04  0.21294251645E+04  0.00000000000E+00 0.  1.
         -2   -1    0    0    0  501 -0.00000000000E+00 -0.00000000000E+00 -0.75036457727E+03  0.75036457727E+03  0.00000000000E+00 0. -1.
         23    2    1    2    0    0  0.47872486730E+03 -0.71437578673E+02  0.17308612244E+04  0.17996249257E+04  0.92132886011E+02 0.  0.
        254    2    1    2    0    0 -0.47872486730E+03  0.71437578673E+02 -0.35180063721E+03  0.10801648161E+04  0.89928389030E+03 0.  0.
        -24    2    4    4    0    0 -0.62812477641E+03  0.13702163210E+03  0.39348793977E+02  0.64896172238E+03  0.79292667544E+02 0.  0.
         24    2    4    4    0    0  0.14939990911E+03 -0.65584053423E+02 -0.39114943119E+03  0.43120309370E+03  0.79477226910E+02 0.  0.
         13    1    3    3    0    0  0.63411401687E+02 -0.35692430726E+02  0.33701537919E+03  0.34478155589E+03  0.00000000000E+00 0. -1.
        -13    1    3    3    0    0  0.41531346562E+03 -0.35745147947E+02  0.13938458453E+04  0.14548433698E+04  0.00000000000E+00 0.  1.
          2    1    6    6  502    0  0.53290404468E+02 -0.24015083441E+01 -0.58207746784E+02  0.78954266739E+02  0.00000000000E+00 0. -1.
          1    1    5    5  503    0 -0.30964310484E+02  0.97660133077E+01  0.19903686941E+02  0.38083070958E+02  0.00000000000E+00 0. -1.
         -2    1    5    5    0  503 -0.59716046593E+03  0.12725561879E+03  0.19445107036E+02  0.61087865142E+03  0.00000000000E+00 0.  1.
         -3    1    6    6    0  502  0.96109504638E+02 -0.63182545079E+02 -0.33294168440E+03  0.35224882697E+03  0.00000000000E+00 0.  1.
<mgrwt>
<rscale>  0 0.25281180E+04</rscale>
<asrwt>0</asrwt>
<pdfrwt beam="1">  1        2 0.32760387E+00 0.25281180E+04</pdfrwt>
<pdfrwt beam="2">  1       -2 0.11544070E+00 0.25281180E+04</pdfrwt>
<totfact> 0.29403901E+00</totfact>
</mgrwt>
</event>
<event>
12    1  0.1562393E-007  0.2957825E+04  0.7818608E-02  0.8255878E-01
         -2   -1    0    0    0  501 -0.00000000000E+00  0.00000000000E+00  0.27306853181E+04  0.27306853181E+04  0.00000000000E+00 0.  1.
          2   -1    0    0  501    0  0.00000000000E+00 -0.00000000000E+00 -0.80096445241E+03  0.80096445241E+03  0.00000000000E+00 0. -1.
         23    2    1    2    0    0 -0.21277641219E+03 -0.12593615833E+04  0.13472719490E+04  0.18598013623E+04  0.11159750663E+03 0.  0.
        254    2    1    2    0    0  0.21277641219E+03  0.12593615833E+04  0.58244891667E+03  0.16718484082E+04  0.90805559336E+03 0.  0.
        -24    2    4    4    0    0  0.28784113566E+03  0.65429543681E+03  0.74495598474E+03  0.10359166620E+04  0.84905084498E+02 0.  0.
         24    2    4    4    0    0 -0.75064723466E+02  0.60506614646E+03 -0.16250706807E+03  0.63593174626E+03  0.79125750735E+02 0.  0.
         13    1    3    3    0    0 -0.47462577953E+02 -0.17425751202E+03  0.14295576529E+03  0.23033611882E+03  0.00000000000E+00 0.  1.
        -13    1    3    3    0    0 -0.16531383424E+03 -0.10851040712E+04  0.12043161837E+04  0.16294652434E+04  0.00000000000E+00 0. -1.
          4    1    6    6  502    0 -0.44362532437E+02  0.10738812492E+03 -0.31472770191E+02  0.12037765126E+03  0.00000000000E+00 0. -1.
          3    1    5    5  503    0  0.24134606801E+03  0.56664675590E+03  0.67929726615E+03  0.91694124474E+03  0.00000000000E+00 0. -1.
         -4    1    5    5    0  503  0.46495067650E+02  0.87648680914E+02  0.65658718594E+02  0.11897541725E+03  0.00000000000E+00 0.  1.
         -3    1    6    6    0  502 -0.30702191029E+02  0.49767802153E+03 -0.13103429788E+03  0.51555409500E+03  0.00000000000E+00 0.  1.
<mgrwt>
<rscale>  0 0.29578248E+04</rscale>
<asrwt>0</asrwt>
<pdfrwt beam="1">  1        2 0.12322530E+00 0.29578248E+04</pdfrwt>
<pdfrwt beam="2">  1       -2 0.42010543E+00 0.29578248E+04</pdfrwt>
<totfact> 0.16156364E-01</totfact>
</mgrwt>
</event>
<event>
12    1  0.1562393E-007  0.3314770E+04  0.7818608E-02  0.8159147E-01
         -2   -1    0    0    0  501 -0.00000000000E+00  0.00000000000E+00  0.88345240827E+03  0.88345240827E+03  0.00000000000E+00 0.  1.
          2   -1    0    0  501    0  0.00000000000E+00 -0.00000000000E+00 -0.31093073365E+04  0.31093073365E+04  0.00000000000E+00 0. -1.
         23    2    1    2    0    0 -0.76869070355E+03 -0.65346137062E+03 -0.24214030853E+04  0.26247245163E+04  0.89937334039E+02 0.  0.
        254    2    1    2    0    0  0.76869070355E+03  0.65346137062E+03  0.19554815707E+03  0.13680352285E+04  0.90298623697E+03 0.  0.
        -24    2    4    4    0    0  0.34899619755E+03  0.19714926866E+03  0.52155704944E+03  0.66299629914E+03  0.82922595335E+02 0.  0.
         24    2    4    4    0    0  0.41969450601E+03  0.45631210196E+03 -0.32600889237E+03  0.70503892939E+03  0.80211478502E+02 0.  0.
         11    1    3    3    0    0 -0.38136147578E+03 -0.35573798081E+03 -0.13484385736E+04  0.14457775323E+04  0.00000000000E+00 0. -1.
        -11    1    3    3    0    0 -0.38732922778E+03 -0.29772338980E+03 -0.10729645117E+04  0.11789469839E+04  0.00000000000E+00 0.  1.
          4    1    6    6  502    0  0.12503349710E+03  0.18640381714E+03 -0.13738963057E+03  0.26316471844E+03  0.00000000000E+00 0. -1.
          3    1    5    5  503    0  0.83180876798E+02  0.67991977961E+02  0.19447370417E+03  0.22217558134E+03  0.00000000000E+00 0. -1.
         -4    1    5    5    0  503  0.26581532075E+03  0.12915729070E+03  0.32708334528E+03  0.44082071780E+03  0.00000000000E+00 0.  1.
         -1    1    6    6    0  502  0.29466100891E+03  0.26990828482E+03 -0.18861926180E+03  0.44187421096E+03  0.00000000000E+00 0.  1.
<mgrwt>
<rscale>  0 0.33147700E+04</rscale>
<asrwt>0</asrwt>
<pdfrwt beam="1">  1        2 0.47835497E+00 0.33147700E+04</pdfrwt>
<pdfrwt beam="2">  1       -2 0.13591576E+00 0.33147700E+04</pdfrwt>
<totfact> 0.47970455E-01</totfact>
</mgrwt>
</event>
<event>
12    1  0.1562393E-007  0.1589019E+04  0.7818608E-02  0.8827322E-01
          1   -1    0    0  501    0  0.00000000000E+00  0.00000000000E+00  0.17811056501E+04  0.17811056501E+04  0.00000000000E+00 0. -1.
         -1   -1    0    0    0  501 -0.00000000000E+00 -0.00000000000E+00 -0.35441217989E+03  0.35441217989E+03  0.00000000000E+00 0.  1.
         23    2    1    2    0    0  0.39009051958E+03  0.30383976778E+03  0.22375088520E+03  0.55121817651E+03  0.96373240773E+02 0.  0.
        254    2    1    2    0    0 -0.39009051958E+03 -0.30383976778E+03  0.12029425850E+04  0.15842996534E+04  0.90467967328E+03 0.  0.
        -24    2    4    4    0    0 -0.91477685796E+02  0.26594364826E+03  0.71510930228E+03  0.77262355765E+03  0.80446607075E+02 0.  0.
         24    2    4    4    0    0 -0.29861283378E+03 -0.56978341604E+03  0.48783328269E+03  0.81167609579E+03  0.83749669182E+02 0.  0.
         13    1    3    3    0    0  0.18089603329E+03  0.19167400079E+03  0.14683316875E+03  0.30169898390E+03  0.00000000000E+00 0. -1.
        -13    1    3    3    0    0  0.20919448629E+03  0.11216576699E+03  0.76917716454E+02  0.24951919261E+03  0.00000000000E+00 0.  1.
          4    1    6    6  502    0 -0.10466102057E+03 -0.21715680585E+03  0.13400155700E+03  0.27580323572E+03  0.00000000000E+00 0. -1.
          3    1    5    5  503    0 -0.68758587771E+02  0.23332190770E+03  0.66841852278E+03  0.71130174862E+03  0.00000000000E+00 0. -1.
         -4    1    5    5    0  503 -0.22719098025E+02  0.32621740562E+02  0.46690779500E+02  0.61321809030E+02  0.00000000000E+00 0.  1.
         -3    1    6    6    0  502 -0.19395181321E+03 -0.35262661020E+03  0.35383172569E+03  0.53587286008E+03  0.00000000000E+00 0.  1.
<mgrwt>
<rscale>  0 0.15890192E+04</rscale>
<asrwt>0</asrwt>
<pdfrwt beam="1">  1        1 0.27401625E+00 0.15890192E+04</pdfrwt>
<pdfrwt beam="2">  1       -1 0.54524952E-01 0.15890192E+04</pdfrwt>
<totfact> 0.13695321E+01</totfact>
</mgrwt>
</event>
<event>
12    1  0.1562393E-007  0.1071138E+04  0.7818608E-02  0.9233789E-01
         -1   -1    0    0    0  501 -0.00000000000E+00  0.00000000000E+00  0.13642386782E+04  0.13642386782E+04  0.00000000000E+00 0.  1.
          1   -1    0    0  501    0  0.00000000000E+00 -0.00000000000E+00 -0.21025211741E+03  0.21025211741E+03  0.00000000000E+00 0. -1.
         23    2    1    2    0    0 -0.12292352149E+03 -0.71145674051E+02  0.35104729158E+03  0.38966501621E+03  0.91829869136E+02 0.  0.
        254    2    1    2    0    0  0.12292352149E+03  0.71145674051E+02  0.80293926921E+03  0.11848257794E+04  0.85960965468E+03 0.  0.
        -24    2    4    4    0    0  0.11311283429E+03  0.11586190358E+03  0.97363313996E+03  0.99035941111E+03  0.81435729023E+02 0.  0.
         24    2    4    4    0    0  0.98106872082E+01 -0.44716229530E+02 -0.17069387074E+03  0.19446636829E+03  0.81147890430E+02 0.  0.
         11    1    3    3    0    0 -0.73028227699E+02 -0.73909571653E+02  0.30308668262E+03  0.32040175406E+03  0.00000000000E+00 0.  1.
        -11    1    3    3    0    0 -0.49895293795E+02  0.27638976017E+01  0.47960608956E+02  0.69263262154E+02  0.00000000000E+00 0. -1.
          4    1    6    6  502    0  0.16600400953E+02 -0.56182651537E+02 -0.17138640185E+03  0.18112250657E+03  0.00000000000E+00 0. -1.
          3    1    5    5  503    0  0.59775600509E+01  0.51052086716E+02  0.19203081395E+03  0.19879104680E+03  0.00000000000E+00 0. -1.
         -4    1    5    5    0  503  0.10713527423E+03  0.64809816866E+02  0.78160232601E+03  0.79156836430E+03  0.00000000000E+00 0.  1.
         -3    1    6    6    0  502 -0.67897137451E+01  0.11466422007E+02  0.69253111092E+00  0.13343861724E+02  0.00000000000E+00 0.  1.
<mgrwt>
<rscale>  0 0.10711378E+04</rscale>
<asrwt>0</asrwt>
<pdfrwt beam="1">  1        1 0.32346480E-01 0.10711378E+04</pdfrwt>
<pdfrwt beam="2">  1       -1 0.20988287E+00 0.10711378E+04</pdfrwt>
<totfact> 0.17948998E+01</totfact>
</mgrwt>
</event>
<event>
12    1  0.1562393E-007  0.1245505E+04  0.7818608E-02  0.9073933E-01
          1   -1    0    0  501    0  0.00000000000E+00  0.00000000000E+00  0.22039097604E+04  0.22039097604E+04  0.00000000000E+00 0. -1.
         -1   -1    0    0    0  501 -0.00000000000E+00 -0.00000000000E+00 -0.17596934470E+03  0.17596934470E+03  0.00000000000E+00 0.  1.
         23    2    1    2    0    0 -0.17543210378E+02  0.12975156411E+03  0.99449241488E+03  0.10070045399E+04  0.88880523208E+02 0.  0.
        254    2    1    2    0    0  0.17543210378E+02 -0.12975156411E+03  0.10334480008E+04  0.13728745652E+04  0.89421841228E+03 0.  0.
        -24    2    4    4    0    0  0.23931012607E+03  0.22570682342E+03  0.83690169212E+03  0.90285088951E+03  0.80761252063E+02 0.  0.
         24    2    4    4    0    0 -0.22176691569E+03 -0.35545838753E+03  0.19654630868E+03  0.47002367571E+03  0.82222710485E+02 0.  0.
         13    1    3    3    0    0 -0.25691872978E+02 -0.20613426307E+01  0.13727316153E+03  0.13967190966E+03  0.00000000000E+00 0.  1.
        -13    1    3    3    0    0  0.81486625994E+01  0.13181290674E+03  0.85721925335E+03  0.86733263019E+03  0.00000000000E+00 0. -1.
          2    1    6    6  502    0 -0.78355794132E+02 -0.70859642977E+02  0.72075182782E+02  0.12788882457E+03  0.00000000000E+00 0. -1.
          1    1    5    5  503    0  0.14176076088E+01  0.31750223577E+02  0.79870932442E+02  0.85961922720E+02  0.00000000000E+00 0. -1.
         -2    1    5    5    0  503  0.23789251846E+03  0.19395659984E+03  0.75703075968E+03  0.81688896679E+03  0.00000000000E+00 0.  1.
         -1    1    6    6    0  502 -0.14341112156E+03 -0.28459874455E+03  0.12447112590E+03  0.34213485115E+03  0.00000000000E+00 0.  1.
<mgrwt>
<rscale>  0 0.12455048E+04</rscale>
<asrwt>0</asrwt>
<pdfrwt beam="1">  1        1 0.33906302E+00 0.12455048E+04</pdfrwt>
<pdfrwt beam="2">  1       -1 0.27072208E-01 0.12455048E+04</pdfrwt>
<totfact> 0.26151817E+01</totfact>
</mgrwt>
</event>
<event>
12    1  0.1562393E-007  0.1547610E+04  0.7818608E-02  0.8853396E-01
          1   -1    0    0  501    0  0.00000000000E+00  0.00000000000E+00  0.22605132376E+04  0.22605132376E+04  0.00000000000E+00 0. -1.
         -1   -1    0    0    0  501 -0.00000000000E+00 -0.00000000000E+00 -0.26488413973E+03  0.26488413973E+03  0.00000000000E+00 0.  1.
         23    2    1    2    0    0  0.18349237982E+02 -0.22883334754E+03  0.13900269411E+04  0.14120219059E+04  0.94496403216E+02 0.  0.
        254    2    1    2    0    0 -0.18349237982E+02  0.22883334754E+03  0.60560215676E+03  0.11133754714E+04  0.90562109772E+03 0.  0.
        -24    2    4    4    0    0  0.42519580748E+03  0.19987561479E+03  0.24686280227E+03  0.53683596043E+03  0.80683760360E+02 0.  0.
         24    2    4    4    0    0 -0.44354504546E+03  0.28957732756E+02  0.35873935449E+03  0.57653951100E+03  0.78314274863E+02 0.  0.
         13    1    3    3    0    0 -0.15981952028E+01 -0.10009856706E+03  0.35556700441E+03  0.36939162413E+03  0.00000000000E+00 0.  1.
        -13    1    3    3    0    0  0.19947433185E+02 -0.12873478048E+03  0.10344599367E+04  0.10426302817E+04  0.00000000000E+00 0. -1.
          4    1    6    6  502    0 -0.20894407925E+03 -0.25145636877E+02  0.16055536151E+03  0.26470352362E+03  0.00000000000E+00 0. -1.
          1    1    5    5  503    0  0.14326740656E+02 -0.49547139082E+01  0.18988895651E+02  0.24297795081E+02  0.00000000000E+00 0. -1.
         -2    1    5    5    0  503  0.41086906682E+03  0.20483032869E+03  0.22787390661E+03  0.51253816535E+03  0.00000000000E+00 0.  1.
         -3    1    6    6    0  502 -0.23460096621E+03  0.54103369633E+02  0.19818399298E+03  0.31183598738E+03  0.00000000000E+00 0.  1.
<mgrwt>
<rscale>  0 0.15476099E+04</rscale>
<asrwt>0</asrwt>
<pdfrwt beam="1">  1        1 0.34777125E+00 0.15476099E+04</pdfrwt>
<pdfrwt beam="2">  1       -1 0.40751408E-01 0.15476099E+04</pdfrwt>
<totfact> 0.11249587E+01</totfact>
</mgrwt>
</event>
<event>
12    1  0.1562393E-007  0.1227987E+04  0.7818608E-02  0.9088707E-01
          1   -1    0    0  501    0  0.00000000000E+00  0.00000000000E+00  0.24721055835E+04  0.24721055835E+04  0.00000000000E+00 0.  1.
         -1   -1    0    0    0  501 -0.00000000000E+00 -0.00000000000E+00 -0.15249664737E+03  0.15249664737E+03  0.00000000000E+00 0. -1.
         23    2    1    2    0    0  0.22694236015E+03  0.10175013884E+03  0.26976906500E+03  0.37750005651E+03  0.88741301826E+02 0.  0.
        254    2    1    2    0    0 -0.22694236015E+03 -0.10175013884E+03  0.20498398711E+04  0.22471021744E+04  0.88643598708E+03 0.  0.
        -24    2    4    4    0    0 -0.45082209735E+03 -0.34966822730E+03  0.12207502874E+04  0.13496533706E+04  0.76318568743E+02 0.  0.
         24    2    4    4    0    0  0.22387973721E+03  0.24791808847E+03  0.82908958375E+03  0.89744880379E+03  0.80245262876E+02 0.  0.
         13    1    3    3    0    0  0.18670402394E+03  0.67817093591E+02  0.15749521375E+03  0.25350008500E+03  0.00000000000E+00 0. -1.
        -13    1    3    3    0    0  0.40238336207E+02  0.33933045249E+02  0.11227385125E+03  0.12399997151E+03  0.00000000000E+00 0.  1.
          2    1    6    6  502    0  0.13455017128E+02  0.46488626884E+02  0.17215410869E+03  0.17882747847E+03  0.00000000000E+00 0. -1.
          1    1    5    5  503    0 -0.22961716576E+03 -0.22600150316E+03  0.67988013127E+03  0.75235478009E+03  0.00000000000E+00 0. -1.
         -2    1    5    5    0  503 -0.22120493160E+03 -0.12366672415E+03  0.54087015613E+03  0.59729859050E+03  0.00000000000E+00 0.  1.
         -1    1    6    6    0  502  0.21042472008E+03  0.20142946158E+03  0.65693547506E+03  0.71862132532E+03  0.00000000000E+00 0.  1.
<mgrwt>
<rscale>  0 0.12279867E+04</rscale>
<asrwt>0</asrwt>
<pdfrwt beam="1">  1        1 0.38032391E+00 0.12279867E+04</pdfrwt>
<pdfrwt beam="2">  1       -1 0.23461025E-01 0.12279867E+04</pdfrwt>
<totfact> 0.21969831E+01</totfact>
</mgrwt>
</event>
<event>
12    1  0.1562393E-007  0.2547391E+04  0.7818608E-02  0.8386294E-01
         -2   -1    0    0    0  501 -0.00000000000E+00  0.00000000000E+00  0.70869074359E+03  0.70869074359E+03  0.00000000000E+00 0.  1.
          2   -1    0    0  501    0  0.00000000000E+00 -0.00000000000E+00 -0.22891517779E+04  0.22891517779E+04  0.00000000000E+00 0. -1.
         23    2    1    2    0    0  0.24045405809E+03 -0.10580668964E+04 -0.98764185847E+03  0.14701978191E+04  0.93388840548E+02 0.  0.
        254    2    1    2    0    0 -0.24045405809E+03  0.10580668964E+04 -0.59281917581E+03  0.15276447023E+04  0.89718451289E+03 0.  0.
        -24    2    4    4    0    0  0.13276094411E+02  0.48693440103E+03  0.18507973999E+03  0.52667004791E+03  0.76455631703E+02 0.  0.
         24    2    4    4    0    0 -0.25373015250E+03  0.57113249533E+03 -0.77789891580E+03  0.10009746544E+04  0.79070968790E+02 0.  0.
         13    1    3    3    0    0  0.19926299848E+03 -0.70919991316E+03 -0.63741982928E+03  0.97415311843E+03  0.00000000000E+00 0. -1.
        -13    1    3    3    0    0  0.41191059610E+02 -0.34886698320E+03 -0.35022202919E+03  0.49604470069E+03  0.00000000000E+00 0.  1.
          4    1    6    6  502    0 -0.99089502246E+02  0.20468277697E+03 -0.22526827894E+03  0.32009305856E+03  0.00000000000E+00 0. -1.
          3    1    5    5  503    0  0.34868086965E+02  0.18840195295E+03  0.96470067608E+02  0.21451702336E+03  0.00000000000E+00 0. -1.
         -4    1    5    5    0  503 -0.21591992554E+02  0.29853244808E+03  0.88609672382E+02  0.31215302455E+03  0.00000000000E+00 0.  1.
         -3    1    6    6    0  502 -0.15464065025E+03  0.36644971835E+03 -0.55263063687E+03  0.68088159587E+03  0.00000000000E+00 0.  1.
<mgrwt>
<rscale>  0 0.25473914E+04</rscale>
<asrwt>0</asrwt>
<pdfrwt beam="1">  1        2 0.35217719E+00 0.25473914E+04</pdfrwt>
<pdfrwt beam="2">  1       -2 0.10902935E+00 0.25473914E+04</pdfrwt>
<totfact> 0.27418584E+00</totfact>
</mgrwt>
</event>
<event>
12    1  0.1562393E-007  0.1605771E+04  0.7818608E-02  0.8817010E-01
         -1   -1    0    0    0  501 -0.00000000000E+00  0.00000000000E+00  0.50910786771E+03  0.50910786771E+03  0.00000000000E+00 0.  1.
          1   -1    0    0  501    0  0.00000000000E+00 -0.00000000000E+00 -0.12661858240E+04  0.12661858240E+04  0.00000000000E+00 0. -1.
         23    2    1    2    0    0 -0.16319928233E+03  0.47531637208E+03 -0.49803671165E+03  0.71374809075E+03  0.94000593495E+02 0.  0.
        254    2    1    2    0    0  0.16319928233E+03 -0.47531637208E+03 -0.25904124467E+03  0.10615456010E+04  0.89845257928E+03 0.  0.
        -24    2    4    4    0    0  0.33374668605E+01 -0.38361771951E+03  0.28286892383E+03  0.48285955734E+03  0.77232316030E+02 0.  0.
         24    2    4    4    0    0  0.15986181547E+03 -0.91698652574E+02 -0.54191016850E+03  0.57868604364E+03  0.85126161982E+02 0.  0.
         11    1    3    3    0    0 -0.15627754300E+03  0.47714483950E+03 -0.49707946672E+03  0.70652520446E+03  0.00000000000E+00 0. -1.
        -11    1    3    3    0    0 -0.69217393333E+01 -0.18284674148E+01 -0.95724492717E+00  0.72228862884E+01  0.00000000000E+00 0.  1.
          2    1    6    6  502    0  0.91628356157E+02 -0.90716615151E+02 -0.28397771535E+03  0.31187914764E+03  0.00000000000E+00 0. -1.
          3    1    5    5  503    0 -0.10900790233E+02 -0.24202240974E+03  0.22011181356E+03  0.32732687716E+03  0.00000000000E+00 0. -1.
         -4    1    5    5    0  503  0.14238257093E+02 -0.14159530977E+03  0.62757110268E+02  0.15553268018E+03  0.00000000000E+00 0.  1.
         -1    1    6    6    0  502  0.68233459314E+02 -0.98203742280E+00 -0.25793245315E+03  0.26680689600E+03  0.00000000000E+00 0.  1.
<mgrwt>
<rscale>  0 0.16057710E+04</rscale>
<asrwt>0</asrwt>
<pdfrwt beam="1">  1        1 0.19479782E+00 0.16057710E+04</pdfrwt>
<pdfrwt beam="2">  1       -1 0.78324287E-01 0.16057710E+04</pdfrwt>
<totfact> 0.14970907E+01</totfact>
</mgrwt>
</event>
<event>
12    1  0.1562393E-007  0.1451980E+04  0.7818608E-02  0.8917029E-01
          2   -1    0    0  501    0  0.00000000000E+00  0.00000000000E+00  0.12997361235E+04  0.12997361235E+04  0.00000000000E+00 0. -1.
         -2   -1    0    0    0  501 -0.00000000000E+00 -0.00000000000E+00 -0.40551439088E+03  0.40551439088E+03  0.00000000000E+00 0.  1.
         23    2    1    2    0    0 -0.23895665307E+03 -0.18795588990E+03 -0.87483394710E+02  0.32957831761E+03  0.92416581263E+02 0.  0.
        254    2    1    2    0    0  0.23895665307E+03  0.18795588990E+03  0.98170512730E+03  0.13756721967E+04  0.91449512700E+03 0.  0.
        -24    2    4    4    0    0  0.12336748471E+03  0.16214706284E+03 -0.12999920786E+03  0.25470370741E+03  0.80392650500E+02 0.  0.
         24    2    4    4    0    0  0.11558916837E+03  0.25808827061E+02  0.11117043352E+04  0.11209684893E+04  0.81589667608E+02 0.  0.
         13    1    3    3    0    0 -0.23246249089E+03 -0.15751633401E+03 -0.58049298518E+02  0.28674017195E+03  0.00000000000E+00 0.  1.
        -13    1    3    3    0    0 -0.64941621856E+01 -0.30439555887E+02 -0.29434096191E+02  0.42838145661E+02  0.00000000000E+00 0. -1.
          4    1    6    6  502    0  0.10748583184E+03  0.47383825530E+02  0.10025143513E+04  0.10093728030E+04  0.00000000000E+00 0. -1.
          3    1    5    5  503    0  0.88919214185E+02  0.15042534003E+03 -0.13085478184E+03  0.21830571111E+03  0.00000000000E+00 0. -1.
         -4    1    5    5    0  503  0.34448270521E+02  0.11721722811E+02  0.85557398361E+00  0.36397996296E+02  0.00000000000E+00 0.  1.
         -3    1    6    6    0  502  0.81033365244E+01 -0.21574998469E+02  0.10918998388E+03  0.11159568630E+03  0.00000000000E+00 0.  1.
<mgrwt>
<rscale>  0 0.14519803E+04</rscale>
<asrwt>0</asrwt>
<pdfrwt beam="1">  1        2 0.19995940E+00 0.14519803E+04</pdfrwt>
<pdfrwt beam="2">  1       -2 0.62386830E-01 0.14519803E+04</pdfrwt>
<totfact> 0.38223890E+01</totfact>
</mgrwt>
</event>
<event>
12    1  0.1562393E-007  0.1457464E+04  0.7818608E-02  0.8913242E-01
          1   -1    0    0  501    0  0.00000000000E+00  0.00000000000E+00  0.15952638536E+04  0.15952638536E+04  0.00000000000E+00 0. -1.
         -1   -1    0    0    0  501 -0.00000000000E+00 -0.00000000000E+00 -0.33289181482E+03  0.33289181482E+03  0.00000000000E+00 0.  1.
         23    2    1    2    0    0  0.15277605019E+03  0.74111586599E+02  0.93637164340E+03  0.95421647865E+03  0.70029884958E+02 0.  0.
        254    2    1    2    0    0 -0.15277605019E+03 -0.74111586599E+02  0.32600039538E+03  0.97393918978E+03  0.90191365375E+03 0.  0.
        -24    2    4    4    0    0 -0.42917271064E+03 -0.31599214571E+03  0.23306702171E+03  0.58712783299E+03  0.79740854975E+02 0.  0.
         24    2    4    4    0    0  0.27639666045E+03  0.24188055911E+03  0.92933373677E+02  0.38681135679E+03  0.78007019027E+02 0.  0.
         13    1    3    3    0    0  0.15137554945E+03  0.51278977742E+02  0.78267272162E+03  0.79882456128E+03  0.00000000000E+00 0.  1.
        -13    1    3    3    0    0  0.14005007410E+01  0.22832608857E+02  0.15369892177E+03  0.15539191737E+03  0.00000000000E+00 0. -1.
          4    1    6    6  502    0  0.10465578079E+02  0.37320389482E+02  0.33468103937E+00  0.38761473231E+02  0.00000000000E+00 0. -1.
          3    1    5    5  503    0 -0.24575477225E+03 -0.19530243123E+03  0.17760063056E+03  0.36066664900E+03  0.00000000000E+00 0. -1.
         -4    1    5    5    0  503 -0.18341793839E+03 -0.12068971448E+03  0.55466391148E+02  0.22646118398E+03  0.00000000000E+00 0.  1.
         -3    1    6    6    0  502  0.26593108237E+03  0.20456016963E+03  0.92598692638E+02  0.34804988356E+03  0.00000000000E+00 0.  1.
<mgrwt>
<rscale>  0 0.14574639E+04</rscale>
<asrwt>0</asrwt>
<pdfrwt beam="1">  1        1 0.24542520E+00 0.14574639E+04</pdfrwt>
<pdfrwt beam="2">  1       -1 0.51214127E-01 0.14574639E+04</pdfrwt>
<totfact> 0.20922249E+01</totfact>
</mgrwt>
</event>
<event>
12    1  0.1562393E-007  0.1206941E+04  0.7818608E-02  0.9106802E-01
          1   -1    0    0  501    0  0.00000000000E+00  0.00000000000E+00  0.22043898047E+04  0.22043898047E+04  0.00000000000E+00 0. -1.
         -1   -1    0    0    0  501 -0.00000000000E+00 -0.00000000000E+00 -0.16520528805E+03  0.16520528805E+03  0.00000000000E+00 0.  1.
         23    2    1    2    0    0 -0.14993767396E+03  0.21467787225E+03  0.51892265609E+03  0.58794908634E+03  0.88518417389E+02 0.  0.
        254    2    1    2    0    0  0.14993767396E+03 -0.21467787225E+03  0.15202618606E+04  0.17816460064E+04  0.89134643804E+03 0.  0.
        -24    2    4    4    0    0  0.10806722901E+03  0.26645341161E+03  0.16567554843E+03  0.34132719284E+03  0.79874393158E+02 0.  0.
         24    2    4    4    0    0  0.41870444951E+02 -0.48113128386E+03  0.13545863122E+04  0.14403188136E+04  0.79835839441E+02 0.  0.
         11    1    3    3    0    0 -0.26127987047E+01  0.36885294064E+02  0.13470302165E+03  0.13968627590E+03  0.00000000000E+00 0. -1.
        -11    1    3    3    0    0 -0.14732487526E+03  0.17779257819E+03  0.38421963444E+03  0.44826281043E+03  0.00000000000E+00 0.  1.
          4    1    6    6  502    0 -0.78099614423E+01 -0.40989752121E+01  0.14274970896E+02  0.16780103981E+02  0.00000000000E+00 0. -1.
          1    1    5    5  503    0  0.51409362396E+02  0.14928919518E+03  0.13470933174E+03  0.20754948903E+03  0.00000000000E+00 0. -1.
         -2    1    5    5    0  503  0.56657866613E+02  0.11716421643E+03  0.30966216687E+02  0.13377770381E+03  0.00000000000E+00 0.  1.
         -3    1    6    6    0  502  0.49680406393E+02 -0.47703230865E+03  0.13403113413E+04  0.14235387096E+04  0.00000000000E+00 0.  1.
<mgrwt>
<rscale>  0 0.12069413E+04</rscale>
<asrwt>0</asrwt>
<pdfrwt beam="1">  1        1 0.33913687E+00 0.12069413E+04</pdfrwt>
<pdfrwt beam="2">  1       -1 0.25416200E-01 0.12069413E+04</pdfrwt>
<totfact> 0.29237791E+01</totfact>
</mgrwt>
</event>
<event>
12    1  0.1562393E-007  0.1983778E+04  0.7818608E-02  0.8614243E-01
         -2   -1    0    0    0  501 -0.00000000000E+00  0.00000000000E+00  0.75139741037E+03  0.75139741037E+03  0.00000000000E+00 0.  1.
          2   -1    0    0  501    0  0.00000000000E+00 -0.00000000000E+00 -0.13093524867E+04  0.13093524867E+04  0.00000000000E+00 0. -1.
         23    2    1    2    0    0  0.43224648402E+02  0.64412754307E+03  0.24179516872E+03  0.69515890047E+03  0.89511626748E+02 0.  0.
        254    2    1    2    0    0 -0.43224648402E+02 -0.64412754307E+03 -0.79975024503E+03  0.13655909966E+04  0.89914940559E+03 0.  0.
        -24    2    4    4    0    0 -0.30895690587E+03 -0.74033130380E+03 -0.65189353704E+03  0.10368179429E+04  0.80507478640E+02 0.  0.
         24    2    4    4    0    0  0.26573225747E+03  0.96203760730E+02 -0.14785670799E+03  0.32877305364E+03  0.79757873991E+02 0.  0.
         11    1    3    3    0    0  0.47489604448E+02  0.37289445442E+03  0.18076851587E+03  0.41711244647E+03  0.00000000000E+00 0.  1.
        -11    1    3    3    0    0 -0.42649560464E+01  0.27123308865E+03  0.61026652850E+02  0.27804645401E+03  0.00000000000E+00 0. -1.
          2    1    6    6  502    0  0.22601930966E+03  0.93173404730E+02 -0.94294523920E+02  0.26202570280E+03  0.00000000000E+00 0. -1.
          3    1    5    5  503    0 -0.30355696634E+03 -0.73998058210E+03 -0.65113067943E+03  0.10313531187E+04  0.00000000000E+00 0. -1.
         -4    1    5    5    0  503 -0.53999395296E+01 -0.35072169462E+00 -0.76285761290E+00  0.54648242760E+01  0.00000000000E+00 0.  1.
         -1    1    6    6    0  502  0.39712947810E+02  0.30303560006E+01 -0.53562184074E+02  0.66747350839E+02  0.00000000000E+00 0.  1.
<mgrwt>
<rscale>  0 0.19837783E+04</rscale>
<asrwt>0</asrwt>
<pdfrwt beam="1">  1        2 0.20143884E+00 0.19837783E+04</pdfrwt>
<pdfrwt beam="2">  1       -2 0.11559960E+00 0.19837783E+04</pdfrwt>
<totfact> 0.88433422E+00</totfact>
</mgrwt>
</event>
<event>
12    1  0.1562393E-007  0.1344572E+04  0.7818608E-02  0.8994947E-01
          2   -1    0    0  501    0  0.00000000000E+00  0.00000000000E+00  0.27211933933E+04  0.27211933933E+04  0.00000000000E+00 0. -1.
         -2   -1    0    0    0  501 -0.00000000000E+00 -0.00000000000E+00 -0.16609206510E+03  0.16609206510E+03  0.00000000000E+00 0.  1.
         23    2    1    2    0    0 -0.21955499054E+03 -0.15558978103E+03  0.11792880925E+04  0.12129663893E+04  0.90302174684E+02 0.  0.
        254    2    1    2    0    0  0.21955499054E+03  0.15558978103E+03  0.13758132357E+04  0.16743190690E+04  0.91546147468E+03 0.  0.
        -24    2    4    4    0    0 -0.21317176961E+03 -0.17999519498E+03  0.14485685845E+03  0.32453995266E+03  0.80636206857E+02 0.  0.
         24    2    4    4    0    0  0.43272676015E+03  0.33558497601E+03  0.12309563772E+04  0.13497791164E+04  0.82342791354E+02 0.  0.
         13    1    3    3    0    0 -0.41631521970E+02 -0.23986484885E+02  0.39962815761E+03  0.40250614832E+03  0.00000000000E+00 0.  1.
        -13    1    3    3    0    0 -0.17792346857E+03 -0.13160329614E+03  0.77965993488E+03  0.81046024102E+03  0.00000000000E+00 0. -1.
          4    1    6    6  502    0  0.32129240347E+03  0.24862822285E+03  0.81851972394E+03  0.91379392655E+03  0.00000000000E+00 0. -1.
          3    1    5    5  503    0 -0.19604129739E+03 -0.12678127165E+03  0.10563998535E+03  0.25625278072E+03  0.00000000000E+00 0. -1.
         -4    1    5    5    0  503 -0.17130472218E+02 -0.53213923336E+02  0.39216873102E+02  0.68287171937E+02  0.00000000000E+00 0.  1.
         -3    1    6    6    0  502  0.11143435668E+03  0.86956753157E+02  0.41243665328E+03  0.43598518981E+03  0.00000000000E+00 0.  1.
<mgrwt>
<rscale>  0 0.13445722E+04</rscale>
<asrwt>0</asrwt>
<pdfrwt beam="1">  1        2 0.41864510E+00 0.13445722E+04</pdfrwt>
<pdfrwt beam="2">  1       -2 0.25552627E-01 0.13445722E+04</pdfrwt>
<totfact> 0.34977958E+01</totfact>
</mgrwt>
</event>
<event>
12    1  0.1562393E-007  0.1312942E+04  0.7818608E-02  0.9019365E-01
          2   -1    0    0  501    0  0.00000000000E+00  0.00000000000E+00  0.12592336772E+04  0.12592336772E+04  0.00000000000E+00 0. -1.
         -2   -1    0    0    0  501 -0.00000000000E+00 -0.00000000000E+00 -0.34223507505E+03  0.34223507505E+03  0.00000000000E+00 0.  1.
         23    2    1    2    0    0 -0.36892319649E+02  0.19987443715E+03  0.55619994939E+03  0.59914298191E+03  0.91121321246E+02 0.  0.
        254    2    1    2    0    0  0.36892319649E+02 -0.19987443715E+03  0.36079865274E+03  0.10023257703E+04  0.91278170894E+03 0.  0.
        -24    2    4    4    0    0  0.99709088950E+02  0.10601082831E+03 -0.25657271102E+03  0.30591766239E+03  0.81091688755E+02 0.  0.
         24    2    4    4    0    0 -0.62816769301E+02 -0.30588526546E+03  0.61737136376E+03  0.69640810795E+03  0.79530559488E+02 0.  0.
         11    1    3    3    0    0 -0.61365378729E+02  0.83192889055E+02  0.26909620837E+03  0.28826990106E+03  0.00000000000E+00 0. -1.
        -11    1    3    3    0    0  0.24473059080E+02  0.11668154810E+03  0.28710374102E+03  0.31087308085E+03  0.00000000000E+00 0.  1.
          2    1    6    6  502    0 -0.49831200971E+02 -0.27341644514E+03  0.47997164956E+03  0.55462824076E+03  0.00000000000E+00 0. -1.
          1    1    5    5  503    0  0.12450308722E+02  0.62612748790E+02 -0.65711472946E+02  0.91615305354E+02  0.00000000000E+00 0. -1.
         -2    1    5    5    0  503  0.87258780227E+02  0.43398079515E+02 -0.19086123807E+03  0.21430235703E+03  0.00000000000E+00 0.  1.
         -1    1    6    6    0  502 -0.12985568330E+02 -0.32468820314E+02  0.13739971420E+03  0.14177986719E+03  0.00000000000E+00 0.  1.
<mgrwt>
<rscale>  0 0.13129416E+04</rscale>
<asrwt>0</asrwt>
<pdfrwt beam="1">  1        2 0.19372826E+00 0.13129416E+04</pdfrwt>
<pdfrwt beam="2">  1       -2 0.52651551E-01 0.13129416E+04</pdfrwt>
<totfact> 0.58204385E+01</totfact>
</mgrwt>
</event>
<event>
12    1  0.1562393E-007  0.3586805E+04  0.7818608E-02  0.8093521E-01
         -2   -1    0    0    0  501 -0.00000000000E+00  0.00000000000E+00  0.72750677892E+03  0.72750677892E+03  0.00000000000E+00 0.  1.
          2   -1    0    0  501    0  0.00000000000E+00 -0.00000000000E+00 -0.44209799721E+04  0.44209799721E+04  0.00000000000E+00 0. -1.
         23    2    1    2    0    0  0.13629020504E+04  0.50405608327E+03 -0.52431771003E+03  0.15476395723E+04  0.93298717699E+02 0.  0.
        254    2    1    2    0    0 -0.13629020504E+04 -0.50405608327E+03 -0.31691554832E+04  0.36008471787E+04  0.90054394326E+03 0.  0.
        -24    2    4    4    0    0 -0.95282746252E+03 -0.58565309646E+03 -0.28658851754E+04  0.30774699504E+04  0.81570425579E+02 0.  0.
         24    2    4    4    0    0 -0.41007458789E+03  0.81597013182E+02 -0.30327030780E+03  0.52337722832E+03  0.84448820833E+02 0.  0.
         11    1    3    3    0    0  0.13002849551E+04  0.47689905020E+03 -0.47796961521E+03  0.14651377483E+04  0.00000000000E+00 0. -1.
        -11    1    3    3    0    0  0.62617095312E+02  0.27157033078E+02 -0.46348094815E+02  0.82501824003E+02  0.00000000000E+00 0.  1.
          4    1    6    6  502    0 -0.26983919890E+03  0.24189897628E+02 -0.15889829621E+03  0.31408122031E+03  0.00000000000E+00 0. -1.
          3    1    5    5  503    0 -0.69262716367E+03 -0.43874888397E+03 -0.20029028987E+04  0.21642211053E+04  0.00000000000E+00 0. -1.
         -4    1    5    5    0  503 -0.26020029885E+03 -0.14690421249E+03 -0.86298227671E+03  0.91324884510E+03  0.00000000000E+00 0.  1.
         -3    1    6    6    0  502 -0.14023538899E+03  0.57407115555E+02 -0.14437201159E+03  0.20929600801E+03  0.00000000000E+00 0.  1.
<mgrwt>
<rscale>  0 0.35868052E+04</rscale>
<asrwt>0</asrwt>
<pdfrwt beam="1">  1        2 0.68015076E+00 0.35868052E+04</pdfrwt>
<pdfrwt beam="2">  1       -2 0.11192412E+00 0.35868052E+04</pdfrwt>
<totfact> 0.75006644E-02</totfact>
</mgrwt>
</event>
<event>
12    1  0.1992256E-007  0.2064754E+04  0.7818608E-02  0.8576930E-01
          1   -1    0    0  501    0  0.00000000000E+00  0.00000000000E+00  0.89834402703E+03  0.89834402703E+03  0.00000000000E+00 0. -1.
         -1   -1    0    0    0  501 -0.00000000000E+00 -0.00000000000E+00 -0.11864077327E+04  0.11864077327E+04  0.00000000000E+00 0.  1.
         23    2    1    2    0    0 -0.65275375775E+03 -0.51699502014E+03 -0.14353993997E+03  0.84989227976E+03  0.91333749112E+02 0.  0.
        254    2    1    2    0    0  0.65275375775E+03  0.51699502014E+03 -0.14452376572E+03  0.12348594800E+04  0.90034409942E+03 0.  0.
        -24    2    4    4    0    0 -0.78383500001E+02  0.46188574526E+03 -0.14443713544E+03  0.49667790154E+03  0.79651974454E+02 0.  0.
         24    2    4    4    0    0  0.73113725775E+03  0.55109274883E+02 -0.86630276710E-01  0.73818157845E+03  0.85517912804E+02 0.  0.
         11    1    3    3    0    0 -0.59232037370E+03 -0.44894629454E+03 -0.10328073350E+03  0.75037531302E+03  0.00000000000E+00 0.  1.
        -11    1    3    3    0    0 -0.60433384052E+02 -0.68048725603E+02 -0.40259206470E+02  0.99516966743E+02  0.00000000000E+00 0. -1.
          2    1    6    6  502    0  0.80702403342E+02  0.22675299059E+02 -0.21662557445E+02  0.86581253673E+02  0.00000000000E+00 0. -1.
          3    1    5    5  503    0 -0.17589228808E+02  0.15800156784E+02 -0.15851901115E+02  0.28465921616E+02  0.00000000000E+00 0. -1.
         -4    1    5    5    0  503 -0.60794271193E+02  0.44608558847E+03 -0.12858523433E+03  0.46821197992E+03  0.00000000000E+00 0.  1.
         -1    1    6    6    0  502  0.65043485441E+03  0.32433975824E+02  0.21575927168E+02  0.65160032478E+03  0.00000000000E+00 0.  1.
<mgrwt>
<rscale>  0 0.20647540E+04</rscale>
<asrwt>0</asrwt>
<pdfrwt beam="1">  1        1 0.13820677E+00 0.20647540E+04</pdfrwt>
<pdfrwt beam="2">  1       -1 0.18252427E+00 0.20647540E+04</pdfrwt>
<totfact> 0.33612283E+00</totfact>
</mgrwt>
</event>
<event>
12    1  0.1562393E-007  0.1848043E+04  0.7818608E-02  0.8681160E-01
          1   -1    0    0  501    0  0.00000000000E+00  0.00000000000E+00  0.29368922441E+03  0.29368922441E+03  0.00000000000E+00 0. -1.
         -1   -1    0    0    0  501 -0.00000000000E+00 -0.00000000000E+00 -0.29072074207E+04  0.29072074207E+04  0.00000000000E+00 0.  1.
         23    2    1    2    0    0 -0.56945254953E+03  0.25959609762E+03 -0.15618569299E+04  0.16850567883E+04  0.91394584709E+02 0.  0.
        254    2    1    2    0    0  0.56945254953E+03 -0.25959609762E+03 -0.10516612663E+04  0.15158398568E+04  0.89449019685E+03 0.  0.
        -24    2    4    4    0    0  0.18064449998E+03 -0.49796655966E+03 -0.25196209713E+03  0.59181099339E+03  0.78436111484E+02 0.  0.
         24    2    4    4    0    0  0.38880804955E+03  0.23837046204E+03 -0.79969916918E+03  0.92402886339E+03  0.79488380408E+02 0.  0.
         11    1    3    3    0    0 -0.51885441451E+03  0.26308421763E+03 -0.14338811300E+04  0.15473972677E+04  0.00000000000E+00 0.  1.
        -11    1    3    3    0    0 -0.50598135018E+02 -0.34881200093E+01 -0.12797579989E+03  0.13765952058E+03  0.00000000000E+00 0. -1.
          2    1    6    6  502    0  0.28351055557E+03  0.15771859302E+03 -0.49663411289E+03  0.59321061335E+03  0.00000000000E+00 0. -1.
          3    1    5    5  503    0  0.10451243721E+02 -0.65415221981E+02 -0.58324396495E+02  0.88261628065E+02  0.00000000000E+00 0. -1.
         -4    1    5    5    0  503  0.17019325626E+03 -0.43255133768E+03 -0.19363770064E+03  0.50354936532E+03  0.00000000000E+00 0.  1.
         -1    1    6    6    0  502  0.10529749398E+03  0.80651869022E+02 -0.30306505629E+03  0.33081825004E+03  0.00000000000E+00 0.  1.
<mgrwt>
<rscale>  0 0.18480427E+04</rscale>
<asrwt>0</asrwt>
<pdfrwt beam="1">  1        1 0.45182957E-01 0.18480427E+04</pdfrwt>
<pdfrwt beam="2">  1       -1 0.44726268E+00 0.18480427E+04</pdfrwt>
<totfact> 0.28679819E-01</totfact>
</mgrwt>
</event>
<event>
12    1  0.1562393E-007  0.1633838E+04  0.7818608E-02  0.8800026E-01
         -2   -1    0    0    0  501 -0.00000000000E+00  0.00000000000E+00  0.18655064951E+04  0.18655064951E+04  0.00000000000E+00 0.  1.
          2   -1    0    0  501    0  0.00000000000E+00 -0.00000000000E+00 -0.35773474981E+03  0.35773474981E+03  0.00000000000E+00 0. -1.
         23    2    1    2    0    0  0.13822802537E+03  0.17478413317E+02 -0.21597500461E+03  0.27290870235E+03  0.91768596323E+02 0.  0.
        254    2    1    2    0    0 -0.13822802537E+03 -0.17478413317E+02  0.17237467499E+04  0.19503325426E+04  0.90171042296E+03 0.  0.
        -24    2    4    4    0    0  0.79082198156E+02 -0.40957024118E+03  0.10942402708E+04  0.11736853248E+04  0.78572864026E+02 0.  0.
         24    2    4    4    0    0 -0.21731022352E+03  0.39209182786E+03  0.62950647912E+03  0.77664721776E+03  0.77089291506E+02 0.  0.
         13    1    3    3    0    0 -0.13550587964E+02 -0.22303396633E+01 -0.19661870915E+02  0.23982952634E+02  0.00000000000E+00 0.  1.
        -13    1    3    3    0    0  0.15177861333E+03  0.19708752980E+02 -0.19631313370E+03  0.24892574971E+03  0.00000000000E+00 0. -1.
          4    1    6    6  502    0 -0.10394760439E+03  0.11572412267E+03  0.23469449224E+03  0.28156470254E+03  0.00000000000E+00 0. -1.
          3    1    5    5  503    0  0.80254196149E+02 -0.30564246085E+03  0.89164249033E+03  0.94598328761E+03  0.00000000000E+00 0. -1.
         -4    1    5    5    0  503 -0.11719979928E+01 -0.10392778033E+03  0.20259778043E+03  0.22770203719E+03  0.00000000000E+00 0.  1.
         -3    1    6    6    0  502 -0.11336261913E+03  0.27636770519E+03  0.39481198688E+03  0.49508251522E+03  0.00000000000E+00 0.  1.
<mgrwt>
<rscale>  0 0.16338378E+04</rscale>
<asrwt>0</asrwt>
<pdfrwt beam="1">  1        2 0.55036116E-01 0.16338378E+04</pdfrwt>
<pdfrwt beam="2">  1       -2 0.28700099E+00 0.16338378E+04</pdfrwt>
<totfact> 0.32980354E+00</totfact>
</mgrwt>
</event>
<event>
12    1  0.1562393E-007  0.1372555E+04  0.7818608E-02  0.8973928E-01
         -1   -1    0    0    0  501 -0.00000000000E+00  0.00000000000E+00  0.28711723433E+03  0.28711723433E+03  0.00000000000E+00 0.  1.
          1   -1    0    0  501    0  0.00000000000E+00 -0.00000000000E+00 -0.16403646551E+04  0.16403646551E+04  0.00000000000E+00 0. -1.
         23    2    1    2    0    0  0.63233948128E+02  0.26575907742E+03 -0.10415213017E+02  0.28656914784E+03  0.85947544486E+02 0.  0.
        254    2    1    2    0    0 -0.63233948128E+02 -0.26575907742E+03 -0.13428322077E+04  0.16409127416E+04  0.90264603687E+03 0.  0.
        -24    2    4    4    0    0  0.92808671228E+02  0.43667450469E+01 -0.13113217829E+04  0.13172821531E+04  0.83874518088E+02 0.  0.
         24    2    4    4    0    0 -0.15604261936E+03 -0.27012582247E+03 -0.31510424838E+02  0.32363058842E+03  0.80166026892E+02 0.  0.
         11    1    3    3    0    0  0.37910868355E+02  0.32663068855E+02 -0.14386414052E+02  0.52068022007E+02  0.00000000000E+00 0. -1.
        -11    1    3    3    0    0  0.25323079773E+02  0.23309600857E+03  0.39712010343E+01  0.23450112583E+03  0.00000000000E+00 0.  1.
          4    1    6    6  502    0 -0.29970339245E+02 -0.72221653139E+02 -0.41976466299E+02  0.88748026116E+02  0.00000000000E+00 0. -1.
          1    1    5    5  503    0 -0.13536078838E+02 -0.56797793428E+01 -0.29437119166E+03  0.29473697393E+03  0.00000000000E+00 0. -1.
         -2    1    5    5    0  503  0.10634475007E+03  0.10046524390E+02 -0.10169505912E+04  0.10225451792E+04  0.00000000000E+00 0.  1.
         -3    1    6    6    0  502 -0.12607228011E+03 -0.19790416933E+03  0.10466041461E+02  0.23488256230E+03  0.00000000000E+00 0.  1.
<mgrwt>
<rscale>  0 0.13725552E+04</rscale>
<asrwt>0</asrwt>
<pdfrwt beam="1">  1        1 0.25236380E+00 0.13725552E+04</pdfrwt>
<pdfrwt beam="2">  1       -1 0.44171882E-01 0.13725552E+04</pdfrwt>
<totfact> 0.25938925E+01</totfact>
</mgrwt>
</event>
<event>
12    1  0.1562393E-007  0.1854581E+04  0.7818608E-02  0.8677800E-01
          3   -1    0    0  501    0  0.00000000000E+00  0.00000000000E+00  0.83353549914E+03  0.83353549914E+03  0.00000000000E+00 0. -1.
         -3   -1    0    0    0  501 -0.00000000000E+00 -0.00000000000E+00 -0.10315914360E+04  0.10315914360E+04  0.00000000000E+00 0.  1.
         23    2    1    2    0    0 -0.18823198056E+03  0.62091506712E+03  0.15248921207E+03  0.67279164612E+03  0.91808715309E+02 0.  0.
        254    2    1    2    0    0  0.18823198056E+03 -0.62091506712E+03 -0.35054514896E+03  0.11923352890E+04  0.93691768098E+03 0.  0.
        -24    2    4    4    0    0  0.56162781962E+03 -0.41981347232E+03 -0.25505203312E+03  0.75035207548E+03  0.79420011765E+02 0.  0.
         24    2    4    4    0    0 -0.37339583906E+03 -0.20110159481E+03 -0.95493115835E+02  0.44198321355E+03  0.79774192755E+02 0.  0.
         11    1    3    3    0    0 -0.19382958452E+03  0.54457923301E+03  0.14451624942E+03  0.59583671858E+03  0.00000000000E+00 0. -1.
        -11    1    3    3    0    0  0.55976039566E+01  0.76335834109E+02  0.79729626524E+01  0.76954927540E+02  0.00000000000E+00 0.  1.
          4    1    6    6  502    0 -0.36905648846E+03 -0.18157944592E+03 -0.87923489011E+02  0.42059996050E+03  0.00000000000E+00 0. -1.
          3    1    5    5  503    0  0.48134649479E+03 -0.37675821335E+03 -0.24563038759E+03  0.65876815852E+03  0.00000000000E+00 0. -1.
         -4    1    5    5    0  503  0.80281324835E+02 -0.43055258961E+02 -0.94216455360E+01  0.91583916962E+02  0.00000000000E+00 0.  1.
         -3    1    6    6    0  502 -0.43393506001E+01 -0.19522148886E+02 -0.75696268238E+01  0.21383253050E+02  0.00000000000E+00 0.  1.
<mgrwt>
<rscale>  0 0.18545814E+04</rscale>
<asrwt>0</asrwt>
<pdfrwt beam="1">  1        3 0.12823623E+00 0.18545814E+04</pdfrwt>
<pdfrwt beam="2">  1       -3 0.15870638E+00 0.18545814E+04</pdfrwt>
<totfact> 0.32897724E-01</totfact>
</mgrwt>
</event>
<event>
12    1  0.1562393E-007  0.1688363E+04  0.7818608E-02  0.8768029E-01
          1   -1    0    0  501    0  0.00000000000E+00  0.00000000000E+00  0.15130796233E+04  0.15130796233E+04  0.00000000000E+00 0. -1.
         -1   -1    0    0    0  501 -0.00000000000E+00 -0.00000000000E+00 -0.47098808357E+03  0.47098808357E+03  0.00000000000E+00 0.  1.
         23    2    1    2    0    0 -0.30666318805E+03 -0.47470689483E+03  0.16229983064E+03  0.59455971246E+03  0.88153671227E+02 0.  0.
        254    2    1    2    0    0  0.30666318805E+03  0.47470689483E+03  0.87979170908E+03  0.13895079944E+04  0.91504648418E+03 0.  0.
        -24    2    4    4    0    0 -0.52995767700E+02  0.64841905645E+03  0.43340045617E+03  0.78486623259E+03  0.70165685911E+02 0.  0.
         24    2    4    4    0    0  0.35965895575E+03 -0.17371216162E+03  0.44639125291E+03  0.60464176181E+03  0.82438036721E+02 0.  0.
         11    1    3    3    0    0 -0.18237310419E+03 -0.22459092615E+03  0.50334343513E+02  0.29365724812E+03  0.00000000000E+00 0. -1.
        -11    1    3    3    0    0 -0.12429008387E+03 -0.25011596868E+03  0.11196548713E+03  0.30090246434E+03  0.00000000000E+00 0.  1.
          2    1    6    6  502    0  0.11266124377E+03 -0.36000209644E+02  0.84477638643E+02  0.14534456430E+03  0.00000000000E+00 0. -1.
          1    1    5    5  503    0 -0.37236962856E+02  0.33469043347E+03  0.26451665710E+03  0.42822113393E+03  0.00000000000E+00 0. -1.
         -2    1    5    5    0  503 -0.15758804844E+02  0.31372862298E+03  0.16888379908E+03  0.35664509866E+03  0.00000000000E+00 0.  1.
         -1    1    6    6    0  502  0.24699771199E+03 -0.13771195198E+03  0.36191361427E+03  0.45929719751E+03  0.00000000000E+00 0.  1.
<mgrwt>
<rscale>  0 0.16883631E+04</rscale>
<asrwt>0</asrwt>
<pdfrwt beam="1">  1        1 0.23278148E+00 0.16883631E+04</pdfrwt>
<pdfrwt beam="2">  1       -1 0.72459706E-01 0.16883631E+04</pdfrwt>
<totfact> 0.11722875E+01</totfact>
</mgrwt>
</event>
<event>
12    1  0.1562393E-007  0.2564470E+04  0.7818608E-02  0.8380371E-01
         -1   -1    0    0    0  501 -0.00000000000E+00  0.00000000000E+00  0.47459778605E+03  0.47459778605E+03  0.00000000000E+00 0.  1.
          1   -1    0    0  501    0  0.00000000000E+00 -0.00000000000E+00 -0.34642533977E+04  0.34642533977E+04  0.00000000000E+00 0. -1.
         23    2    1    2    0    0 -0.28009100537E+03  0.59821721020E+02 -0.29736016830E+04  0.29886585531E+04  0.87996408059E+02 0.  0.
        254    2    1    2    0    0  0.28009100537E+03 -0.59821721020E+02 -0.16053928577E+02  0.95019263066E+03  0.90585798950E+03 0.  0.
        -24    2    4    4    0    0 -0.28779264210E+03 -0.11995950119E+03  0.14342901072E+03  0.35204215952E+03  0.78402258829E+02 0.  0.
         24    2    4    4    0    0  0.56788364747E+03  0.60137780173E+02 -0.15948293930E+03  0.59815047114E+03  0.78998661581E+02 0.  0.
         13    1    3    3    0    0 -0.22897105269E+03  0.54732420306E+02 -0.27023269562E+04  0.27125623235E+04  0.00000000000E+00 0. -1.
        -13    1    3    3    0    0 -0.51119952681E+02  0.50893007145E+01 -0.27127472686E+03  0.27609622956E+03  0.00000000000E+00 0.  1.
          2    1    6    6  502    0  0.11015358000E+03  0.42355487165E+02 -0.23676561304E+02  0.12036767854E+03  0.00000000000E+00 0. -1.
          1    1    5    5  503    0 -0.16633294666E+02  0.51650236535E+01  0.25683389576E+02  0.31031926478E+02  0.00000000000E+00 0. -1.
         -2    1    5    5    0  503 -0.27115934743E+03 -0.12512452485E+03  0.11774562115E+03  0.32101023304E+03  0.00000000000E+00 0.  1.
         -1    1    6    6    0  502  0.45773006746E+03  0.17782293008E+02 -0.13580637800E+03  0.47778279260E+03  0.00000000000E+00 0.  1.
<mgrwt>
<rscale>  0 0.25644703E+04</rscale>
<asrwt>0</asrwt>
<pdfrwt beam="1">  1        1 0.53296209E+00 0.25644703E+04</pdfrwt>
<pdfrwt beam="2">  1       -1 0.73015041E-01 0.25644703E+04</pdfrwt>
<totfact> 0.44559950E-01</totfact>
</mgrwt>
</event>
<event>
12    1  0.1562393E-007  0.2023220E+04  0.7818608E-02  0.8595841E-01
         -2   -1    0    0    0  501 -0.00000000000E+00  0.00000000000E+00  0.81132054179E+03  0.81132054179E+03  0.00000000000E+00 0.  1.
          2   -1    0    0  501    0  0.00000000000E+00 -0.00000000000E+00 -0.12613449013E+04  0.12613449013E+04  0.00000000000E+00 0. -1.
         23    2    1    2    0    0  0.75525544650E+03 -0.17303722645E+03  0.28518310474E+02  0.78001118635E+03  0.85155655140E+02 0.  0.
        254    2    1    2    0    0 -0.75525544650E+03  0.17303722645E+03 -0.47854266999E+03  0.12926542567E+04  0.91738719703E+03 0.  0.
        -24    2    4    4    0    0  0.99194573926E+02  0.84205623140E+02 -0.39827202194E+03  0.42613446367E+03  0.77716325198E+02 0.  0.
         24    2    4    4    0    0 -0.85445002042E+03  0.88831603307E+02 -0.80270648050E+02  0.86651979307E+03  0.80232684754E+02 0.  0.
         13    1    3    3    0    0  0.15251830228E+03 -0.17398158645E+02  0.35098841289E+02  0.15746890840E+03  0.00000000000E+00 0. -1.
        -13    1    3    3    0    0  0.60273714422E+03 -0.15563906780E+03 -0.65805308150E+01  0.62254227795E+03  0.00000000000E+00 0.  1.
          4    1    6    6  502    0 -0.78795690084E+03  0.95458029524E+02 -0.57003181268E+02  0.79576232359E+03  0.00000000000E+00 0. -1.
          3    1    5    5  503    0  0.10322324701E+03  0.56731456931E+02 -0.26495459617E+03  0.28995591899E+03  0.00000000000E+00 0. -1.
         -4    1    5    5    0  503 -0.40286730835E+01  0.27474166209E+02 -0.13331742578E+03  0.13617854468E+03  0.00000000000E+00 0.  1.
         -3    1    6    6    0  502 -0.66493119588E+02 -0.66264262172E+01 -0.23267466782E+02  0.70757469481E+02  0.00000000000E+00 0.  1.
<mgrwt>
<rscale>  0 0.20232202E+04</rscale>
<asrwt>0</asrwt>
<pdfrwt beam="1">  1        2 0.19405306E+00 0.20232202E+04</pdfrwt>
<pdfrwt beam="2">  1       -2 0.12481854E+00 0.20232202E+04</pdfrwt>
<totfact> 0.77738577E+00</totfact>
</mgrwt>
</event>
<event>
12    1  0.1562393E-007  0.1513827E+04  0.7818608E-02  0.8875310E-01
          1   -1    0    0  501    0  0.00000000000E+00  0.00000000000E+00  0.62696912377E+03  0.62696912377E+03  0.00000000000E+00 0. -1.
         -1   -1    0    0    0  501 -0.00000000000E+00 -0.00000000000E+00 -0.91378990490E+03  0.91378990490E+03  0.00000000000E+00 0.  1.
         23    2    1    2    0    0  0.46911776160E+03 -0.10376473254E+03 -0.11747565283E+03  0.50277154933E+03  0.90222546201E+02 0.  0.
        254    2    1    2    0    0 -0.46911776160E+03  0.10376473254E+03 -0.16934512829E+03  0.10379874793E+04  0.90437914661E+03 0.  0.
        -24    2    4    4    0    0 -0.33240437742E+03  0.48680088378E+03 -0.18577920769E+03  0.62316708942E+03  0.79721620385E+02 0.  0.
         24    2    4    4    0    0 -0.13671338417E+03 -0.38303615123E+03  0.16434079393E+02  0.41482038992E+03  0.79991464312E+02 0.  0.
         11    1    3    3    0    0  0.42760810395E+02  0.71536572799E+01 -0.32300378091E+02  0.54064555329E+02  0.00000000000E+00 0.  1.
        -11    1    3    3    0    0  0.42635695120E+03 -0.11091838982E+03 -0.85175274743E+02  0.44870699400E+03  0.00000000000E+00 0. -1.
          4    1    6    6  502    0 -0.22716502466E+02 -0.10793620313E+02  0.23317646691E+01  0.25258243213E+02  0.00000000000E+00 0. -1.
          3    1    5    5  503    0 -0.18248908490E+02  0.56448958249E+02 -0.37183338981E+02  0.70015057282E+02  0.00000000000E+00 0. -1.
         -4    1    5    5    0  503 -0.31415546893E+03  0.43035192553E+03 -0.14859586871E+03  0.55315203214E+03  0.00000000000E+00 0.  1.
         -3    1    6    6    0  502 -0.11399688171E+03 -0.37224253092E+03  0.14102314724E+02  0.38956214670E+03  0.00000000000E+00 0.  1.
<mgrwt>
<rscale>  0 0.15138270E+04</rscale>
<asrwt>0</asrwt>
<pdfrwt beam="1">  1        1 0.96456788E-01 0.15138270E+04</pdfrwt>
<pdfrwt beam="2">  1       -1 0.14058306E+00 0.15138270E+04</pdfrwt>
<totfact> 0.12871158E+01</totfact>
</mgrwt>
</event>
<event>
12    1  0.1562393E-007  0.1472325E+04  0.7818608E-02  0.8903068E-01
         -2   -1    0    0    0  501 -0.00000000000E+00  0.00000000000E+00  0.24015103478E+03  0.24015103478E+03  0.00000000000E+00 0.  1.
          2   -1    0    0  501    0  0.00000000000E+00 -0.00000000000E+00 -0.22566441977E+04  0.22566441977E+04  0.00000000000E+00 0. -1.
         23    2    1    2    0    0 -0.22182967808E+03 -0.39760624371E+03 -0.72891331964E+03  0.86400404433E+03  0.88821337343E+02 0.  0.
        254    2    1    2    0    0  0.22182967808E+03  0.39760624371E+03 -0.12875798433E+04  0.16327911882E+04  0.89490003920E+03 0.  0.
        -24    2    4    4    0    0 -0.29239761650E+03 -0.50743449753E+02 -0.29665439786E+03  0.42731803407E+03  0.80781227046E+02 0.  0.
         24    2    4    4    0    0  0.51422729458E+03  0.44834969346E+03 -0.99092544543E+03  0.12054731541E+04  0.76060033498E+02 0.  0.
         13    1    3    3    0    0 -0.12382688860E+03 -0.30438685992E+03 -0.51296878897E+03  0.60919737138E+03  0.00000000000E+00 0.  1.
        -13    1    3    3    0    0 -0.98002789475E+02 -0.93219383787E+02 -0.21594453067E+03  0.25480667296E+03  0.00000000000E+00 0. -1.
          2    1    6    6  502    0  0.30033308463E+03  0.26866016042E+03 -0.64920981938E+03  0.76410184733E+03  0.00000000000E+00 0. -1.
          1    1    5    5  503    0 -0.32521478397E+02  0.25123486072E+01 -0.48857987899E+01  0.32982260118E+02  0.00000000000E+00 0. -1.
         -2    1    5    5    0  503 -0.25987613811E+03 -0.53255798360E+02 -0.29176859907E+03  0.39433577396E+03  0.00000000000E+00 0.  1.
         -1    1    6    6    0  502  0.21389420995E+03  0.17968953304E+03 -0.34171562605E+03  0.44137130675E+03  0.00000000000E+00 0.  1.
<mgrwt>
<rscale>  0 0.14723253E+04</rscale>
<asrwt>0</asrwt>
<pdfrwt beam="1">  1        2 0.34717602E+00 0.14723253E+04</pdfrwt>
<pdfrwt beam="2">  1       -2 0.36946314E-01 0.14723253E+04</pdfrwt>
<totfact> 0.32111256E+01</totfact>
</mgrwt>
</event>
<event>
12    1  0.1562393E-007  0.2338317E+04  0.7818608E-02  0.8462965E-01
          1   -1    0    0  501    0  0.00000000000E+00  0.00000000000E+00  0.99770726272E+03  0.99770726272E+03  0.00000000000E+00 0. -1.
         -1   -1    0    0    0  501 -0.00000000000E+00 -0.00000000000E+00 -0.13700732565E+04  0.13700732565E+04  0.00000000000E+00 0.  1.
         23    2    1    2    0    0 -0.29826310823E+03 -0.19512137954E+03  0.78170046611E+03  0.86339319263E+03  0.85784333525E+02 0.  0.
        254    2    1    2    0    0  0.29826310823E+03  0.19512137954E+03 -0.11540664599E+04  0.15043873266E+04  0.89681581169E+03 0.  0.
        -24    2    4    4    0    0  0.16408348486E+03 -0.34950532923E+03 -0.54307942641E+03  0.67106182607E+03  0.79443979325E+02 0.  0.
         24    2    4    4    0    0  0.13417962338E+03  0.54462670877E+03 -0.61098703353E+03  0.83332550057E+03  0.80646212103E+02 0.  0.
         11    1    3    3    0    0 -0.39216359929E+00 -0.20053499390E+02  0.29957034291E+02  0.36051637044E+02  0.00000000000E+00 0.  1.
        -11    1    3    3    0    0 -0.29787094463E+03 -0.17506788015E+03  0.75174343182E+03  0.82734155559E+03  0.00000000000E+00 0. -1.
          4    1    6    6  502    0  0.14110879028E+03  0.48436118192E+03 -0.52515707357E+03  0.72822207956E+03  0.00000000000E+00 0. -1.
          3    1    5    5  503    0  0.45559971697E+02 -0.17656329303E+03 -0.28805160782E+03  0.34091646519E+03  0.00000000000E+00 0. -1.
         -4    1    5    5    0  503  0.11852351316E+03 -0.17294203619E+03 -0.25502781859E+03  0.33014536088E+03  0.00000000000E+00 0.  1.
         -3    1    6    6    0  502 -0.69291669057E+01  0.60265526850E+02 -0.85829959962E+02  0.10510342101E+03  0.00000000000E+00 0.  1.
<mgrwt>
<rscale>  0 0.23383174E+04</rscale>
<asrwt>0</asrwt>
<pdfrwt beam="1">  1        1 0.15349343E+00 0.23383174E+04</pdfrwt>
<pdfrwt beam="2">  1       -1 0.21078050E+00 0.23383174E+04</pdfrwt>
<totfact> 0.17383201E+00</totfact>
</mgrwt>
</event>
<event>
12    1  0.1562393E-007  0.2794149E+04  0.7818608E-02  0.8305087E-01
          1   -1    0    0  501    0  0.00000000000E+00  0.00000000000E+00  0.13332351967E+04  0.13332351967E+04  0.00000000000E+00 0. -1.
         -1   -1    0    0    0  501 -0.00000000000E+00 -0.00000000000E+00 -0.14639701637E+04  0.14639701637E+04  0.00000000000E+00 0.  1.
         23    2    1    2    0    0 -0.10486476277E+04  0.57801982045E+03  0.19148423153E+03  0.12163695298E+04  0.95497968904E+02 0.  0.
        254    2    1    2    0    0  0.10486476277E+04 -0.57801982045E+03 -0.32221919850E+03  0.15808358307E+04  0.98053452351E+03 0.  0.
        -24    2    4    4    0    0 -0.67854537484E+02 -0.15773847543E+03  0.20078028153E+03  0.27590394344E+03  0.79527351674E+02 0.  0.
         24    2    4    4    0    0  0.11165021652E+04 -0.42028134502E+03 -0.52299948003E+03  0.13049318873E+04  0.78136293816E+02 0.  0.
         13    1    3    3    0    0 -0.25762355116E+03  0.11122829542E+03  0.14462390794E+02  0.28098182959E+03  0.00000000000E+00 0. -1.
        -13    1    3    3    0    0 -0.79102407655E+03  0.46679152503E+03  0.17702184073E+03  0.93538770016E+03  0.00000000000E+00 0.  1.
          2    1    6    6  502    0  0.85290755004E+03 -0.32064819060E+03 -0.43512499711E+03  0.10097526005E+04  0.00000000000E+00 0. -1.
          3    1    5    5  503    0 -0.63601011698E+02 -0.50969924174E+02  0.10015908550E+03  0.12913119014E+03  0.00000000000E+00 0. -1.
         -4    1    5    5    0  503 -0.42535257860E+01 -0.10676855126E+03  0.10062119603E+03  0.14677275330E+03  0.00000000000E+00 0.  1.
         -1    1    6    6    0  502  0.26359461515E+03 -0.99633154415E+02 -0.87874482919E+02  0.29517928678E+03  0.00000000000E+00 0.  1.
<mgrwt>
<rscale>  0 0.27941486E+04</rscale>
<asrwt>0</asrwt>
<pdfrwt beam="1">  1        1 0.20511311E+00 0.27941486E+04</pdfrwt>
<pdfrwt beam="2">  1       -1 0.22522618E+00 0.27941486E+04</pdfrwt>
<totfact> 0.75335274E-01</totfact>
</mgrwt>
</event>
<event>
12    1  0.1562393E-007  0.1442571E+04  0.7818608E-02  0.8923567E-01
          1   -1    0    0  501    0  0.00000000000E+00  0.00000000000E+00  0.47531689679E+03  0.47531689679E+03  0.00000000000E+00 0. -1.
         -1   -1    0    0    0  501 -0.00000000000E+00 -0.00000000000E+00 -0.10945384766E+04  0.10945384766E+04  0.00000000000E+00 0.  1.
         23    2    1    2    0    0 -0.11099893431E+03 -0.22313929910E+03  0.19921384219E+03  0.33200589537E+03  0.91814211417E+02 0.  0.
        254    2    1    2    0    0  0.11099893431E+03  0.22313929910E+03 -0.81843542201E+03  0.12378494780E+04  0.89460766820E+03 0.  0.
        -24    2    4    4    0    0 -0.28787036680E+03  0.37396566410E+03 -0.31444697586E+03  0.57296462352E+03  0.81803992343E+02 0.  0.
         24    2    4    4    0    0  0.39886930111E+03 -0.15082636500E+03 -0.50398844615E+03  0.66488485450E+03  0.78880949151E+02 0.  0.
         11    1    3    3    0    0  0.10588624838E+02 -0.83497407800E+00  0.17458968098E+01  0.10764028676E+02  0.00000000000E+00 0.  1.
        -11    1    3    3    0    0 -0.12158755915E+03 -0.22230432503E+03  0.19746794538E+03  0.32124186670E+03  0.00000000000E+00 0. -1.
          2    1    6    6  502    0  0.39972723933E+02  0.21298825422E+00 -0.23283926676E+02  0.46260190921E+02  0.00000000000E+00 0. -1.
          1    1    5    5  503    0 -0.17544814813E+03  0.17698805629E+03 -0.13279395479E+03  0.28238459444E+03  0.00000000000E+00 0. -1.
         -2    1    5    5    0  503 -0.11242221867E+03  0.19697760782E+03 -0.18165302107E+03  0.29058002907E+03  0.00000000000E+00 0.  1.
         -1    1    6    6    0  502  0.35889657718E+03 -0.15103935325E+03 -0.48070451948E+03  0.61862466358E+03  0.00000000000E+00 0.  1.
<mgrwt>
<rscale>  0 0.14425708E+04</rscale>
<asrwt>0</asrwt>
<pdfrwt beam="1">  1        1 0.73125677E-01 0.14425708E+04</pdfrwt>
<pdfrwt beam="2">  1       -1 0.16839053E+00 0.14425708E+04</pdfrwt>
<totfact> 0.11677691E+01</totfact>
</mgrwt>
</event>
<event>
12    1  0.1562393E-007  0.1407634E+04  0.7818608E-02  0.8948311E-01
          2   -1    0    0  501    0  0.00000000000E+00  0.00000000000E+00  0.54290656888E+03  0.54290656888E+03  0.00000000000E+00 0.  1.
         -2   -1    0    0    0  501 -0.00000000000E+00 -0.00000000000E+00 -0.91241901932E+03  0.91241901932E+03  0.00000000000E+00 0. -1.
         23    2    1    2    0    0 -0.14663283056E+02  0.36155082939E+03  0.94205173020E+02  0.38519704347E+03  0.92564213242E+02 0.  0.
        254    2    1    2    0    0  0.14663283056E+02 -0.36155082939E+03 -0.46371762346E+03  0.10701285447E+04  0.89398381072E+03 0.  0.
        -24    2    4    4    0    0  0.25398289111E+03  0.18452579250E+03 -0.31076877236E+03  0.44896545592E+03  0.80222650579E+02 0.  0.
         24    2    4    4    0    0 -0.23931960805E+03 -0.54607662189E+03 -0.15294885110E+03  0.62116308881E+03  0.83526523145E+02 0.  0.
         13    1    3    3    0    0  0.33691259753E+02  0.23404618014E+03  0.48548058828E+02  0.24139103015E+03  0.00000000000E+00 0. -1.
        -13    1    3    3    0    0 -0.48354542810E+02  0.12750464925E+03  0.45657114192E+02  0.14380601332E+03  0.00000000000E+00 0.  1.
          2    1    6    6  502    0 -0.85336535316E+02 -0.12787073218E+03 -0.14079739969E+02  0.15437450400E+03  0.00000000000E+00 0. -1.
          1    1    5    5  503    0  0.22581096398E+03  0.13022246366E+03 -0.22991902671E+03  0.34757911378E+03  0.00000000000E+00 0. -1.
         -2    1    5    5    0  503  0.28171927130E+02  0.54303328843E+02 -0.80849745643E+02  0.10138634214E+03  0.00000000000E+00 0.  1.
         -1    1    6    6    0  502 -0.15398307274E+03 -0.41820588971E+03 -0.13886911113E+03  0.46678858481E+03  0.00000000000E+00 0.  1.
<mgrwt>
<rscale>  0 0.14076339E+04</rscale>
<asrwt>0</asrwt>
<pdfrwt beam="1">  1        2 0.83524088E-01 0.14076339E+04</pdfrwt>
<pdfrwt beam="2">  1       -2 0.14037216E+00 0.14076339E+04</pdfrwt>
<totfact> 0.19384673E+01</totfact>
</mgrwt>
</event>
<event>
12    1  0.1562393E-007  0.1477867E+04  0.7818608E-02  0.8899306E-01
         -1   -1    0    0    0  501 -0.00000000000E+00  0.00000000000E+00  0.10253926114E+04  0.10253926114E+04  0.00000000000E+00 0.  1.
          1   -1    0    0  501    0  0.00000000000E+00 -0.00000000000E+00 -0.53250103737E+03  0.53250103737E+03  0.00000000000E+00 0. -1.
         23    2    1    2    0    0 -0.37487666929E+03  0.29190211774E+03  0.19467732236E+03  0.51994700666E+03  0.81891796770E+02 0.  0.
        254    2    1    2    0    0  0.37487666929E+03 -0.29190211774E+03  0.29821425163E+03  0.10379466421E+04  0.87330528935E+03 0.  0.
        -24    2    4    4    0    0  0.42146931192E+03 -0.27836129053E+03  0.56033488633E+03  0.75784544348E+03  0.72340461671E+02 0.  0.
         24    2    4    4    0    0 -0.46592642639E+02 -0.13540827202E+02 -0.26212063470E+03  0.28010119860E+03  0.85995499731E+02 0.  0.
         11    1    3    3    0    0 -0.14797460096E+03  0.67877029049E+02  0.55046562574E+02  0.17185429193E+03  0.00000000000E+00 0. -1.
        -11    1    3    3    0    0 -0.22690206832E+03  0.22402508869E+03  0.13963075978E+03  0.34809271473E+03  0.00000000000E+00 0.  1.
          2    1    6    6  502    0 -0.42132825296E+02 -0.36012596104E+02 -0.24580166111E+03  0.25197328955E+03  0.00000000000E+00 0. -1.
          3    1    5    5  503    0  0.22498179363E+03 -0.12419547900E+03  0.32851352121E+03  0.41708806994E+03  0.00000000000E+00 0. -1.
         -2    1    5    5    0  503  0.19648751829E+03 -0.15416581154E+03  0.23182136512E+03  0.34075737353E+03  0.00000000000E+00 0.  1.
         -1    1    6    6    0  502 -0.44598173438E+01  0.22471768902E+02 -0.16318973590E+02  0.28127909046E+02  0.00000000000E+00 0.  1.
<mgrwt>
<rscale>  0 0.14778669E+04</rscale>
<asrwt>0</asrwt>
<pdfrwt beam="1">  1        1 0.81923237E-01 0.14778669E+04</pdfrwt>
<pdfrwt beam="2">  1       -1 0.15775271E+00 0.14778669E+04</pdfrwt>
<totfact> 0.11959725E+01</totfact>
</mgrwt>
</event>
<event>
12    1  0.1562393E-007  0.1152380E+04  0.7818608E-02  0.9155591E-01
          1   -1    0    0  501    0  0.00000000000E+00  0.00000000000E+00  0.15489023727E+04  0.15489023727E+04  0.00000000000E+00 0. -1.
         -1   -1    0    0    0  501 -0.00000000000E+00 -0.00000000000E+00 -0.21434210407E+03  0.21434210407E+03  0.00000000000E+00 0.  1.
         23    2    1    2    0    0 -0.88543167158E+02  0.15496707983E+03  0.24181568747E+03  0.31412945359E+03  0.91366288263E+02 0.  0.
        254    2    1    2    0    0  0.88543167158E+02 -0.15496707983E+03  0.10927445811E+04  0.14491150231E+04  0.93487375749E+03 0.  0.
        -24    2    4    4    0    0  0.17951736278E+03  0.36520542988E+03  0.43942124152E+03  0.60451960400E+03  0.82167113656E+02 0.  0.
         24    2    4    4    0    0 -0.90974195618E+02 -0.52017250970E+03  0.65332333959E+03  0.84459541914E+03  0.87488809866E+02 0.  0.
         13    1    3    3    0    0 -0.54187555085E+02  0.75205648036E+02  0.19395972859E+03  0.21497106070E+03  0.00000000000E+00 0. -1.
        -13    1    3    3    0    0 -0.34355612073E+02  0.79761431789E+02  0.47855958875E+02  0.99158392897E+02  0.00000000000E+00 0.  1.
          4    1    6    6  502    0 -0.49279663359E+02 -0.41643428353E+03  0.47008294656E+03  0.62993965930E+03  0.00000000000E+00 0. -1.
          3    1    5    5  503    0  0.77316212073E+02  0.24420543131E+03  0.25538070183E+03  0.36170898827E+03  0.00000000000E+00 0. -1.
         -4    1    5    5    0  503  0.10220115070E+03  0.12099999857E+03  0.18404053970E+03  0.24281061573E+03  0.00000000000E+00 0.  1.
         -3    1    6    6    0  502 -0.41694532260E+02 -0.10373822617E+03  0.18324039304E+03  0.21465575983E+03  0.00000000000E+00 0.  1.
<mgrwt>
<rscale>  0 0.11523801E+04</rscale>
<asrwt>0</asrwt>
<pdfrwt beam="1">  1        1 0.23829267E+00 0.11523801E+04</pdfrwt>
<pdfrwt beam="2">  1       -1 0.32975709E-01 0.11523801E+04</pdfrwt>
<totfact> 0.51862293E+01</totfact>
</mgrwt>
</event>
<event>
12    1  0.1562393E-007  0.2143202E+04  0.7818608E-02  0.8542448E-01
          2   -1    0    0  501    0  0.00000000000E+00  0.00000000000E+00  0.15609198696E+04  0.15609198696E+04  0.00000000000E+00 0. -1.
         -2   -1    0    0    0  501 -0.00000000000E+00 -0.00000000000E+00 -0.73567436903E+03  0.73567436903E+03  0.00000000000E+00 0.  1.
         23    2    1    2    0    0 -0.58532031290E+03  0.62372392247E+03  0.30926404583E+03  0.91417508255E+03  0.91871820242E+02 0.  0.
        254    2    1    2    0    0  0.58532031290E+03 -0.62372392247E+03  0.51598145476E+03  0.13824191561E+04  0.95562255173E+03 0.  0.
        -24    2    4    4    0    0 -0.16795518684E+03 -0.47102304859E+03  0.25255565543E+03  0.56590077635E+03  0.79922915954E+02 0.  0.
         24    2    4    4    0    0  0.75327549974E+03 -0.15270087389E+03  0.26342579934E+03  0.81651837976E+03  0.81040590681E+02 0.  0.
         11    1    3    3    0    0 -0.13433747149E+03  0.10846221476E+03  0.92860614460E+02  0.19604515295E+03  0.00000000000E+00 0. -1.
        -11    1    3    3    0    0 -0.45098284141E+03  0.51526170771E+03  0.21640343137E+03  0.71812992960E+03  0.00000000000E+00 0.  1.
          2    1    6    6  502    0  0.47536321292E+03 -0.11644089295E+03  0.13163108685E+03  0.50680904567E+03  0.00000000000E+00 0. -1.
          1    1    5    5  503    0 -0.16764789446E+02 -0.37545626642E+02 -0.16135704357E+01  0.41150162268E+02  0.00000000000E+00 0. -1.
         -2    1    5    5    0  503 -0.15119039740E+03 -0.43347742194E+03  0.25416922586E+03  0.52475061408E+03  0.00000000000E+00 0.  1.
         -1    1    6    6    0  502  0.27791228682E+03 -0.36259980938E+02  0.13179471249E+03  0.30970933409E+03  0.00000000000E+00 0.  1.
<mgrwt>
<rscale>  0 0.21432020E+04</rscale>
<asrwt>0</asrwt>
<pdfrwt beam="1">  1        2 0.24014152E+00 0.21432020E+04</pdfrwt>
<pdfrwt beam="2">  1       -2 0.11318067E+00 0.21432020E+04</pdfrwt>
<totfact> 0.66039874E+00</totfact>
</mgrwt>
</event>
<event>
12    1  0.1562393E-007  0.2268011E+04  0.7818608E-02  0.8490642E-01
          2   -1    0    0  501    0  0.00000000000E+00  0.00000000000E+00  0.13263349239E+04  0.13263349239E+04  0.00000000000E+00 0. -1.
         -2   -1    0    0    0  501 -0.00000000000E+00 -0.00000000000E+00 -0.96956579832E+03  0.96956579832E+03  0.00000000000E+00 0.  1.
         23    2    1    2    0    0  0.39109115474E+03  0.68024429378E+03  0.69396144543E+03  0.10514574131E+04  0.91080256912E+02 0.  0.
        254    2    1    2    0    0 -0.39109115474E+03 -0.68024429378E+03 -0.33719231980E+03  0.12444433092E+04  0.90512755939E+03 0.  0.
        -24    2    4    4    0    0 -0.51518691146E+03 -0.28357085702E+02 -0.79003524136E+02  0.52794243313E+03  0.79120021639E+02 0.  0.
         24    2    4    4    0    0  0.12409575672E+03 -0.65188720808E+03 -0.25818879567E+03  0.71650087608E+03  0.79720526331E+02 0.  0.
         13    1    3    3    0    0  0.33607172540E+03  0.56353017821E+03  0.62003609250E+03  0.90274870389E+03  0.00000000000E+00 0. -1.
        -13    1    3    3    0    0  0.55019429339E+02  0.11671411556E+03  0.73925352927E+02  0.14870870917E+03  0.00000000000E+00 0.  1.
          2    1    6    6  502    0  0.13118411374E+03 -0.54846631991E+03 -0.20546917016E+03  0.60020176246E+03  0.00000000000E+00 0. -1.
          1    1    5    5  503    0 -0.23445730836E+03  0.13936936575E+02 -0.65000219007E+02  0.24369960221E+03  0.00000000000E+00 0. -1.
         -2    1    5    5    0  503 -0.28072960310E+03 -0.42294022277E+02 -0.14003305129E+02  0.28424283093E+03  0.00000000000E+00 0.  1.
         -1    1    6    6    0  502 -0.70883570141E+01 -0.10342088817E+03 -0.52719625510E+02  0.11629911362E+03  0.00000000000E+00 0.  1.
<mgrwt>
<rscale>  0 0.22680114E+04</rscale>
<asrwt>0</asrwt>
<pdfrwt beam="1">  1        2 0.20405153E+00 0.22680114E+04</pdfrwt>
<pdfrwt beam="2">  1       -2 0.14916397E+00 0.22680114E+04</pdfrwt>
<totfact> 0.44116052E+00</totfact>
</mgrwt>
</event>
<event>
12    1  0.1562393E-007  0.1472063E+04  0.7818608E-02  0.8903246E-01
          2   -1    0    0  501    0  0.00000000000E+00  0.00000000000E+00  0.12415194243E+04  0.12415194243E+04  0.00000000000E+00 0. -1.
         -2   -1    0    0    0  501 -0.00000000000E+00 -0.00000000000E+00 -0.43635441537E+03  0.43635441537E+03  0.00000000000E+00 0.  1.
         23    2    1    2    0    0 -0.22226455225E+03 -0.32233262573E+03  0.52077040651E+03  0.65747298845E+03  0.88142279508E+02 0.  0.
        254    2    1    2    0    0  0.22226455225E+03  0.32233262573E+03  0.28439460242E+03  0.10204008512E+04  0.89835280068E+03 0.  0.
        -24    2    4    4    0    0  0.49719018870E+03  0.44091225575E+03  0.16069581095E+03  0.68843807003E+03  0.80759715138E+02 0.  0.
         24    2    4    4    0    0 -0.27492563645E+03 -0.11857963002E+03  0.12369879147E+03  0.33196278120E+03  0.72475256831E+02 0.  0.
         13    1    3    3    0    0 -0.21494596343E+03 -0.30269508713E+03  0.51650800892E+03  0.63608694865E+03  0.00000000000E+00 0. -1.
        -13    1    3    3    0    0 -0.73185888164E+01 -0.19637538606E+02  0.42623975921E+01  0.21386039793E+02  0.00000000000E+00 0.  1.
          2    1    6    6  502    0 -0.15176214542E+03 -0.10155472926E+03  0.59658320827E+02  0.19210472941E+03  0.00000000000E+00 0. -1.
          3    1    5    5  503    0  0.16085260090E+03  0.18287642063E+03  0.33464954738E+02  0.24583988210E+03  0.00000000000E+00 0. -1.
         -4    1    5    5    0  503  0.33633758781E+03  0.25803583513E+03  0.12723085622E+03  0.44259818792E+03  0.00000000000E+00 0.  1.
         -1    1    6    6    0  502 -0.12316349104E+03 -0.17024900763E+02  0.64040470639E+02  0.13985805179E+03  0.00000000000E+00 0.  1.
<mgrwt>
<rscale>  0 0.14720632E+04</rscale>
<asrwt>0</asrwt>
<pdfrwt beam="1">  1        2 0.19100299E+00 0.14720632E+04</pdfrwt>
<pdfrwt beam="2">  1       -2 0.67131449E-01 0.14720632E+04</pdfrwt>
<totfact> 0.35276699E+01</totfact>
</mgrwt>
</event>
<event>
12    1  0.1562393E-007  0.1778752E+04  0.7818608E-02  0.8717681E-01
          2   -1    0    0  501    0  0.00000000000E+00  0.00000000000E+00  0.15113283594E+04  0.15113283594E+04  0.00000000000E+00 0. -1.
         -2   -1    0    0    0  501 -0.00000000000E+00 -0.00000000000E+00 -0.52337354453E+03  0.52337354453E+03  0.00000000000E+00 0.  1.
         23    2    1    2    0    0  0.67926145995E+02 -0.23788827994E+03 -0.32758698398E+03  0.42033132406E+03  0.90334903949E+02 0.  0.
        254    2    1    2    0    0 -0.67926145995E+02  0.23788827994E+03  0.13155417989E+04  0.16143705799E+04  0.90240642152E+03 0.  0.
        -24    2    4    4    0    0 -0.13892426530E+03  0.54716218112E+03  0.10411453820E+04  0.11870737544E+04  0.80461096365E+02 0.  0.
         24    2    4    4    0    0  0.70998119308E+02 -0.30927390118E+03  0.27439641686E+03  0.42729682546E+03  0.81228717631E+02 0.  0.
         13    1    3    3    0    0  0.21234675043E+02 -0.47785664901E+02 -0.13901814629E+03  0.14852752672E+03  0.00000000000E+00 0. -1.
        -13    1    3    3    0    0  0.46691470952E+02 -0.19010261503E+03 -0.18856883769E+03  0.27180379734E+03  0.00000000000E+00 0.  1.
          2    1    6    6  502    0  0.47110888127E+02 -0.56349569962E+02  0.64731695906E+02  0.97902514114E+02  0.00000000000E+00 0. -1.
          1    1    5    5  503    0 -0.95300350240E+02  0.21520510213E+03  0.42168302028E+03  0.48292024427E+03  0.00000000000E+00 0. -1.
         -2    1    5    5    0  503 -0.43623915063E+02  0.33195707899E+03  0.61946236174E+03  0.70415351016E+03  0.00000000000E+00 0.  1.
         -1    1    6    6    0  502  0.23887231181E+02 -0.25292433122E+03  0.20966472095E+03  0.32939431135E+03  0.00000000000E+00 0.  1.
<mgrwt>
<rscale>  0 0.17787516E+04</rscale>
<asrwt>0</asrwt>
<pdfrwt beam="1">  1        2 0.23251205E+00 0.17787516E+04</pdfrwt>
<pdfrwt beam="2">  1       -2 0.80519007E-01 0.17787516E+04</pdfrwt>
<totfact> 0.16113877E+01</totfact>
</mgrwt>
</event>
<event>
12    1  0.1562393E-007  0.2551159E+04  0.7818608E-02  0.8384983E-01
          2   -1    0    0  501    0  0.00000000000E+00  0.00000000000E+00  0.25382306972E+04  0.25382306972E+04  0.00000000000E+00 0. -1.
         -2   -1    0    0    0  501 -0.00000000000E+00 -0.00000000000E+00 -0.64103832650E+03  0.64103832650E+03  0.00000000000E+00 0.  1.
         23    2    1    2    0    0  0.32029220766E+03  0.87725781965E+03  0.75969582378E+02  0.94146573766E+03  0.91749535778E+02 0.  0.
        254    2    1    2    0    0 -0.32029220766E+03 -0.87725781965E+03  0.18212227884E+04  0.22378032861E+04  0.90484403184E+03 0.  0.
        -24    2    4    4    0    0 -0.41553311818E+03 -0.42396792283E+02  0.39673504780E+03  0.58198703040E+03  0.82734183413E+02 0.  0.
         24    2    4    4    0    0  0.95240910518E+02 -0.83486102736E+03  0.14244877406E+04  0.16558162557E+04  0.80612552016E+02 0.  0.
         11    1    3    3    0    0  0.15688446589E+03  0.30295848793E+03  0.20038785109E+02  0.34175741975E+03  0.00000000000E+00 0. -1.
        -11    1    3    3    0    0  0.16340774177E+03  0.57429933172E+03  0.55930797269E+02  0.59970831791E+03  0.00000000000E+00 0.  1.
          4    1    6    6  502    0 -0.22297686862E+01 -0.30973565896E+03  0.50189416579E+03  0.58977869065E+03  0.00000000000E+00 0. -1.
          1    1    5    5  503    0 -0.41410591628E+03 -0.43294324930E+02  0.40058931154E+03  0.57778015281E+03  0.00000000000E+00 0. -1.
         -2    1    5    5    0  503 -0.14272018964E+01  0.89753264722E+00 -0.38542637344E+01  0.42068775880E+01  0.00000000000E+00 0.  1.
         -3    1    6    6    0  502  0.97470679204E+02 -0.52512536841E+03  0.92259357478E+03  0.10660375650E+04  0.00000000000E+00 0.  1.
<mgrwt>
<rscale>  0 0.25511591E+04</rscale>
<asrwt>0</asrwt>
<pdfrwt beam="1">  1        2 0.39049702E+00 0.25511591E+04</pdfrwt>
<pdfrwt beam="2">  1       -2 0.98621282E-01 0.25511591E+04</pdfrwt>
<totfact> 0.25068208E+00</totfact>
</mgrwt>
</event>
<event>
12    1  0.1562393E-007  0.2088109E+04  0.7818608E-02  0.8566500E-01
         -2   -1    0    0    0  501 -0.00000000000E+00  0.00000000000E+00  0.53916515885E+03  0.53916515885E+03  0.00000000000E+00 0.  1.
          2   -1    0    0  501    0  0.00000000000E+00 -0.00000000000E+00 -0.20217360038E+04  0.20217360038E+04  0.00000000000E+00 0. -1.
         23    2    1    2    0    0  0.47987920193E+03 -0.35356710843E+03  0.13245817793E+03  0.61760362272E+03  0.92710933976E+02 0.  0.
        254    2    1    2    0    0 -0.47987920193E+03  0.35356710843E+03 -0.16150290229E+04  0.19432975399E+04  0.90155024004E+03 0.  0.
        -24    2    4    4    0    0  0.34669961965E+02 -0.74840833135E+02 -0.10701741167E+04  0.10763136524E+04  0.79845360577E+02 0.  0.
         24    2    4    4    0    0 -0.51454916390E+03  0.42840794157E+03 -0.54485490616E+03  0.86698388755E+03  0.80622490928E+02 0.  0.
         13    1    3    3    0    0  0.26117071288E+03 -0.13951669771E+03  0.83846503753E+02  0.30774224019E+03  0.00000000000E+00 0.  1.
        -13    1    3    3    0    0  0.21870848905E+03 -0.21405041072E+03  0.48611674182E+02  0.30986138253E+03  0.00000000000E+00 0. -1.
          2    1    6    6  502    0 -0.32189327058E+03  0.31284488400E+03 -0.38344758141E+03  0.59035518697E+03  0.00000000000E+00 0. -1.
          3    1    5    5  503    0  0.98010397222E+01 -0.70953718130E+02 -0.45311986696E+03  0.45874623086E+03  0.00000000000E+00 0. -1.
         -4    1    5    5    0  503  0.24868922242E+02 -0.38871150048E+01 -0.61705424978E+03  0.61756742153E+03  0.00000000000E+00 0.  1.
         -1    1    6    6    0  502 -0.19265589332E+03  0.11556305757E+03 -0.16140732475E+03  0.27662870059E+03  0.00000000000E+00 0.  1.
<mgrwt>
<rscale>  0 0.20881088E+04</rscale>
<asrwt>0</asrwt>
<pdfrwt beam="1">  1        2 0.31103631E+00 0.20881088E+04</pdfrwt>
<pdfrwt beam="2">  1       -2 0.82948485E-01 0.20881088E+04</pdfrwt>
<totfact> 0.76335553E+00</totfact>
</mgrwt>
</event>
<event>
12    1  0.1562393E-007  0.1102748E+04  0.7818608E-02  0.9202518E-01
          2   -1    0    0  501    0  0.00000000000E+00  0.00000000000E+00  0.11187429593E+04  0.11187429593E+04  0.00000000000E+00 0. -1.
         -2   -1    0    0    0  501 -0.00000000000E+00 -0.00000000000E+00 -0.27174538610E+03  0.27174538610E+03  0.00000000000E+00 0.  1.
         23    2    1    2    0    0 -0.84162974182E+02 -0.14214279040E+03  0.17102320122E+03  0.25459089207E+03  0.90992350697E+02 0.  0.
        254    2    1    2    0    0  0.84162974182E+02  0.14214279040E+03  0.67597437198E+03  0.11358974533E+04  0.89779379249E+03 0.  0.
        -24    2    4    4    0    0  0.72541598669E+02  0.45756643479E+03  0.10978635574E+03  0.48287677245E+03  0.80545686905E+02 0.  0.
         24    2    4    4    0    0  0.11621375513E+02 -0.31542364440E+03  0.56618801623E+03  0.65302068088E+03  0.78993722012E+02 0.  0.
         13    1    3    3    0    0 -0.96129821016E+02 -0.94955492147E+02  0.14905158514E+03  0.20118116962E+03  0.00000000000E+00 0. -1.
        -13    1    3    3    0    0  0.11966846834E+02 -0.47187298250E+02  0.21971616086E+02  0.53409722455E+02  0.00000000000E+00 0.  1.
          2    1    6    6  502    0 -0.30490091814E+02 -0.16354016586E+03  0.32092414118E+03  0.36147937139E+03  0.00000000000E+00 0. -1.
          1    1    5    5  503    0  0.80908523883E+02  0.44270028519E+03  0.94235473040E+02  0.45979349291E+03  0.00000000000E+00 0. -1.
         -2    1    5    5    0  503 -0.83669252140E+01  0.14866149609E+02  0.15550882704E+02  0.23083279546E+02  0.00000000000E+00 0.  1.
         -1    1    6    6    0  502  0.42111467327E+02 -0.15188347854E+03  0.24526387505E+03  0.29154130949E+03  0.00000000000E+00 0.  1.
<mgrwt>
<rscale>  0 0.11027479E+04</rscale>
<asrwt>0</asrwt>
<pdfrwt beam="1">  1        2 0.17211430E+00 0.11027479E+04</pdfrwt>
<pdfrwt beam="2">  1       -2 0.41806983E-01 0.11027479E+04</pdfrwt>
<totfact> 0.11410097E+02</totfact>
</mgrwt>
</event>
<event>
12    1  0.1562393E-007  0.1631819E+04  0.7818608E-02  0.8801235E-01
          1   -1    0    0  501    0  0.00000000000E+00  0.00000000000E+00  0.19380748923E+04  0.19380748923E+04  0.00000000000E+00 0. -1.
         -1   -1    0    0    0  501 -0.00000000000E+00 -0.00000000000E+00 -0.34348946027E+03  0.34348946027E+03  0.00000000000E+00 0.  1.
         23    2    1    2    0    0 -0.33945332719E+03  0.40247608762E+03  0.18990854571E+03  0.56718372199E+03  0.91741791516E+02 0.  0.
        254    2    1    2    0    0  0.33945332719E+03 -0.40247608762E+03  0.14046768863E+04  0.17143806306E+04  0.82992061616E+03 0.  0.
        -24    2    4    4    0    0  0.37012037693E+03 -0.66650187160E+02  0.12954376512E+04  0.13513687242E+04  0.81285789531E+02 0.  0.
         24    2    4    4    0    0 -0.30667049743E+02 -0.33582590046E+03  0.10923923512E+03  0.36301190644E+03  0.78261934352E+02 0.  0.
         11    1    3    3    0    0 -0.30276808717E+03  0.33424753329E+03  0.13028550729E+03  0.46942969817E+03  0.00000000000E+00 0. -1.
        -11    1    3    3    0    0 -0.36685240020E+02  0.68228554335E+02  0.59623038425E+02  0.97754023820E+02  0.00000000000E+00 0.  1.
          2    1    6    6  502    0  0.25466414752E+02 -0.78419062452E+02  0.32291219080E+02  0.88548351006E+02  0.00000000000E+00 0. -1.
          1    1    5    5  503    0  0.27590779408E+02 -0.24403384801E+02  0.18117408470E+03  0.18488057027E+03  0.00000000000E+00 0. -1.
         -2    1    5    5    0  503  0.34252959752E+03 -0.42246802359E+02  0.11142635665E+04  0.11664881539E+04  0.00000000000E+00 0.  1.
         -1    1    6    6    0  502 -0.56133464496E+02 -0.25740683801E+03  0.76948016042E+02  0.27446355544E+03  0.00000000000E+00 0.  1.
<mgrwt>
<rscale>  0 0.16318190E+04</rscale>
<asrwt>0</asrwt>
<pdfrwt beam="1">  1        1 0.29816536E+00 0.16318190E+04</pdfrwt>
<pdfrwt beam="2">  1       -1 0.52844534E-01 0.16318190E+04</pdfrwt>
<totfact> 0.11344392E+01</totfact>
</mgrwt>
</event>
<event>
12    1  0.1562393E-007  0.2442663E+04  0.7818608E-02  0.8423702E-01
          2   -1    0    0  501    0  0.00000000000E+00  0.00000000000E+00  0.33754498339E+04  0.33754498339E+04  0.00000000000E+00 0. -1.
         -2   -1    0    0    0  501 -0.00000000000E+00 -0.00000000000E+00 -0.44191171847E+03  0.44191171847E+03  0.00000000000E+00 0.  1.
         23    2    1    2    0    0 -0.59968966476E+03  0.30209431242E+02 -0.73593912390E+02  0.61188210274E+03  0.91887648521E+02 0.  0.
        254    2    1    2    0    0  0.59968966476E+03 -0.30209431242E+02  0.30071320278E+04  0.32054794496E+04  0.93365687784E+03 0.  0.
        -24    2    4    4    0    0 -0.22816156409E+03  0.18789118403E+02  0.10635491646E+04  0.10907959323E+04  0.79298234610E+02 0.  0.
         24    2    4    4    0    0  0.82785122885E+03 -0.48998549645E+02  0.19435828632E+04  0.21146835173E+04  0.81446408670E+02 0.  0.
         13    1    3    3    0    0 -0.34758564987E+03  0.61850386517E+02 -0.52473246932E+02  0.35692393581E+03  0.00000000000E+00 0.  1.
        -13    1    3    3    0    0 -0.25210401489E+03 -0.31640955274E+02 -0.21120665458E+02  0.25495816693E+03  0.00000000000E+00 0. -1.
          2    1    6    6  502    0  0.82479011549E+02  0.18820613347E+02  0.21314801276E+03  0.22932308688E+03  0.00000000000E+00 0. -1.
          1    1    5    5  503    0 -0.89515762047E+02  0.12714329724E+02  0.25809519738E+03  0.27347368565E+03  0.00000000000E+00 0. -1.
         -2    1    5    5    0  503 -0.13864580204E+03  0.60747886787E+01  0.80545396726E+03  0.81732224664E+03  0.00000000000E+00 0.  1.
         -1    1    6    6    0  502  0.74537221730E+03 -0.67819162992E+02  0.17304348504E+04  0.18853604305E+04  0.00000000000E+00 0.  1.
<mgrwt>
<rscale>  0 0.24426632E+04</rscale>
<asrwt>0</asrwt>
<pdfrwt beam="1">  1        2 0.51929996E+00 0.24426632E+04</pdfrwt>
<pdfrwt beam="2">  1       -2 0.67986420E-01 0.24426632E+04</pdfrwt>
<totfact> 0.17611317E+00</totfact>
</mgrwt>
</event>
<event>
12    1  0.1562393E-007  0.1116227E+04  0.7818608E-02  0.9189518E-01
          2   -1    0    0  501    0  0.00000000000E+00  0.00000000000E+00  0.18959481978E+04  0.18959481978E+04  0.00000000000E+00 0. -1.
         -2   -1    0    0    0  501 -0.00000000000E+00 -0.00000000000E+00 -0.16429293724E+03  0.16429293724E+03  0.00000000000E+00 0.  1.
         23    2    1    2    0    0  0.16530769602E+03  0.18452014979E+02  0.19907905820E+03  0.28288627887E+03  0.11280542602E+03 0.  0.
        254    2    1    2    0    0 -0.16530769602E+03 -0.18452014979E+02  0.15325762023E+04  0.17773548561E+04  0.88460915521E+03 0.  0.
        -24    2    4    4    0    0  0.17145947801E+03  0.65013333779E+02 -0.40611708187E+01  0.19998698674E+03  0.79707061093E+02 0.  0.
         24    2    4    4    0    0 -0.33676717403E+03 -0.83465348758E+02  0.15366373731E+04  0.15773678694E+04  0.80351633006E+02 0.  0.
         11    1    3    3    0    0  0.15890494236E+03  0.45222413337E+02  0.19413546653E+03  0.25492043217E+03  0.00000000000E+00 0. -1.
        -11    1    3    3    0    0  0.64027536526E+01 -0.26770398358E+02  0.49435916692E+01  0.27965846692E+02  0.00000000000E+00 0.  1.
          2    1    6    6  502    0 -0.11097738635E+03 -0.11128363609E+02  0.35237853123E+03  0.36960850914E+03  0.00000000000E+00 0. -1.
          3    1    5    5  503    0  0.11759143471E+02 -0.16489155682E+02 -0.42387506145E+01  0.20691464836E+02  0.00000000000E+00 0. -1.
         -4    1    5    5    0  503  0.15970033454E+03  0.81502489460E+02  0.17757979586E+00  0.17929552190E+03  0.00000000000E+00 0.  1.
         -1    1    6    6    0  502 -0.22578978767E+03 -0.72336985149E+02  0.11842588419E+04  0.12077593602E+04  0.00000000000E+00 0.  1.
<mgrwt>
<rscale>  0 0.11162274E+04</rscale>
<asrwt>0</asrwt>
<pdfrwt beam="1">  1        2 0.29168432E+00 0.11162274E+04</pdfrwt>
<pdfrwt beam="2">  1       -2 0.25275838E-01 0.11162274E+04</pdfrwt>
<totfact> 0.10659415E+02</totfact>
</mgrwt>
</event>
<event>
12    1  0.1562393E-007  0.1396674E+04  0.7818608E-02  0.8956229E-01
         -2   -1    0    0    0  501 -0.00000000000E+00  0.00000000000E+00  0.30923900625E+03  0.30923900625E+03  0.00000000000E+00 0.  1.
          2   -1    0    0  501    0  0.00000000000E+00 -0.00000000000E+00 -0.15770156467E+04  0.15770156467E+04  0.00000000000E+00 0. -1.
         23    2    1    2    0    0  0.34459894107E+03 -0.16182771353E+03 -0.61917149163E+03  0.73242517453E+03  0.90203443294E+02 0.  0.
        254    2    1    2    0    0 -0.34459894107E+03  0.16182771353E+03 -0.64860514882E+03  0.11538294784E+04  0.87504124884E+03 0.  0.
        -24    2    4    4    0    0 -0.36974178982E+03  0.41027033896E+03 -0.69083910398E+03  0.88862054363E+03  0.85773310520E+02 0.  0.
         24    2    4    4    0    0  0.25142848752E+02 -0.24844262544E+03  0.42233955156E+02  0.26520893481E+03  0.78715761805E+02 0.  0.
         13    1    3    3    0    0  0.24248930837E+03 -0.68367278600E+02 -0.37573049311E+03  0.45238098204E+03  0.00000000000E+00 0.  1.
        -13    1    3    3    0    0  0.10210963270E+03 -0.93460434926E+02 -0.24344099852E+03  0.28004419249E+03  0.00000000000E+00 0. -1.
          4    1    6    6  502    0 -0.27210041509E+02 -0.54363697463E+02  0.11021743979E+02  0.61784114472E+02  0.00000000000E+00 0. -1.
          1    1    5    5  503    0 -0.32403727802E+03  0.39241311038E+03 -0.61449992263E+03  0.79787114352E+03  0.00000000000E+00 0. -1.
         -2    1    5    5    0  503 -0.45704511796E+02  0.17857228586E+02 -0.76339181349E+02  0.90749400110E+02  0.00000000000E+00 0.  1.
         -3    1    6    6    0  502  0.52352890261E+02 -0.19407892798E+03  0.31212211177E+02  0.20342482034E+03  0.00000000000E+00 0.  1.
<mgrwt>
<rscale>  0 0.13966743E+04</rscale>
<asrwt>0</asrwt>
<pdfrwt beam="1">  1        2 0.24261780E+00 0.13966743E+04</pdfrwt>
<pdfrwt beam="2">  1       -2 0.47575231E-01 0.13966743E+04</pdfrwt>
<totfact> 0.46813334E+01</totfact>
</mgrwt>
</event>
<event>
12    1  0.1562393E-007  0.1752345E+04  0.7818608E-02  0.8732061E-01
          2   -1    0    0  501    0  0.00000000000E+00  0.00000000000E+00  0.91423096391E+03  0.91423096391E+03  0.00000000000E+00 0. -1.
         -2   -1    0    0    0  501 -0.00000000000E+00 -0.00000000000E+00 -0.83969808825E+03  0.83969808825E+03  0.00000000000E+00 0.  1.
         23    2    1    2    0    0  0.62145203134E+03 -0.12024901685E+03 -0.21343499472E+02  0.63981808961E+03  0.90825048896E+02 0.  0.
        254    2    1    2    0    0 -0.62145203134E+03  0.12024901685E+03  0.95876375134E+02  0.11141109626E+04  0.91180508019E+03 0.  0.
        -24    2    4    4    0    0 -0.48239448372E+03 -0.27443884724E+03 -0.20091766410E+03  0.59506768374E+03  0.75607682738E+02 0.  0.
         24    2    4    4    0    0 -0.13905754762E+03  0.39468786409E+03  0.29679403923E+03  0.51904327881E+03  0.78763646067E+02 0.  0.
         11    1    3    3    0    0  0.48295314109E+03 -0.82449480105E+02  0.20221974826E+02  0.49035760575E+03  0.00000000000E+00 0.  1.
        -11    1    3    3    0    0  0.13849889026E+03 -0.37799536745E+02 -0.41565474299E+02  0.14946048386E+03  0.00000000000E+00 0. -1.
          4    1    6    6  502    0 -0.53899921324E+02  0.10362034920E+03  0.12249030063E+03  0.16925203702E+03  0.00000000000E+00 0. -1.
          1    1    5    5  503    0 -0.42565515457E+02 -0.51851317795E+02 -0.27615363365E+02  0.72546471706E+02  0.00000000000E+00 0. -1.
         -2    1    5    5    0  503 -0.43982896827E+03 -0.22258752944E+03 -0.17330230073E+03  0.52252121204E+03  0.00000000000E+00 0.  1.
         -3    1    6    6    0  502 -0.85157626295E+02  0.29106751489E+03  0.17430373860E+03  0.34979124179E+03  0.00000000000E+00 0.  1.
<mgrwt>
<rscale>  0 0.17523447E+04</rscale>
<asrwt>0</asrwt>
<pdfrwt beam="1">  1        2 0.14065092E+00 0.17523447E+04</pdfrwt>
<pdfrwt beam="2">  1       -2 0.12918432E+00 0.17523447E+04</pdfrwt>
<totfact> 0.11992586E+01</totfact>
</mgrwt>
</event>
<event>
12    1  0.1562393E-007  0.3150767E+04  0.7818608E-02  0.8201942E-01
          2   -1    0    0  501    0  0.00000000000E+00  0.00000000000E+00  0.31640057218E+04  0.31640057218E+04  0.00000000000E+00 0. -1.
         -2   -1    0    0    0  501 -0.00000000000E+00 -0.00000000000E+00 -0.78439588125E+03  0.78439588125E+03  0.00000000000E+00 0.  1.
         23    2    1    2    0    0  0.80459116990E+03 -0.11149649270E+04  0.53651458262E+03  0.14790676844E+04  0.96330570347E+02 0.  0.
        254    2    1    2    0    0 -0.80459116990E+03  0.11149649270E+04  0.18430952580E+04  0.24693339186E+04  0.90005340553E+03 0.  0.
        -24    2    4    4    0    0 -0.96792867788E+03  0.10122153594E+04  0.14103675027E+04  0.19891494848E+04  0.78187730055E+02 0.  0.
         24    2    4    4    0    0  0.16333750798E+03  0.10274956759E+03  0.43272775527E+03  0.48018443382E+03  0.78020286775E+02 0.  0.
         11    1    3    3    0    0  0.27294709563E+03 -0.30652355374E+03  0.17416593993E+03  0.44585937317E+03  0.00000000000E+00 0. -1.
        -11    1    3    3    0    0  0.53164407428E+03 -0.80844137321E+03  0.36234864269E+03  0.10332083113E+04  0.00000000000E+00 0.  1.
          4    1    6    6  502    0  0.34727392642E+02  0.92686134904E+01  0.16444537144E+03  0.16832759484E+03  0.00000000000E+00 0. -1.
          3    1    5    5  503    0 -0.81244487373E+03  0.88830306584E+03  0.12030771876E+04  0.17019235380E+04  0.00000000000E+00 0. -1.
         -4    1    5    5    0  503 -0.15548380415E+03  0.12391229352E+03  0.20729031505E+03  0.28722594686E+03  0.00000000000E+00 0.  1.
         -3    1    6    6    0  502  0.12861011533E+03  0.93480954098E+02  0.26828238383E+03  0.31185683898E+03  0.00000000000E+00 0.  1.
<mgrwt>
<rscale>  0 0.31507669E+04</rscale>
<asrwt>0</asrwt>
<pdfrwt beam="1">  1        2 0.48677010E+00 0.31507669E+04</pdfrwt>
<pdfrwt beam="2">  1       -2 0.12067629E+00 0.31507669E+04</pdfrwt>
<totfact> 0.60538418E-01</totfact>
</mgrwt>
</event>
<event>
12    1  0.1562393E-007  0.1459493E+04  0.7818608E-02  0.8911845E-01
         -2   -1    0    0    0  501 -0.00000000000E+00  0.00000000000E+00  0.81594270834E+03  0.81594270834E+03  0.00000000000E+00 0.  1.
          2   -1    0    0  501    0  0.00000000000E+00 -0.00000000000E+00 -0.65265623447E+03  0.65265623447E+03  0.00000000000E+00 0. -1.
         23    2    1    2    0    0  0.36713945985E+03  0.23572251406E+03  0.16917258740E+03  0.47641522702E+03  0.89418217363E+02 0.  0.
        254    2    1    2    0    0 -0.36713945985E+03 -0.23572251406E+03 -0.58861135401E+01  0.99218371578E+03  0.89108775826E+03 0.  0.
        -24    2    4    4    0    0 -0.61024328726E+02  0.32226103475E+03 -0.76470297425E+02  0.34663809160E+03  0.82061665494E+02 0.  0.
         24    2    4    4    0    0 -0.30611513112E+03 -0.55798354882E+03  0.70584183884E+02  0.64554562418E+03  0.81822439685E+02 0.  0.
         13    1    3    3    0    0  0.25835318310E+02  0.68909206536E+01 -0.94433710286E+01  0.28357110502E+02  0.00000000000E+00 0. -1.
        -13    1    3    3    0    0  0.34130414154E+03  0.22883159341E+03  0.17861595843E+03  0.44805811652E+03  0.00000000000E+00 0.  1.
          2    1    6    6  502    0 -0.58266352692E+02 -0.12793667823E+03  0.48455091357E+02  0.14869652777E+03  0.00000000000E+00 0. -1.
          1    1    5    5  503    0  0.62005878350E+01  0.85789359012E+02 -0.49709611732E+02  0.99344385386E+02  0.00000000000E+00 0. -1.
         -2    1    5    5    0  503 -0.67224916561E+02  0.23647167574E+03 -0.26760685692E+02  0.24729370621E+03  0.00000000000E+00 0.  1.
         -1    1    6    6    0  502 -0.24784877843E+03 -0.43004687059E+03  0.22129092528E+02  0.49684909641E+03  0.00000000000E+00 0.  1.
<mgrwt>
<rscale>  0 0.14594932E+04</rscale>
<asrwt>0</asrwt>
<pdfrwt beam="1">  1        2 0.10040865E+00 0.14594932E+04</pdfrwt>
<pdfrwt beam="2">  1       -2 0.12552965E+00 0.14594932E+04</pdfrwt>
<totfact> 0.20561884E+01</totfact>
</mgrwt>
</event>
<event>
12    1  0.1562393E-007  0.2099648E+04  0.7818608E-02  0.8561398E-01
         -1   -1    0    0    0  501 -0.00000000000E+00  0.00000000000E+00  0.50278020615E+03  0.50278020615E+03  0.00000000000E+00 0.  1.
          1   -1    0    0  501    0  0.00000000000E+00 -0.00000000000E+00 -0.21920725180E+04  0.21920725180E+04  0.00000000000E+00 0. -1.
         23    2    1    2    0    0  0.69908600025E+03 -0.35119418821E+03 -0.25114329935E+03  0.82670670010E+03  0.91172460794E+02 0.  0.
        254    2    1    2    0    0 -0.69908600025E+03  0.35119418821E+03 -0.14381490125E+04  0.18681460240E+04  0.89979908392E+03 0.  0.
        -24    2    4    4    0    0 -0.15939594087E+03 -0.27938194170E+03 -0.24360396591E+03  0.41122017512E+03  0.79358710361E+02 0.  0.
         24    2    4    4    0    0 -0.53969005938E+03  0.63057612991E+03 -0.11945450466E+04  0.14569258489E+04  0.82482998927E+02 0.  0.
         11    1    3    3    0    0  0.10878023452E+03 -0.41865339878E+02 -0.70481873528E+02  0.13621138206E+03  0.00000000000E+00 0. -1.
        -11    1    3    3    0    0  0.59030576573E+03 -0.30932884834E+03 -0.18066142582E+03  0.69049531805E+03  0.00000000000E+00 0.  1.
          2    1    6    6  502    0 -0.24881183315E+03  0.29435112655E+03 -0.62685019647E+03  0.73586077679E+03  0.00000000000E+00 0. -1.
          1    1    5    5  503    0 -0.46473811310E+02 -0.36840626838E+02 -0.72409310627E+02  0.93595700697E+02  0.00000000000E+00 0. -1.
         -2    1    5    5    0  503 -0.11292212956E+03 -0.24254131486E+03 -0.17119465528E+03  0.31762447443E+03  0.00000000000E+00 0.  1.
         -1    1    6    6    0  502 -0.29087822624E+03  0.33622500336E+03 -0.56769485012E+03  0.72106507213E+03  0.00000000000E+00 0.  1.
<mgrwt>
<rscale>  0 0.20996482E+04</rscale>
<asrwt>0</asrwt>
<pdfrwt beam="1">  1        1 0.33724193E+00 0.20996482E+04</pdfrwt>
<pdfrwt beam="2">  1       -1 0.77350799E-01 0.20996482E+04</pdfrwt>
<totfact> 0.33989204E+00</totfact>
</mgrwt>
</event>
<event>
12    1  0.1562393E-007  0.2120680E+04  0.7818608E-02  0.8552188E-01
          2   -1    0    0  501    0  0.00000000000E+00  0.00000000000E+00  0.20135532950E+04  0.20135532950E+04  0.00000000000E+00 0. -1.
         -2   -1    0    0    0  501 -0.00000000000E+00 -0.00000000000E+00 -0.55837656503E+03  0.55837656503E+03  0.00000000000E+00 0.  1.
         23    2    1    2    0    0 -0.41053921038E+03  0.64715797728E+03  0.10546932387E+04  0.13064919652E+04  0.84779341175E+02 0.  0.
        254    2    1    2    0    0  0.41053921038E+03 -0.64715797728E+03  0.40048349135E+03  0.12654378949E+04  0.92389942530E+03 0.  0.
        -24    2    4    4    0    0  0.58886074985E+03 -0.49145821305E+03 -0.25507673878E+02  0.77145629059E+03  0.78778226480E+02 0.  0.
         24    2    4    4    0    0 -0.17832153947E+03 -0.15569976423E+03  0.42599116522E+03  0.49398160426E+03  0.80674435114E+02 0.  0.
         11    1    3    3    0    0 -0.19509620545E+03  0.33006216296E+03  0.59623538301E+03  0.70887247990E+03  0.00000000000E+00 0. -1.
        -11    1    3    3    0    0 -0.21544300493E+03  0.31709581432E+03  0.45845785564E+03  0.59761948532E+03  0.00000000000E+00 0.  1.
          4    1    6    6  502    0 -0.10479392752E+03 -0.50422574288E+02  0.15194103449E+03  0.19133813317E+03  0.00000000000E+00 0. -1.
          3    1    5    5  503    0  0.58855196669E+03 -0.49009276106E+03 -0.20399287879E+02  0.76615955445E+03  0.00000000000E+00 0. -1.
         -4    1    5    5    0  503  0.30878316636E+00 -0.13654519974E+01 -0.51083859991E+01  0.52967361381E+01  0.00000000000E+00 0.  1.
         -3    1    6    6    0  502 -0.73527611957E+02 -0.10527718994E+03  0.27405013073E+03  0.30264347110E+03  0.00000000000E+00 0.  1.
<mgrwt>
<rscale>  0 0.21206801E+04</rscale>
<asrwt>0</asrwt>
<pdfrwt beam="1">  1        2 0.30977743E+00 0.21206801E+04</pdfrwt>
<pdfrwt beam="2">  1       -2 0.85904088E-01 0.21206801E+04</pdfrwt>
<totfact> 0.71043197E+00</totfact>
</mgrwt>
</event>
<event>
12    1  0.1562393E-007  0.1158265E+04  0.7818608E-02  0.9150192E-01
         -1   -1    0    0    0  501 -0.00000000000E+00  0.00000000000E+00  0.11530917712E+03  0.11530917712E+03  0.00000000000E+00 0. -1.
          1   -1    0    0  501    0  0.00000000000E+00 -0.00000000000E+00 -0.29086548079E+04  0.29086548079E+04  0.00000000000E+00 0.  1.
         23    2    1    2    0    0  0.11568904213E+03 -0.83117980237E+02 -0.97731902717E+03  0.99221779127E+03  0.95137328814E+02 0.  0.
        254    2    1    2    0    0 -0.11568904213E+03  0.83117980237E+02 -0.18160266036E+04  0.20317461938E+04  0.89985966556E+03 0.  0.
        -24    2    4    4    0    0 -0.24611315997E+03  0.80448413504E+02 -0.69963994044E+02  0.27892834584E+03  0.76566486829E+02 0.  0.
         24    2    4    4    0    0  0.13042411784E+03  0.26695667333E+01 -0.17460626096E+04  0.17528178479E+04  0.81352285451E+02 0.  0.
         11    1    3    3    0    0  0.34682909044E+02 -0.47592541085E+01 -0.73638311284E+02  0.81536222430E+02  0.00000000000E+00 0. -1.
        -11    1    3    3    0    0  0.81006133086E+02 -0.78358726128E+02 -0.90368071589E+03  0.91068156884E+03  0.00000000000E+00 0.  1.
          2    1    6    6  502    0  0.10826858112E+03 -0.30958181822E+02 -0.11997624734E+04  0.12050354714E+04  0.00000000000E+00 0. -1.
          1    1    5    5  503    0 -0.18685544428E+03  0.42783406953E+02 -0.80536655964E+02  0.20792193227E+03  0.00000000000E+00 0. -1.
         -2    1    5    5    0  503 -0.59257715689E+02  0.37665006551E+02  0.10572661920E+02  0.71006413564E+02  0.00000000000E+00 0.  1.
         -1    1    6    6    0  502  0.22155536718E+02  0.33627748555E+02 -0.54630013614E+03  0.54778237652E+03  0.00000000000E+00 0.  1.
<mgrwt>
<rscale>  0 0.11582652E+04</rscale>
<asrwt>0</asrwt>
<pdfrwt beam="1">  1        1 0.44748534E+00 0.11582652E+04</pdfrwt>
<pdfrwt beam="2">  1       -1 0.17739874E-01 0.11582652E+04</pdfrwt>
<totfact> 0.17495694E+01</totfact>
</mgrwt>
</event>
<event>
12    1  0.1562393E-007  0.1299570E+04  0.7818608E-02  0.9029906E-01
         -2   -1    0    0    0  501 -0.00000000000E+00  0.00000000000E+00  0.21644704088E+03  0.21644704088E+03  0.00000000000E+00 0. -1.
          2   -1    0    0  501    0  0.00000000000E+00 -0.00000000000E+00 -0.19506869152E+04  0.19506869152E+04  0.00000000000E+00 0.  1.
         23    2    1    2    0    0  0.28044230441E+03  0.15659743233E+03 -0.59456137765E+03  0.68188675723E+03  0.91080601539E+02 0.  0.
        254    2    1    2    0    0 -0.28044230441E+03 -0.15659743233E+03 -0.11396784967E+04  0.14852471988E+04  0.89661670963E+03 0.  0.
        -24    2    4    4    0    0 -0.18057790103E+03 -0.52395469599E+03 -0.73270524017E+03  0.92221013704E+03  0.80483949361E+02 0.  0.
         24    2    4    4    0    0 -0.99864403380E+02  0.36735726366E+03 -0.40697325649E+03  0.56303706179E+03  0.80369417221E+02 0.  0.
         11    1    3    3    0    0  0.12230730535E+03  0.11164305057E+03 -0.35006629603E+03  0.38725916296E+03  0.00000000000E+00 0.  1.
        -11    1    3    3    0    0  0.15813499906E+03  0.44954381756E+02 -0.24449508162E+03  0.29462759427E+03  0.00000000000E+00 0. -1.
          4    1    6    6  502    0 -0.41586294544E+02  0.63379841939E+02 -0.51218602038E+02  0.91486444093E+02  0.00000000000E+00 0. -1.
          3    1    5    5  503    0 -0.61039454891E+02 -0.11250634239E+03 -0.21480726620E+03  0.25005130223E+03  0.00000000000E+00 0. -1.
         -4    1    5    5    0  503 -0.11953844614E+03 -0.41144835360E+03 -0.51789797397E+03  0.67215883482E+03  0.00000000000E+00 0.  1.
         -3    1    6    6    0  502 -0.58278108836E+02  0.30397742172E+03 -0.35575465445E+03  0.47155061770E+03  0.00000000000E+00 0.  1.
<mgrwt>
<rscale>  0 0.12995698E+04</rscale>
<asrwt>0</asrwt>
<pdfrwt beam="1">  1        2 0.30010569E+00 0.12995698E+04</pdfrwt>
<pdfrwt beam="2">  1       -2 0.33299544E-01 0.12995698E+04</pdfrwt>
<totfact> 0.58806333E+01</totfact>
</mgrwt>
</event>
<event>
12    1  0.1562393E-007  0.1535067E+04  0.7818608E-02  0.8861463E-01
         -2   -1    0    0    0  501 -0.00000000000E+00  0.00000000000E+00  0.42301949298E+03  0.42301949298E+03  0.00000000000E+00 0.  1.
          2   -1    0    0  501    0  0.00000000000E+00 -0.00000000000E+00 -0.13926258531E+04  0.13926258531E+04  0.00000000000E+00 0. -1.
         23    2    1    2    0    0 -0.29266445623E+02  0.21245259543E+02 -0.90308122374E+03  0.90842244865E+03  0.91475475586E+02 0.  0.
        254    2    1    2    0    0  0.29266445623E+02 -0.21245259543E+02 -0.66525136348E+02  0.90722289742E+03  0.90405746827E+03 0.  0.
        -24    2    4    4    0    0  0.33310066759E+03  0.29537926881E+03 -0.87220579741E+02  0.46063337426E+03  0.79816719785E+02 0.  0.
         24    2    4    4    0    0 -0.30383422196E+03 -0.31662452835E+03  0.20695443393E+02  0.44658952316E+03  0.80296789643E+02 0.  0.
         11    1    3    3    0    0  0.26447213786E+02 -0.79675253416E+01 -0.13663618061E+03  0.13940008045E+03  0.00000000000E+00 0.  1.
        -11    1    3    3    0    0 -0.55713659410E+02  0.29212784884E+02 -0.76644504313E+03  0.76902236820E+03  0.00000000000E+00 0. -1.
          4    1    6    6  502    0 -0.41987790019E+02 -0.53216069455E+02  0.32098480707E+02  0.75001580134E+02  0.00000000000E+00 0. -1.
          3    1    5    5  503    0  0.32980755936E+02  0.55432605016E+02 -0.33394146828E+02  0.72633828230E+02  0.00000000000E+00 0. -1.
         -4    1    5    5    0  503  0.30011991165E+03  0.23994666380E+03 -0.53826432913E+02  0.38799954603E+03  0.00000000000E+00 0.  1.
         -3    1    6    6    0  502 -0.26184643194E+03 -0.26340845890E+03 -0.11403037315E+02  0.37158794303E+03  0.00000000000E+00 0.  1.
<mgrwt>
<rscale>  0 0.15350673E+04</rscale>
<asrwt>0</asrwt>
<pdfrwt beam="1">  1        2 0.21425013E+00 0.15350673E+04</pdfrwt>
<pdfrwt beam="2">  1       -2 0.65079923E-01 0.15350673E+04</pdfrwt>
<totfact> 0.30658110E+01</totfact>
</mgrwt>
</event>
<event>
12    1  0.1562393E-007  0.2316972E+04  0.7818608E-02  0.8471259E-01
          2   -1    0    0  501    0  0.00000000000E+00  0.00000000000E+00  0.23232021008E+04  0.23232021008E+04  0.00000000000E+00 0. -1.
         -2   -1    0    0    0  501 -0.00000000000E+00 -0.00000000000E+00 -0.57768960955E+03  0.57768960955E+03  0.00000000000E+00 0.  1.
         23    2    1    2    0    0 -0.28223603417E+03  0.30590184307E+03 -0.36538658606E+03  0.56121060388E+03  0.90646941785E+02 0.  0.
        254    2    1    2    0    0  0.28223603417E+03 -0.30590184307E+03  0.21108990773E+04  0.23396811064E+04  0.91922774588E+03 0.  0.
        -24    2    4    4    0    0  0.53295786232E+03 -0.33148655192E+03  0.18963039249E+04  0.19990649644E+04  0.79779315341E+02 0.  0.
         24    2    4    4    0    0 -0.25072182816E+03  0.25584708844E+02  0.21459515235E+03  0.34061614202E+03  0.80325988009E+02 0.  0.
         11    1    3    3    0    0 -0.20134825276E+03  0.20187185996E+03 -0.19331527323E+03  0.34447664884E+03  0.00000000000E+00 0.  1.
        -11    1    3    3    0    0 -0.80887781413E+02  0.10402998312E+03 -0.17207131283E+03  0.21673395504E+03  0.00000000000E+00 0. -1.
          4    1    6    6  502    0 -0.36792661755E+02 -0.69409289271E+00  0.75788499044E+02  0.84250093836E+02  0.00000000000E+00 0. -1.
          3    1    5    5  503    0  0.92649274786E+02 -0.24644347170E+02  0.27277126968E+03  0.28912868680E+03  0.00000000000E+00 0. -1.
         -4    1    5    5    0  503  0.44030858754E+03 -0.30684220475E+03  0.16235326553E+04  0.17099362776E+04  0.00000000000E+00 0.  1.
         -3    1    6    6    0  502 -0.21392916640E+03  0.26278801737E+02  0.13880665330E+03  0.25636604818E+03  0.00000000000E+00 0.  1.
<mgrwt>
<rscale>  0 0.23169719E+04</rscale>
<asrwt>0</asrwt>
<pdfrwt beam="1">  1        2 0.35741570E+00 0.23169719E+04</pdfrwt>
<pdfrwt beam="2">  1       -2 0.88875326E-01 0.23169719E+04</pdfrwt>
<totfact> 0.43312549E+00</totfact>
</mgrwt>
</event>
<event>
12    1  0.1562393E-007  0.1467280E+04  0.7818608E-02  0.8906508E-01
          2   -1    0    0  501    0  0.00000000000E+00  0.00000000000E+00  0.10913540734E+04  0.10913540734E+04  0.00000000000E+00 0. -1.
         -2   -1    0    0    0  501 -0.00000000000E+00 -0.00000000000E+00 -0.49317416562E+03  0.49317416562E+03  0.00000000000E+00 0.  1.
         23    2    1    2    0    0  0.23155348149E+03  0.32005861348E+03  0.37755154126E+03  0.55323738136E+03  0.86440169937E+02 0.  0.
        254    2    1    2    0    0 -0.23155348149E+03 -0.32005861348E+03  0.22062836656E+03  0.10312908577E+04  0.92673050355E+03 0.  0.
        -24    2    4    4    0    0  0.74547466471E+02 -0.38571883344E+03  0.47395071730E+03  0.62069412156E+03  0.79344608423E+02 0.  0.
         24    2    4    4    0    0 -0.30610094796E+03  0.65660219957E+02 -0.25332235073E+03  0.41059673615E+03  0.80052554815E+02 0.  0.
         11    1    3    3    0    0  0.20294207897E+02  0.79613054625E+01  0.47521819192E+02  0.52283463525E+02  0.00000000000E+00 0.  1.
        -11    1    3    3    0    0  0.21125927359E+03  0.31209730802E+03  0.33002972206E+03  0.50095391783E+03  0.00000000000E+00 0. -1.
          4    1    6    6  502    0 -0.10141749194E+03  0.53559042201E+02 -0.12015814372E+03  0.16610857346E+03  0.00000000000E+00 0. -1.
          3    1    5    5  503    0  0.43389680259E+02 -0.26020328253E+03  0.25804864114E+03  0.36902237572E+03  0.00000000000E+00 0. -1.
         -4    1    5    5    0  503  0.31157786212E+02 -0.12551555091E+03  0.21590207616E+03  0.25167174584E+03  0.00000000000E+00 0.  1.
         -3    1    6    6    0  502 -0.20468345601E+03  0.12101177757E+02 -0.13316420701E+03  0.24448816269E+03  0.00000000000E+00 0.  1.
<mgrwt>
<rscale>  0 0.14672800E+04</rscale>
<asrwt>0</asrwt>
<pdfrwt beam="1">  1        2 0.16790063E+00 0.14672800E+04</pdfrwt>
<pdfrwt beam="2">  1       -2 0.75872949E-01 0.14672800E+04</pdfrwt>
<totfact> 0.33251996E+01</totfact>
</mgrwt>
</event>
<event>
12    1  0.1562393E-007  0.1930104E+04  0.7818608E-02  0.8640015E-01
          1   -1    0    0  501    0  0.00000000000E+00  0.00000000000E+00  0.13883905952E+04  0.13883905952E+04  0.00000000000E+00 0. -1.
         -1   -1    0    0    0  501 -0.00000000000E+00 -0.00000000000E+00 -0.67079474952E+03  0.67079474952E+03  0.00000000000E+00 0.  1.
         23    2    1    2    0    0 -0.10164096618E+03 -0.51868663001E+03 -0.28781333836E+03  0.60887772337E+03  0.92351817089E+02 0.  0.
        254    2    1    2    0    0  0.10164096618E+03  0.51868663001E+03  0.10054091840E+04  0.14503076213E+04  0.90176375122E+03 0.  0.
        -24    2    4    4    0    0 -0.18408613327E+03  0.65761500706E+03  0.83372506899E+03  0.10804370549E+04  0.76821462171E+02 0.  0.
         24    2    4    4    0    0  0.28572709945E+03 -0.13892837705E+03  0.17168411502E+03  0.36987056638E+03  0.79923283308E+02 0.  0.
         13    1    3    3    0    0 -0.30247310548E+02 -0.16348870481E+03 -0.14084793548E+03  0.21790272446E+03  0.00000000000E+00 0.  1.
        -13    1    3    3    0    0 -0.71393655631E+02 -0.35519792520E+03 -0.14696540288E+03  0.39097499891E+03  0.00000000000E+00 0. -1.
          4    1    6    6  502    0  0.50310374425E+02 -0.27351688066E+02  0.69438543973E+02  0.90005333197E+02  0.00000000000E+00 0. -1.
          1    1    5    5  503    0 -0.83387272111E+02  0.27660666310E+03  0.41243829328E+03  0.50355737407E+03  0.00000000000E+00 0. -1.
         -2    1    5    5    0  503 -0.10069886116E+03  0.38100834396E+03  0.42128677571E+03  0.57687968086E+03  0.00000000000E+00 0.  1.
         -3    1    6    6    0  502  0.23541672502E+03 -0.11157668899E+03  0.10224557104E+03  0.27986523318E+03  0.00000000000E+00 0.  1.
<mgrwt>
<rscale>  0 0.19301038E+04</rscale>
<asrwt>0</asrwt>
<pdfrwt beam="1">  1        1 0.21359855E+00 0.19301038E+04</pdfrwt>
<pdfrwt beam="2">  1       -1 0.10319919E+00 0.19301038E+04</pdfrwt>
<totfact> 0.64755163E+00</totfact>
</mgrwt>
</event>
<event>
12    1  0.1562393E-007  0.1636376E+04  0.7818608E-02  0.8798507E-01
         -1   -1    0    0    0  501 -0.00000000000E+00  0.00000000000E+00  0.34941269091E+03  0.34941269091E+03  0.00000000000E+00 0.  1.
          1   -1    0    0  501    0  0.00000000000E+00 -0.00000000000E+00 -0.19158775478E+04  0.19158775478E+04  0.00000000000E+00 0. -1.
         23    2    1    2    0    0 -0.15229309232E+03  0.42269794326E+02  0.20673164788E+03  0.27573492462E+03  0.91169364070E+02 0.  0.
        254    2    1    2    0    0  0.15229309232E+03 -0.42269794326E+02 -0.17731965048E+04  0.19895553141E+04  0.88832684403E+03 0.  0.
        -24    2    4    4    0    0 -0.22558388080E+03 -0.24224089929E+03 -0.13125565963E+04  0.13560520514E+04  0.80644944219E+02 0.  0.
         24    2    4    4    0    0  0.37787697311E+03  0.19997110496E+03 -0.46063990844E+03  0.63350326267E+03  0.79735869851E+02 0.  0.
         13    1    3    3    0    0 -0.55767538327E+02  0.62577603906E+02  0.95313692650E+02  0.12692783323E+03  0.00000000000E+00 0. -1.
        -13    1    3    3    0    0 -0.96525553989E+02 -0.20307809581E+02  0.11141795523E+03  0.14880709139E+03  0.00000000000E+00 0.  1.
          4    1    6    6  502    0  0.33014826397E+03  0.17501060086E+03 -0.43617008571E+03  0.57434391290E+03  0.00000000000E+00 0. -1.
          3    1    5    5  503    0 -0.22365135554E+03 -0.24737700490E+03 -0.12665425246E+04  0.13097119065E+04  0.00000000000E+00 0. -1.
         -4    1    5    5    0  503 -0.19325252584E+01  0.51361056185E+01 -0.46014071666E+02  0.46340144864E+02  0.00000000000E+00 0.  1.
         -3    1    6    6    0  502  0.47728709144E+02  0.24960504096E+02 -0.24469822735E+02  0.59159349776E+02  0.00000000000E+00 0.  1.
<mgrwt>
<rscale>  0 0.16363764E+04</rscale>
<asrwt>0</asrwt>
<pdfrwt beam="1">  1        1 0.29475039E+00 0.16363764E+04</pdfrwt>
<pdfrwt beam="2">  1       -1 0.53755799E-01 0.16363764E+04</pdfrwt>
<totfact> 0.11358674E+01</totfact>
</mgrwt>
</event>
<event>
12    1  0.1976291E-007  0.1937299E+04  0.7818608E-02  0.8636510E-01
          1   -1    0    0  501    0  0.00000000000E+00  0.00000000000E+00  0.76072489677E+03  0.76072489677E+03  0.00000000000E+00 0. -1.
         -1   -1    0    0    0  501 -0.00000000000E+00 -0.00000000000E+00 -0.12334045353E+04  0.12334045353E+04  0.00000000000E+00 0.  1.
         23    2    1    2    0    0 -0.58496393337E+03  0.36547178981E+02  0.31105971829E+03  0.66978131103E+03  0.91270787396E+02 0.  0.
        254    2    1    2    0    0  0.58496393337E+03 -0.36547178981E+02 -0.78373935683E+03  0.13243481210E+04  0.89226233060E+03 0.  0.
        -24    2    4    4    0    0  0.48687688053E+03 -0.41853303479E+03 -0.36029827184E+03  0.74042563826E+03  0.78716472816E+02 0.  0.
         24    2    4    4    0    0  0.98087052840E+02  0.38198585581E+03 -0.42344108499E+03  0.58392248277E+03  0.78286968616E+02 0.  0.
         13    1    3    3    0    0 -0.57256727973E+03  0.33630755843E+02  0.31743733303E+03  0.65553854041E+03  0.00000000000E+00 0. -1.
        -13    1    3    3    0    0 -0.12396653637E+02  0.29164231384E+01 -0.63776147396E+01  0.14242770625E+02  0.00000000000E+00 0.  1.
          4    1    6    6  502    0 -0.34305187086E+00  0.21131970574E+01 -0.23562308877E+02  0.23659367828E+02  0.00000000000E+00 0. -1.
          3    1    5    5  503    0  0.45662447488E+01 -0.44243055750E+01  0.42230502822E+01  0.76327730618E+01  0.00000000000E+00 0. -1.
         -4    1    5    5    0  503  0.48231063578E+03 -0.41410872922E+03 -0.36452132212E+03  0.73279286520E+03  0.00000000000E+00 0.  1.
         -3    1    6    6    0  502  0.98430104711E+02  0.37987265876E+03 -0.39987877611E+03  0.56026311495E+03  0.00000000000E+00 0.  1.
<mgrwt>
<rscale>  0 0.19372987E+04</rscale>
<asrwt>0</asrwt>
<pdfrwt beam="1">  1        1 0.11703460E+00 0.19372987E+04</pdfrwt>
<pdfrwt beam="2">  1       -1 0.18975454E+00 0.19372987E+04</pdfrwt>
<totfact> 0.39627303E+00</totfact>
</mgrwt>
</event>
<event>
12    1  0.1562393E-007  0.3188794E+04  0.7818608E-02  0.8191783E-01
          2   -1    0    0  501    0  0.00000000000E+00  0.00000000000E+00  0.33561151031E+04  0.33561151031E+04  0.00000000000E+00 0.  1.
         -2   -1    0    0    0  501 -0.00000000000E+00 -0.00000000000E+00 -0.75745375090E+03  0.75745375090E+03  0.00000000000E+00 0. -1.
         23    2    1    2    0    0 -0.10882010960E+04  0.31209192683E+03  0.24040461277E+04  0.26585433416E+04  0.82655421536E+02 0.  0.
        254    2    1    2    0    0  0.10882010960E+04 -0.31209192683E+03  0.19461522450E+03  0.14550255124E+04  0.89310758594E+03 0.  0.
        -24    2    4    4    0    0  0.56143858600E+03  0.12367996950E+03 -0.25374532679E+03  0.63349913443E+03  0.80152615431E+02 0.  0.
         24    2    4    4    0    0  0.52676251003E+03 -0.43577189633E+03  0.44836055129E+03  0.82152637800E+03  0.80638193190E+02 0.  0.
         13    1    3    3    0    0 -0.49023379499E+03  0.14738891134E+03  0.99247398118E+03  0.11167171836E+04  0.00000000000E+00 0. -1.
        -13    1    3    3    0    0 -0.59796730104E+03  0.16470301549E+03  0.14115721465E+04  0.15418261579E+04  0.00000000000E+00 0.  1.
          4    1    6    6  502    0  0.40461947872E+03 -0.28790001127E+03  0.32440169171E+03  0.59316085224E+03  0.00000000000E+00 0. -1.
          3    1    5    5  503    0  0.52064442201E+03  0.13550111102E+03 -0.23507837655E+03  0.58710561944E+03  0.00000000000E+00 0. -1.
         -4    1    5    5    0  503  0.40794163988E+02 -0.11821141520E+02 -0.18666950246E+02  0.46393514997E+02  0.00000000000E+00 0.  1.
         -3    1    6    6    0  502  0.12214303131E+03 -0.14787188506E+03  0.12395885958E+03  0.22836552576E+03  0.00000000000E+00 0.  1.
<mgrwt>
<rscale>  0 0.31887941E+04</rscale>
<asrwt>0</asrwt>
<pdfrwt beam="1">  1        2 0.51632539E+00 0.31887941E+04</pdfrwt>
<pdfrwt beam="2">  1       -2 0.11653135E+00 0.31887941E+04</pdfrwt>
<totfact> 0.49081422E-01</totfact>
</mgrwt>
</event>
<event>
12    1  0.1562393E-007  0.2096129E+04  0.7818608E-02  0.8562951E-01
         -2   -1    0    0    0  501 -0.00000000000E+00  0.00000000000E+00  0.59049167321E+03  0.59049167321E+03  0.00000000000E+00 0.  1.
          2   -1    0    0  501    0  0.00000000000E+00 -0.00000000000E+00 -0.18602110498E+04  0.18602110498E+04  0.00000000000E+00 0. -1.
         23    2    1    2    0    0  0.58460002733E+03  0.60670590614E+03 -0.69844065769E+03  0.10982351541E+04  0.91933958888E+02 0.  0.
        254    2    1    2    0    0 -0.58460002733E+03 -0.60670590614E+03 -0.57127871885E+03  0.13524675689E+04  0.89048295988E+03 0.  0.
        -24    2    4    4    0    0 -0.13402509987E+03  0.14944860565E+03 -0.39677931892E+03  0.45181489739E+03  0.80032871114E+02 0.  0.
         24    2    4    4    0    0 -0.45057492746E+03 -0.75615451179E+03 -0.17449939993E+03  0.90065267152E+03  0.77057012556E+02 0.  0.
         11    1    3    3    0    0  0.15478411129E+03  0.15081740613E+03 -0.12970845817E+03  0.25204820019E+03  0.00000000000E+00 0.  1.
        -11    1    3    3    0    0  0.42981591604E+03  0.45588850001E+03 -0.56873219952E+03  0.84618695386E+03  0.00000000000E+00 0. -1.
          4    1    6    6  502    0 -0.11862962390E+03 -0.13919033637E+03 -0.41817484230E+02  0.18760500898E+03  0.00000000000E+00 0. -1.
          1    1    5    5  503    0 -0.19395067898E+02  0.22151187969E+02 -0.14310010167E+02  0.32735610246E+02  0.00000000000E+00 0. -1.
         -2    1    5    5    0  503 -0.11463003197E+03  0.12729741768E+03 -0.38246930875E+03  0.41907928714E+03  0.00000000000E+00 0.  1.
         -3    1    6    6    0  502 -0.33194530357E+03 -0.61696417541E+03 -0.13268191570E+03  0.71304766254E+03  0.00000000000E+00 0.  1.
<mgrwt>
<rscale>  0 0.20961289E+04</rscale>
<asrwt>0</asrwt>
<pdfrwt beam="1">  1        2 0.28618632E+00 0.20961289E+04</pdfrwt>
<pdfrwt beam="2">  1       -2 0.90844873E-01 0.20961289E+04</pdfrwt>
<totfact> 0.76168591E+00</totfact>
</mgrwt>
</event>
<event>
12    1  0.1562393E-007  0.2727690E+04  0.7818608E-02  0.8326076E-01
         -1   -1    0    0    0  501 -0.00000000000E+00  0.00000000000E+00  0.13127202119E+04  0.13127202119E+04  0.00000000000E+00 0.  1.
          1   -1    0    0  501    0  0.00000000000E+00 -0.00000000000E+00 -0.14169606155E+04  0.14169606155E+04  0.00000000000E+00 0. -1.
         23    2    1    2    0    0  0.19841527647E+03 -0.71601145976E+03  0.91201700839E+03  0.11798556952E+04  0.90793201792E+02 0.  0.
        254    2    1    2    0    0 -0.19841527647E+03  0.71601145976E+03 -0.10162574120E+04  0.15498251322E+04  0.90395673588E+03 0.  0.
        -24    2    4    4    0    0 -0.12152588090E+03 -0.16687020729E+03 -0.43196777908E+03  0.48529402962E+03  0.79372080814E+02 0.  0.
         24    2    4    4    0    0 -0.76889395573E+02  0.88288166705E+03 -0.58428963297E+03  0.10645311026E+04  0.80250083813E+02 0.  0.
         11    1    3    3    0    0  0.17346096403E+03 -0.61304053718E+03  0.82735461841E+03  0.10442332454E+04  0.00000000000E+00 0.  1.
        -11    1    3    3    0    0  0.24954312435E+02 -0.10297092258E+03  0.84662389971E+02  0.13562244977E+03  0.00000000000E+00 0. -1.
          2    1    6    6  502    0 -0.32171159809E+02  0.95734367462E+02 -0.77169013324E+02  0.12710275077E+03  0.00000000000E+00 0. -1.
          1    1    5    5  503    0 -0.52430369245E+02 -0.69686133641E+02 -0.27289132958E+03  0.28648696061E+03  0.00000000000E+00 0. -1.
         -2    1    5    5    0  503 -0.69095511651E+02 -0.97184073653E+02 -0.15907644949E+03  0.19880706900E+03  0.00000000000E+00 0.  1.
         -1    1    6    6    0  502 -0.44718235764E+02  0.78714729959E+03 -0.50712061965E+03  0.93742835179E+03  0.00000000000E+00 0.  1.
<mgrwt>
<rscale>  0 0.27276897E+04</rscale>
<asrwt>0</asrwt>
<pdfrwt beam="1">  1        1 0.21799394E+00 0.27276897E+04</pdfrwt>
<pdfrwt beam="2">  1       -1 0.20195696E+00 0.27276897E+04</pdfrwt>
<totfact> 0.95006789E-01</totfact>
</mgrwt>
</event>
<event>
12    1  0.1562393E-007  0.2292230E+04  0.7818608E-02  0.8480991E-01
         -2   -1    0    0    0  501 -0.00000000000E+00  0.00000000000E+00  0.50438440755E+03  0.50438440755E+03  0.00000000000E+00 0.  1.
          2   -1    0    0  501    0  0.00000000000E+00 -0.00000000000E+00 -0.26043217299E+04  0.26043217299E+04  0.00000000000E+00 0. -1.
         23    2    1    2    0    0 -0.37783836353E+02  0.21003162279E+03  0.39034717360E+03  0.45406787498E+03  0.90916545759E+02 0.  0.
        254    2    1    2    0    0  0.37783836353E+02 -0.21003162279E+03 -0.24902844960E+04  0.26546382625E+04  0.89445320330E+03 0.  0.
        -24    2    4    4    0    0 -0.56424666785E+01 -0.53217881809E+03 -0.19136213451E+04  0.19878773171E+04  0.80395543227E+02 0.  0.
         24    2    4    4    0    0  0.43426303032E+02  0.32214719530E+03 -0.57666315082E+03  0.66676094538E+03  0.79781636610E+02 0.  0.
         11    1    3    3    0    0 -0.14868620102E+02  0.37746647099E+02  0.20579553911E+02  0.45490694324E+02  0.00000000000E+00 0. -1.
        -11    1    3    3    0    0 -0.22915216251E+02  0.17228497570E+03  0.36976761969E+03  0.40857718066E+03  0.00000000000E+00 0.  1.
          2    1    6    6  502    0  0.37355621253E+02  0.93380777160E+02 -0.12506821944E+03  0.16049134399E+03  0.00000000000E+00 0. -1.
          1    1    5    5  503    0 -0.42407211455E+02 -0.28544223435E+03 -0.99856238375E+03  0.10394241074E+04  0.00000000000E+00 0. -1.
         -2    1    5    5    0  503  0.36764744777E+02 -0.24673658374E+03 -0.91505896139E+03  0.94845320972E+03  0.00000000000E+00 0.  1.
         -1    1    6    6    0  502  0.60706817793E+01  0.22876641814E+03 -0.45159493138E+03  0.50626960139E+03  0.00000000000E+00 0.  1.
<mgrwt>
<rscale>  0 0.22922297E+04</rscale>
<asrwt>0</asrwt>
<pdfrwt beam="1">  1        2 0.40066488E+00 0.22922297E+04</pdfrwt>
<pdfrwt beam="2">  1       -2 0.77597601E-01 0.22922297E+04</pdfrwt>
<totfact> 0.40629384E+00</totfact>
</mgrwt>
</event>
<event>
12    1  0.1562393E-007  0.2685383E+04  0.7818608E-02  0.8339763E-01
         -2   -1    0    0    0  501 -0.00000000000E+00  0.00000000000E+00  0.15130890851E+04  0.15130890851E+04  0.00000000000E+00 0.  1.
          2   -1    0    0  501    0  0.00000000000E+00 -0.00000000000E+00 -0.11914835009E+04  0.11914835009E+04  0.00000000000E+00 0. -1.
         23    2    1    2    0    0  0.77457631623E+03  0.88383606756E+03  0.30276720931E+03  0.12171832030E+04  0.93446789830E+02 0.  0.
        254    2    1    2    0    0 -0.77457631623E+03 -0.88383606756E+03  0.18838374882E+02  0.14873893830E+04  0.91150295023E+03 0.  0.
        -24    2    4    4    0    0 -0.20547195646E+03 -0.77417378038E+03  0.27262739046E+03  0.84979012882E+03  0.79080983114E+02 0.  0.
         24    2    4    4    0    0 -0.56910435977E+03 -0.10966228718E+03 -0.25378901558E+03  0.63759925417E+03  0.78856546661E+02 0.  0.
         11    1    3    3    0    0  0.22121874174E+03  0.23774672394E+03  0.42051590585E+02  0.32745926878E+03  0.00000000000E+00 0. -1.
        -11    1    3    3    0    0  0.55335757449E+03  0.64608934362E+03  0.26071561873E+03  0.88972393417E+03  0.00000000000E+00 0.  1.
          2    1    6    6  502    0 -0.53513890294E+03 -0.11875185756E+03 -0.24919050926E+03  0.60213915254E+03  0.00000000000E+00 0. -1.
          1    1    5    5  503    0 -0.17927997158E+03 -0.54858988058E+03  0.21069108968E+03  0.61439637088E+03  0.00000000000E+00 0. -1.
         -2    1    5    5    0  503 -0.26191984882E+02 -0.22558389980E+03  0.61936300781E+02  0.23539375794E+03  0.00000000000E+00 0.  1.
         -1    1    6    6    0  502 -0.33965456832E+02  0.90895703809E+01 -0.45985063188E+01  0.35460101634E+02  0.00000000000E+00 0.  1.
<mgrwt>
<rscale>  0 0.26853832E+04</rscale>
<asrwt>0</asrwt>
<pdfrwt beam="1">  1        2 0.18330515E+00 0.26853832E+04</pdfrwt>
<pdfrwt beam="2">  1       -2 0.23278294E+00 0.26853832E+04</pdfrwt>
<totfact> 0.13826511E+00</totfact>
</mgrwt>
</event>
<event>
12    1  0.1562393E-007  0.3038411E+04  0.7818608E-02  0.8232847E-01
         -1   -1    0    0    0  501 -0.00000000000E+00  0.00000000000E+00  0.37044819914E+04  0.37044819914E+04  0.00000000000E+00 0.  1.
          1   -1    0    0  501    0  0.00000000000E+00 -0.00000000000E+00 -0.62302529710E+03  0.62302529710E+03  0.00000000000E+00 0. -1.
         23    2    1    2    0    0 -0.78374390178E+03 -0.62246264332E+03  0.45549001284E+02  0.10060161470E+04  0.90991925549E+02 0.  0.
        254    2    1    2    0    0  0.78374390178E+03  0.62246264332E+03  0.30359076930E+04  0.33214911416E+04  0.90213836911E+03 0.  0.
        -24    2    4    4    0    0  0.45386308455E+03 -0.16275167689E+03  0.99560856946E+03  0.11091128192E+04  0.80093783770E+02 0.  0.
         24    2    4    4    0    0  0.32988081723E+03  0.78521432021E+03  0.20402991236E+04  0.22123783224E+04  0.80090233966E+02 0.  0.
         13    1    3    3    0    0 -0.57949599495E+03 -0.50805949191E+03  0.43502953061E+02  0.77190191242E+03  0.00000000000E+00 0. -1.
        -13    1    3    3    0    0 -0.20424790683E+03 -0.11440315141E+03  0.20460482225E+01  0.23411423453E+03  0.00000000000E+00 0.  1.
          4    1    6    6  502    0  0.21837940234E+02  0.54476013321E+02  0.20135346806E+03  0.20973256963E+03  0.00000000000E+00 0. -1.
          3    1    5    5  503    0  0.35782501092E+02 -0.38358644291E+02  0.99534858307E+02  0.11251204822E+03  0.00000000000E+00 0. -1.
         -4    1    5    5    0  503  0.41808058346E+03 -0.12439303260E+03  0.89607371115E+03  0.99660077094E+03  0.00000000000E+00 0.  1.
         -3    1    6    6    0  502  0.30804287699E+03  0.73073830689E+03  0.18389456555E+04  0.20026457528E+04  0.00000000000E+00 0.  1.
<mgrwt>
<rscale>  0 0.30384114E+04</rscale>
<asrwt>0</asrwt>
<pdfrwt beam="1">  1        1 0.95850048E-01 0.30384114E+04</pdfrwt>
<pdfrwt beam="2">  1       -1 0.56992029E+00 0.30384114E+04</pdfrwt>
<totfact> 0.16246369E-02</totfact>
</mgrwt>
</event>
<event>
12    1  0.1562393E-007  0.2367942E+04  0.7818608E-02  0.8451604E-01
         -1   -1    0    0    0  501 -0.00000000000E+00  0.00000000000E+00  0.21145561357E+04  0.21145561357E+04  0.00000000000E+00 0.  1.
          1   -1    0    0  501    0  0.00000000000E+00 -0.00000000000E+00 -0.66292284320E+03  0.66292284320E+03  0.00000000000E+00 0. -1.
         23    2    1    2    0    0  0.34012499855E+03  0.45300345229E+03  0.16025632514E+04  0.17009626967E+04  0.64559881335E+02 0.  0.
        254    2    1    2    0    0 -0.34012499855E+03 -0.45300345229E+03 -0.15092995896E+03  0.10765162822E+04  0.90288997717E+03 0.  0.
        -24    2    4    4    0    0 -0.28121354547E+03  0.23186156637E+03 -0.73686364234E+02  0.38031174864E+03  0.79790361352E+02 0.  0.
         24    2    4    4    0    0 -0.58911453078E+02 -0.68486501866E+03 -0.77243594730E+02  0.69620453354E+03  0.78889330766E+02 0.  0.
         13    1    3    3    0    0  0.23106088936E+03  0.26995033506E+03  0.10647063891E+04  0.11224357500E+04  0.00000000000E+00 0.  1.
        -13    1    3    3    0    0  0.10906410919E+03  0.18305311723E+03  0.53785686238E+03  0.57852694669E+03  0.00000000000E+00 0. -1.
          4    1    6    6  502    0 -0.27241832552E+02 -0.19205161879E+03  0.12127249650E+02  0.19435280267E+03  0.00000000000E+00 0. -1.
          3    1    5    5  503    0 -0.60655169617E+02  0.58022853914E+02 -0.51786748617E+02  0.98628436619E+02  0.00000000000E+00 0. -1.
         -4    1    5    5    0  503 -0.22055837585E+03  0.17383871246E+03 -0.21899615617E+02  0.28168331202E+03  0.00000000000E+00 0.  1.
         -3    1    6    6    0  502 -0.31669620526E+02 -0.49281339987E+03 -0.89370844380E+02  0.50185173088E+03  0.00000000000E+00 0.  1.
<mgrwt>
<rscale>  0 0.23679422E+04</rscale>
<asrwt>0</asrwt>
<pdfrwt beam="1">  1        1 0.10198813E+00 0.23679422E+04</pdfrwt>
<pdfrwt beam="2">  1       -1 0.32531633E+00 0.23679422E+04</pdfrwt>
<totfact> 0.60068373E-01</totfact>
</mgrwt>
</event>
<event>
12    1  0.1562393E-007  0.1975046E+04  0.7818608E-02  0.8618377E-01
          1   -1    0    0  501    0  0.00000000000E+00  0.00000000000E+00  0.29226539051E+04  0.29226539051E+04  0.00000000000E+00 0. -1.
         -1   -1    0    0    0  501 -0.00000000000E+00 -0.00000000000E+00 -0.33366984329E+03  0.33366984329E+03  0.00000000000E+00 0.  1.
         23    2    1    2    0    0 -0.31258503177E+03 -0.65172948665E+03  0.58277773756E+03  0.93086595069E+03  0.66489103664E+02 0.  0.
        254    2    1    2    0    0  0.31258503177E+03  0.65172948665E+03  0.20062063243E+04  0.23254577977E+04  0.92759335250E+03 0.  0.
        -24    2    4    4    0    0  0.36937956797E+03  0.65349212748E+03  0.20761244363E+04  0.22092320501E+04  0.83188643653E+02 0.  0.
         24    2    4    4    0    0 -0.56794536196E+02 -0.17626408344E+01 -0.69918111993E+02  0.11622574762E+03  0.73424490336E+02 0.  0.
         11    1    3    3    0    0 -0.14048616587E+03 -0.29146679945E+03  0.30352088797E+03  0.44363745042E+03  0.00000000000E+00 0.  1.
        -11    1    3    3    0    0 -0.17209886590E+03 -0.36026268720E+03  0.27925684959E+03  0.48722850027E+03  0.00000000000E+00 0. -1.
          4    1    6    6  502    0 -0.52848902924E+02 -0.26588467620E+02 -0.69249635885E+02  0.91079444558E+02  0.00000000000E+00 0. -1.
          3    1    5    5  503    0  0.35597967179E+03  0.63976117414E+03  0.20500449952E+04  0.21768556151E+04  0.00000000000E+00 0. -1.
         -4    1    5    5    0  503  0.13399896181E+02  0.13730953346E+02  0.26079441105E+02  0.32376435038E+02  0.00000000000E+00 0.  1.
         -3    1    6    6    0  502 -0.39456332715E+01  0.24825826785E+02 -0.66847610791E+00  0.25146303064E+02  0.00000000000E+00 0.  1.
<mgrwt>
<rscale>  0 0.19750458E+04</rscale>
<asrwt>0</asrwt>
<pdfrwt beam="1">  1        1 0.44963905E+00 0.19750458E+04</pdfrwt>
<pdfrwt beam="2">  1       -1 0.51333824E-01 0.19750458E+04</pdfrwt>
<totfact> 0.24183037E+00</totfact>
</mgrwt>
</event>
<event>
12    1  0.1562393E-007  0.3986243E+04  0.7818608E-02  0.8007328E-01
         -2   -1    0    0    0  501 -0.00000000000E+00  0.00000000000E+00  0.22788688339E+04  0.22788688339E+04  0.00000000000E+00 0.  1.
          2   -1    0    0  501    0  0.00000000000E+00 -0.00000000000E+00 -0.17432036133E+04  0.17432036133E+04  0.00000000000E+00 0. -1.
         23    2    1    2    0    0 -0.90734624469E+02  0.17246111188E+04 -0.51558492337E+03  0.18046635735E+04  0.92013679662E+02 0.  0.
        254    2    1    2    0    0  0.90734624469E+02 -0.17246111188E+04  0.10512501440E+04  0.22174088737E+04  0.91063657123E+03 0.  0.
        -24    2    4    4    0    0  0.29841067431E+03 -0.16755783667E+04  0.10237254838E+04  0.19878860259E+04  0.84054697902E+02 0.  0.
         24    2    4    4    0    0 -0.20767604984E+03 -0.49032752102E+02  0.27524660217E+02  0.22952284785E+03  0.79934837900E+02 0.  0.
         13    1    3    3    0    0 -0.53619455381E+02  0.36356309193E+03 -0.93850815966E+02  0.37929031554E+03  0.00000000000E+00 0.  1.
        -13    1    3    3    0    0 -0.37115169088E+02  0.13610480269E+04 -0.42173410740E+03  0.14253732580E+04  0.00000000000E+00 0. -1.
          4    1    6    6  502    0 -0.26534406195E+02 -0.37502685438E+02  0.11172651714E+02  0.47279533347E+02  0.00000000000E+00 0. -1.
          1    1    5    5  503    0  0.74764295609E+02 -0.42495231187E+03  0.30281078267E+03  0.52713237176E+03  0.00000000000E+00 0. -1.
         -2    1    5    5    0  503  0.22364637870E+03 -0.12506260548E+04  0.72091470112E+03  0.14607536541E+04  0.00000000000E+00 0.  1.
         -3    1    6    6    0  502 -0.18114164364E+03 -0.11530066664E+02  0.16352008503E+02  0.18224331450E+03  0.00000000000E+00 0.  1.
<mgrwt>
<rscale>  0 0.39862425E+04</rscale>
<asrwt>0</asrwt>
<pdfrwt beam="1">  1        2 0.26818517E+00 0.39862425E+04</pdfrwt>
<pdfrwt beam="2">  1       -2 0.35059521E+00 0.39862425E+04</pdfrwt>
<totfact> 0.11300109E-01</totfact>
</mgrwt>
</event>
<event>
12    1  0.1562393E-007  0.1365047E+04  0.7818608E-02  0.8979515E-01
          2   -1    0    0  501    0  0.00000000000E+00  0.00000000000E+00  0.27979194413E+04  0.27979194413E+04  0.00000000000E+00 0.  1.
         -2   -1    0    0    0  501 -0.00000000000E+00 -0.00000000000E+00 -0.16649447813E+03  0.16649447813E+03  0.00000000000E+00 0. -1.
         23    2    1    2    0    0 -0.20668783403E+03  0.28531419558E+03  0.10206840468E+04  0.10837225749E+04  0.92383141907E+02 0.  0.
        254    2    1    2    0    0  0.20668783403E+03 -0.28531419558E+03  0.16107409163E+04  0.18806913446E+04  0.90464887276E+03 0.  0.
        -24    2    4    4    0    0  0.11702287898E+03 -0.54266952706E+03  0.56420226437E+03  0.79626823040E+03  0.86800517421E+02 0.  0.
         24    2    4    4    0    0  0.89664955043E+02  0.25735533148E+03  0.10465386520E+04  0.10844231141E+04  0.80366470934E+02 0.  0.
         11    1    3    3    0    0 -0.83669045981E+02  0.17331928435E+03  0.63911085360E+03  0.66745993646E+03  0.00000000000E+00 0.  1.
        -11    1    3    3    0    0 -0.12301878804E+03  0.11199491123E+03  0.38157319322E+03  0.41626263841E+03  0.00000000000E+00 0. -1.
          2    1    6    6  502    0 -0.15539743504E+01  0.55444771075E+02  0.12727147984E+03  0.13883287455E+03  0.00000000000E+00 0. -1.
          1    1    5    5  503    0  0.49844196189E+02 -0.11557263312E+03  0.16735192853E+03  0.20939948759E+03  0.00000000000E+00 0. -1.
         -2    1    5    5    0  503  0.67178682792E+02 -0.42709689394E+03  0.39685033584E+03  0.58686874281E+03  0.00000000000E+00 0.  1.
         -1    1    6    6    0  502  0.91218929394E+02  0.20191056040E+03  0.91926717212E+03  0.94559023959E+03  0.00000000000E+00 0.  1.
<mgrwt>
<rscale>  0 0.13650467E+04</rscale>
<asrwt>0</asrwt>
<pdfrwt beam="1">  1        2 0.43044911E+00 0.13650467E+04</pdfrwt>
<pdfrwt beam="2">  1       -2 0.25614537E-01 0.13650467E+04</pdfrwt>
<totfact> 0.31285252E+01</totfact>
</mgrwt>
</event>
<event>
12    1  0.1562393E-007  0.1607327E+04  0.7818608E-02  0.8816059E-01
          2   -1    0    0  501    0  0.00000000000E+00  0.00000000000E+00  0.41956200012E+03  0.41956200012E+03  0.00000000000E+00 0.  1.
         -2   -1    0    0    0  501 -0.00000000000E+00 -0.00000000000E+00 -0.15394034254E+04  0.15394034254E+04  0.00000000000E+00 0. -1.
         23    2    1    2    0    0 -0.50126107769E+03 -0.20117599585E+03 -0.50292347932E+03  0.74464411067E+03  0.99138167192E+02 0.  0.
        254    2    1    2    0    0  0.50126107769E+03  0.20117599585E+03 -0.61691794600E+03  0.12143213149E+04  0.89568635937E+03 0.  0.
        -24    2    4    4    0    0 -0.13370916305E+03  0.16454733809E+03 -0.51910203154E+03  0.56590272805E+03  0.76321764364E+02 0.  0.
         24    2    4    4    0    0  0.63497024073E+03  0.36628657760E+02 -0.97815914464E+02  0.64841858683E+03  0.79685917436E+02 0.  0.
         11    1    3    3    0    0 -0.37123449646E+03 -0.14620734996E+03 -0.42683073633E+03  0.58427400936E+03  0.00000000000E+00 0.  1.
        -11    1    3    3    0    0 -0.13002658123E+03 -0.54968645886E+02 -0.76092742989E+02  0.16037010131E+03  0.00000000000E+00 0. -1.
          4    1    6    6  502    0  0.24089043563E+03  0.29737080574E+02 -0.16855452007E+01  0.24272481744E+03  0.00000000000E+00 0. -1.
          1    1    5    5  503    0  0.55991649498E+01  0.26101140168E+02 -0.92230683277E+02  0.96016243959E+02  0.00000000000E+00 0. -1.
         -2    1    5    5    0  503 -0.13930832800E+03  0.13844619792E+03 -0.42687134826E+03  0.46988648409E+03  0.00000000000E+00 0.  1.
         -3    1    6    6    0  502  0.39407980511E+03  0.68915771868E+01 -0.96130369264E+02  0.40569376939E+03  0.00000000000E+00 0.  1.
<mgrwt>
<rscale>  0 0.16073272E+04</rscale>
<asrwt>0</asrwt>
<pdfrwt beam="1">  1        2 0.64547999E-01 0.16073272E+04</pdfrwt>
<pdfrwt beam="2">  1       -2 0.23683130E+00 0.16073272E+04</pdfrwt>
<totfact> 0.55945822E+00</totfact>
</mgrwt>
</event>
<event>
12    1  0.1562393E-007  0.1809383E+04  0.7818608E-02  0.8701325E-01
          1   -1    0    0  501    0  0.00000000000E+00  0.00000000000E+00  0.12802114625E+04  0.12802114625E+04  0.00000000000E+00 0. -1.
         -1   -1    0    0    0  501 -0.00000000000E+00 -0.00000000000E+00 -0.63932163451E+03  0.63932163451E+03  0.00000000000E+00 0.  1.
         23    2    1    2    0    0 -0.38565517978E+03  0.54873164937E+02 -0.34208390890E+03  0.52672636263E+03  0.93157277965E+02 0.  0.
        254    2    1    2    0    0  0.38565517978E+03 -0.54873164937E+02  0.98297373694E+03  0.13928067344E+04  0.90660479265E+03 0.  0.
        -24    2    4    4    0    0  0.58475979481E+03  0.13941362377E+03  0.35889283879E+03  0.70483688603E+03  0.81306765100E+02 0.  0.
         24    2    4    4    0    0 -0.19910461503E+03 -0.19428678871E+03  0.62408089814E+03  0.68796984840E+03  0.80221822978E+02 0.  0.
         13    1    3    3    0    0 -0.54414573342E+02  0.42232442873E+02 -0.64591119313E+02  0.94427420366E+02  0.00000000000E+00 0. -1.
        -13    1    3    3    0    0 -0.33124060644E+03  0.12640722064E+02 -0.27749278959E+03  0.43229894226E+03  0.00000000000E+00 0.  1.
          2    1    6    6  502    0  0.39755390637E+01 -0.20987604718E+02  0.31901190517E+02  0.38392322397E+02  0.00000000000E+00 0. -1.
          3    1    5    5  503    0  0.18155900123E+03  0.58575853769E+02  0.15519194557E+03  0.24592547965E+03  0.00000000000E+00 0. -1.
         -4    1    5    5    0  503  0.40320079359E+03  0.80837770003E+02  0.20370089322E+03  0.45891140638E+03  0.00000000000E+00 0.  1.
         -1    1    6    6    0  502 -0.20308015410E+03 -0.17329918399E+03  0.59217970763E+03  0.64957752600E+03  0.00000000000E+00 0.  1.
<mgrwt>
<rscale>  0 0.18093832E+04</rscale>
<asrwt>0</asrwt>
<pdfrwt beam="1">  1        1 0.19695561E+00 0.18093832E+04</pdfrwt>
<pdfrwt beam="2">  1       -1 0.98357175E-01 0.18093832E+04</pdfrwt>
<totfact> 0.87231349E+00</totfact>
</mgrwt>
</event>
<event>
12    1  0.1562393E-007  0.1840545E+04  0.7818608E-02  0.8685030E-01
         -2   -1    0    0    0  501 -0.00000000000E+00  0.00000000000E+00  0.46648559889E+03  0.46648559889E+03  0.00000000000E+00 0.  1.
          2   -1    0    0  501    0  0.00000000000E+00 -0.00000000000E+00 -0.18154935996E+04  0.18154935996E+04  0.00000000000E+00 0. -1.
         23    2    1    2    0    0  0.58608795591E+02  0.30460912100E+02 -0.13435328175E+04  0.13503912973E+04  0.11879968913E+03 0.  0.
        254    2    1    2    0    0 -0.58608795591E+02 -0.30460912100E+02 -0.54751832795E+01  0.93158790122E+03  0.92922719610E+03 0.  0.
        -24    2    4    4    0    0  0.34497448929E+03 -0.19270661890E+03  0.19276832813E+03  0.44689356012E+03  0.80068636304E+02 0.  0.
         24    2    4    4    0    0 -0.40358328488E+03  0.16224570680E+03 -0.19824351141E+03  0.48469434110E+03  0.80155955954E+02 0.  0.
         13    1    3    3    0    0  0.86959047253E+02  0.45328427445E+02 -0.81287384922E+03  0.81876763308E+03  0.00000000000E+00 0.  1.
        -13    1    3    3    0    0 -0.28350251662E+02 -0.14867515344E+02 -0.53065896823E+03  0.53162366421E+03  0.00000000000E+00 0. -1.
          2    1    6    6  502    0 -0.12537071521E+03  0.84403855607E+02 -0.91689844380E+02  0.17677345569E+03  0.00000000000E+00 0. -1.
          1    1    5    5  503    0  0.22475938435E+03 -0.14046020544E+03  0.16712379414E+03  0.31333083591E+03  0.00000000000E+00 0. -1.
         -2    1    5    5    0  503  0.12021510493E+03 -0.52246413458E+02  0.25644533991E+02  0.13356272421E+03  0.00000000000E+00 0.  1.
         -1    1    6    6    0  502 -0.27821256966E+03  0.77841851192E+02 -0.10655366703E+03  0.30792088541E+03  0.00000000000E+00 0.  1.
<mgrwt>
<rscale>  0 0.18405452E+04</rscale>
<asrwt>0</asrwt>
<pdfrwt beam="1">  1        2 0.27930671E+00 0.18405452E+04</pdfrwt>
<pdfrwt beam="2">  1       -2 0.71767015E-01 0.18405452E+04</pdfrwt>
<totfact> 0.14009434E+01</totfact>
</mgrwt>
</event>
<event>
12    1  0.1562393E-007  0.1427698E+04  0.7818608E-02  0.8934010E-01
         -2   -1    0    0    0  501 -0.00000000000E+00  0.00000000000E+00  0.34634669935E+03  0.34634669935E+03  0.00000000000E+00 0.  1.
          2   -1    0    0  501    0  0.00000000000E+00 -0.00000000000E+00 -0.14713018509E+04  0.14713018509E+04  0.00000000000E+00 0. -1.
         23    2    1    2    0    0 -0.11155963629E+03 -0.55058726438E+02 -0.95350166625E+03  0.96591171697E+03  0.91340033021E+02 0.  0.
        254    2    1    2    0    0  0.11155963629E+03  0.55058726438E+02 -0.17145348536E+03  0.85173683333E+03  0.82497413281E+03 0.  0.
        -24    2    4    4    0    0  0.30892454819E+03 -0.12380195766E+03  0.19354367737E+03  0.39302997215E+03  0.79070239451E+02 0.  0.
         24    2    4    4    0    0 -0.19736491189E+03  0.17886068410E+03 -0.36499716272E+03  0.45870686118E+03  0.79025330957E+02 0.  0.
         13    1    3    3    0    0 -0.48420417689E+01 -0.45333044206E+02 -0.22518061076E+03  0.22974951084E+03  0.00000000000E+00 0.  1.
        -13    1    3    3    0    0 -0.10671759452E+03 -0.97256822315E+01 -0.72832105548E+03  0.73616220613E+03  0.00000000000E+00 0. -1.
          4    1    6    6  502    0 -0.29222099363E+02  0.29215342217E+02 -0.17941782406E+02  0.45048583417E+02  0.00000000000E+00 0. -1.
          3    1    5    5  503    0  0.10231038852E+03 -0.26443552502E+01  0.64300960971E+02  0.12086778643E+03  0.00000000000E+00 0. -1.
         -4    1    5    5    0  503  0.20661415966E+03 -0.12115760241E+03  0.12924271640E+03  0.27216218572E+03  0.00000000000E+00 0.  1.
         -3    1    6    6    0  502 -0.16814281253E+03  0.14964534188E+03 -0.34705538032E+03  0.41365827776E+03  0.00000000000E+00 0.  1.
<mgrwt>
<rscale>  0 0.14276982E+04</rscale>
<asrwt>0</asrwt>
<pdfrwt beam="1">  1        2 0.22635414E+00 0.14276982E+04</pdfrwt>
<pdfrwt beam="2">  1       -2 0.53284106E-01 0.14276982E+04</pdfrwt>
<totfact> 0.42493354E+01</totfact>
</mgrwt>
</event>
<event>
12    1  0.1562393E-007  0.1485969E+04  0.7818608E-02  0.8893838E-01
         -2   -1    0    0    0  501 -0.00000000000E+00  0.00000000000E+00  0.36877259696E+03  0.36877259696E+03  0.00000000000E+00 0.  1.
          2   -1    0    0  501    0  0.00000000000E+00 -0.00000000000E+00 -0.14969270832E+04  0.14969270832E+04  0.00000000000E+00 0. -1.
         23    2    1    2    0    0  0.46427690655E+03 -0.37731074034E+02 -0.35755601387E+03  0.59319656448E+03  0.84018933291E+02 0.  0.
        254    2    1    2    0    0 -0.46427690655E+03  0.37731074034E+02 -0.77059847236E+03  0.12725031157E+04  0.89914709245E+03 0.  0.
        -24    2    4    4    0    0 -0.52181888607E+03 -0.25547812302E+03 -0.19275802954E+03  0.61723979608E+03  0.79153564105E+02 0.  0.
         24    2    4    4    0    0  0.57541979517E+02  0.29320919705E+03 -0.57784044283E+03  0.65526331959E+03  0.78662112774E+02 0.  0.
         11    1    3    3    0    0  0.42656499437E+03 -0.11187133189E+02 -0.31431305642E+03  0.52997692762E+03  0.00000000000E+00 0.  1.
        -11    1    3    3    0    0  0.37711912181E+02 -0.26543940845E+02 -0.43242957450E+02  0.63219636862E+02  0.00000000000E+00 0. -1.
          2    1    6    6  502    0 -0.19603469973E+02  0.55010369089E+02 -0.11885161569E+03  0.13242410390E+03  0.00000000000E+00 0. -1.
          1    1    5    5  503    0 -0.31780316484E+03 -0.17981158754E+03 -0.87302654708E+02  0.37543682839E+03  0.00000000000E+00 0. -1.
         -2    1    5    5    0  503 -0.20401572123E+03 -0.75666535483E+02 -0.10545537483E+03  0.24180296769E+03  0.00000000000E+00 0.  1.
         -1    1    6    6    0  502  0.77145449490E+02  0.23819882797E+03 -0.45898882713E+03  0.52283921568E+03  0.00000000000E+00 0.  1.
<mgrwt>
<rscale>  0 0.14859686E+04</rscale>
<asrwt>0</asrwt>
<pdfrwt beam="1">  1        2 0.23029647E+00 0.14859686E+04</pdfrwt>
<pdfrwt beam="2">  1       -2 0.56734246E-01 0.14859686E+04</pdfrwt>
<totfact> 0.35912398E+01</totfact>
</mgrwt>
</event>
<event>
12    1  0.1562393E-007  0.1625917E+04  0.7818608E-02  0.8804782E-01
         -1   -1    0    0    0  501 -0.00000000000E+00  0.00000000000E+00  0.14210304002E+04  0.14210304002E+04  0.00000000000E+00 0.  1.
          1   -1    0    0  501    0  0.00000000000E+00 -0.00000000000E+00 -0.46508620060E+03  0.46508620060E+03  0.00000000000E+00 0. -1.
         23    2    1    2    0    0 -0.36122188117E+03  0.30558853889E+03  0.66442163889E+03  0.82051040857E+03  0.88969735348E+02 0.  0.
        254    2    1    2    0    0  0.36122188117E+03 -0.30558853889E+03  0.29152256074E+03  0.10656061922E+04  0.90921149959E+03 0.  0.
        -24    2    4    4    0    0  0.41321852306E+03  0.42345419283E+02  0.49424796057E+03  0.65072143532E+03  0.81330544801E+02 0.  0.
         24    2    4    4    0    0 -0.51996641887E+02 -0.34793395818E+03 -0.20272539984E+03  0.41488475693E+03  0.85264786231E+02 0.  0.
         13    1    3    3    0    0 -0.17412720734E+03  0.19480309751E+03  0.40565973790E+03  0.48252290525E+03  0.00000000000E+00 0.  1.
        -13    1    3    3    0    0 -0.18709467383E+03  0.11078544139E+03  0.25876190099E+03  0.33798750332E+03  0.00000000000E+00 0. -1.
          2    1    6    6  502    0 -0.44283717182E+02 -0.35037563420E+03 -0.20177268653E+03  0.40673867493E+03  0.00000000000E+00 0. -1.
          1    1    5    5  503    0  0.36950068938E+03  0.62679099501E+02  0.43019655542E+03  0.57055105403E+03  0.00000000000E+00 0. -1.
         -2    1    5    5    0  503  0.43717833685E+02 -0.20333680218E+02  0.64051405154E+02  0.80170381286E+02  0.00000000000E+00 0.  1.
         -1    1    6    6    0  502 -0.77129247052E+01  0.24416760256E+01 -0.95271330520E+00  0.81460820008E+01  0.00000000000E+00 0.  1.
<mgrwt>
<rscale>  0 0.16259171E+04</rscale>
<asrwt>0</asrwt>
<pdfrwt beam="1">  1        1 0.71551724E-01 0.16259171E+04</pdfrwt>
<pdfrwt beam="2">  1       -1 0.21862006E+00 0.16259171E+04</pdfrwt>
<totfact> 0.52693232E+00</totfact>
</mgrwt>
</event>
<event>
12    1  0.1562393E-007  0.1277601E+04  0.7818608E-02  0.9047518E-01
          1   -1    0    0  501    0  0.00000000000E+00  0.00000000000E+00  0.11562141086E+04  0.11562141086E+04  0.00000000000E+00 0. -1.
         -1   -1    0    0    0  501 -0.00000000000E+00 -0.00000000000E+00 -0.35293321981E+03  0.35293321981E+03  0.00000000000E+00 0.  1.
         23    2    1    2    0    0 -0.11538412700E+03 -0.25010268886E+03  0.21324931472E+02  0.29140047855E+03  0.92707251402E+02 0.  0.
        254    2    1    2    0    0  0.11538412700E+03  0.25010268886E+03  0.78195595736E+03  0.12177468499E+04  0.89195707266E+03 0.  0.
        -24    2    4    4    0    0 -0.57735080254E+02 -0.58038583091E+02  0.84359146503E+03  0.85119393574E+03  0.78630399663E+02 0.  0.
         24    2    4    4    0    0  0.17311920725E+03  0.30814127195E+03 -0.61635507665E+02  0.36655291417E+03  0.75105257357E+02 0.  0.
         11    1    3    3    0    0 -0.41721807424E+02 -0.19253442943E+03  0.18479848134E+02  0.19786793706E+03  0.00000000000E+00 0.  1.
        -11    1    3    3    0    0 -0.73662319575E+02 -0.57568259429E+02  0.28450833373E+01  0.93532541493E+02  0.00000000000E+00 0. -1.
          2    1    6    6  502    0  0.16493415091E+03  0.28703008337E+03 -0.76109588879E+02  0.33967957315E+03  0.00000000000E+00 0. -1.
          1    1    5    5  503    0 -0.55377367297E+02 -0.74569131925E+02  0.61279861406E+03  0.61979782965E+03  0.00000000000E+00 0. -1.
         -2    1    5    5    0  503 -0.23577129571E+01  0.16530548834E+02  0.23079285097E+03  0.23139610609E+03  0.00000000000E+00 0.  1.
         -1    1    6    6    0  502  0.81850563397E+01  0.21111188579E+02  0.14474081214E+02  0.26873341018E+02  0.00000000000E+00 0.  1.
<mgrwt>
<rscale>  0 0.12776015E+04</rscale>
<asrwt>0</asrwt>
<pdfrwt beam="1">  1        1 0.17787909E+00 0.12776015E+04</pdfrwt>
<pdfrwt beam="2">  1       -1 0.54297419E-01 0.12776015E+04</pdfrwt>
<totfact> 0.38795396E+01</totfact>
</mgrwt>
</event>
<event>
12    1  0.1562393E-007  0.1860890E+04  0.7818608E-02  0.8674572E-01
          2   -1    0    0  501    0  0.00000000000E+00  0.00000000000E+00  0.46453849618E+03  0.46453849618E+03  0.00000000000E+00 0. -1.
         -2   -1    0    0    0  501 -0.00000000000E+00 -0.00000000000E+00 -0.18636309821E+04  0.18636309821E+04  0.00000000000E+00 0.  1.
         23    2    1    2    0    0  0.62866720848E+03  0.77057985770E+02 -0.93522460323E+03  0.11330063797E+04  0.88870725182E+02 0.  0.
        254    2    1    2    0    0 -0.62866720848E+03 -0.77057985770E+02 -0.46386788274E+03  0.11951630986E+04  0.90115538476E+03 0.  0.
        -24    2    4    4    0    0 -0.39535661075E+03  0.36019861280E+03 -0.45433104345E+02  0.54140455662E+03  0.70744869985E+02 0.  0.
         24    2    4    4    0    0 -0.23331059773E+03 -0.43725659857E+03 -0.41843477839E+03  0.65375854200E+03  0.81764292105E+02 0.  0.
         11    1    3    3    0    0  0.63172175991E+03  0.76176641067E+02 -0.93184736994E+03  0.11283681950E+04  0.00000000000E+00 0. -1.
        -11    1    3    3    0    0 -0.30545514258E+01  0.88134470303E+00 -0.33772332853E+01  0.46381847270E+01  0.00000000000E+00 0.  1.
          4    1    6    6  502    0 -0.19288489080E+03 -0.33541957871E+03 -0.28205473624E+03  0.47881703094E+03  0.00000000000E+00 0. -1.
          1    1    5    5  503    0 -0.25735423128E+03  0.27071776535E+03 -0.50082927984E+02  0.37686550454E+03  0.00000000000E+00 0. -1.
         -2    1    5    5    0  503 -0.13800237947E+03  0.89480847447E+02  0.46498236392E+01  0.16453905208E+03  0.00000000000E+00 0.  1.
         -3    1    6    6    0  502 -0.40425706927E+02 -0.10183701986E+03 -0.13638004215E+03  0.17494151106E+03  0.00000000000E+00 0.  1.
<mgrwt>
<rscale>  0 0.18608905E+04</rscale>
<asrwt>0</asrwt>
<pdfrwt beam="1">  1        2 0.71467461E-01 0.18608905E+04</pdfrwt>
<pdfrwt beam="2">  1       -2 0.28671246E+00 0.18608905E+04</pdfrwt>
<totfact> 0.24165239E+00</totfact>
</mgrwt>
</event>
<event>
12    1  0.1562393E-007  0.2327252E+04  0.7818608E-02  0.8467253E-01
          2   -1    0    0  501    0  0.00000000000E+00  0.00000000000E+00  0.22959543093E+04  0.22959543093E+04  0.00000000000E+00 0. -1.
         -2   -1    0    0    0  501 -0.00000000000E+00 -0.00000000000E+00 -0.58974389644E+03  0.58974389644E+03  0.00000000000E+00 0.  1.
         23    2    1    2    0    0 -0.31838228525E+03 -0.64156907749E+03 -0.11059852043E+03  0.73053877774E+03  0.92069062786E+02 0.  0.
        254    2    1    2    0    0  0.31838228525E+03  0.64156907749E+03  0.18168089332E+04  0.21551594280E+04  0.91155871957E+03 0.  0.
        -24    2    4    4    0    0 -0.15031632633E+03  0.64712175978E+03  0.12297539926E+04  0.14000335432E+04  0.80233845124E+02 0.  0.
         24    2    4    4    0    0  0.46869861158E+03 -0.55526822952E+01  0.58705494065E+03  0.75512588473E+03  0.76631440498E+02 0.  0.
         13    1    3    3    0    0 -0.20648323513E+03 -0.45587667434E+03 -0.37978145490E+02  0.50189760722E+03  0.00000000000E+00 0. -1.
        -13    1    3    3    0    0 -0.11189905012E+03 -0.18569240314E+03 -0.72620374936E+02  0.22864117053E+03  0.00000000000E+00 0.  1.
          2    1    6    6  502    0  0.46369872812E+03 -0.59091777678E+01  0.55755327032E+03  0.72520140519E+03  0.00000000000E+00 0. -1.
          3    1    5    5  503    0 -0.10319991101E+03  0.53596052125E+03  0.10518732073E+04  0.11850490058E+04  0.00000000000E+00 0. -1.
         -4    1    5    5    0  503 -0.47116415317E+02  0.11116123853E+03  0.17788078533E+03  0.21498453743E+03  0.00000000000E+00 0.  1.
         -1    1    6    6    0  502  0.49998834579E+01  0.35649547262E+00  0.29501670332E+02  0.29924479544E+02  0.00000000000E+00 0.  1.
<mgrwt>
<rscale>  0 0.23272516E+04</rscale>
<asrwt>0</asrwt>
<pdfrwt beam="1">  1        2 0.35322374E+00 0.23272516E+04</pdfrwt>
<pdfrwt beam="2">  1       -2 0.90729831E-01 0.23272516E+04</pdfrwt>
<totfact> 0.42758865E+00</totfact>
</mgrwt>
</event>
<event>
12    1  0.1562393E-007  0.1189343E+04  0.7818608E-02  0.9122236E-01
         -2   -1    0    0    0  501 -0.00000000000E+00  0.00000000000E+00  0.47465817928E+03  0.47465817928E+03  0.00000000000E+00 0.  1.
          2   -1    0    0  501    0  0.00000000000E+00 -0.00000000000E+00 -0.74502972627E+03  0.74502972627E+03  0.00000000000E+00 0. -1.
         23    2    1    2    0    0 -0.12623731539E+03 -0.18613339453E+01 -0.39545720327E+03  0.42503020635E+03  0.91241176746E+02 0.  0.
        254    2    1    2    0    0  0.12623731539E+03  0.18613339453E+01  0.12508565628E+03  0.79465769920E+03  0.77452896209E+03 0.  0.
        -24    2    4    4    0    0  0.41896544379E+03 -0.77679065867E+02 -0.49711469640E+02  0.43577614007E+03  0.76573713995E+02 0.  0.
         24    2    4    4    0    0 -0.29272812840E+03  0.79540399812E+02  0.17479712592E+03  0.35888155913E+03  0.78901875084E+02 0.  0.
         11    1    3    3    0    0 -0.13534695032E+03 -0.18404856898E+02 -0.33834926498E+03  0.36488047472E+03  0.00000000000E+00 0. -1.
        -11    1    3    3    0    0  0.91096349265E+01  0.16543522953E+02 -0.57107938285E+02  0.60149731631E+02  0.00000000000E+00 0.  1.
          2    1    6    6  502    0 -0.40304328855E+02  0.15928786493E+02 -0.33146058066E+01  0.43464373632E+02  0.00000000000E+00 0. -1.
          1    1    5    5  503    0  0.83900950755E+02 -0.22369432652E+02  0.19978256231E+02  0.89100458904E+02  0.00000000000E+00 0. -1.
         -2    1    5    5    0  503  0.33506449304E+03 -0.55309633215E+02 -0.69689725871E+02  0.34667568117E+03  0.00000000000E+00 0.  1.
         -1    1    6    6    0  502 -0.25242379954E+03  0.63611613319E+02  0.17811173173E+03  0.31541718550E+03  0.00000000000E+00 0.  1.
<mgrwt>
<rscale>  0 0.11893434E+04</rscale>
<asrwt>0</asrwt>
<pdfrwt beam="1">  1        2 0.11461996E+00 0.11893434E+04</pdfrwt>
<pdfrwt beam="2">  1       -2 0.73024335E-01 0.11893434E+04</pdfrwt>
<totfact> 0.63300968E+01</totfact>
</mgrwt>
</event>
<event>
12    1  0.1562393E-007  0.1835081E+04  0.7818608E-02  0.8687863E-01
          2   -1    0    0  501    0  0.00000000000E+00  0.00000000000E+00  0.27012874112E+04  0.27012874112E+04  0.00000000000E+00 0. -1.
         -2   -1    0    0    0  501 -0.00000000000E+00 -0.00000000000E+00 -0.31165899760E+03  0.31165899760E+03  0.00000000000E+00 0.  1.
         23    2    1    2    0    0 -0.11578804856E+03  0.59124245253E+03  0.36369785242E+03  0.71088397106E+03  0.10052553203E+03 0.  0.
        254    2    1    2    0    0  0.11578804856E+03 -0.59124245253E+03  0.20259305612E+04  0.23020624378E+04  0.91220738801E+03 0.  0.
        -24    2    4    4    0    0 -0.37929460069E+03 -0.30478965930E+03  0.70252463221E+03  0.85804174226E+03  0.77030137406E+02 0.  0.
         24    2    4    4    0    0  0.49508264924E+03 -0.28645279323E+03  0.13234059290E+04  0.14440206955E+04  0.81427783067E+02 0.  0.
         11    1    3    3    0    0 -0.11355224689E+03  0.56776648407E+03  0.36915421922E+03  0.68667876825E+03  0.00000000000E+00 0.  1.
        -11    1    3    3    0    0 -0.22358016667E+01  0.23475968461E+02 -0.54563667928E+01  0.24205202805E+02  0.00000000000E+00 0. -1.
          4    1    6    6  502    0  0.27533637912E+03 -0.17467029387E+03  0.84712550474E+03  0.90771220880E+03  0.00000000000E+00 0. -1.
          1    1    5    5  503    0 -0.61767961582E+02 -0.34148109434E+02  0.63885346094E+02  0.95198276778E+02  0.00000000000E+00 0. -1.
         -2    1    5    5    0  503 -0.31752663911E+03 -0.27064154987E+03  0.63863928612E+03  0.76284346548E+03  0.00000000000E+00 0.  1.
         -3    1    6    6    0  502  0.21974627012E+03 -0.11178249936E+03  0.47628042427E+03  0.53630848673E+03  0.00000000000E+00 0.  1.
<mgrwt>
<rscale>  0 0.18350810E+04</rscale>
<asrwt>0</asrwt>
<pdfrwt beam="1">  1        2 0.41558266E+00 0.18350810E+04</pdfrwt>
<pdfrwt beam="2">  1       -2 0.47947540E-01 0.18350810E+04</pdfrwt>
<totfact> 0.10303886E+01</totfact>
</mgrwt>
</event>
<event>
12    1  0.1562393E-007  0.2030715E+04  0.7818608E-02  0.8592394E-01
         -2   -1    0    0    0  501 -0.00000000000E+00  0.00000000000E+00  0.77168291168E+03  0.77168291168E+03  0.00000000000E+00 0.  1.
          2   -1    0    0  501    0  0.00000000000E+00 -0.00000000000E+00 -0.13359768505E+04  0.13359768505E+04  0.00000000000E+00 0. -1.
         23    2    1    2    0    0  0.72470551783E+03  0.49676847319E+02  0.13800749341E+03  0.74473679433E+03  0.88999707054E+02 0.  0.
        254    2    1    2    0    0 -0.72470551783E+03 -0.49676847319E+02 -0.70230143220E+03  0.13629229678E+04  0.91469439587E+03 0.  0.
        -24    2    4    4    0    0 -0.81354314133E+03  0.19988647046E+02 -0.19963606025E+03  0.84169696863E+03  0.79669577870E+02 0.  0.
         24    2    4    4    0    0  0.88837623498E+02 -0.69665494365E+02 -0.50266537194E+03  0.52122599920E+03  0.79111703508E+02 0.  0.
         11    1    3    3    0    0  0.57348884383E+03  0.35949561694E+02  0.14537761724E+03  0.59271955981E+03  0.00000000000E+00 0.  1.
        -11    1    3    3    0    0  0.15121667400E+03  0.13727285625E+02 -0.73701238285E+01  0.15201723452E+03  0.00000000000E+00 0. -1.
          4    1    6    6  502    0  0.10187637544E+03 -0.71297227118E+02 -0.46478645687E+03  0.48113256069E+03  0.00000000000E+00 0. -1.
          1    1    5    5  503    0 -0.40585293667E+03  0.27921108381E+02 -0.63092884380E+02  0.41167572986E+03  0.00000000000E+00 0. -1.
         -2    1    5    5    0  503 -0.40769020466E+03 -0.79324613350E+01 -0.13654317587E+03  0.43002123877E+03  0.00000000000E+00 0.  1.
         -3    1    6    6    0  502 -0.13038751941E+02  0.16317327531E+01 -0.37878915078E+02  0.40093438508E+02  0.00000000000E+00 0.  1.
<mgrwt>
<rscale>  0 0.20307147E+04</rscale>
<asrwt>0</asrwt>
<pdfrwt beam="1">  1        2 0.20553490E+00 0.20307147E+04</pdfrwt>
<pdfrwt beam="2">  1       -2 0.11872045E+00 0.20307147E+04</pdfrwt>
<totfact> 0.79631893E+00</totfact>
</mgrwt>
</event>
<event>
12    1  0.1562393E-007  0.1212626E+04  0.7818608E-02  0.9101876E-01
         -2   -1    0    0    0  501 -0.00000000000E+00  0.00000000000E+00  0.33732360742E+03  0.33732360742E+03  0.00000000000E+00 0.  1.
          2   -1    0    0  501    0  0.00000000000E+00 -0.00000000000E+00 -0.10898007948E+04  0.10898007948E+04  0.00000000000E+00 0. -1.
         23    2    1    2    0    0  0.18605860912E+03 -0.50464074935E+02  0.30524308548E+02  0.21724683151E+03  0.95394043324E+02 0.  0.
        254    2    1    2    0    0 -0.18605860912E+03  0.50464074935E+02 -0.78300149594E+03  0.12098775707E+04  0.90196893773E+03 0.  0.
        -24    2    4    4    0    0  0.34578385213E+03  0.11016531675E+02 -0.45698646966E+03  0.57969732734E+03  0.86743999811E+02 0.  0.
         24    2    4    4    0    0 -0.53184246125E+03  0.39447543259E+02 -0.32601502628E+03  0.63018024340E+03  0.80179982284E+02 0.  0.
         13    1    3    3    0    0  0.65521957154E+02 -0.66437020985E+02  0.87320481752E+01  0.93719012436E+02  0.00000000000E+00 0. -1.
        -13    1    3    3    0    0  0.12053665196E+03  0.15972946051E+02  0.21792260372E+02  0.12352781907E+03  0.00000000000E+00 0.  1.
          4    1    6    6  502    0 -0.76313872726E+02  0.72888916885E+01 -0.82606537924E+02  0.11269771613E+03  0.00000000000E+00 0. -1.
          3    1    5    5  503    0  0.20733040216E+03 -0.33895921202E+02 -0.24806623739E+03  0.32507181863E+03  0.00000000000E+00 0. -1.
         -4    1    5    5    0  503  0.13845344997E+03  0.44912452877E+02 -0.20892023227E+03  0.25462550871E+03  0.00000000000E+00 0.  1.
         -1    1    6    6    0  502 -0.45552858852E+03  0.32158651571E+02 -0.24340848835E+03  0.51748252727E+03  0.00000000000E+00 0.  1.
<mgrwt>
<rscale>  0 0.12126261E+04</rscale>
<asrwt>0</asrwt>
<pdfrwt beam="1">  1        2 0.16766166E+00 0.12126261E+04</pdfrwt>
<pdfrwt beam="2">  1       -2 0.51895940E-01 0.12126261E+04</pdfrwt>
<totfact> 0.76402782E+01</totfact>
</mgrwt>
</event>
<event>
12    1  0.1562393E-007  0.1953827E+04  0.7818608E-02  0.8628517E-01
          2   -1    0    0  501    0  0.00000000000E+00  0.00000000000E+00  0.13808961893E+04  0.13808961893E+04  0.00000000000E+00 0. -1.
         -2   -1    0    0    0  501 -0.00000000000E+00 -0.00000000000E+00 -0.69111653509E+03  0.69111653509E+03  0.00000000000E+00 0.  1.
         23    2    1    2    0    0  0.79134541446E+02  0.36139612114E+03  0.99195498848E+03  0.10626776689E+04  0.91867822951E+02 0.  0.
        254    2    1    2    0    0 -0.79134541446E+02 -0.36139612114E+03 -0.30217533425E+03  0.10093350555E+04  0.88914447056E+03 0.  0.
        -24    2    4    4    0    0 -0.23990914522E+03 -0.57033477334E+03 -0.37093345984E+03  0.72575024278E+03  0.79269361233E+02 0.  0.
         24    2    4    4    0    0  0.16077460377E+03  0.20893865220E+03  0.68758125597E+02  0.28358481268E+03  0.78669133373E+02 0.  0.
         13    1    3    3    0    0  0.31487311071E+02  0.30805359738E+03  0.80255693779E+03  0.86022445212E+03  0.00000000000E+00 0. -1.
        -13    1    3    3    0    0  0.47647230374E+02  0.53342523759E+02  0.18939805068E+03  0.20245321683E+03  0.00000000000E+00 0.  1.
          4    1    6    6  502    0  0.15229864573E+03  0.16582216054E+03  0.34305597076E+02  0.22774709748E+03  0.00000000000E+00 0. -1.
          1    1    5    5  503    0 -0.23470734304E+03 -0.50363361426E+03 -0.34477532313E+03  0.65391465631E+03  0.00000000000E+00 0. -1.
         -4    1    5    5    0  503 -0.52018021704E+01 -0.66701159074E+02 -0.26158136713E+02  0.71835586473E+02  0.00000000000E+00 0.  1.
         -3    1    6    6    0  502  0.84759580410E+01  0.43116491657E+02  0.34452528521E+02  0.55837715202E+02  0.00000000000E+00 0.  1.
<mgrwt>
<rscale>  0 0.19538272E+04</rscale>
<asrwt>0</asrwt>
<pdfrwt beam="1">  1        2 0.21244557E+00 0.19538272E+04</pdfrwt>
<pdfrwt beam="2">  1       -2 0.10632562E+00 0.19538272E+04</pdfrwt>
<totfact> 0.98721696E+00</totfact>
</mgrwt>
</event>
<event>
12    1  0.1562393E-007  0.1186736E+04  0.7818608E-02  0.9124547E-01
         -1   -1    0    0    0  501 -0.00000000000E+00  0.00000000000E+00  0.88983716456E+03  0.88983716456E+03  0.00000000000E+00 0.  1.
          1   -1    0    0  501    0  0.00000000000E+00 -0.00000000000E+00 -0.39567398421E+03  0.39567398421E+03  0.00000000000E+00 0. -1.
         23    2    1    2    0    0  0.14899202323E+03  0.55402888092E+02 -0.98264013395E+02  0.20744965660E+03  0.90063537028E+02 0.  0.
        254    2    1    2    0    0 -0.14899202323E+03 -0.55402888092E+02  0.59242719374E+03  0.10780614922E+04  0.88655428373E+03 0.  0.
        -24    2    4    4    0    0 -0.94937431824E+02  0.29457911590E+03  0.63639705409E+03  0.71216836251E+03  0.79953703061E+02 0.  0.
         24    2    4    4    0    0 -0.54054591403E+02 -0.34998200399E+03 -0.43969860344E+02  0.36589312965E+03  0.80840161652E+02 0.  0.
         13    1    3    3    0    0  0.12607037690E+03  0.88117899576E+01 -0.89331255745E+02  0.15476259505E+03  0.00000000000E+00 0. -1.
        -13    1    3    3    0    0  0.22921646326E+02  0.46591098134E+02 -0.89327576502E+01  0.52687061551E+02  0.00000000000E+00 0.  1.
          2    1    6    6  502    0 -0.74361097421E+02 -0.29547441870E+03 -0.30693529135E+02  0.30622997510E+03  0.00000000000E+00 0. -1.
          3    1    5    5  503    0 -0.47476665198E+02  0.22685329701E+03  0.52071614056E+03  0.56996644739E+03  0.00000000000E+00 0. -1.
         -4    1    5    5    0  503 -0.47460766626E+02  0.67725818890E+02  0.11568091352E+03  0.14220191513E+03  0.00000000000E+00 0.  1.
         -1    1    6    6    0  502  0.20306506018E+02 -0.54507585290E+02 -0.13276331208E+02  0.59663154553E+02  0.00000000000E+00 0.  1.
<mgrwt>
<rscale>  0 0.11867357E+04</rscale>
<asrwt>0</asrwt>
<pdfrwt beam="1">  1        1 0.60872921E-01 0.11867357E+04</pdfrwt>
<pdfrwt beam="2">  1       -1 0.13689802E+00 0.11867357E+04</pdfrwt>
<totfact> 0.26802343E+01</totfact>
</mgrwt>
</event>
<event>
12    1  0.1562393E-007  0.1197562E+04  0.7818608E-02  0.9114993E-01
          2   -1    0    0  501    0  0.00000000000E+00  0.00000000000E+00  0.13190262058E+04  0.13190262058E+04  0.00000000000E+00 0. -1.
         -2   -1    0    0    0  501 -0.00000000000E+00 -0.00000000000E+00 -0.27182078886E+03  0.27182078886E+03  0.00000000000E+00 0.  1.
         23    2    1    2    0    0 -0.13296276896E+03 -0.10828240664E+03  0.49195958037E+03  0.52885079473E+03  0.90855692437E+02 0.  0.
        254    2    1    2    0    0  0.13296276896E+03  0.10828240664E+03  0.55524583657E+03  0.10619961999E+04  0.88889471374E+03 0.  0.
        -24    2    4    4    0    0  0.41747477133E+03  0.19609499594E+03  0.58952777539E+03  0.75247782738E+03  0.77080805721E+02 0.  0.
         24    2    4    4    0    0 -0.28451200237E+03 -0.87812589298E+02 -0.34281938819E+02  0.30951837255E+03  0.77254393298E+02 0.  0.
         13    1    3    3    0    0 -0.45004243127E+02 -0.86537571229E+02  0.18976985771E+03  0.21336994172E+03  0.00000000000E+00 0.  1.
        -13    1    3    3    0    0 -0.87958525831E+02 -0.21744835411E+02  0.30218972266E+03  0.31548085301E+03  0.00000000000E+00 0. -1.
          2    1    6    6  502    0 -0.17101189065E+03 -0.74436300681E+02 -0.52574690651E+02  0.19377803720E+03  0.00000000000E+00 0. -1.
          1    1    5    5  503    0  0.56356453462E+02  0.36633521727E+02  0.49158862049E+02  0.83274596841E+02  0.00000000000E+00 0. -1.
         -2    1    5    5    0  503  0.36111831787E+03  0.15946147421E+03  0.54036891334E+03  0.66920323054E+03  0.00000000000E+00 0.  1.
         -1    1    6    6    0  502 -0.11350011172E+03 -0.13376288617E+02  0.18292751833E+02  0.11574033535E+03  0.00000000000E+00 0.  1.
<mgrwt>
<rscale>  0 0.11975621E+04</rscale>
<asrwt>0</asrwt>
<pdfrwt beam="1">  1        2 0.20292710E+00 0.11975621E+04</pdfrwt>
<pdfrwt beam="2">  1       -2 0.41818584E-01 0.11975621E+04</pdfrwt>
<totfact> 0.86126146E+01</totfact>
</mgrwt>
</event>
<event>
12    1  0.1562393E-007  0.2216772E+04  0.7818608E-02  0.8511479E-01
          2   -1    0    0  501    0  0.00000000000E+00  0.00000000000E+00  0.17763626174E+04  0.17763626174E+04  0.00000000000E+00 0. -1.
         -2   -1    0    0    0  501 -0.00000000000E+00 -0.00000000000E+00 -0.69159303862E+03  0.69159303862E+03  0.00000000000E+00 0.  1.
         23    2    1    2    0    0 -0.55885887390E+03  0.19761058078E+03 -0.33255937912E+03  0.68606073433E+03  0.93329566469E+02 0.  0.
        254    2    1    2    0    0  0.55885887390E+03 -0.19761058078E+03  0.14173289579E+04  0.17818949216E+04  0.90274855549E+03 0.  0.
        -24    2    4    4    0    0  0.54567334318E+03 -0.41441134802E+03  0.54394742967E+03  0.87831098036E+03  0.77815224489E+02 0.  0.
         24    2    4    4    0    0  0.13185530721E+02  0.21680076724E+03  0.87338152819E+03  0.90358394128E+03  0.80574277986E+02 0.  0.
         11    1    3    3    0    0 -0.35616476398E+03  0.11382034243E+03 -0.25849222658E+03  0.45456203169E+03  0.00000000000E+00 0.  1.
        -11    1    3    3    0    0 -0.20269410992E+03  0.83790238349E+02 -0.74067152538E+02  0.23149870264E+03  0.00000000000E+00 0. -1.
          4    1    6    6  502    0  0.18278031737E+02  0.60441807555E+01  0.48307983885E+02  0.52002691009E+02  0.00000000000E+00 0. -1.
          1    1    5    5  503    0  0.12177648961E+03 -0.12300171621E+03  0.16763895612E+03  0.24096006977E+03  0.00000000000E+00 0. -1.
         -2    1    5    5    0  503  0.42389685357E+03 -0.29140963181E+03  0.37630847355E+03  0.63735091060E+03  0.00000000000E+00 0.  1.
         -3    1    6    6    0  502 -0.50925010159E+01  0.21075658648E+03  0.82507354430E+03  0.85158125027E+03  0.00000000000E+00 0.  1.
<mgrwt>
<rscale>  0 0.22167724E+04</rscale>
<asrwt>0</asrwt>
<pdfrwt beam="1">  1        2 0.27328656E+00 0.22167724E+04</pdfrwt>
<pdfrwt beam="2">  1       -2 0.10639893E+00 0.22167724E+04</pdfrwt>
<totfact> 0.57805330E+00</totfact>
</mgrwt>
</event>
<event>
12    1  0.1562393E-007  0.1696820E+04  0.7818608E-02  0.8763180E-01
         -1   -1    0    0    0  501 -0.00000000000E+00  0.00000000000E+00  0.47677524150E+03  0.47677524150E+03  0.00000000000E+00 0.  1.
          1   -1    0    0  501    0  0.00000000000E+00 -0.00000000000E+00 -0.15097258707E+04  0.15097258707E+04  0.00000000000E+00 0. -1.
         23    2    1    2    0    0 -0.27492283386E+03 -0.38847717596E+03  0.58494017420E+02  0.48825206599E+03  0.92040475064E+02 0.  0.
        254    2    1    2    0    0  0.27492283386E+03  0.38847717596E+03 -0.10914446466E+04  0.14982490462E+04  0.90939634209E+03 0.  0.
        -24    2    4    4    0    0  0.37704377109E+03  0.32178017330E+03 -0.12101084744E+04  0.13100804334E+04  0.79017321589E+02 0.  0.
         24    2    4    4    0    0 -0.10212093723E+03  0.66697002657E+02  0.11866382779E+03  0.18816861273E+03  0.80306580109E+02 0.  0.
         13    1    3    3    0    0 -0.21460123447E+03 -0.31979702825E+03  0.11103426730E+02  0.38528835331E+03  0.00000000000E+00 0.  1.
        -13    1    3    3    0    0 -0.60321599394E+02 -0.68680147717E+02  0.47390590690E+02  0.10296371268E+03  0.00000000000E+00 0. -1.
          2    1    6    6  502    0 -0.11603106909E+02  0.41522545008E+02  0.70377715183E+02  0.82533487920E+02  0.00000000000E+00 0. -1.
          3    1    5    5  503    0  0.11103009242E+03  0.11235248143E+03 -0.47932556068E+03  0.50468183505E+03  0.00000000000E+00 0. -1.
         -4    1    5    5    0  503  0.26601367866E+03  0.20942769188E+03 -0.73078291369E+03  0.80539859840E+03  0.00000000000E+00 0.  1.
         -1    1    6    6    0  502 -0.90517830320E+02  0.25174457649E+02  0.48286112603E+02  0.10563512481E+03  0.00000000000E+00 0.  1.
<mgrwt>
<rscale>  0 0.16968205E+04</rscale>
<asrwt>0</asrwt>
<pdfrwt beam="1">  1        1 0.23226552E+00 0.16968205E+04</pdfrwt>
<pdfrwt beam="2">  1       -1 0.73350036E-01 0.16968205E+04</pdfrwt>
<totfact> 0.11482164E+01</totfact>
</mgrwt>
</event>
<event>
12    1  0.1562393E-007  0.2339898E+04  0.7818608E-02  0.8462354E-01
         -1   -1    0    0    0  501 -0.00000000000E+00  0.00000000000E+00  0.28751049014E+04  0.28751049014E+04  0.00000000000E+00 0.  1.
          1   -1    0    0  501    0  0.00000000000E+00 -0.00000000000E+00 -0.47608005353E+03  0.47608005353E+03  0.00000000000E+00 0. -1.
         23    2    1    2    0    0  0.49245058990E+03 -0.48612932103E+03  0.20399734212E+04  0.21559227121E+04  0.87646339525E+02 0.  0.
        254    2    1    2    0    0 -0.49245058990E+03  0.48612932103E+03  0.35905142660E+03  0.11952622428E+04  0.90603785897E+03 0.  0.
        -24    2    4    4    0    0 -0.48758866858E+03  0.29666296486E+03 -0.19186567444E+03  0.60743996906E+03  0.80120250461E+02 0.  0.
         24    2    4    4    0    0 -0.48619213297E+01  0.18946635617E+03  0.55091710104E+03  0.58782227375E+03  0.78129603254E+02 0.  0.
         11    1    3    3    0    0  0.13947579447E+01  0.14940620913E+01  0.32347193149E+00  0.20693490154E+01  0.00000000000E+00 0. -1.
        -11    1    3    3    0    0  0.49105583196E+03 -0.48762338312E+03  0.20396499493E+04  0.21538533631E+04  0.00000000000E+00 0.  1.
          4    1    6    6  502    0 -0.17106815485E+02  0.14061743042E+03  0.48253288094E+03  0.50289550213E+03  0.00000000000E+00 0. -1.
          3    1    5    5  503    0 -0.42533933587E+02  0.54269659687E+02 -0.32208227308E+02  0.76103228415E+02  0.00000000000E+00 0. -1.
         -4    1    5    5    0  503 -0.44505473499E+03  0.24239330517E+03 -0.15965744714E+03  0.53133674064E+03  0.00000000000E+00 0.  1.
         -3    1    6    6    0  502  0.12244894155E+02  0.48848925753E+02  0.68384220098E+02  0.84926771625E+02  0.00000000000E+00 0.  1.
<mgrwt>
<rscale>  0 0.23398975E+04</rscale>
<asrwt>0</asrwt>
<pdfrwt beam="1">  1        1 0.73243087E-01 0.23398975E+04</pdfrwt>
<pdfrwt beam="2">  1       -1 0.44232382E+00 0.23398975E+04</pdfrwt>
<totfact> 0.15609453E-01</totfact>
</mgrwt>
</event>
<event>
12    1  0.1562393E-007  0.1998150E+04  0.7818608E-02  0.8607486E-01
         -2   -1    0    0    0  501 -0.00000000000E+00  0.00000000000E+00  0.48020183117E+03  0.48020183117E+03  0.00000000000E+00 0.  1.
          2   -1    0    0  501    0  0.00000000000E+00 -0.00000000000E+00 -0.20786059503E+04  0.20786059503E+04  0.00000000000E+00 0. -1.
         23    2    1    2    0    0  0.50117519347E+03  0.48322239187E+03 -0.15164692029E+03  0.71846329643E+03  0.92261938651E+02 0.  0.
        254    2    1    2    0    0 -0.50117519347E+03 -0.48322239187E+03 -0.14467571988E+04  0.18403444850E+04  0.89948928657E+03 0.  0.
        -24    2    4    4    0    0 -0.65967336883E+03 -0.27539660546E+03 -0.13842989361E+04  0.15600272700E+04  0.79933065264E+02 0.  0.
         24    2    4    4    0    0  0.15849817535E+03 -0.20782578641E+03 -0.62458262728E+02  0.28031721500E+03  0.79771406862E+02 0.  0.
         11    1    3    3    0    0  0.34207410349E+03  0.31279178353E+03 -0.14327632973E+03  0.48516131212E+03  0.00000000000E+00 0.  1.
        -11    1    3    3    0    0  0.15910108998E+03  0.17043060834E+03 -0.83705905585E+01  0.23330198430E+03  0.00000000000E+00 0. -1.
          2    1    6    6  502    0 -0.18253846518E+01 -0.40441457889E+02 -0.18044113863E+02  0.44321931258E+02  0.00000000000E+00 0. -1.
          1    1    5    5  503    0 -0.31378647632E+03 -0.17119876502E+03 -0.72074832381E+03  0.80451794022E+03  0.00000000000E+00 0. -1.
         -2    1    5    5    0  503 -0.34588689251E+03 -0.10419784044E+03 -0.66355061228E+03  0.75550932980E+03  0.00000000000E+00 0.  1.
         -1    1    6    6    0  502  0.16032356001E+03 -0.16738432852E+03 -0.44414148865E+02  0.23599528374E+03  0.00000000000E+00 0.  1.
<mgrwt>
<rscale>  0 0.19981495E+04</rscale>
<asrwt>0</asrwt>
<pdfrwt beam="1">  1        2 0.31978554E+00 0.19981495E+04</pdfrwt>
<pdfrwt beam="2">  1       -2 0.73877204E-01 0.19981495E+04</pdfrwt>
<totfact> 0.92657535E+00</totfact>
</mgrwt>
</event>
<event>
12    1  0.1562393E-007  0.2505772E+04  0.7818608E-02  0.8400932E-01
         -1   -1    0    0    0  501 -0.00000000000E+00  0.00000000000E+00  0.18848681305E+04  0.18848681305E+04  0.00000000000E+00 0.  1.
          1   -1    0    0  501    0  0.00000000000E+00 -0.00000000000E+00 -0.83280258476E+03  0.83280258476E+03  0.00000000000E+00 0. -1.
         23    2    1    2    0    0  0.77782707387E+03  0.67250188999E+03  0.67875060688E+02  0.10341487357E+04  0.87079474044E+02 0.  0.
        254    2    1    2    0    0 -0.77782707387E+03 -0.67250188999E+03  0.98419048501E+03  0.16835219795E+04  0.89907819226E+03 0.  0.
        -24    2    4    4    0    0 -0.24779121807E+03 -0.70414877769E+03  0.28853176060E+03  0.80442092470E+03  0.81341615095E+02 0.  0.
         24    2    4    4    0    0 -0.53003585580E+03  0.31646887697E+02  0.69565872441E+03  0.87910105480E+03  0.83295076522E+02 0.  0.
         13    1    3    3    0    0  0.30908743289E+02  0.87002882238E+01  0.80303045561E+01  0.33098809921E+02  0.00000000000E+00 0.  1.
        -13    1    3    3    0    0  0.74691833058E+03  0.66380160177E+03  0.59844756132E+02  0.10010499258E+04  0.00000000000E+00 0. -1.
          2    1    6    6  502    0  0.31070828015E+01 -0.40413475609E+00  0.23435541718E+01  0.39127400364E+01  0.00000000000E+00 0. -1.
          1    1    5    5  503    0 -0.13459944049E+03 -0.28871555462E+03  0.95521876090E+02  0.33256294091E+03  0.00000000000E+00 0. -1.
         -2    1    5    5    0  503 -0.11319177758E+03 -0.41543322308E+03  0.19300988451E+03  0.47185798379E+03  0.00000000000E+00 0.  1.
         -1    1    6    6    0  502 -0.53314293861E+03  0.32051022454E+02  0.69331517023E+03  0.87518831477E+03  0.00000000000E+00 0.  1.
<mgrwt>
<rscale>  0 0.25057718E+04</rscale>
<asrwt>0</asrwt>
<pdfrwt beam="1">  1        1 0.12812347E+00 0.25057718E+04</pdfrwt>
<pdfrwt beam="2">  1       -1 0.28997971E+00 0.25057718E+04</pdfrwt>
<totfact> 0.70542240E-01</totfact>
</mgrwt>
</event>
<event>
12    1  0.1562393E-007  0.1679711E+04  0.7818608E-02  0.8773021E-01
          2   -1    0    0  501    0  0.00000000000E+00  0.00000000000E+00  0.10198046897E+04  0.10198046897E+04  0.00000000000E+00 0. -1.
         -2   -1    0    0    0  501 -0.00000000000E+00 -0.00000000000E+00 -0.69165907181E+03  0.69165907181E+03  0.00000000000E+00 0.  1.
         23    2    1    2    0    0 -0.16236112195E+03  0.42947342441E+03  0.49917745878E+03  0.68427512811E+03  0.90806163880E+02 0.  0.
        254    2    1    2    0    0  0.16236112195E+03 -0.42947342441E+03 -0.17103184089E+03  0.10271886334E+04  0.90280454241E+03 0.  0.
        -24    2    4    4    0    0  0.22601232648E+02  0.24679207085E+03 -0.20443573103E+03  0.33132285902E+03  0.81016830567E+02 0.  0.
         24    2    4    4    0    0  0.13975988930E+03 -0.67626549527E+03  0.33403890146E+02  0.69586577438E+03  0.79028534923E+02 0.  0.
         13    1    3    3    0    0 -0.16556998660E+03  0.41442063865E+03  0.45427176452E+03  0.63680508968E+03  0.00000000000E+00 0. -1.
        -13    1    3    3    0    0  0.32088646503E+01  0.15052785763E+02  0.44905694264E+02  0.47470038434E+02  0.00000000000E+00 0.  1.
          2    1    6    6  502    0  0.40817799191E+02 -0.38535443897E+03  0.28385314859E+02  0.38854840428E+03  0.00000000000E+00 0. -1.
          3    1    5    5  503    0  0.32786741936E+02  0.22755876923E+03 -0.20705468560E+03  0.30940201475E+03  0.00000000000E+00 0. -1.
         -4    1    5    5    0  503 -0.10185509288E+02  0.19233301623E+02  0.26189545668E+01  0.21920844277E+02  0.00000000000E+00 0.  1.
         -1    1    6    6    0  502  0.98942090112E+02 -0.29091105629E+03  0.50185752874E+01  0.30731737010E+03  0.00000000000E+00 0.  1.
<mgrwt>
<rscale>  0 0.16797109E+04</rscale>
<asrwt>0</asrwt>
<pdfrwt beam="1">  1        2 0.15689303E+00 0.16797109E+04</pdfrwt>
<pdfrwt beam="2">  1       -2 0.10640909E+00 0.16797109E+04</pdfrwt>
<totfact> 0.16599976E+01</totfact>
</mgrwt>
</event>
<event>
12    1  0.1562393E-007  0.2146640E+04  0.7818608E-02  0.8540972E-01
          1   -1    0    0  501    0  0.00000000000E+00  0.00000000000E+00  0.13400740302E+04  0.13400740302E+04  0.00000000000E+00 0. -1.
         -1   -1    0    0    0  501 -0.00000000000E+00 -0.00000000000E+00 -0.85966547387E+03  0.85966547387E+03  0.00000000000E+00 0.  1.
         23    2    1    2    0    0  0.32371486503E+03  0.65340039829E+03 -0.31734393761E+03  0.80045225004E+03  0.91067203363E+02 0.  0.
        254    2    1    2    0    0 -0.32371486503E+03 -0.65340039829E+03  0.79775249390E+03  0.13992872540E+04  0.88874764886E+03 0.  0.
        -24    2    4    4    0    0 -0.60767978221E+03 -0.33494084308E+03  0.60817963034E+03  0.92572924778E+03  0.75047260904E+02 0.  0.
         24    2    4    4    0    0  0.28396491718E+03 -0.31845955521E+03  0.18957286356E+03  0.47355800622E+03  0.79162820594E+02 0.  0.
         13    1    3    3    0    0  0.91049443261E+02  0.23392706168E+03 -0.14998659097E+03  0.29241725116E+03  0.00000000000E+00 0.  1.
        -13    1    3    3    0    0  0.23266542176E+03  0.41947333661E+03 -0.16735734664E+03  0.50803499888E+03  0.00000000000E+00 0. -1.
          4    1    6    6  502    0  0.28403138260E+03 -0.31405451863E+03  0.17473342734E+03  0.45807841862E+03  0.00000000000E+00 0. -1.
          1    1    5    5  503    0 -0.16309947621E+03 -0.11158895237E+03  0.21112461944E+03  0.28918357209E+03  0.00000000000E+00 0. -1.
         -2    1    5    5    0  503 -0.44458030599E+03 -0.22335189072E+03  0.39705501089E+03  0.63654567569E+03  0.00000000000E+00 0.  1.
         -3    1    6    6    0  502 -0.66465422550E-01 -0.44050365758E+01  0.14839436221E+02  0.15479587599E+02  0.00000000000E+00 0.  1.
<mgrwt>
<rscale>  0 0.21466396E+04</rscale>
<asrwt>0</asrwt>
<pdfrwt beam="1">  1        1 0.20616524E+00 0.21466396E+04</pdfrwt>
<pdfrwt beam="2">  1       -1 0.13225623E+00 0.21466396E+04</pdfrwt>
<totfact> 0.37665013E+00</totfact>
</mgrwt>
</event>
<event>
12    1  0.1562393E-007  0.1364353E+04  0.7818608E-02  0.8980034E-01
         -2   -1    0    0    0  501 -0.00000000000E+00  0.00000000000E+00  0.39451090400E+03  0.39451090400E+03  0.00000000000E+00 0.  1.
          2   -1    0    0  501    0  0.00000000000E+00 -0.00000000000E+00 -0.11795986753E+04  0.11795986753E+04  0.00000000000E+00 0. -1.
         23    2    1    2    0    0  0.22062084575E+03 -0.44424663385E+02  0.11953035619E+03  0.27054106404E+03  0.90872729593E+02 0.  0.
        254    2    1    2    0    0 -0.22062084575E+03  0.44424663385E+02 -0.90461812750E+03  0.13035685153E+04  0.91121337190E+03 0.  0.
        -24    2    4    4    0    0 -0.54946283396E+03 -0.10230426544E+03 -0.61564710251E+03  0.83526483758E+03  0.79186017877E+02 0.  0.
         24    2    4    4    0    0  0.32884198821E+03  0.14672892882E+03 -0.28897102499E+03  0.46830367770E+03  0.78343152217E+02 0.  0.
         13    1    3    3    0    0  0.63219490464E+02 -0.12879155226E+02 -0.86739480951E+01  0.65098494525E+02  0.00000000000E+00 0. -1.
        -13    1    3    3    0    0  0.15740135528E+03 -0.31545508158E+02  0.12820430429E+03  0.20544256951E+03  0.00000000000E+00 0.  1.
          4    1    6    6  502    0  0.28574215027E+03  0.15247759019E+03 -0.26609736376E+03  0.41917275550E+03  0.00000000000E+00 0. -1.
          3    1    5    5  503    0 -0.48197826801E+03 -0.11526190403E+03 -0.54780780371E+03  0.73870274614E+03  0.00000000000E+00 0. -1.
         -4    1    5    5    0  503 -0.67484565950E+02  0.12957638598E+02 -0.67839298806E+02  0.96562091433E+02  0.00000000000E+00 0.  1.
         -3    1    6    6    0  502  0.43099837946E+02 -0.57486613718E+01 -0.22873661226E+02  0.49130922202E+02  0.00000000000E+00 0.  1.
<mgrwt>
<rscale>  0 0.13643527E+04</rscale>
<asrwt>0</asrwt>
<pdfrwt beam="1">  1        2 0.18147672E+00 0.13643527E+04</pdfrwt>
<pdfrwt beam="2">  1       -2 0.60693986E-01 0.13643527E+04</pdfrwt>
<totfact> 0.48051686E+01</totfact>
</mgrwt>
</event>
<event>
12    1  0.1562393E-007  0.1729258E+04  0.7818608E-02  0.8744851E-01
          1   -1    0    0  501    0  0.00000000000E+00  0.00000000000E+00  0.17526472715E+04  0.17526472715E+04  0.00000000000E+00 0. -1.
         -1   -1    0    0    0  501 -0.00000000000E+00 -0.00000000000E+00 -0.42654523904E+03  0.42654523904E+03  0.00000000000E+00 0.  1.
         23    2    1    2    0    0  0.51700100423E+03 -0.61532356707E+02  0.16232224999E+02  0.52840043403E+03  0.88697600057E+02 0.  0.
        254    2    1    2    0    0 -0.51700100423E+03  0.61532356707E+02  0.13098698075E+04  0.16507920765E+04  0.85923180697E+03 0.  0.
        -24    2    4    4    0    0 -0.44141782465E+03  0.26643414112E+03  0.13161277817E+04  0.14157078836E+04  0.78737705801E+02 0.  0.
         24    2    4    4    0    0 -0.75583179581E+02 -0.20490178442E+03 -0.62579742407E+01  0.23508419296E+03  0.86763225202E+02 0.  0.
         13    1    3    3    0    0  0.45830988407E+03 -0.81386923960E+02  0.54580161837E+01  0.46551216006E+03  0.00000000000E+00 0.  1.
        -13    1    3    3    0    0  0.58691120161E+02  0.19854567253E+02  0.10774208815E+02  0.62888273964E+02  0.00000000000E+00 0. -1.
          2    1    6    6  502    0 -0.30500522310E+02 -0.77339549004E+02 -0.44757271591E+02  0.94418753760E+02  0.00000000000E+00 0. -1.
          3    1    5    5  503    0 -0.29850025762E+03  0.21699772119E+03  0.88672085384E+03  0.96045004422E+03  0.00000000000E+00 0. -1.
         -4    1    5    5    0  503 -0.14291756703E+03  0.49436419929E+02  0.42940692789E+03  0.45525783937E+03  0.00000000000E+00 0.  1.
         -1    1    6    6    0  502 -0.45082657271E+02 -0.12756223541E+03  0.38499297351E+02  0.14066543920E+03  0.00000000000E+00 0.  1.
<mgrwt>
<rscale>  0 0.17292580E+04</rscale>
<asrwt>0</asrwt>
<pdfrwt beam="1">  1        1 0.26963804E+00 0.17292580E+04</pdfrwt>
<pdfrwt beam="2">  1       -1 0.65622346E-01 0.17292580E+04</pdfrwt>
<totfact> 0.98044585E+00</totfact>
</mgrwt>
</event>
<event>
12    1  0.1778110E-007  0.2914959E+04  0.7818608E-02  0.8268441E-01
          1   -1    0    0  501    0  0.00000000000E+00  0.00000000000E+00  0.14252992501E+04  0.14252992501E+04  0.00000000000E+00 0. -1.
         -1   -1    0    0    0  501 -0.00000000000E+00 -0.00000000000E+00 -0.14903866508E+04  0.14903866508E+04  0.00000000000E+00 0.  1.
         23    2    1    2    0    0  0.79492563648E+03 -0.10408789706E+04  0.10662534159E+03  0.13174922491E+04  0.95294616402E+02 0.  0.
        254    2    1    2    0    0 -0.79492563648E+03  0.10408789706E+04 -0.17171274230E+03  0.15981936518E+04  0.89966765193E+03 0.  0.
        -24    2    4    4    0    0  0.12414966735E+03  0.39302243329E+03 -0.21110595901E+03  0.47016041555E+03  0.81273104128E+02 0.  0.
         24    2    4    4    0    0 -0.91907530383E+03  0.64785653733E+03  0.39393216713E+02  0.11280332363E+04  0.80558361400E+02 0.  0.
         11    1    3    3    0    0  0.17796791671E+03 -0.23684865775E+03  0.64248923861E+02  0.30314648319E+03  0.00000000000E+00 0. -1.
        -11    1    3    3    0    0  0.61695771977E+03 -0.80403031287E+03  0.42376417729E+02  0.10143457659E+04  0.00000000000E+00 0.  1.
          4    1    6    6  502    0 -0.13084853353E+03  0.94627774371E+02 -0.22545820852E+02  0.16304621568E+03  0.00000000000E+00 0. -1.
          1    1    5    5  503    0  0.54803735435E+02  0.99274399655E+02 -0.26821721162E+02  0.11652579358E+03  0.00000000000E+00 0. -1.
         -2    1    5    5    0  503  0.69345931912E+02  0.29374803363E+03 -0.18428423785E+03  0.35363462197E+03  0.00000000000E+00 0.  1.
         -3    1    6    6    0  502 -0.78822677030E+03  0.55322876296E+03  0.61939037565E+02  0.96498702062E+03  0.00000000000E+00 0.  1.
<mgrwt>
<rscale>  0 0.29149593E+04</rscale>
<asrwt>0</asrwt>
<pdfrwt beam="1">  1        1 0.21927681E+00 0.29149593E+04</pdfrwt>
<pdfrwt beam="2">  1       -1 0.22929025E+00 0.29149593E+04</pdfrwt>
<totfact> 0.60330599E-01</totfact>
</mgrwt>
</event>
<event>
12    1  0.1635709E-007  0.1798222E+04  0.7818608E-02  0.8707246E-01
          2   -1    0    0  501    0  0.00000000000E+00  0.00000000000E+00  0.14553181083E+04  0.14553181083E+04  0.00000000000E+00 0. -1.
         -2   -1    0    0    0  501 -0.00000000000E+00 -0.00000000000E+00 -0.55548038448E+03  0.55548038448E+03  0.00000000000E+00 0.  1.
         23    2    1    2    0    0  0.86320073628E+02  0.28672322075E+03  0.10122322364E+04  0.10597409204E+04  0.93676878450E+02 0.  0.
        254    2    1    2    0    0 -0.86320073628E+02 -0.28672322075E+03 -0.11239451262E+03  0.95105757232E+03  0.89566546153E+03 0.  0.
        -24    2    4    4    0    0 -0.14227319516E+02 -0.55293671721E+03 -0.27279460624E+03  0.62195999978E+03  0.80473065549E+02 0.  0.
         24    2    4    4    0    0 -0.72092754112E+02  0.26621349646E+03  0.16040009362E+03  0.32909757254E+03  0.80684765155E+02 0.  0.
         11    1    3    3    0    0  0.47313774868E+02  0.35011473790E+02  0.20401021687E+03  0.21233126283E+03  0.00000000000E+00 0.  1.
        -11    1    3    3    0    0  0.39006298759E+02  0.25171174696E+03  0.80822201955E+03  0.84740965759E+03  0.00000000000E+00 0. -1.
          4    1    6    6  502    0  0.10888850377E+02  0.45615340890E+02  0.58627624273E+01  0.47262018264E+02  0.00000000000E+00 0. -1.
          1    1    5    5  503    0 -0.26421330078E+02 -0.60205488492E+02 -0.25510966359E+02  0.70523733113E+02  0.00000000000E+00 0. -1.
         -2    1    5    5    0  503  0.12194010563E+02 -0.49273122871E+03 -0.24728363988E+03  0.55143626667E+03  0.00000000000E+00 0.  1.
         -3    1    6    6    0  502 -0.82981604489E+02  0.22059815557E+03  0.15453733119E+03  0.28183555428E+03  0.00000000000E+00 0.  1.
<mgrwt>
<rscale>  0 0.17982221E+04</rscale>
<asrwt>0</asrwt>
<pdfrwt beam="1">  1        2 0.22389509E+00 0.17982221E+04</pdfrwt>
<pdfrwt beam="2">  1       -2 0.85458521E-01 0.17982221E+04</pdfrwt>
<totfact> 0.15122565E+01</totfact>
</mgrwt>
</event>
<event>
12    1  0.1562393E-007  0.3316770E+04  0.7818608E-02  0.8158641E-01
          2   -1    0    0  501    0  0.00000000000E+00  0.00000000000E+00  0.17305804162E+04  0.17305804162E+04  0.00000000000E+00 0. -1.
         -2   -1    0    0    0  501 -0.00000000000E+00 -0.00000000000E+00 -0.15892010728E+04  0.15892010728E+04  0.00000000000E+00 0.  1.
         23    2    1    2    0    0  0.14366279543E+04  0.32318438950E+03 -0.35539361361E+03  0.15175732182E+04  0.91519524222E+02 0.  0.
        254    2    1    2    0    0 -0.14366279543E+04 -0.32318438950E+03  0.49677295698E+03  0.18022082708E+04  0.91259150313E+03 0.  0.
        -24    2    4    4    0    0 -0.11448766282E+04 -0.22120200410E+03  0.75558245797E+03  0.13917433519E+04  0.79824096727E+02 0.  0.
         24    2    4    4    0    0 -0.29175132619E+03 -0.10198238540E+03 -0.25880950099E+03  0.41046491887E+03  0.77329480532E+02 0.  0.
         11    1    3    3    0    0  0.12949908669E+04  0.31153562701E+03 -0.33984996770E+03  0.13746104150E+04  0.00000000000E+00 0. -1.
        -11    1    3    3    0    0  0.14163708741E+03  0.11648762488E+02 -0.15543645910E+02  0.14296280329E+03  0.00000000000E+00 0.  1.
          2    1    6    6  502    0 -0.67276250951E+02 -0.59588386886E+02 -0.65497141972E+02  0.11120586945E+03  0.00000000000E+00 0. -1.
          1    1    5    5  503    0 -0.35389875898E+03 -0.33385375654E+02  0.24536690378E+03  0.43193035595E+03  0.00000000000E+00 0. -1.
         -2    1    5    5    0  503 -0.79097786917E+03 -0.18781662845E+03  0.51021555419E+03  0.95981299594E+03  0.00000000000E+00 0.  1.
         -1    1    6    6    0  502 -0.22447507524E+03 -0.42393998511E+02 -0.19331235901E+03  0.29925904942E+03  0.00000000000E+00 0.  1.
<mgrwt>
<rscale>  0 0.33167697E+04</rscale>
<asrwt>0</asrwt>
<pdfrwt beam="1">  1        2 0.26624314E+00 0.33167697E+04</pdfrwt>
<pdfrwt beam="2">  1       -2 0.24449247E+00 0.33167697E+04</pdfrwt>
<totfact> 0.54656244E-01</totfact>
</mgrwt>
</event>
<event>
12    1  0.1852233E-007  0.1799752E+04  0.7818608E-02  0.8706431E-01
          1   -1    0    0  501    0  0.00000000000E+00  0.00000000000E+00  0.82027257832E+03  0.82027257832E+03  0.00000000000E+00 0. -1.
         -1   -1    0    0    0  501 -0.00000000000E+00 -0.00000000000E+00 -0.98720496253E+03  0.98720496253E+03  0.00000000000E+00 0.  1.
         23    2    1    2    0    0  0.18289401216E+03 -0.60407227361E+02  0.58352806132E+03  0.62158375954E+03  0.93606190879E+02 0.  0.
        254    2    1    2    0    0 -0.18289401216E+03  0.60407227361E+02 -0.75046044553E+03  0.11858937813E+04  0.89780506093E+03 0.  0.
        -24    2    4    4    0    0 -0.16566262849E+03  0.70085144163E+02 -0.95026254277E+03  0.97040535960E+03  0.79571526580E+02 0.  0.
         24    2    4    4    0    0 -0.17231383676E+02 -0.96779168022E+01  0.19980209724E+03  0.21548842171E+03  0.78254707029E+02 0.  0.
         11    1    3    3    0    0  0.16847627312E+03 -0.44488801428E+02  0.57037626799E+03  0.59639969412E+03  0.00000000000E+00 0. -1.
        -11    1    3    3    0    0  0.14417739040E+02 -0.15918425933E+02  0.13151793327E+02  0.25184065417E+02  0.00000000000E+00 0.  1.
          2    1    6    6  502    0 -0.42234139639E+02  0.60584475179E+01  0.16192871078E+03  0.16745547084E+03  0.00000000000E+00 0. -1.
          1    1    5    5  503    0 -0.12719230646E+03  0.43617244328E+02 -0.83952480907E+03  0.85022482431E+03  0.00000000000E+00 0. -1.
         -2    1    5    5    0  503 -0.38470322023E+02  0.26467899835E+02 -0.11073773369E+03  0.12018053529E+03  0.00000000000E+00 0.  1.
         -1    1    6    6    0  502  0.25002755963E+02 -0.15736364320E+02  0.37873386454E+02  0.48032950870E+02  0.00000000000E+00 0.  1.
<mgrwt>
<rscale>  0 0.17997524E+04</rscale>
<asrwt>0</asrwt>
<pdfrwt beam="1">  1        1 0.12619578E+00 0.17997524E+04</pdfrwt>
<pdfrwt beam="2">  1       -1 0.15187769E+00 0.17997524E+04</pdfrwt>
<totfact> 0.67592866E+00</totfact>
</mgrwt>
</event>
<event>
12    1  0.1562393E-007  0.1312032E+04  0.7818608E-02  0.9020078E-01
          3   -1    0    0  501    0  0.00000000000E+00  0.00000000000E+00  0.10745031659E+04  0.10745031659E+04  0.00000000000E+00 0. -1.
         -3   -1    0    0    0  501 -0.00000000000E+00 -0.00000000000E+00 -0.40051698841E+03  0.40051698841E+03  0.00000000000E+00 0.  1.
         23    2    1    2    0    0 -0.71082590255E+02 -0.39651021889E+02 -0.18224804899E+03  0.22056682259E+03  0.93863910493E+02 0.  0.
        254    2    1    2    0    0  0.71082590255E+02  0.39651021889E+02  0.85623422646E+03  0.12544533317E+04  0.91317641928E+03 0.  0.
        -24    2    4    4    0    0 -0.15504256465E+03 -0.31298663961E+03  0.72268364179E+03  0.80741103512E+03  0.87419106005E+02 0.  0.
         24    2    4    4    0    0  0.22612515490E+03  0.35263766150E+03  0.13355058467E+03  0.44704229660E+03  0.80778402405E+02 0.  0.
         13    1    3    3    0    0 -0.21561585167E+02  0.75273533376E+01  0.30574350183E+01  0.23041504119E+02  0.00000000000E+00 0. -1.
        -13    1    3    3    0    0 -0.49521005088E+02 -0.47178375227E+02 -0.18530548400E+03  0.19752531847E+03  0.00000000000E+00 0.  1.
          4    1    6    6  502    0  0.10847091388E+03  0.17411893910E+03  0.23224202800E+02  0.20645267668E+03  0.00000000000E+00 0. -1.
          3    1    5    5  503    0 -0.64654181422E+02 -0.19613247731E+03  0.49064266597E+03  0.53233291980E+03  0.00000000000E+00 0. -1.
         -4    1    5    5    0  503 -0.90388383225E+02 -0.11685416230E+03  0.23204097582E+03  0.27507811533E+03  0.00000000000E+00 0.  1.
         -3    1    6    6    0  502  0.11765424102E+03  0.17851872240E+03  0.11032638187E+03  0.24058961992E+03  0.00000000000E+00 0.  1.
<mgrwt>
<rscale>  0 0.13120317E+04</rscale>
<asrwt>0</asrwt>
<pdfrwt beam="1">  1        3 0.16530818E+00 0.13120317E+04</pdfrwt>
<pdfrwt beam="2">  1       -3 0.61617999E-01 0.13120317E+04</pdfrwt>
<totfact> 0.16500100E+00</totfact>
</mgrwt>
</event>
<event>
12    1  0.1562393E-007  0.1456036E+04  0.7818608E-02  0.8914227E-01
         -1   -1    0    0    0  501 -0.00000000000E+00  0.00000000000E+00  0.20878760854E+03  0.20878760854E+03  0.00000000000E+00 0.  1.
          1   -1    0    0  501    0  0.00000000000E+00 -0.00000000000E+00 -0.25385125585E+04  0.25385125585E+04  0.00000000000E+00 0. -1.
         23    2    1    2    0    0  0.90743988368E+02  0.42079108682E+03 -0.78079451154E+03  0.89587027053E+03  0.87429183843E+02 0.  0.
        254    2    1    2    0    0 -0.90743988368E+02 -0.42079108682E+03 -0.15489304384E+04  0.18514298965E+04  0.91831778185E+03 0.  0.
        -24    2    4    4    0    0 -0.35374597876E+03  0.13722981434E+03 -0.50994844548E+03  0.64067028926E+03  0.80266824163E+02 0.  0.
         24    2    4    4    0    0  0.26300199039E+03 -0.55802090115E+03 -0.10389819930E+04  0.12107596073E+04  0.76797602976E+02 0.  0.
         11    1    3    3    0    0  0.50471203457E+02  0.92902307369E+02 -0.23838673413E+03  0.26078039823E+03  0.00000000000E+00 0.  1.
        -11    1    3    3    0    0  0.40272784911E+02  0.32788877945E+03 -0.54240777741E+03  0.63508987229E+03  0.00000000000E+00 0. -1.
          2    1    6    6  502    0  0.84943971229E+02 -0.11011443139E+03 -0.21131308989E+03  0.25297013304E+03  0.00000000000E+00 0. -1.
          3    1    5    5  503    0 -0.24771096011E+03  0.88050740931E+02 -0.40912299035E+03  0.48630779756E+03  0.00000000000E+00 0. -1.
         -4    1    5    5    0  503 -0.10603501865E+03  0.49179073407E+02 -0.10082545513E+03  0.15436249170E+03  0.00000000000E+00 0.  1.
         -1    1    6    6    0  502  0.17805801916E+03 -0.44790646976E+03 -0.82766890307E+03  0.95778947423E+03  0.00000000000E+00 0.  1.
<mgrwt>
<rscale>  0 0.14560357E+04</rscale>
<asrwt>0</asrwt>
<pdfrwt beam="1">  1        1 0.39054039E+00 0.14560357E+04</pdfrwt>
<pdfrwt beam="2">  1       -1 0.32121171E-01 0.14560357E+04</pdfrwt>
<totfact> 0.11219423E+01</totfact>
</mgrwt>
</event>
<event>
12    1  0.1562393E-007  0.1175049E+04  0.7818608E-02  0.9134981E-01
          2   -1    0    0  501    0  0.00000000000E+00  0.00000000000E+00  0.44597518908E+03  0.44597518908E+03  0.00000000000E+00 0. -1.
         -2   -1    0    0    0  501 -0.00000000000E+00 -0.00000000000E+00 -0.77399996084E+03  0.77399996084E+03  0.00000000000E+00 0.  1.
         23    2    1    2    0    0  0.13975212402E+03 -0.18168777130E+03 -0.53963494877E+02  0.25244420587E+03  0.90966564680E+02 0.  0.
        254    2    1    2    0    0 -0.13975212402E+03  0.18168777130E+03 -0.27406127689E+03  0.96753094405E+03  0.89914706349E+03 0.  0.
        -24    2    4    4    0    0 -0.37124203830E+02 -0.97797916178E+02  0.29366293176E+03  0.32125872705E+03  0.77631264943E+02 0.  0.
         24    2    4    4    0    0 -0.10262792019E+03  0.27948568748E+03 -0.56772420865E+03  0.64627221700E+03  0.81928394770E+02 0.  0.
         13    1    3    3    0    0  0.58541812866E+02 -0.75200901420E+02  0.22927203649E+02  0.98020284101E+02  0.00000000000E+00 0. -1.
        -13    1    3    3    0    0  0.81210311149E+02 -0.10648686988E+03 -0.76890698526E+02  0.15442392177E+03  0.00000000000E+00 0.  1.
          2    1    6    6  502    0 -0.96416128585E+02  0.15970191326E+03 -0.38311110692E+03  0.42611605367E+03  0.00000000000E+00 0. -1.
          3    1    5    5  503    0  0.29114545093E+01  0.68079649939E+01  0.77016587008E+02  0.77371697856E+02  0.00000000000E+00 0. -1.
         -4    1    5    5    0  503 -0.40035658339E+02 -0.10460588117E+03  0.21664634475E+03  0.24388702919E+03  0.00000000000E+00 0.  1.
         -1    1    6    6    0  502 -0.62117916006E+01  0.11978377422E+03 -0.18461310172E+03  0.22015616332E+03  0.00000000000E+00 0.  1.
<mgrwt>
<rscale>  0 0.11750486E+04</rscale>
<asrwt>0</asrwt>
<pdfrwt beam="1">  1        2 0.68611568E-01 0.11750486E+04</pdfrwt>
<pdfrwt beam="2">  1       -2 0.11907692E+00 0.11750486E+04</pdfrwt>
<totfact> 0.37578449E+01</totfact>
</mgrwt>
</event>
<event>
12    1  0.1562393E-007  0.1805313E+04  0.7818608E-02  0.8703479E-01
         -2   -1    0    0    0  501 -0.00000000000E+00  0.00000000000E+00  0.22516635888E+04  0.22516635888E+04  0.00000000000E+00 0.  1.
          2   -1    0    0  501    0  0.00000000000E+00 -0.00000000000E+00 -0.36186083154E+03  0.36186083154E+03  0.00000000000E+00 0. -1.
         23    2    1    2    0    0 -0.64255576367E+03 -0.12642076580E+03  0.46475690062E+03  0.80813094124E+03  0.90645033351E+02 0.  0.
        254    2    1    2    0    0  0.64255576367E+03  0.12642076580E+03  0.14250458566E+04  0.18053934791E+04  0.89433204202E+03 0.  0.
        -24    2    4    4    0    0  0.79123946649E+03 -0.35048637863E+02  0.76070240355E+03  0.11012116823E+04  0.81918997411E+02 0.  0.
         24    2    4    4    0    0 -0.14868370282E+03  0.16146940366E+03  0.66434345307E+03  0.70418179677E+03  0.79627680252E+02 0.  0.
         13    1    3    3    0    0 -0.44909019106E+02  0.35644762838E+01  0.58688716239E+02  0.73985747965E+02  0.00000000000E+00 0.  1.
        -13    1    3    3    0    0 -0.59764674456E+03 -0.12998524209E+03  0.40606818438E+03  0.73414519328E+03  0.00000000000E+00 0. -1.
          4    1    6    6  502    0 -0.43168570928E+02  0.32539310171E+01  0.12771734195E+03  0.13485485908E+03  0.00000000000E+00 0. -1.
          3    1    5    5  503    0  0.19694867420E+03  0.25271021606E+01  0.14439239488E+03  0.24422188725E+03  0.00000000000E+00 0. -1.
         -4    1    5    5    0  503  0.59429079229E+03 -0.37575740024E+02  0.61631000867E+03  0.85698979505E+03  0.00000000000E+00 0.  1.
         -3    1    6    6    0  502 -0.10551513189E+03  0.15821547265E+03  0.53662611113E+03  0.56932693770E+03  0.00000000000E+00 0.  1.
<mgrwt>
<rscale>  0 0.18053131E+04</rscale>
<asrwt>0</asrwt>
<pdfrwt beam="1">  1        2 0.55670898E-01 0.18053131E+04</pdfrwt>
<pdfrwt beam="2">  1       -2 0.34640977E+00 0.18053131E+04</pdfrwt>
<totfact> 0.13816897E+00</totfact>
</mgrwt>
</event>
<event>
12    1  0.1562393E-007  0.1530219E+04  0.7818608E-02  0.8864602E-01
         -1   -1    0    0    0  501 -0.00000000000E+00  0.00000000000E+00  0.31056741633E+03  0.31056741633E+03  0.00000000000E+00 0.  1.
          1   -1    0    0  501    0  0.00000000000E+00 -0.00000000000E+00 -0.18849139575E+04  0.18849139575E+04  0.00000000000E+00 0. -1.
         23    2    1    2    0    0  0.80543452753E+02 -0.20062057487E+03 -0.11570273489E+04  0.11805324277E+04  0.90601678028E+02 0.  0.
        254    2    1    2    0    0 -0.80543452753E+02  0.20062057487E+03 -0.41731919235E+03  0.10149489461E+04  0.89957222731E+03 0.  0.
        -24    2    4    4    0    0 -0.13007500358E+03 -0.33656352566E+03 -0.93777612225E+02  0.38099172288E+03  0.78523493219E+02 0.  0.
         24    2    4    4    0    0  0.49531550824E+02  0.53718410054E+03 -0.32354158012E+03  0.63395722327E+03  0.78755790070E+02 0.  0.
         11    1    3    3    0    0  0.69470450434E+02 -0.15222557433E+03 -0.10405243620E+04  0.10538926496E+04  0.00000000000E+00 0. -1.
        -11    1    3    3    0    0  0.11073002320E+02 -0.48395000540E+02 -0.11650298690E+03  0.12663977817E+03  0.00000000000E+00 0.  1.
          4    1    6    6  502    0  0.52709073971E+02  0.47617711147E+03 -0.25714896346E+03  0.54373566866E+03  0.00000000000E+00 0. -1.
          1    1    5    5  503    0 -0.10533129645E+03 -0.31599299412E+03 -0.10090426192E+03  0.34803437247E+03  0.00000000000E+00 0. -1.
         -2    1    5    5    0  503 -0.24743707129E+02 -0.20570531542E+02  0.71266496964E+01  0.32957350414E+02  0.00000000000E+00 0.  1.
         -3    1    6    6    0  502 -0.31775231464E+01  0.61006989069E+02 -0.66392616664E+02  0.90221554609E+02  0.00000000000E+00 0.  1.
<mgrwt>
<rscale>  0 0.15302194E+04</rscale>
<asrwt>0</asrwt>
<pdfrwt beam="1">  1        1 0.28998675E+00 0.15302194E+04</pdfrwt>
<pdfrwt beam="2">  1       -1 0.47779604E-01 0.15302194E+04</pdfrwt>
<totfact> 0.15066326E+01</totfact>
</mgrwt>
</event>
<event>
12    1  0.1562393E-007  0.1932831E+04  0.7818608E-02  0.8638685E-01
         -2   -1    0    0    0  501 -0.00000000000E+00  0.00000000000E+00  0.10244874269E+04  0.10244874269E+04  0.00000000000E+00 0.  1.
          2   -1    0    0  501    0  0.00000000000E+00 -0.00000000000E+00 -0.91163525272E+03  0.91163525272E+03  0.00000000000E+00 0. -1.
         23    2    1    2    0    0  0.18092026069E+03  0.34560324086E+03  0.69368951905E+03  0.80143884383E+03  0.94473968554E+02 0.  0.
        254    2    1    2    0    0 -0.18092026069E+03 -0.34560324086E+03 -0.58083734489E+03  0.11346838358E+04  0.89328698923E+03 0.  0.
        -24    2    4    4    0    0  0.28750678732E+03  0.52975868023E+02 -0.29842804708E+02  0.30519680298E+03  0.82388714069E+02 0.  0.
         24    2    4    4    0    0 -0.46842704801E+03 -0.39857910889E+03 -0.55099454018E+03  0.82948703279E+03  0.78514641379E+02 0.  0.
         11    1    3    3    0    0  0.32853962061E+02  0.81823978234E+02  0.24429919149E+03  0.25972416368E+03  0.00000000000E+00 0.  1.
        -11    1    3    3    0    0  0.14806629863E+03  0.26377926263E+03  0.44939032756E+03  0.54171468015E+03  0.00000000000E+00 0. -1.
          2    1    6    6  502    0 -0.36548614215E+03 -0.33414896970E+03 -0.40611223291E+03  0.64043953639E+03  0.00000000000E+00 0. -1.
          1    1    5    5  503    0  0.19800558007E+03  0.73616111981E+02 -0.11696904355E+02  0.21157116829E+03  0.00000000000E+00 0. -1.
         -2    1    5    5    0  503  0.89501207253E+02 -0.20640243958E+02 -0.18145900353E+02  0.93625634684E+02  0.00000000000E+00 0.  1.
         -1    1    6    6    0  502 -0.10294090587E+03 -0.64430139191E+02 -0.14488230727E+03  0.18904749640E+03  0.00000000000E+00 0.  1.
<mgrwt>
<rscale>  0 0.19328309E+04</rscale>
<asrwt>0</asrwt>
<pdfrwt beam="1">  1        2 0.14025158E+00 0.19328309E+04</pdfrwt>
<pdfrwt beam="2">  1       -2 0.15761345E+00 0.19328309E+04</pdfrwt>
<totfact> 0.70561033E+00</totfact>
</mgrwt>
</event>
<event>
12    1  0.2171985E-007  0.1627162E+04  0.7818608E-02  0.8804033E-01
          1   -1    0    0  501    0  0.00000000000E+00  0.00000000000E+00  0.13194824912E+04  0.13194824912E+04  0.00000000000E+00 0. -1.
         -1   -1    0    0    0  501 -0.00000000000E+00 -0.00000000000E+00 -0.50164694483E+03  0.50164694483E+03  0.00000000000E+00 0.  1.
         23    2    1    2    0    0  0.26894691282E+03 -0.20971830812E+03 -0.14669607897E+03  0.38082117114E+03  0.84798668186E+02 0.  0.
        254    2    1    2    0    0 -0.26894691282E+03  0.20971830812E+03  0.96453162536E+03  0.14403082649E+04  0.10138305731E+04 0.  0.
        -24    2    4    4    0    0 -0.75926993916E+02  0.52895627508E+03  0.90493494974E+03  0.10539185001E+04  0.79229364536E+02 0.  0.
         24    2    4    4    0    0 -0.19301991891E+03 -0.31923796696E+03  0.59596675613E+02  0.38638976481E+03  0.81090800716E+02 0.  0.
         13    1    3    3    0    0  0.72809407930E+02 -0.26712654489E+02 -0.62678075276E+02  0.99716181802E+02  0.00000000000E+00 0. -1.
        -13    1    3    3    0    0  0.19613750489E+03 -0.18300565363E+03 -0.84018003697E+02  0.28110498934E+03  0.00000000000E+00 0.  1.
          4    1    6    6  502    0 -0.17234694972E+03 -0.31704977557E+03  0.54209705876E+02  0.36491467972E+03  0.00000000000E+00 0. -1.
          3    1    5    5  503    0 -0.64473630542E+02  0.52120781841E+03  0.86842466466E+03  0.10148772523E+04  0.00000000000E+00 0. -1.
         -4    1    5    5    0  503 -0.11453363374E+02  0.77484566710E+01  0.36510285085E+02  0.39041247807E+02  0.00000000000E+00 0.  1.
         -3    1    6    6    0  502 -0.20672969188E+02 -0.21881913948E+01  0.53869697371E+01  0.21475085089E+02  0.00000000000E+00 0.  1.
<mgrwt>
<rscale>  0 0.16271624E+04</rscale>
<asrwt>0</asrwt>
<pdfrwt beam="1">  1        1 0.20299730E+00 0.16271624E+04</pdfrwt>
<pdfrwt beam="2">  1       -1 0.77176454E-01 0.16271624E+04</pdfrwt>
<totfact> 0.14119998E+01</totfact>
</mgrwt>
</event>
<event>
12    1  0.1562393E-007  0.1812523E+04  0.7818608E-02  0.8699668E-01
          1   -1    0    0  501    0  0.00000000000E+00  0.00000000000E+00  0.16439858314E+04  0.16439858314E+04  0.00000000000E+00 0. -1.
         -1   -1    0    0    0  501 -0.00000000000E+00 -0.00000000000E+00 -0.49958463440E+03  0.49958463440E+03  0.00000000000E+00 0.  1.
         23    2    1    2    0    0  0.33882595197E+03  0.58741956603E+03  0.60810345581E+03  0.91481250863E+03  0.85013767714E+02 0.  0.
        254    2    1    2    0    0 -0.33882595197E+03 -0.58741956603E+03  0.53629774118E+03  0.12287579572E+04  0.87313577283E+03 0.  0.
        -24    2    4    4    0    0  0.15003375120E+03 -0.31099208484E+03  0.55758252116E+03  0.66111830516E+03  0.83384304218E+02 0.  0.
         24    2    4    4    0    0 -0.48885970317E+03 -0.27642748119E+03 -0.21284779978E+02  0.56763965200E+03  0.79785781406E+02 0.  0.
         11    1    3    3    0    0  0.14559835597E+03  0.24902827960E+03  0.20315227983E+03  0.35282405545E+03  0.00000000000E+00 0. -1.
        -11    1    3    3    0    0  0.19322759600E+03  0.33839128643E+03  0.40495117598E+03  0.56198845319E+03  0.00000000000E+00 0.  1.
          2    1    6    6  502    0 -0.32162901610E+03 -0.14271659258E+03 -0.31530132449E+02  0.35328090671E+03  0.00000000000E+00 0. -1.
          3    1    5    5  503    0  0.53824173992E+02 -0.19136695744E+03  0.35592556743E+03  0.40767801468E+03  0.00000000000E+00 0. -1.
         -4    1    5    5    0  503  0.96209577210E+02 -0.11962512739E+03  0.20165695373E+03  0.25344029048E+03  0.00000000000E+00 0.  1.
         -1    1    6    6    0  502 -0.16723068708E+03 -0.13371088862E+03  0.10245352471E+02  0.21435874529E+03  0.00000000000E+00 0.  1.
<mgrwt>
<rscale>  0 0.18125232E+04</rscale>
<asrwt>0</asrwt>
<pdfrwt beam="1">  1        1 0.25292089E+00 0.18125232E+04</pdfrwt>
<pdfrwt beam="2">  1       -1 0.76859175E-01 0.18125232E+04</pdfrwt>
<totfact> 0.83319662E+00</totfact>
</mgrwt>
</event>
<event>
12    1  0.1562393E-007  0.1815689E+04  0.7818608E-02  0.8698001E-01
         -2   -1    0    0    0  501 -0.00000000000E+00  0.00000000000E+00  0.11669774682E+04  0.11669774682E+04  0.00000000000E+00 0.  1.
          2   -1    0    0  501    0  0.00000000000E+00 -0.00000000000E+00 -0.70625295176E+03  0.70625295176E+03  0.00000000000E+00 0. -1.
         23    2    1    2    0    0 -0.12043385801E+03  0.46500778744E+02  0.86194731782E+03  0.87635044980E+03  0.91489319544E+02 0.  0.
        254    2    1    2    0    0  0.12043385801E+03 -0.46500778744E+02 -0.40122280133E+03  0.99687997021E+03  0.90339542954E+03 0.  0.
        -24    2    4    4    0    0  0.39793819391E+03  0.24589631767E+03 -0.94514590630E+02  0.48405866944E+03  0.80993718287E+02 0.  0.
         24    2    4    4    0    0 -0.27750433590E+03 -0.29239709641E+03 -0.30670821070E+03  0.51282130077E+03  0.80068980144E+02 0.  0.
         13    1    3    3    0    0 -0.91372167456E+02  0.79970375795E+01  0.73225268168E+03  0.73797480677E+03  0.00000000000E+00 0.  1.
        -13    1    3    3    0    0 -0.29061690550E+02  0.38503741165E+02  0.12969463613E+03  0.13837564302E+03  0.00000000000E+00 0. -1.
          2    1    6    6  502    0 -0.51817608513E+02 -0.10686695644E+03 -0.84401794220E+02  0.14570268974E+03  0.00000000000E+00 0. -1.
          1    1    5    5  503    0  0.64377658552E+02  0.12216885416E+02  0.18148132739E+01  0.65551725813E+02  0.00000000000E+00 0. -1.
         -2    1    5    5    0  503  0.33356053535E+03  0.23367943225E+03 -0.96329403904E+02  0.41850694362E+03  0.00000000000E+00 0.  1.
         -1    1    6    6    0  502 -0.22568672739E+03 -0.18553013998E+03 -0.22230641648E+03  0.36711861103E+03  0.00000000000E+00 0.  1.
<mgrwt>
<rscale>  0 0.18156886E+04</rscale>
<asrwt>0</asrwt>
<pdfrwt beam="1">  1        2 0.10865430E+00 0.18156886E+04</pdfrwt>
<pdfrwt beam="2">  1       -2 0.17953500E+00 0.18156886E+04</pdfrwt>
<totfact> 0.69731195E+00</totfact>
</mgrwt>
</event>
<event>
12    1  0.1562393E-007  0.1236213E+04  0.7818608E-02  0.9081737E-01
         -1   -1    0    0    0  501 -0.00000000000E+00  0.00000000000E+00  0.16806858547E+04  0.16806858547E+04  0.00000000000E+00 0.  1.
          1   -1    0    0  501    0  0.00000000000E+00 -0.00000000000E+00 -0.22732122530E+03  0.22732122530E+03  0.00000000000E+00 0. -1.
         23    2    1    2    0    0 -0.26182678021E+03 -0.10374592177E+03  0.34685661296E+03  0.45590971658E+03  0.90706563128E+02 0.  0.
        254    2    1    2    0    0  0.26182678021E+03  0.10374592177E+03  0.11065080165E+04  0.14520973634E+04  0.89716792371E+03 0.  0.
        -24    2    4    4    0    0 -0.23192999866E+03  0.28952258406E+03  0.29206470826E+03  0.47868287718E+03  0.78871110867E+02 0.  0.
         24    2    4    4    0    0  0.49375677887E+03 -0.18577666229E+03  0.81444330819E+03  0.97341448627E+03  0.76870897572E+02 0.  0.
         13    1    3    3    0    0 -0.13225562046E+02  0.11624841863E+02  0.61478239313E+01  0.18650688429E+02  0.00000000000E+00 0. -1.
        -13    1    3    3    0    0 -0.24860121816E+03 -0.11537076364E+03  0.34070878903E+03  0.43725902815E+03  0.00000000000E+00 0.  1.
          2    1    6    6  502    0  0.20004882876E+03 -0.11483423803E+03  0.33642959408E+03  0.40791090680E+03  0.00000000000E+00 0. -1.
          3    1    5    5  503    0 -0.11726401165E+03  0.89567408066E+02  0.13275193851E+03  0.19848487649E+03  0.00000000000E+00 0. -1.
         -4    1    5    5    0  503 -0.11466598702E+03  0.19995517600E+03  0.15931276975E+03  0.28019800069E+03  0.00000000000E+00 0.  1.
         -1    1    6    6    0  502  0.29370795011E+03 -0.70942424255E+02  0.47801371410E+03  0.56550357947E+03  0.00000000000E+00 0.  1.
<mgrwt>
<rscale>  0 0.12362129E+04</rscale>
<asrwt>0</asrwt>
<pdfrwt beam="1">  1        1 0.34972497E-01 0.12362129E+04</pdfrwt>
<pdfrwt beam="2">  1       -1 0.25856705E+00 0.12362129E+04</pdfrwt>
<totfact> 0.76379907E+00</totfact>
</mgrwt>
</event>
<event>
12    1  0.1562393E-007  0.2268800E+04  0.7818608E-02  0.8490325E-01
         -2   -1    0    0    0  501 -0.00000000000E+00  0.00000000000E+00  0.62492690253E+03  0.62492690253E+03  0.00000000000E+00 0.  1.
          2   -1    0    0  501    0  0.00000000000E+00 -0.00000000000E+00 -0.20592217373E+04  0.20592217373E+04  0.00000000000E+00 0. -1.
         23    2    1    2    0    0  0.16684399467E+03  0.84360044137E+03 -0.13053195346E+03  0.87452053195E+03  0.90823712215E+02 0.  0.
        254    2    1    2    0    0 -0.16684399467E+03 -0.84360044137E+03 -0.13037628813E+04  0.18096281079E+04  0.91403370557E+03 0.  0.
        -24    2    4    4    0    0 -0.31594822324E+03 -0.97285271405E+03 -0.96597229763E+03  0.14090968231E+04  0.78649184425E+02 0.  0.
         24    2    4    4    0    0  0.14910422857E+03  0.12925227268E+03 -0.33779058366E+03  0.40053128472E+03  0.85933757388E+02 0.  0.
         11    1    3    3    0    0  0.10442828106E+03  0.43937973298E+03 -0.11091242333E+03  0.46503911802E+03  0.00000000000E+00 0. -1.
        -11    1    3    3    0    0  0.62415713606E+02  0.40422070839E+03 -0.19619530132E+02  0.40948141394E+03  0.00000000000E+00 0.  1.
          4    1    6    6  502    0  0.85121634157E+02  0.10401352610E+03 -0.15460618298E+03  0.20485989854E+03  0.00000000000E+00 0. -1.
          1    1    5    5  503    0 -0.22708874823E+03 -0.58849692373E+03 -0.57062257733E+03  0.85059276659E+03  0.00000000000E+00 0. -1.
         -2    1    5    5    0  503 -0.88859475010E+02 -0.38435579031E+03 -0.39534972030E+03  0.55850405655E+03  0.00000000000E+00 0.  1.
         -3    1    6    6    0  502  0.63982594417E+02  0.25238746575E+02 -0.18318440068E+03  0.19567138618E+03  0.00000000000E+00 0.  1.
<mgrwt>
<rscale>  0 0.22687997E+04</rscale>
<asrwt>0</asrwt>
<pdfrwt beam="1">  1        2 0.31680334E+00 0.22687997E+04</pdfrwt>
<pdfrwt beam="2">  1       -2 0.96142602E-01 0.22687997E+04</pdfrwt>
<totfact> 0.51002723E+00</totfact>
</mgrwt>
</event>
<event>
12    1  0.1562393E-007  0.3299542E+04  0.7818608E-02  0.8163012E-01
         -1   -1    0    0    0  501 -0.00000000000E+00  0.00000000000E+00  0.91551552732E+03  0.91551552732E+03  0.00000000000E+00 0.  1.
          1   -1    0    0  501    0  0.00000000000E+00 -0.00000000000E+00 -0.29729082258E+04  0.29729082258E+04  0.00000000000E+00 0. -1.
         23    2    1    2    0    0 -0.55568370286E+03 -0.13086668869E+04 -0.16005076753E+04  0.21429244176E+04  0.95429778919E+02 0.  0.
        254    2    1    2    0    0  0.55568370286E+03  0.13086668869E+04 -0.45688502323E+03  0.17454993355E+04  0.90367616280E+03 0.  0.
        -24    2    4    4    0    0  0.61305645850E+03  0.83433126444E+03  0.55253833396E+02  0.10403095527E+04  0.85112274702E+02 0.  0.
         24    2    4    4    0    0 -0.57372755643E+02  0.47433562246E+03 -0.51213885663E+03  0.70518978273E+03  0.81978688526E+02 0.  0.
         13    1    3    3    0    0 -0.48438031356E+03 -0.11307111931E+04 -0.14309026254E+04  0.18869590387E+04  0.00000000000E+00 0. -1.
        -13    1    3    3    0    0 -0.71303389296E+02 -0.17795569380E+03 -0.16960504986E+03  0.25596537895E+03  0.00000000000E+00 0.  1.
          4    1    6    6  502    0 -0.73332470969E+02  0.27039241893E+03 -0.29110823936E+03  0.40402192829E+03  0.00000000000E+00 0. -1.
          1    1    5    5  503    0  0.27635139263E+03  0.35164278839E+03 -0.15771080014E+02  0.44751700504E+03  0.00000000000E+00 0. -1.
         -2    1    5    5    0  503  0.33670506587E+03  0.48268847605E+03  0.71024913410E+02  0.59279254771E+03  0.00000000000E+00 0.  1.
         -3    1    6    6    0  502  0.15959715327E+02  0.20394320352E+03 -0.22103061727E+03  0.30116785444E+03  0.00000000000E+00 0.  1.
<mgrwt>
<rscale>  0 0.32995416E+04</rscale>
<asrwt>0</asrwt>
<pdfrwt beam="1">  1        1 0.45737049E+00 0.32995416E+04</pdfrwt>
<pdfrwt beam="2">  1       -1 0.14084854E+00 0.32995416E+04</pdfrwt>
<totfact> 0.21395120E-01</totfact>
</mgrwt>
</event>
<event>
12    1  0.1562393E-007  0.1853170E+04  0.7818608E-02  0.8678524E-01
          1   -1    0    0  501    0  0.00000000000E+00  0.00000000000E+00  0.16631675527E+04  0.16631675527E+04  0.00000000000E+00 0. -1.
         -1   -1    0    0    0  501 -0.00000000000E+00 -0.00000000000E+00 -0.51621983322E+03  0.51621983322E+03  0.00000000000E+00 0.  1.
         23    2    1    2    0    0  0.69310038677E+03  0.11600944698E+03  0.41583437727E+03  0.82162863779E+03  0.91153997061E+02 0.  0.
        254    2    1    2    0    0 -0.69310038677E+03 -0.11600944698E+03  0.73111334219E+03  0.13577587481E+04  0.90284869222E+03 0.  0.
        -24    2    4    4    0    0 -0.15062406493E+03  0.23131585943E+03  0.64139329121E+03  0.70250793956E+03  0.77054625890E+02 0.  0.
         24    2    4    4    0    0 -0.54247632184E+03 -0.34732530642E+03  0.89720050974E+02  0.65525080856E+03  0.79928132297E+02 0.  0.
         13    1    3    3    0    0  0.95422312092E+01 -0.96358153573E+01  0.94387306200E+01  0.16522492238E+02  0.00000000000E+00 0. -1.
        -13    1    3    3    0    0  0.68355815556E+03  0.12564526234E+03  0.40639564665E+03  0.80510614555E+03  0.00000000000E+00 0.  1.
          2    1    6    6  502    0 -0.21546154672E+03 -0.11200554466E+03  0.66130101299E+02  0.25167858560E+03  0.00000000000E+00 0. -1.
          3    1    5    5  503    0  0.39400463022E+01  0.73953372433E+01  0.36329960353E+01  0.91331067002E+01  0.00000000000E+00 0. -1.
         -4    1    5    5    0  503 -0.15456411123E+03  0.22392052219E+03  0.63776029518E+03  0.69337483286E+03  0.00000000000E+00 0.  1.
         -1    1    6    6    0  502 -0.32701477512E+03 -0.23531976176E+03  0.23589949675E+02  0.40357222296E+03  0.00000000000E+00 0.  1.
<mgrwt>
<rscale>  0 0.18531703E+04</rscale>
<asrwt>0</asrwt>
<pdfrwt beam="1">  1        1 0.25587193E+00 0.18531703E+04</pdfrwt>
<pdfrwt beam="2">  1       -1 0.79418436E-01 0.18531703E+04</pdfrwt>
<totfact> 0.75156011E+00</totfact>
</mgrwt>
</event>
<event>
12    1  0.1562393E-007  0.1533876E+04  0.7818608E-02  0.8862233E-01
          2   -1    0    0  501    0  0.00000000000E+00  0.00000000000E+00  0.56233255052E+03  0.56233255052E+03  0.00000000000E+00 0. -1.
         -2   -1    0    0    0  501 -0.00000000000E+00 -0.00000000000E+00 -0.10459896396E+04  0.10459896396E+04  0.00000000000E+00 0.  1.
         23    2    1    2    0    0  0.46007938667E+03 -0.17293417263E+03 -0.15635385639E+03  0.52391287617E+03  0.91972296360E+02 0.  0.
        254    2    1    2    0    0 -0.46007938667E+03  0.17293417263E+03 -0.32730323267E+03  0.10844093139E+04  0.90952563675E+03 0.  0.
        -24    2    4    4    0    0 -0.35803521502E+03  0.44023547368E+03  0.80895791202E+02  0.57951368087E+03  0.85413639431E+02 0.  0.
         24    2    4    4    0    0 -0.10204417165E+03 -0.26730130105E+03 -0.40819902387E+03  0.50489563306E+03  0.80188270223E+02 0.  0.
         11    1    3    3    0    0  0.43367102124E+03 -0.13819509353E+03 -0.13186720678E+03  0.47387487669E+03  0.00000000000E+00 0. -1.
        -11    1    3    3    0    0  0.26408365439E+02 -0.34739079107E+02 -0.24486649615E+02  0.50037999478E+02  0.00000000000E+00 0.  1.
          2    1    6    6  502    0 -0.10697850971E+03 -0.26667347479E+03 -0.38075634205E+03  0.47700580259E+03  0.00000000000E+00 0. -1.
          3    1    5    5  503    0 -0.36261511771E+03  0.43659798169E+03  0.82345985158E+02  0.57348790962E+03  0.00000000000E+00 0. -1.
         -4    1    5    5    0  503  0.45799026925E+01  0.36374919949E+01 -0.14501939562E+01  0.60257712533E+01  0.00000000000E+00 0.  1.
         -1    1    6    6    0  502  0.49343380581E+01 -0.62782626112E+00 -0.27442681823E+02  0.27889830468E+02  0.00000000000E+00 0.  1.
<mgrwt>
<rscale>  0 0.15338762E+04</rscale>
<asrwt>0</asrwt>
<pdfrwt beam="1">  1        2 0.86512700E-01 0.15338762E+04</pdfrwt>
<pdfrwt beam="2">  1       -2 0.16092148E+00 0.15338762E+04</pdfrwt>
<totfact> 0.12802218E+01</totfact>
</mgrwt>
</event>
<event>
12    1  0.1562393E-007  0.1474637E+04  0.7818608E-02  0.8901496E-01
         -1   -1    0    0    0  501 -0.00000000000E+00  0.00000000000E+00  0.86227455477E+03  0.86227455477E+03  0.00000000000E+00 0.  1.
          1   -1    0    0  501    0  0.00000000000E+00 -0.00000000000E+00 -0.63047039763E+03  0.63047039763E+03  0.00000000000E+00 0. -1.
         23    2    1    2    0    0 -0.22613944657E+03  0.35377657362E+03  0.24964167281E+03  0.49732167217E+03  0.93332563803E+02 0.  0.
        254    2    1    2    0    0  0.22613944657E+03 -0.35377657362E+03 -0.17837515667E+02  0.99542328023E+03  0.90235936107E+03 0.  0.
        -24    2    4    4    0    0  0.23123228688E+03 -0.58258460419E+03  0.20709744425E+03  0.66486712248E+03  0.79282706872E+02 0.  0.
         24    2    4    4    0    0 -0.50928403014E+01  0.22880803058E+03 -0.22493495991E+03  0.33055615774E+03  0.79325817697E+02 0.  0.
         13    1    3    3    0    0 -0.18491997233E+03  0.29692652988E+03  0.16333143822E+03  0.38605429544E+03  0.00000000000E+00 0. -1.
        -13    1    3    3    0    0 -0.41219474239E+02  0.56850043738E+02  0.86310234586E+02  0.11126737673E+03  0.00000000000E+00 0.  1.
          4    1    6    6  502    0  0.35908255985E+02  0.96190481209E+02 -0.83001005022E+02  0.13202718795E+03  0.00000000000E+00 0. -1.
          3    1    5    5  503    0  0.12306461589E+03 -0.38567253092E+03  0.16009601915E+03  0.43533772653E+03  0.00000000000E+00 0. -1.
         -4    1    5    5    0  503  0.10816767098E+03 -0.19691207327E+03  0.47001425099E+02  0.22952939595E+03  0.00000000000E+00 0.  1.
         -3    1    6    6    0  502 -0.41001096287E+02  0.13261754937E+03 -0.14193395489E+03  0.19852896980E+03  0.00000000000E+00 0.  1.
<mgrwt>
<rscale>  0 0.14746370E+04</rscale>
<asrwt>0</asrwt>
<pdfrwt beam="1">  1        1 0.96995446E-01 0.14746370E+04</pdfrwt>
<pdfrwt beam="2">  1       -1 0.13265762E+00 0.14746370E+04</pdfrwt>
<totfact> 0.14881060E+01</totfact>
</mgrwt>
</event>
<event>
12    1  0.1562393E-007  0.1152858E+04  0.7818608E-02  0.9155151E-01
         -2   -1    0    0    0  501 -0.00000000000E+00  0.00000000000E+00  0.28421562172E+03  0.28421562172E+03  0.00000000000E+00 0.  1.
          2   -1    0    0  501    0  0.00000000000E+00 -0.00000000000E+00 -0.11690791544E+04  0.11690791544E+04  0.00000000000E+00 0. -1.
         23    2    1    2    0    0  0.52722095871E+00  0.15545317990E+03  0.15756700677E+01  0.18074451976E+03  0.92196147338E+02 0.  0.
        254    2    1    2    0    0 -0.52722095871E+00 -0.15545317990E+03 -0.88643920274E+03  0.12725502564E+04  0.89969090565E+03 0.  0.
        -24    2    4    4    0    0 -0.23272046834E+03 -0.18345973486E+03 -0.96559285351E+03  0.10131680409E+04  0.79521253410E+02 0.  0.
         24    2    4    4    0    0  0.23219324739E+03  0.28006554962E+02  0.79153650768E+02  0.25938221542E+03  0.79471768527E+02 0.  0.
         11    1    3    3    0    0 -0.84533108246E+01  0.95516521863E+02  0.45261333717E+02  0.10603514862E+03  0.00000000000E+00 0.  1.
        -11    1    3    3    0    0  0.89805317833E+01  0.59936658034E+02 -0.43685663650E+02  0.74709371139E+02  0.00000000000E+00 0. -1.
          2    1    6    6  502    0  0.29872594695E+02 -0.21589226185E+02  0.93169996019E+00  0.36869156024E+02  0.00000000000E+00 0. -1.
          1    1    5    5  503    0 -0.12968944663E+03 -0.14233942959E+03 -0.53812615067E+03  0.57154144190E+03  0.00000000000E+00 0. -1.
         -2    1    5    5    0  503 -0.10303102172E+03 -0.41120305268E+02 -0.42746670284E+03  0.44162659904E+03  0.00000000000E+00 0.  1.
         -1    1    6    6    0  502  0.20232065269E+03  0.49595781147E+02  0.78221950808E+02  0.22251305939E+03  0.00000000000E+00 0.  1.
<mgrwt>
<rscale>  0 0.11528583E+04</rscale>
<asrwt>0</asrwt>
<pdfrwt beam="1">  1        2 0.17985833E+00 0.11528583E+04</pdfrwt>
<pdfrwt beam="2">  1       -2 0.43725480E-01 0.11528583E+04</pdfrwt>
<totfact> 0.96988257E+01</totfact>
</mgrwt>
</event>
<event>
12    1  0.1562393E-007  0.1584447E+04  0.7818608E-02  0.8830160E-01
         -1   -1    0    0    0  501 -0.00000000000E+00  0.00000000000E+00  0.13905080070E+04  0.13905080070E+04  0.00000000000E+00 0.  1.
          1   -1    0    0  501    0  0.00000000000E+00 -0.00000000000E+00 -0.45135872411E+03  0.45135872411E+03  0.00000000000E+00 0. -1.
         23    2    1    2    0    0 -0.46223986776E+03 -0.24337243101E+03  0.42546332161E+03  0.67956489626E+03  0.88845791517E+02 0.  0.
        254    2    1    2    0    0  0.46223986776E+03  0.24337243101E+03  0.51368596132E+03  0.11623018349E+04  0.90231726848E+03 0.  0.
        -24    2    4    4    0    0 -0.15580142639E+03  0.15237552047E+03  0.47807389843E+03  0.53154015015E+03  0.80547471467E+02 0.  0.
         24    2    4    4    0    0  0.61804129415E+03  0.90996910542E+02  0.35612062893E+02  0.63076168473E+03  0.79602794541E+02 0.  0.
         11    1    3    3    0    0 -0.19282587362E+03 -0.11400485967E+03  0.23766821004E+03  0.32659623946E+03  0.00000000000E+00 0.  1.
        -11    1    3    3    0    0 -0.26941399414E+03 -0.12936757134E+03  0.18779511156E+03  0.35296865679E+03  0.00000000000E+00 0. -1.
          4    1    6    6  502    0  0.52111191187E+03  0.69383451141E+02  0.58178891522E+02  0.52892009926E+03  0.00000000000E+00 0. -1.
          3    1    5    5  503    0 -0.15493848673E+03  0.11397800373E+03  0.37313410909E+03  0.41979278623E+03  0.00000000000E+00 0. -1.
         -4    1    5    5    0  503 -0.86293966044E+00  0.38397516745E+02  0.10493978934E+03  0.11174736392E+03  0.00000000000E+00 0.  1.
         -3    1    6    6    0  502  0.96929382286E+02  0.21613459401E+02 -0.22566828629E+02  0.10184158547E+03  0.00000000000E+00 0.  1.
<mgrwt>
<rscale>  0 0.15844468E+04</rscale>
<asrwt>0</asrwt>
<pdfrwt beam="1">  1        1 0.69439805E-01 0.15844468E+04</pdfrwt>
<pdfrwt beam="2">  1       -1 0.21392431E+00 0.15844468E+04</pdfrwt>
<totfact> 0.59235603E+00</totfact>
</mgrwt>
</event>
<event>
12    1  0.1562393E-007  0.1869885E+04  0.7818608E-02  0.8669993E-01
          2   -1    0    0  501    0  0.00000000000E+00  0.00000000000E+00  0.11459858363E+04  0.11459858363E+04  0.00000000000E+00 0.  1.
         -2   -1    0    0    0  501 -0.00000000000E+00 -0.00000000000E+00 -0.76276468317E+03  0.76276468317E+03  0.00000000000E+00 0. -1.
         23    2    1    2    0    0  0.23993849334E+03 -0.52197201895E+03 -0.28515466899E+03  0.64758608286E+03  0.89606251562E+02 0.  0.
        254    2    1    2    0    0 -0.23993849334E+03  0.52197201895E+03  0.66837582214E+03  0.12611644366E+04  0.90209989882E+03 0.  0.
        -24    2    4    4    0    0 -0.33021786719E+03  0.67611354436E+03  0.73435293086E+03  0.10545842673E+04  0.81855879911E+02 0.  0.
         24    2    4    4    0    0  0.90279373854E+02 -0.15414152541E+03 -0.65977108716E+02  0.20658016934E+03  0.80077539239E+02 0.  0.
         13    1    3    3    0    0  0.16802496337E+03 -0.35663541726E+03 -0.14820206950E+03  0.42117106092E+03  0.00000000000E+00 0.  1.
        -13    1    3    3    0    0  0.71913529971E+02 -0.16533660169E+03 -0.13695259949E+03  0.22641502193E+03  0.00000000000E+00 0. -1.
          4    1    6    6  502    0  0.92219232286E+02 -0.84368714650E+02 -0.52102981503E+02  0.13541487177E+03  0.00000000000E+00 0. -1.
          1    1    5    5  503    0 -0.23799035177E+03  0.56076775175E+03  0.58796931230E+03  0.84664502074E+03  0.00000000000E+00 0. -1.
         -2    1    5    5    0  503 -0.92227515416E+02  0.11534579261E+03  0.14638361856E+03  0.20793924655E+03  0.00000000000E+00 0.  1.
         -3    1    6    6    0  502 -0.19398584322E+01 -0.69772810761E+02 -0.13874127213E+02  0.71165297570E+02  0.00000000000E+00 0.  1.
<mgrwt>
<rscale>  0 0.18698850E+04</rscale>
<asrwt>0</asrwt>
<pdfrwt beam="1">  1        2 0.17630551E+00 0.18698850E+04</pdfrwt>
<pdfrwt beam="2">  1       -2 0.11734841E+00 0.18698850E+04</pdfrwt>
<totfact> 0.10757945E+01</totfact>
</mgrwt>
</event>
<event>
12    1  0.1562393E-007  0.1762850E+04  0.7818608E-02  0.8726309E-01
         -2   -1    0    0    0  501 -0.00000000000E+00  0.00000000000E+00  0.74556374784E+03  0.74556374784E+03  0.00000000000E+00 0.  1.
          2   -1    0    0  501    0  0.00000000000E+00 -0.00000000000E+00 -0.10420438545E+04  0.10420438545E+04  0.00000000000E+00 0. -1.
         23    2    1    2    0    0 -0.31711014165E+03  0.43942953972E+03 -0.46200272928E+03  0.71812714517E+03  0.92751886534E+02 0.  0.
        254    2    1    2    0    0  0.31711014165E+03 -0.43942953972E+03  0.16552262258E+03  0.10694804572E+04  0.90704660710E+03 0.  0.
        -24    2    4    4    0    0  0.39056503679E+02  0.23061808066E+03  0.22909046133E+03  0.33699138018E+03  0.79816296796E+02 0.  0.
         24    2    4    4    0    0  0.27805363797E+03 -0.67004762038E+03 -0.63567838753E+02  0.73248907703E+03  0.78877998692E+02 0.  0.
         13    1    3    3    0    0 -0.23158854564E+03  0.30735534229E+03 -0.37942363684E+03  0.54042840145E+03  0.00000000000E+00 0. -1.
        -13    1    3    3    0    0 -0.85521596004E+02  0.13207419743E+03 -0.82579092441E+02  0.17769874372E+03  0.00000000000E+00 0.  1.
          2    1    6    6  502    0  0.65134987355E+02 -0.10035751647E+03  0.90847252784E+01  0.11998637391E+03  0.00000000000E+00 0. -1.
          3    1    5    5  503    0  0.23510413121E+02  0.20124861519E+02  0.94103567600E+01  0.32346628737E+02  0.00000000000E+00 0. -1.
         -4    1    5    5    0  503  0.15546090558E+02  0.21049321914E+03  0.21968010457E+03  0.30464475144E+03  0.00000000000E+00 0.  1.
         -1    1    6    6    0  502  0.21291865061E+03 -0.56969010391E+03 -0.72652564032E+02  0.61250270312E+03  0.00000000000E+00 0.  1.
<mgrwt>
<rscale>  0 0.17628501E+04</rscale>
<asrwt>0</asrwt>
<pdfrwt beam="1">  1        2 0.16031444E+00 0.17628501E+04</pdfrwt>
<pdfrwt beam="2">  1       -2 0.11470212E+00 0.17628501E+04</pdfrwt>
<totfact> 0.13306780E+01</totfact>
</mgrwt>
</event>
<event>
12    1  0.1562393E-007  0.2088140E+04  0.7818608E-02  0.8566486E-01
         -2   -1    0    0    0  501 -0.00000000000E+00  0.00000000000E+00  0.10019177005E+04  0.10019177005E+04  0.00000000000E+00 0.  1.
          2   -1    0    0  501    0  0.00000000000E+00 -0.00000000000E+00 -0.10879956715E+04  0.10879956715E+04  0.00000000000E+00 0. -1.
         23    2    1    2    0    0  0.35610061809E+03  0.51254376011E+03 -0.61446127354E+03  0.88069038673E+03  0.92434540944E+02 0.  0.
        254    2    1    2    0    0 -0.35610061809E+03 -0.51254376011E+03  0.52838330251E+03  0.12092229852E+04  0.89079883103E+03 0.  0.
        -24    2    4    4    0    0 -0.15199393353E+03 -0.43070565894E+03  0.75357169387E+03  0.88464442737E+03  0.78204505037E+02 0.  0.
         24    2    4    4    0    0 -0.20410668456E+03 -0.81838101172E+02 -0.22518839136E+03  0.32457855784E+03  0.79274303038E+02 0.  0.
         13    1    3    3    0    0  0.30858363684E+03  0.38458528090E+03 -0.50413616711E+03  0.70518293669E+03  0.00000000000E+00 0. -1.
        -13    1    3    3    0    0  0.47516981244E+02  0.12795847922E+03 -0.11032510644E+03  0.17550745004E+03  0.00000000000E+00 0.  1.
          2    1    6    6  502    0 -0.17397382159E+03 -0.87602629130E+02 -0.15832880021E+03  0.25101617519E+03  0.00000000000E+00 0. -1.
          1    1    5    5  503    0 -0.78226411648E+02 -0.32411704782E+03  0.55749675421E+03  0.64959515325E+03  0.00000000000E+00 0. -1.
         -2    1    5    5    0  503 -0.73767521879E+02 -0.10658861112E+03  0.19607493966E+03  0.23504927413E+03  0.00000000000E+00 0.  1.
         -1    1    6    6    0  502 -0.30132862966E+02  0.57645279576E+01 -0.66859591146E+02  0.73562382651E+02  0.00000000000E+00 0.  1.
<mgrwt>
<rscale>  0 0.20881400E+04</rscale>
<asrwt>0</asrwt>
<pdfrwt beam="1">  1        2 0.16738395E+00 0.20881400E+04</pdfrwt>
<pdfrwt beam="2">  1       -2 0.15414118E+00 0.20881400E+04</pdfrwt>
<totfact> 0.56962315E+00</totfact>
</mgrwt>
</event>
<event>
12    1  0.1562393E-007  0.3243415E+04  0.7818608E-02  0.8177445E-01
          1   -1    0    0  501    0  0.00000000000E+00  0.00000000000E+00  0.11544087373E+04  0.11544087373E+04  0.00000000000E+00 0. -1.
         -1   -1    0    0    0  501 -0.00000000000E+00 -0.00000000000E+00 -0.22781664817E+04  0.22781664817E+04  0.00000000000E+00 0.  1.
         23    2    1    2    0    0 -0.95488138872E+03 -0.11049167845E+04 -0.66044755689E+03  0.16052594250E+04  0.89595084091E+02 0.  0.
        254    2    1    2    0    0  0.95488138872E+03  0.11049167845E+04 -0.46331018750E+03  0.18273157939E+04  0.99588509057E+03 0.  0.
        -24    2    4    4    0    0 -0.38358531267E+02 -0.14443953424E+03 -0.53291087754E+02  0.17749902888E+03  0.79572666472E+02 0.  0.
         24    2    4    4    0    0  0.99323991999E+03  0.12493563187E+04 -0.41001909975E+03  0.16498167650E+04  0.79768077368E+02 0.  0.
         11    1    3    3    0    0 -0.11557104109E+03 -0.16545657244E+03 -0.66540151181E+02  0.21250914009E+03  0.00000000000E+00 0. -1.
        -11    1    3    3    0    0 -0.83931034763E+03 -0.93946021206E+03 -0.59390740570E+03  0.13927502850E+04  0.00000000000E+00 0.  1.
          2    1    6    6  502    0  0.22931610665E+03  0.31783865348E+03 -0.70834197781E+02  0.39827725266E+03  0.00000000000E+00 0. -1.
          1    1    5    5  503    0  0.19958109739E+02 -0.77010555815E+02 -0.32636207022E+02  0.85988800783E+02  0.00000000000E+00 0. -1.
         -2    1    5    5    0  503 -0.58316641006E+02 -0.67428978421E+02 -0.20654880732E+02  0.91510228101E+02  0.00000000000E+00 0.  1.
         -1    1    6    6    0  502  0.76392381334E+03  0.93151766526E+03 -0.33918490197E+03  0.12515395124E+04  0.00000000000E+00 0.  1.
<mgrwt>
<rscale>  0 0.32434150E+04</rscale>
<asrwt>0</asrwt>
<pdfrwt beam="1">  1        1 0.17760135E+00 0.32434150E+04</pdfrwt>
<pdfrwt beam="2">  1       -1 0.35048715E+00 0.32434150E+04</pdfrwt>
<totfact> 0.14835612E-01</totfact>
</mgrwt>
</event>
<event>
12    1  0.1562393E-007  0.4132766E+04  0.7818608E-02  0.7978286E-01
          2   -1    0    0  501    0  0.00000000000E+00  0.00000000000E+00  0.27039794082E+04  0.27039794082E+04  0.00000000000E+00 0. -1.
         -2   -1    0    0    0  501 -0.00000000000E+00 -0.00000000000E+00 -0.15791311505E+04  0.15791311505E+04  0.00000000000E+00 0.  1.
         23    2    1    2    0    0 -0.81757868343E+03  0.21644025622E+03  0.23818287700E+04  0.25292189093E+04  0.92513314875E+02 0.  0.
        254    2    1    2    0    0  0.81757868343E+03 -0.21644025622E+03 -0.12569805123E+04  0.17538916495E+04  0.88365978843E+03 0.  0.
        -24    2    4    4    0    0  0.35658439173E+03 -0.38441522183E+03 -0.16728136366E+03  0.55623763351E+03  0.80559041108E+02 0.  0.
         24    2    4    4    0    0  0.46099429170E+03  0.16797496561E+03 -0.10896991486E+04  0.11976540160E+04  0.78737420464E+02 0.  0.
         11    1    3    3    0    0 -0.18217404056E+03  0.15392348752E+02  0.57714213491E+03  0.60540676354E+03  0.00000000000E+00 0.  1.
        -11    1    3    3    0    0 -0.63540464287E+03  0.20104790747E+03  0.18046866351E+04  0.19238121458E+04  0.00000000000E+00 0. -1.
          4    1    6    6  502    0  0.31180224401E+03  0.76867831069E+02 -0.74077442604E+03  0.80738841527E+03  0.00000000000E+00 0. -1.
          3    1    5    5  503    0  0.28847734369E+03 -0.34505168258E+03 -0.15945427873E+03  0.47718498351E+03  0.00000000000E+00 0. -1.
         -4    1    5    5    0  503  0.68107048035E+02 -0.39363539245E+02 -0.78270849350E+01  0.79052650003E+02  0.00000000000E+00 0.  1.
         -3    1    6    6    0  502  0.14919204769E+03  0.91107134543E+02 -0.34892472257E+03  0.39026560069E+03  0.00000000000E+00 0.  1.
<mgrwt>
<rscale>  0 0.41327657E+04</rscale>
<asrwt>0</asrwt>
<pdfrwt beam="1">  1        2 0.41599683E+00 0.41327657E+04</pdfrwt>
<pdfrwt beam="2">  1       -2 0.24294325E+00 0.41327657E+04</pdfrwt>
<totfact> 0.14639921E-01</totfact>
</mgrwt>
</event>
<event>
12    1  0.1562393E-007  0.2107824E+04  0.7818608E-02  0.8557805E-01
         -2   -1    0    0    0  501 -0.00000000000E+00  0.00000000000E+00  0.77676987537E+03  0.77676987537E+03  0.00000000000E+00 0.  1.
          2   -1    0    0  501    0  0.00000000000E+00 -0.00000000000E+00 -0.14299347349E+04  0.14299347349E+04  0.00000000000E+00 0. -1.
         23    2    1    2    0    0 -0.62547203686E+03 -0.38231148803E+03 -0.74479293969E+03  0.10489853896E+04  0.90975171177E+02 0.  0.
        254    2    1    2    0    0  0.62547203686E+03  0.38231148803E+03  0.91628080132E+02  0.11577192207E+04  0.89137015103E+03 0.  0.
        -24    2    4    4    0    0  0.23273398854E+03 -0.19780117377E+03 -0.22148708216E+03  0.38560930898E+03  0.79671813351E+02 0.  0.
         24    2    4    4    0    0  0.39273804832E+03  0.58011266181E+03  0.31311516229E+03  0.77210991173E+03  0.85666422464E+02 0.  0.
         13    1    3    3    0    0 -0.33645929023E+03 -0.21955014591E+03 -0.34540580976E+03  0.52982288924E+03  0.00000000000E+00 0. -1.
        -13    1    3    3    0    0 -0.28901274664E+03 -0.16276134213E+03 -0.39938712994E+03  0.51916250035E+03  0.00000000000E+00 0.  1.
          4    1    6    6  502    0  0.26151948118E+02  0.29961428356E+02 -0.18567567926E+01  0.39812801023E+02  0.00000000000E+00 0. -1.
          3    1    5    5  503    0  0.14683503792E+03 -0.74677042046E+02 -0.12950706017E+03  0.20954538315E+03  0.00000000000E+00 0. -1.
         -4    1    5    5    0  503  0.85898950624E+02 -0.12312413173E+03 -0.91980021993E+02  0.17606392583E+03  0.00000000000E+00 0.  1.
         -3    1    6    6    0  502  0.36658610021E+03  0.55015123345E+03  0.31497191908E+03  0.73229711070E+03  0.00000000000E+00 0.  1.
<mgrwt>
<rscale>  0 0.21078237E+04</rscale>
<asrwt>0</asrwt>
<pdfrwt beam="1">  1        2 0.21998996E+00 0.21078237E+04</pdfrwt>
<pdfrwt beam="2">  1       -2 0.11950306E+00 0.21078237E+04</pdfrwt>
<totfact> 0.68749291E+00</totfact>
</mgrwt>
</event>
<event>
12    1  0.1562393E-007  0.1850164E+04  0.7818608E-02  0.8680068E-01
          2   -1    0    0  501    0  0.00000000000E+00  0.00000000000E+00  0.19925058716E+04  0.19925058716E+04  0.00000000000E+00 0.  1.
         -2   -1    0    0    0  501 -0.00000000000E+00 -0.00000000000E+00 -0.42949786448E+03  0.42949786448E+03  0.00000000000E+00 0. -1.
         23    2    1    2    0    0 -0.57738305333E+02 -0.47341017974E+03 -0.78526568526E+02  0.49201553973E+03  0.91988907944E+02 0.  0.
        254    2    1    2    0    0  0.57738305333E+02  0.47341017974E+03  0.16415345756E+04  0.19299881963E+04  0.89597308264E+03 0.  0.
        -24    2    4    4    0    0  0.39791741978E+03  0.14460417850E+03  0.12128139023E+04  0.12870689169E+04  0.79876115075E+02 0.  0.
         24    2    4    4    0    0 -0.34017911445E+03  0.32880600125E+03  0.42872067333E+03  0.64291927947E+03  0.75555064749E+02 0.  0.
         13    1    3    3    0    0  0.10754724026E+02 -0.20452621501E+03 -0.62284475029E+02  0.21407006457E+03  0.00000000000E+00 0.  1.
        -13    1    3    3    0    0 -0.68493029358E+02 -0.26888396473E+03 -0.16242093497E+02  0.27794547516E+03  0.00000000000E+00 0. -1.
          2    1    6    6  502    0 -0.26400263667E+03  0.25097930116E+03  0.28449644759E+03  0.46219717705E+03  0.00000000000E+00 0. -1.
          3    1    5    5  503    0  0.14453047522E+03  0.48589203680E+02  0.55667256969E+03  0.57717789184E+03  0.00000000000E+00 0. -1.
         -4    1    5    5    0  503  0.25338694455E+03  0.96014974818E+02  0.65614133260E+03  0.70989102502E+03  0.00000000000E+00 0.  1.
         -1    1    6    6    0  502 -0.76176477774E+02  0.77826700088E+02  0.14422422574E+03  0.18072210242E+03  0.00000000000E+00 0.  1.
<mgrwt>
<rscale>  0 0.18501643E+04</rscale>
<asrwt>0</asrwt>
<pdfrwt beam="1">  1        2 0.30653936E+00 0.18501643E+04</pdfrwt>
<pdfrwt beam="2">  1       -2 0.66076596E-01 0.18501643E+04</pdfrwt>
<totfact> 0.13365005E+01</totfact>
</mgrwt>
</event>
<event>
12    1  0.1562393E-007  0.1821110E+04  0.7818608E-02  0.8695153E-01
         -2   -1    0    0    0  501 -0.00000000000E+00  0.00000000000E+00  0.44667276286E+03  0.44667276286E+03  0.00000000000E+00 0.  1.
          2   -1    0    0  501    0  0.00000000000E+00 -0.00000000000E+00 -0.18561923288E+04  0.18561923288E+04  0.00000000000E+00 0. -1.
         23    2    1    2    0    0  0.55891209465E+03  0.21593284523E+02 -0.97733399713E+03  0.11295034684E+04  0.88018996341E+02 0.  0.
        254    2    1    2    0    0 -0.55891209465E+03 -0.21593284523E+02 -0.43218556878E+03  0.11733616232E+04  0.93655973302E+03 0.  0.
        -24    2    4    4    0    0 -0.42238411930E+03  0.17960073426E+03  0.18872612962E+03  0.50267023640E+03  0.79969035119E+02 0.  0.
         24    2    4    4    0    0 -0.13652797535E+03 -0.20119401878E+03 -0.62091169840E+03  0.67069138683E+03  0.71949134187E+02 0.  0.
         13    1    3    3    0    0  0.11375699336E+03  0.38066390737E+02 -0.23262305761E+03  0.26173114177E+03  0.00000000000E+00 0.  1.
        -13    1    3    3    0    0  0.44515510129E+03 -0.16473106214E+02 -0.74471093953E+03  0.86777232664E+03  0.00000000000E+00 0. -1.
          2    1    6    6  502    0 -0.93276375153E+02 -0.18345065764E+03 -0.52774555833E+03  0.56645388187E+03  0.00000000000E+00 0. -1.
          3    1    5    5  503    0 -0.39400992275E+03  0.18339215358E+03  0.18930283996E+03  0.47403804324E+03  0.00000000000E+00 0. -1.
         -4    1    5    5    0  503 -0.28374196544E+02 -0.37914193230E+01 -0.57671034474E+00  0.28632193154E+02  0.00000000000E+00 0.  1.
         -1    1    6    6    0  502 -0.43251600197E+02 -0.17743361139E+02 -0.93166140070E+02  0.10423750496E+03  0.00000000000E+00 0.  1.
<mgrwt>
<rscale>  0 0.18211102E+04</rscale>
<asrwt>0</asrwt>
<pdfrwt beam="1">  1        2 0.28556806E+00 0.18211102E+04</pdfrwt>
<pdfrwt beam="2">  1       -2 0.68718885E-01 0.18211102E+04</pdfrwt>
<totfact> 0.14647135E+01</totfact>
</mgrwt>
</event>
<event>
12    1  0.1562393E-007  0.1217530E+04  0.7818608E-02  0.9097649E-01
         -1   -1    0    0    0  501 -0.00000000000E+00  0.00000000000E+00  0.17243545951E+03  0.17243545951E+03  0.00000000000E+00 0.  1.
          1   -1    0    0  501    0  0.00000000000E+00 -0.00000000000E+00 -0.21491816729E+04  0.21491816729E+04  0.00000000000E+00 0. -1.
         23    2    1    2    0    0  0.96446129442E+02  0.22808107582E+03 -0.64009361798E+03  0.69251918385E+03  0.92412916787E+02 0.  0.
        254    2    1    2    0    0 -0.96446129442E+02 -0.22808107582E+03 -0.13366525954E+04  0.16290979486E+04  0.89777343033E+03 0.  0.
        -24    2    4    4    0    0 -0.13822044621E+03 -0.55920504503E+03 -0.93913198115E+03  0.11046486674E+04  0.80402899776E+02 0.  0.
         24    2    4    4    0    0  0.41774316770E+02  0.33112396921E+03 -0.39752061429E+03  0.52444928117E+03  0.75074850703E+02 0.  0.
         11    1    3    3    0    0  0.55015606477E+02  0.11527644691E+03 -0.44869536938E+03  0.46652214382E+03  0.00000000000E+00 0. -1.
        -11    1    3    3    0    0  0.41430522966E+02  0.11280462891E+03 -0.19139824860E+03  0.22599704003E+03  0.00000000000E+00 0.  1.
          4    1    6    6  502    0 -0.88164436966E+01  0.93831897156E+02 -0.15497379984E+03  0.18138090649E+03  0.00000000000E+00 0. -1.
          3    1    5    5  503    0 -0.16299529786E+02 -0.22859270900E+03 -0.36181758437E+03  0.42828993175E+03  0.00000000000E+00 0. -1.
         -4    1    5    5    0  503 -0.12192091643E+03 -0.33061233603E+03 -0.57731439678E+03  0.67635873568E+03  0.00000000000E+00 0.  1.
         -3    1    6    6    0  502  0.50590760466E+02  0.23729207206E+03 -0.24254681445E+03  0.34306837468E+03  0.00000000000E+00 0.  1.
<mgrwt>
<rscale>  0 0.12175305E+04</rscale>
<asrwt>0</asrwt>
<pdfrwt beam="1">  1        1 0.33064333E+00 0.12175305E+04</pdfrwt>
<pdfrwt beam="2">  1       -1 0.26528533E-01 0.12175305E+04</pdfrwt>
<totfact> 0.29573680E+01</totfact>
</mgrwt>
</event>
<event>
12    1  0.1562393E-007  0.1329014E+04  0.7818608E-02  0.9006868E-01
          2   -1    0    0  501    0  0.00000000000E+00  0.00000000000E+00  0.10759153770E+04  0.10759153770E+04  0.00000000000E+00 0. -1.
         -2   -1    0    0    0  501 -0.00000000000E+00 -0.00000000000E+00 -0.41041277287E+03  0.41041277287E+03  0.00000000000E+00 0.  1.
         23    2    1    2    0    0  0.13182238659E+03 -0.27460051615E+03  0.36147374601E+03  0.48136856458E+03  0.90938665254E+02 0.  0.
        254    2    1    2    0    0 -0.13182238659E+03  0.27460051615E+03  0.30402885814E+03  0.10049595853E+04  0.90814516264E+03 0.  0.
        -24    2    4    4    0    0 -0.50926460069E+03  0.24211155924E+03  0.20564423078E+03  0.60570447758E+03  0.81362914639E+02 0.  0.
         24    2    4    4    0    0  0.37744221409E+03  0.32488956912E+02  0.98384627361E+02  0.39925510772E+03  0.78784191551E+02 0.  0.
         11    1    3    3    0    0  0.90433778477E+02 -0.22141044075E+03  0.22134487791E+03  0.32587483262E+03  0.00000000000E+00 0. -1.
        -11    1    3    3    0    0  0.41388608114E+02 -0.53190075400E+02  0.14012886810E+03  0.15549373196E+03  0.00000000000E+00 0.  1.
          2    1    6    6  502    0  0.23212204125E+03  0.40388008142E+02  0.93957765690E+02  0.25365309966E+03  0.00000000000E+00 0. -1.
          3    1    5    5  503    0 -0.16679658600E+03  0.49286408852E+02  0.35894196786E+02  0.17759122884E+03  0.00000000000E+00 0. -1.
         -4    1    5    5    0  503 -0.34246801469E+03  0.19282515038E+03  0.16975003399E+03  0.42811324874E+03  0.00000000000E+00 0.  1.
         -1    1    6    6    0  502  0.14532017284E+03 -0.78990512294E+01  0.44268616710E+01  0.14560200806E+03  0.00000000000E+00 0.  1.
<mgrwt>
<rscale>  0 0.13290138E+04</rscale>
<asrwt>0</asrwt>
<pdfrwt beam="1">  1        2 0.16552544E+00 0.13290138E+04</pdfrwt>
<pdfrwt beam="2">  1       -2 0.63140427E-01 0.13290138E+04</pdfrwt>
<totfact> 0.51256339E+01</totfact>
</mgrwt>
</event>
<event>
12    1  0.1562393E-007  0.4702918E+04  0.7818608E-02  0.7876044E-01
          2   -1    0    0  501    0  0.00000000000E+00  0.00000000000E+00  0.26628551066E+04  0.26628551066E+04  0.00000000000E+00 0. -1.
         -2   -1    0    0    0  501 -0.00000000000E+00 -0.00000000000E+00 -0.20764776230E+04  0.20764776230E+04  0.00000000000E+00 0.  1.
         23    2    1    2    0    0 -0.11008825920E+04  0.72608686232E+02 -0.17095941802E+04  0.20367490734E+04  0.91760691038E+02 0.  0.
        254    2    1    2    0    0  0.11008825920E+04 -0.72608686232E+02  0.22959716638E+04  0.27025836563E+04  0.90291640568E+03 0.  0.
        -24    2    4    4    0    0  0.38080429972E+03 -0.18043490038E+03  0.18365681846E+03  0.46681026818E+03  0.81322392682E+02 0.  0.
         24    2    4    4    0    0  0.72007829226E+03  0.10782621414E+03  0.21123148453E+04  0.22357733881E+04  0.81666380683E+02 0.  0.
         11    1    3    3    0    0 -0.10714783892E+04  0.83977689544E+02 -0.16468145967E+04  0.19664985398E+04  0.00000000000E+00 0.  1.
        -11    1    3    3    0    0 -0.29404202744E+02 -0.11369003312E+02 -0.62779583431E+02  0.70250533600E+02  0.00000000000E+00 0. -1.
          2    1    6    6  502    0  0.14368260324E+03  0.12250229626E+02  0.52103103400E+03  0.54061825440E+03  0.00000000000E+00 0. -1.
          3    1    5    5  503    0  0.26887613518E+03 -0.10764489763E+03  0.16106686703E+03  0.33139754935E+03  0.00000000000E+00 0. -1.
         -4    1    5    5    0  503  0.11192816454E+03 -0.72790002744E+02  0.22589951428E+02  0.13541271883E+03  0.00000000000E+00 0.  1.
         -1    1    6    6    0  502  0.57639568902E+03  0.95575984517E+02  0.15912838113E+04  0.16951551337E+04  0.00000000000E+00 0.  1.
<mgrwt>
<rscale>  0 0.47029178E+04</rscale>
<asrwt>0</asrwt>
<pdfrwt beam="1">  1        2 0.40967002E+00 0.47029178E+04</pdfrwt>
<pdfrwt beam="2">  1       -2 0.31945810E+00 0.47029178E+04</pdfrwt>
<totfact> 0.50250399E-02</totfact>
</mgrwt>
</event>
<event>
12    1  0.2013166E-007  0.2522264E+04  0.7818608E-02  0.8395096E-01
         -1   -1    0    0    0  501 -0.00000000000E+00  0.00000000000E+00  0.12116911769E+04  0.12116911769E+04  0.00000000000E+00 0.  1.
          1   -1    0    0  501    0  0.00000000000E+00 -0.00000000000E+00 -0.13125903391E+04  0.13125903391E+04  0.00000000000E+00 0. -1.
         23    2    1    2    0    0 -0.74480578118E+02  0.46098949148E+03 -0.10372691418E+04  0.11412051731E+04  0.91451116717E+02 0.  0.
        254    2    1    2    0    0  0.74480578118E+02 -0.46098949148E+03  0.93636997963E+03  0.13830763429E+04  0.90446269335E+03 0.  0.
        -24    2    4    4    0    0  0.40676017311E+03 -0.51659238680E+03  0.70161658627E+03  0.96489869366E+03  0.80262833034E+02 0.  0.
         24    2    4    4    0    0 -0.33227959499E+03  0.55602895324E+02  0.23475339337E+03  0.41817764921E+03  0.79132669525E+02 0.  0.
         13    1    3    3    0    0 -0.71090149246E+02  0.39555553798E+03 -0.80316485366E+03  0.89810454575E+03  0.00000000000E+00 0. -1.
        -13    1    3    3    0    0 -0.33904288717E+01  0.65433953502E+02 -0.23410428815E+03  0.24310062733E+03  0.00000000000E+00 0.  1.
          4    1    6    6  502    0 -0.29004946222E+03  0.20818306253E+02  0.18861592613E+03  0.34660937667E+03  0.00000000000E+00 0. -1.
          3    1    5    5  503    0  0.34625208714E+03 -0.40002673746E+03  0.59070563109E+03  0.79299750386E+03  0.00000000000E+00 0. -1.
         -4    1    5    5    0  503  0.60508085968E+02 -0.11656564934E+03  0.11091095518E+03  0.17190118979E+03  0.00000000000E+00 0.  1.
         -3    1    6    6    0  502 -0.42230132772E+02  0.34784589071E+02  0.46137467237E+02  0.71568272536E+02  0.00000000000E+00 0.  1.
<mgrwt>
<rscale>  0 0.25222642E+04</rscale>
<asrwt>0</asrwt>
<pdfrwt beam="1">  1        1 0.20193698E+00 0.25222642E+04</pdfrwt>
<pdfrwt beam="2">  1       -1 0.18641403E+00 0.25222642E+04</pdfrwt>
<totfact> 0.14715113E+00</totfact>
</mgrwt>
</event>
<event>
12    1  0.1562393E-007  0.2531141E+04  0.7818608E-02  0.8391975E-01
          1   -1    0    0  501    0  0.00000000000E+00  0.00000000000E+00  0.89264469982E+03  0.89264469982E+03  0.00000000000E+00 0. -1.
         -1   -1    0    0    0  501 -0.00000000000E+00 -0.00000000000E+00 -0.17942961952E+04  0.17942961952E+04  0.00000000000E+00 0.  1.
         23    2    1    2    0    0  0.27828752488E+03  0.89146260238E+03 -0.10263324417E+04  0.13903808753E+04  0.87471021795E+02 0.  0.
        254    2    1    2    0    0 -0.27828752488E+03 -0.89146260238E+03  0.12468094630E+03  0.12965600197E+04  0.89071489734E+03 0.  0.
        -24    2    4    4    0    0 -0.41830408634E+03 -0.99104449775E+03  0.18712575663E+02  0.10789072420E+04  0.80889870530E+02 0.  0.
         24    2    4    4    0    0  0.14001656146E+03  0.99581895367E+02  0.10596837064E+03  0.21765277771E+03  0.81377175541E+02 0.  0.
         13    1    3    3    0    0  0.24716264652E+03  0.69899885369E+03 -0.84463191147E+03  0.11238735859E+04  0.00000000000E+00 0. -1.
        -13    1    3    3    0    0  0.31124878356E+02  0.19246374869E+03 -0.18170053020E+03  0.26650728937E+03  0.00000000000E+00 0.  1.
          4    1    6    6  502    0  0.36385408771E+02  0.33643733810E+02 -0.78760304364E+01  0.50177989712E+02  0.00000000000E+00 0. -1.
          1    1    5    5  503    0 -0.11261415310E+03 -0.18453016735E+03  0.84135856763E+01  0.21634259535E+03  0.00000000000E+00 0. -1.
         -2    1    5    5    0  503 -0.30568993324E+03 -0.80651433040E+03  0.10298989987E+02  0.86256464663E+03  0.00000000000E+00 0.  1.
         -3    1    6    6    0  502  0.10363115269E+03  0.65938161556E+02  0.11384440108E+03  0.16747478799E+03  0.00000000000E+00 0.  1.
<mgrwt>
<rscale>  0 0.25311412E+04</rscale>
<asrwt>0</asrwt>
<pdfrwt beam="1">  1        1 0.13732996E+00 0.25311412E+04</pdfrwt>
<pdfrwt beam="2">  1       -1 0.27604556E+00 0.25311412E+04</pdfrwt>
<totfact> 0.77182233E-01</totfact>
</mgrwt>
</event>
<event>
12    1  0.1562393E-007  0.1776702E+04  0.7818608E-02  0.8718788E-01
         -2   -1    0    0    0  501 -0.00000000000E+00  0.00000000000E+00  0.58908228033E+03  0.58908228033E+03  0.00000000000E+00 0.  1.
          2   -1    0    0  501    0  0.00000000000E+00 -0.00000000000E+00 -0.13396561936E+04  0.13396561936E+04  0.00000000000E+00 0. -1.
         23    2    1    2    0    0 -0.61486365464E+03  0.10546152324E+03 -0.61929705190E+02  0.63329538159E+03  0.89712347424E+02 0.  0.
        254    2    1    2    0    0  0.61486365464E+03 -0.10546152324E+03 -0.68864420808E+03  0.12954430923E+04  0.90264196306E+03 0.  0.
        -24    2    4    4    0    0  0.34261561467E+03 -0.40893098679E+03 -0.69557895749E+03  0.88018271372E+03  0.79255990707E+02 0.  0.
         24    2    4    4    0    0  0.27224803997E+03  0.30346946355E+03  0.69347494136E+01  0.41526037861E+03  0.78615397450E+02 0.  0.
         13    1    3    3    0    0 -0.48741122308E+03  0.63767561127E+02 -0.16960796018E+02  0.49185736839E+03  0.00000000000E+00 0.  1.
        -13    1    3    3    0    0 -0.12745243156E+03  0.41693962110E+02 -0.44968909172E+02  0.14143801321E+03  0.00000000000E+00 0. -1.
          2    1    6    6  502    0  0.19359483397E+03  0.24951638963E+03  0.29687404687E+02  0.31720455613E+03  0.00000000000E+00 0. -1.
          1    1    5    5  503    0  0.17240723152E+03 -0.24978844353E+03 -0.34848389206E+03  0.46212502965E+03  0.00000000000E+00 0. -1.
         -2    1    5    5    0  503  0.17020838314E+03 -0.15914254326E+03 -0.34709506543E+03  0.41805768408E+03  0.00000000000E+00 0.  1.
         -1    1    6    6    0  502  0.78653205999E+02  0.53953073927E+02 -0.22752655274E+02  0.98055822479E+02  0.00000000000E+00 0.  1.
<mgrwt>
<rscale>  0 0.17767023E+04</rscale>
<asrwt>0</asrwt>
<pdfrwt beam="1">  1        2 0.20610095E+00 0.17767023E+04</pdfrwt>
<pdfrwt beam="2">  1       -2 0.90628045E-01 0.17767023E+04</pdfrwt>
<totfact> 0.15421297E+01</totfact>
</mgrwt>
</event>
<event>
12    1  0.1562393E-007  0.2038522E+04  0.7818608E-02  0.8588819E-01
         -1   -1    0    0    0  501 -0.00000000000E+00  0.00000000000E+00  0.14470776474E+04  0.14470776474E+04  0.00000000000E+00 0.  1.
          1   -1    0    0  501    0  0.00000000000E+00 -0.00000000000E+00 -0.71792508806E+03  0.71792508806E+03  0.00000000000E+00 0. -1.
         23    2    1    2    0    0 -0.32662615762E+03 -0.53229755559E+03 -0.26137838947E+03  0.68336407461E+03  0.92964839890E+02 0.  0.
        254    2    1    2    0    0  0.32662615762E+03  0.53229755559E+03  0.99053094883E+03  0.14816386609E+04  0.90778644309E+03 0.  0.
        -24    2    4    4    0    0 -0.21265413460E+03  0.50771895363E+03  0.48793013766E+03  0.73979279904E+03  0.78849536759E+02 0.  0.
         24    2    4    4    0    0  0.53928029222E+03  0.24578601965E+02  0.50260081117E+03  0.74184586183E+03  0.79374845321E+02 0.  0.
         11    1    3    3    0    0 -0.27810960970E+03 -0.37924370085E+03 -0.20721226837E+03  0.51391406266E+03  0.00000000000E+00 0. -1.
        -11    1    3    3    0    0 -0.48516547922E+02 -0.15305385475E+03 -0.54166121103E+02  0.16945001195E+03  0.00000000000E+00 0.  1.
          4    1    6    6  502    0  0.48894761340E+03  0.36214308330E+01  0.47054980978E+03  0.67860150817E+03  0.00000000000E+00 0. -1.
          3    1    5    5  503    0 -0.56056803401E+02  0.21227239476E+03  0.16204355396E+03  0.27287368536E+03  0.00000000000E+00 0. -1.
         -4    1    5    5    0  503 -0.15659733120E+03  0.29544655887E+03  0.32588658370E+03  0.46691911368E+03  0.00000000000E+00 0.  1.
         -3    1    6    6    0  502  0.50332678822E+02  0.20957171132E+02  0.32051001393E+02  0.63244353657E+02  0.00000000000E+00 0.  1.
<mgrwt>
<rscale>  0 0.20385224E+04</rscale>
<asrwt>0</asrwt>
<pdfrwt beam="1">  1        1 0.11045001E+00 0.20385224E+04</pdfrwt>
<pdfrwt beam="2">  1       -1 0.22262733E+00 0.20385224E+04</pdfrwt>
<totfact> 0.25607018E+00</totfact>
</mgrwt>
</event>
<event>
12    1  0.1562393E-007  0.1517524E+04  0.7818608E-02  0.8872882E-01
          2   -1    0    0  501    0  0.00000000000E+00  0.00000000000E+00  0.29756878204E+04  0.29756878204E+04  0.00000000000E+00 0. -1.
         -2   -1    0    0    0  501 -0.00000000000E+00 -0.00000000000E+00 -0.19347463136E+03  0.19347463136E+03  0.00000000000E+00 0.  1.
         23    2    1    2    0    0 -0.16993661386E+03 -0.26157884475E+03  0.16802540424E+04  0.17117579568E+04  0.97773773507E+02 0.  0.
        254    2    1    2    0    0  0.16993661386E+03  0.26157884475E+03  0.11019591466E+04  0.14574044950E+04  0.90133897976E+03 0.  0.
        -24    2    4    4    0    0 -0.34674540286E+03 -0.22933091452E+02  0.37236348167E+03  0.51554920812E+03  0.79863148036E+02 0.  0.
         24    2    4    4    0    0  0.51668201673E+03  0.28451193621E+03  0.72959566497E+03  0.94185528689E+03  0.82910788476E+02 0.  0.
         11    1    3    3    0    0 -0.25111409465E+02 -0.39658110079E+02  0.11467480690E+03  0.12390988628E+03  0.00000000000E+00 0.  1.
        -11    1    3    3    0    0 -0.14482520440E+03 -0.22192073468E+03  0.15655792355E+04  0.15878480705E+04  0.00000000000E+00 0. -1.
          2    1    6    6  502    0  0.24161592298E+03  0.15638630577E+03  0.41229324293E+03  0.50281273754E+03  0.00000000000E+00 0. -1.
          3    1    5    5  503    0 -0.11369972616E+03 -0.21563665356E+02  0.75667322314E+02  0.13826844564E+03  0.00000000000E+00 0. -1.
         -4    1    5    5    0  503 -0.23304567670E+03 -0.13694260954E+01  0.29669615936E+03  0.37728076248E+03  0.00000000000E+00 0.  1.
         -1    1    6    6    0  502  0.27506609375E+03  0.12812563043E+03  0.31730242205E+03  0.43904254935E+03  0.00000000000E+00 0.  1.
<mgrwt>
<rscale>  0 0.15175244E+04</rscale>
<asrwt>0</asrwt>
<pdfrwt beam="1">  1        2 0.45779809E+00 0.15175244E+04</pdfrwt>
<pdfrwt beam="2">  1       -2 0.29765330E-01 0.15175244E+04</pdfrwt>
<totfact> 0.18229729E+01</totfact>
</mgrwt>
</event>
<event>
12    1  0.1562393E-007  0.1600219E+04  0.7818608E-02  0.8820413E-01
         -1   -1    0    0    0  501 -0.00000000000E+00  0.00000000000E+00  0.17446076219E+03  0.17446076219E+03  0.00000000000E+00 0.  1.
          1   -1    0    0  501    0  0.00000000000E+00 -0.00000000000E+00 -0.36694509635E+04  0.36694509635E+04  0.00000000000E+00 0. -1.
         23    2    1    2    0    0  0.16171962093E+03 -0.18798206638E+03 -0.23708310888E+04  0.23859292179E+04  0.10162523508E+03 0.  0.
        254    2    1    2    0    0 -0.16171962093E+03  0.18798206638E+03 -0.11241591125E+04  0.14579825078E+04  0.89470039094E+03 0.  0.
        -24    2    4    4    0    0 -0.18092493485E+03  0.52549241110E+03 -0.54147271315E+03  0.77992119658E+03  0.78792560642E+02 0.  0.
         24    2    4    4    0    0  0.19205313927E+02 -0.33751034472E+03 -0.58268639940E+03  0.67806131119E+03  0.77211558778E+02 0.  0.
         11    1    3    3    0    0  0.70652367017E+02 -0.15614395932E+03 -0.15525879364E+04  0.15620185637E+04  0.00000000000E+00 0. -1.
        -11    1    3    3    0    0  0.91067253910E+02 -0.31838107058E+02 -0.81824315233E+03  0.82391065422E+03  0.00000000000E+00 0.  1.
          4    1    6    6  502    0  0.21379220541E+02 -0.30118900322E+03 -0.46126431094E+03  0.55130449960E+03  0.00000000000E+00 0. -1.
          1    1    5    5  503    0 -0.63923669344E+00  0.16873870942E+02 -0.39336003994E+02  0.42807211476E+02  0.00000000000E+00 0. -1.
         -2    1    5    5    0  503 -0.18028569816E+03  0.50861854016E+03 -0.50213670915E+03  0.73711398510E+03  0.00000000000E+00 0.  1.
         -3    1    6    6    0  502 -0.21739066139E+01 -0.36321341502E+02 -0.12142208846E+03  0.12675681159E+03  0.00000000000E+00 0.  1.
<mgrwt>
<rscale>  0 0.16002190E+04</rscale>
<asrwt>0</asrwt>
<pdfrwt beam="1">  1        1 0.56453088E+00 0.16002190E+04</pdfrwt>
<pdfrwt beam="2">  1       -1 0.26840119E-01 0.16002190E+04</pdfrwt>
<totfact> 0.21985084E+00</totfact>
</mgrwt>
</event>
<event>
12    1  0.1562393E-007  0.1627524E+04  0.7818608E-02  0.8803815E-01
         -1   -1    0    0    0  501 -0.00000000000E+00  0.00000000000E+00  0.51008001316E+03  0.51008001316E+03  0.00000000000E+00 0.  1.
          1   -1    0    0  501    0  0.00000000000E+00 -0.00000000000E+00 -0.12982448967E+04  0.12982448967E+04  0.00000000000E+00 0. -1.
         23    2    1    2    0    0 -0.24993148564E+03  0.41030726682E+03  0.57969658502E+02  0.49271990200E+03  0.92707172326E+02 0.  0.
        254    2    1    2    0    0  0.24993148564E+03 -0.41030726682E+03 -0.84613454207E+03  0.13156050079E+04  0.88546884350E+03 0.  0.
        -24    2    4    4    0    0 -0.15317433103E+03 -0.32146575494E+03 -0.81587404435E+03  0.89375635156E+03  0.79670273143E+02 0.  0.
         24    2    4    4    0    0  0.40310581667E+03 -0.88841511877E+02 -0.30260497720E+02  0.42184865634E+03  0.81568851079E+02 0.  0.
         13    1    3    3    0    0 -0.85672930998E+02  0.74239743103E+02  0.31820412961E+02  0.11774518777E+03  0.00000000000E+00 0. -1.
        -13    1    3    3    0    0 -0.16425855464E+03  0.33606752372E+03  0.26149245542E+02  0.37497471423E+03  0.00000000000E+00 0.  1.
          2    1    6    6  502    0  0.37293703407E+03 -0.68970026053E+02 -0.78607898879E+01  0.37934244146E+03  0.00000000000E+00 0. -1.
          1    1    5    5  503    0 -0.15555170191E+03 -0.32131067037E+03 -0.78006851989E+03  0.85787165391E+03  0.00000000000E+00 0. -1.
         -2    1    5    5    0  503  0.23773708754E+01 -0.15508456932E+00 -0.35805524456E+02  0.35884697645E+02  0.00000000000E+00 0.  1.
         -1    1    6    6    0  502  0.30168782603E+02 -0.19871485824E+02 -0.22399707832E+02  0.42506214881E+02  0.00000000000E+00 0.  1.
<mgrwt>
<rscale>  0 0.16275242E+04</rscale>
<asrwt>0</asrwt>
<pdfrwt beam="1">  1        1 0.19972998E+00 0.16275242E+04</pdfrwt>
<pdfrwt beam="2">  1       -1 0.78473848E-01 0.16275242E+04</pdfrwt>
<totfact> 0.14114880E+01</totfact>
</mgrwt>
</event>
<event>
12    1  0.1562393E-007  0.2174023E+04  0.7818608E-02  0.8529319E-01
          1   -1    0    0  501    0  0.00000000000E+00  0.00000000000E+00  0.15688261205E+04  0.15688261205E+04  0.00000000000E+00 0. -1.
         -1   -1    0    0    0  501 -0.00000000000E+00 -0.00000000000E+00 -0.75317087421E+03  0.75317087421E+03  0.00000000000E+00 0.  1.
         23    2    1    2    0    0 -0.51507575017E+03 -0.45478336938E+03 -0.27055650330E+03  0.74417406813E+03  0.91996090835E+02 0.  0.
        254    2    1    2    0    0  0.51507575017E+03  0.45478336938E+03  0.10862117496E+04  0.15778229266E+04  0.91517117593E+03 0.  0.
        -24    2    4    4    0    0 -0.13644211029E+03  0.37365143076E+03  0.15261303984E+03  0.43354374693E+03  0.80234652129E+02 0.  0.
         24    2    4    4    0    0  0.65151786045E+03  0.81131938626E+02  0.93359870979E+03  0.11442791797E+04  0.81916885924E+02 0.  0.
         11    1    3    3    0    0 -0.72761523323E+02 -0.59472679116E+02 -0.72745578229E+02  0.11884089359E+03  0.00000000000E+00 0. -1.
        -11    1    3    3    0    0 -0.44231422684E+03 -0.39531069027E+03 -0.19781092507E+03  0.62533317454E+03  0.00000000000E+00 0.  1.
          2    1    6    6  502    0  0.58240080557E+03  0.46476079184E+02  0.81908216101E+03  0.10061045228E+04  0.00000000000E+00 0. -1.
          3    1    5    5  503    0 -0.10841155847E+03  0.32820274974E+03  0.15766903068E+03  0.37990740211E+03  0.00000000000E+00 0. -1.
         -4    1    5    5    0  503 -0.28030551814E+02  0.45448681022E+02 -0.50559908374E+01  0.53636344814E+02  0.00000000000E+00 0.  1.
         -1    1    6    6    0  502  0.69117054885E+02  0.34655859442E+02  0.11451654878E+03  0.13817465692E+03  0.00000000000E+00 0.  1.
<mgrwt>
<rscale>  0 0.21740231E+04</rscale>
<asrwt>0</asrwt>
<pdfrwt beam="1">  1        1 0.24135786E+00 0.21740231E+04</pdfrwt>
<pdfrwt beam="2">  1       -1 0.11587244E+00 0.21740231E+04</pdfrwt>
<totfact> 0.36108531E+00</totfact>
</mgrwt>
</event>
<event>
12    1  0.1562393E-007  0.1791638E+04  0.7818608E-02  0.8710759E-01
         -2   -1    0    0    0  501 -0.00000000000E+00  0.00000000000E+00  0.70619507369E+03  0.70619507369E+03  0.00000000000E+00 0.  1.
          2   -1    0    0  501    0  0.00000000000E+00 -0.00000000000E+00 -0.11363598988E+04  0.11363598988E+04  0.00000000000E+00 0. -1.
         23    2    1    2    0    0  0.21567719945E+03  0.43914147602E+03 -0.62774910120E+03  0.80045981960E+03  0.85469868397E+02 0.  0.
        254    2    1    2    0    0 -0.21567719945E+03 -0.43914147602E+03  0.19758427608E+03  0.10420951529E+04  0.89864390680E+03 0.  0.
        -24    2    4    4    0    0 -0.25372158165E+03 -0.64807022791E+03 -0.54819158946E+02  0.70270704639E+03  0.80139825117E+02 0.  0.
         24    2    4    4    0    0  0.38044382197E+02  0.20892875188E+03  0.25240343502E+03  0.33938810652E+03  0.79863599051E+02 0.  0.
         13    1    3    3    0    0  0.18428487624E+03  0.30223176911E+03 -0.41417312567E+03  0.54483422790E+03  0.00000000000E+00 0. -1.
        -13    1    3    3    0    0  0.31392323212E+02  0.13690970692E+03 -0.21357597553E+03  0.25562559169E+03  0.00000000000E+00 0.  1.
          4    1    6    6  502    0 -0.12119337672E+02  0.11994593451E+03  0.16856760616E+03  0.20724126857E+03  0.00000000000E+00 0. -1.
          3    1    5    5  503    0 -0.14825214337E+03 -0.42375455250E+03 -0.70023384161E+02  0.45436757489E+03  0.00000000000E+00 0. -1.
         -4    1    5    5    0  503 -0.10546943828E+03 -0.22431567541E+03  0.15204225216E+02  0.24833947151E+03  0.00000000000E+00 0.  1.
         -3    1    6    6    0  502  0.50163719868E+02  0.88982817367E+02  0.83835828860E+02  0.13214683794E+03  0.00000000000E+00 0.  1.
<mgrwt>
<rscale>  0 0.17916381E+04</rscale>
<asrwt>0</asrwt>
<pdfrwt beam="1">  1        2 0.17482460E+00 0.17916381E+04</pdfrwt>
<pdfrwt beam="2">  1       -2 0.10864540E+00 0.17916381E+04</pdfrwt>
<totfact> 0.13238108E+01</totfact>
</mgrwt>
</event>
<event>
12    1  0.1562393E-007  0.2349119E+04  0.7818608E-02  0.8458802E-01
          2   -1    0    0  501    0  0.00000000000E+00  0.00000000000E+00  0.22643007176E+04  0.22643007176E+04  0.00000000000E+00 0.  1.
         -2   -1    0    0    0  501 -0.00000000000E+00 -0.00000000000E+00 -0.60927859421E+03  0.60927859421E+03  0.00000000000E+00 0. -1.
         23    2    1    2    0    0 -0.22927455518E+03  0.88095316904E+03  0.20769952189E+03  0.93826778531E+03  0.92531280533E+02 0.  0.
        254    2    1    2    0    0  0.22927455518E+03 -0.88095316904E+03  0.14473226015E+04  0.19353115265E+04  0.90666569587E+03 0.  0.
        -24    2    4    4    0    0 -0.11089019977E+03 -0.92186271115E+03  0.10832968238E+04  0.14291760613E+04  0.82974158133E+02 0.  0.
         24    2    4    4    0    0  0.34016475495E+03  0.40909542113E+02  0.36402577761E+03  0.50613546520E+03  0.79200323336E+02 0.  0.
         11    1    3    3    0    0 -0.34070087404E+02  0.22947839142E+03  0.85722257760E+02  0.24732450032E+03  0.00000000000E+00 0. -1.
        -11    1    3    3    0    0 -0.19520446778E+03  0.65147477761E+03  0.12197726413E+03  0.69094328499E+03  0.00000000000E+00 0.  1.
          4    1    6    6  502    0  0.40855074603E+02  0.22774189865E+02  0.82464017948E+02  0.94805670194E+02  0.00000000000E+00 0. -1.
          1    1    5    5  503    0 -0.18819734046E+02 -0.10293550954E+03  0.85957144240E+02  0.13541983665E+03  0.00000000000E+00 0. -1.
         -2    1    5    5    0  503 -0.92070465726E+02 -0.81892720161E+03  0.99733967960E+03  0.12937562246E+04  0.00000000000E+00 0.  1.
         -3    1    6    6    0  502  0.29930968035E+03  0.18135352247E+02  0.28156175966E+03  0.41132979500E+03  0.00000000000E+00 0.  1.
<mgrwt>
<rscale>  0 0.23491189E+04</rscale>
<asrwt>0</asrwt>
<pdfrwt beam="1">  1        2 0.34835395E+00 0.23491189E+04</pdfrwt>
<pdfrwt beam="2">  1       -2 0.93735170E-01 0.23491189E+04</pdfrwt>
<totfact> 0.41239515E+00</totfact>
</mgrwt>
</event>
<event>
12    1  0.1562393E-007  0.1348209E+04  0.7818608E-02  0.8992185E-01
         -2   -1    0    0    0  501 -0.00000000000E+00  0.00000000000E+00  0.13708522666E+03  0.13708522666E+03  0.00000000000E+00 0.  1.
          2   -1    0    0  501    0  0.00000000000E+00 -0.00000000000E+00 -0.33148491961E+04  0.33148491961E+04  0.00000000000E+00 0. -1.
         23    2    1    2    0    0 -0.20270423230E+03 -0.25823927578E+03 -0.49283102027E+03  0.59909801968E+03  0.90881754476E+02 0.  0.
        254    2    1    2    0    0  0.20270423230E+03  0.25823927578E+03 -0.26849329491E+04  0.28528364031E+04  0.90666094648E+03 0.  0.
        -24    2    4    4    0    0  0.33514839590E+03 -0.74339048748E+02 -0.22781949318E+04  0.23052570429E+04  0.78658408176E+02 0.  0.
         24    2    4    4    0    0 -0.13244416360E+03  0.33257832453E+03 -0.40673801738E+03  0.54757936018E+03  0.79104630049E+02 0.  0.
         13    1    3    3    0    0 -0.19348194364E+03 -0.22625843709E+03 -0.38763946396E+03  0.48876630089E+03  0.00000000000E+00 0.  1.
        -13    1    3    3    0    0 -0.92222886530E+01 -0.31980838694E+02 -0.10519155631E+03  0.11033171879E+03  0.00000000000E+00 0. -1.
          2    1    6    6  502    0 -0.42567959294E+02  0.83375440322E+02 -0.59876581009E+02  0.11112470545E+03  0.00000000000E+00 0. -1.
          1    1    5    5  503    0  0.22532374196E+02  0.11598419789E+02 -0.25413400039E+03  0.25539444274E+03  0.00000000000E+00 0. -1.
         -2    1    5    5    0  503  0.31261602170E+03 -0.85937468538E+02 -0.20240609314E+04  0.20498626001E+04  0.00000000000E+00 0.  1.
         -1    1    6    6    0  502 -0.89876204309E+02  0.24920288421E+03 -0.34686143637E+03  0.43645465473E+03  0.00000000000E+00 0.  1.
<mgrwt>
<rscale>  0 0.13482090E+04</rscale>
<asrwt>0</asrwt>
<pdfrwt beam="1">  1        2 0.50997676E+00 0.13482090E+04</pdfrwt>
<pdfrwt beam="2">  1       -2 0.21090036E-01 0.13482090E+04</pdfrwt>
<totfact> 0.21021961E+01</totfact>
</mgrwt>
</event>
<event>
12    1  0.1562393E-007  0.1954849E+04  0.7818608E-02  0.8628026E-01
         -1   -1    0    0    0  501 -0.00000000000E+00  0.00000000000E+00  0.16931090077E+04  0.16931090077E+04  0.00000000000E+00 0.  1.
          1   -1    0    0  501    0  0.00000000000E+00 -0.00000000000E+00 -0.56426279241E+03  0.56426279241E+03  0.00000000000E+00 0. -1.
         23    2    1    2    0    0  0.16839773834E+03  0.50925078836E+03  0.10697705898E+04  0.11996533574E+04  0.84052956063E+02 0.  0.
        254    2    1    2    0    0 -0.16839773834E+03 -0.50925078836E+03  0.59075625519E+02  0.10577184427E+04  0.90971655521E+03 0.  0.
        -24    2    4    4    0    0 -0.50365348805E+03 -0.21480356994E+03  0.19153694776E+03  0.58554929314E+03  0.79838353300E+02 0.  0.
         24    2    4    4    0    0  0.33525574971E+03 -0.29444721842E+03 -0.13246132224E+03  0.47216914958E+03  0.79385904131E+02 0.  0.
         11    1    3    3    0    0  0.11896740662E+03  0.41319523078E+03  0.78440935583E+03  0.89452869160E+03  0.00000000000E+00 0.  1.
        -11    1    3    3    0    0  0.49430331724E+02  0.96055557584E+02  0.28536123395E+03  0.30512466579E+03  0.00000000000E+00 0. -1.
          4    1    6    6  502    0  0.12354997456E+03 -0.62980819903E+02 -0.54037593892E+02  0.14883293131E+03  0.00000000000E+00 0. -1.
          1    1    5    5  503    0 -0.32920596939E+01 -0.12964080599E+02  0.12272701125E+01  0.13431724936E+02  0.00000000000E+00 0. -1.
         -2    1    5    5    0  503 -0.50036142836E+03 -0.20183948934E+03  0.19030967765E+03  0.57211756821E+03  0.00000000000E+00 0.  1.
         -3    1    6    6    0  502  0.21170577515E+03 -0.23146639852E+03 -0.78423728351E+02  0.32333621827E+03  0.00000000000E+00 0.  1.
<mgrwt>
<rscale>  0 0.19548488E+04</rscale>
<asrwt>0</asrwt>
<pdfrwt beam="1">  1        1 0.86809661E-01 0.19548488E+04</pdfrwt>
<pdfrwt beam="2">  1       -1 0.26047831E+00 0.19548488E+04</pdfrwt>
<totfact> 0.20754768E+00</totfact>
</mgrwt>
</event>
<event>
12    1  0.1562393E-007  0.1175951E+04  0.7818608E-02  0.9134171E-01
         -2   -1    0    0    0  501 -0.00000000000E+00  0.00000000000E+00  0.97547547000E+02  0.97547547000E+02  0.00000000000E+00 0.  1.
          2   -1    0    0  501    0  0.00000000000E+00 -0.00000000000E+00 -0.35440688896E+04  0.35440688896E+04  0.00000000000E+00 0. -1.
         23    2    1    2    0    0  0.22892994673E+03  0.41727640261E+02 -0.66156671374E+03  0.70697783118E+03  0.89426062142E+02 0.  0.
        254    2    1    2    0    0 -0.22892994673E+03 -0.41727640261E+02 -0.27849546289E+04  0.29346386054E+04  0.89553411052E+03 0.  0.
        -24    2    4    4    0    0 -0.16935954198E+01  0.40164072022E+03 -0.10207927684E+04  0.10998150756E+04  0.79102390066E+02 0.  0.
         24    2    4    4    0    0 -0.22723635131E+03 -0.44336836048E+03 -0.17641618604E+04  0.18348235298E+04  0.78092593714E+02 0.  0.
         13    1    3    3    0    0  0.44794122550E+02  0.16932198641E+02 -0.56690834086E+02  0.74209591261E+02  0.00000000000E+00 0.  1.
        -13    1    3    3    0    0  0.18413582418E+03  0.24795441620E+02 -0.60487587965E+03  0.63276823992E+03  0.00000000000E+00 0. -1.
          2    1    6    6  502    0 -0.11047234958E+03 -0.15800481652E+03 -0.58130181422E+03  0.61243894494E+03  0.00000000000E+00 0. -1.
          3    1    5    5  503    0  0.20925830098E+02  0.36580794108E+03 -0.89596810967E+03  0.96799390167E+03  0.00000000000E+00 0. -1.
         -4    1    5    5    0  503 -0.22619425518E+02  0.35832779142E+02 -0.12482465877E+03  0.13182117397E+03  0.00000000000E+00 0.  1.
         -1    1    6    6    0  502 -0.11676400172E+03 -0.28536354396E+03 -0.11828600462E+04  0.12223845848E+04  0.00000000000E+00 0.  1.
<mgrwt>
<rscale>  0 0.11759511E+04</rscale>
<asrwt>0</asrwt>
<pdfrwt beam="1">  1        2 0.54524147E+00 0.11759511E+04</pdfrwt>
<pdfrwt beam="2">  1       -2 0.15007312E-01 0.11759511E+04</pdfrwt>
<totfact> 0.26997154E+01</totfact>
</mgrwt>
</event>
<event>
12    1  0.1562393E-007  0.2567948E+04  0.7818608E-02  0.8379171E-01
          2   -1    0    0  501    0  0.00000000000E+00  0.00000000000E+00  0.20743423929E+04  0.20743423929E+04  0.00000000000E+00 0. -1.
         -2   -1    0    0    0  501 -0.00000000000E+00 -0.00000000000E+00 -0.79475252043E+03  0.79475252043E+03  0.00000000000E+00 0.  1.
         23    2    1    2    0    0 -0.54626049788E+03  0.70262180189E+03  0.13302732350E+04  0.16031803588E+04  0.92100245900E+02 0.  0.
        254    2    1    2    0    0  0.54626049788E+03 -0.70262180189E+03 -0.50683362460E+02  0.12659145545E+04  0.89882864224E+03 0.  0.
        -24    2    4    4    0    0  0.63373306394E+03 -0.81970455274E+03 -0.18115903823E+03  0.10548713270E+04  0.80011057261E+02 0.  0.
         24    2    4    4    0    0 -0.87472566067E+02  0.11708275085E+03  0.13047567577E+03  0.21104322752E+03  0.78457131947E+02 0.  0.
         11    1    3    3    0    0 -0.63033880333E+02  0.61494428655E+02  0.18067629247E+03  0.20099442153E+03  0.00000000000E+00 0.  1.
        -11    1    3    3    0    0 -0.48322661754E+03  0.64112737323E+03  0.11495969425E+04  0.14021859373E+04  0.00000000000E+00 0. -1.
          4    1    6    6  502    0 -0.20406000988E+02 -0.85894369129E+01  0.27330331315E+02  0.35172863298E+02  0.00000000000E+00 0. -1.
          1    1    5    5  503    0  0.38992044591E+02 -0.84714746131E+02 -0.25354931750E+02  0.96642849283E+02  0.00000000000E+00 0. -1.
         -2    1    5    5    0  503  0.59474101935E+03 -0.73498980661E+03 -0.15580410649E+03  0.95822847772E+03  0.00000000000E+00 0.  1.
         -3    1    6    6    0  502 -0.67066565079E+02  0.12567218777E+03  0.10314534446E+03  0.17587036423E+03  0.00000000000E+00 0.  1.
<mgrwt>
<rscale>  0 0.25679477E+04</rscale>
<asrwt>0</asrwt>
<pdfrwt beam="1">  1        2 0.31912960E+00 0.25679477E+04</pdfrwt>
<pdfrwt beam="2">  1       -2 0.12226962E+00 0.25679477E+04</pdfrwt>
<totfact> 0.27294807E+00</totfact>
</mgrwt>
</event>
<event>
12    1  0.1562393E-007  0.2142147E+04  0.7818608E-02  0.8542901E-01
         -1   -1    0    0    0  501 -0.00000000000E+00  0.00000000000E+00  0.70578735815E+03  0.70578735815E+03  0.00000000000E+00 0.  1.
          1   -1    0    0  501    0  0.00000000000E+00 -0.00000000000E+00 -0.16254163762E+04  0.16254163762E+04  0.00000000000E+00 0. -1.
         23    2    1    2    0    0  0.13775332959E+03  0.50213360803E+03 -0.11438487699E+04  0.12602306883E+04  0.93151699942E+02 0.  0.
        254    2    1    2    0    0 -0.13775332959E+03 -0.50213360803E+03  0.22421975183E+03  0.10709730461E+04  0.90862237930E+03 0.  0.
        -24    2    4    4    0    0 -0.15689806047E+03  0.95561200993E+02 -0.23837103449E+03  0.31125676314E+03  0.79442293507E+02 0.  0.
         24    2    4    4    0    0  0.19144730879E+02 -0.59769480902E+03  0.46259078632E+03  0.75971628293E+03  0.74652458105E+02 0.  0.
         11    1    3    3    0    0  0.27908350301E+02  0.11967564553E+03 -0.37323001392E+03  0.39293991836E+03  0.00000000000E+00 0. -1.
        -11    1    3    3    0    0  0.10984497929E+03  0.38245796250E+03 -0.77061875601E+03  0.86729076996E+03  0.00000000000E+00 0.  1.
          4    1    6    6  502    0  0.12417211122E+01 -0.15046094994E+02  0.30763174531E+02  0.34268057329E+02  0.00000000000E+00 0. -1.
          1    1    5    5  503    0 -0.34515832268E+02 -0.94271481017E+01 -0.24297020031E+02  0.43249959316E+02  0.00000000000E+00 0. -1.
         -2    1    5    5    0  503 -0.12238222821E+03  0.10498834909E+03 -0.21407401446E+03  0.26800680382E+03  0.00000000000E+00 0.  1.
         -3    1    6    6    0  502  0.17903009767E+02 -0.58264871403E+03  0.43182761179E+03  0.72544822560E+03  0.00000000000E+00 0.  1.
<mgrwt>
<rscale>  0 0.21421469E+04</rscale>
<asrwt>0</asrwt>
<pdfrwt beam="1">  1        1 0.25006405E+00 0.21421469E+04</pdfrwt>
<pdfrwt beam="2">  1       -1 0.10858267E+00 0.21421469E+04</pdfrwt>
<totfact> 0.38649675E+00</totfact>
</mgrwt>
</event>
<event>
12    1  0.1562393E-007  0.1472860E+04  0.7818608E-02  0.8902704E-01
         -2   -1    0    0    0  501 -0.00000000000E+00  0.00000000000E+00  0.47940327923E+03  0.47940327923E+03  0.00000000000E+00 0.  1.
          2   -1    0    0  501    0  0.00000000000E+00 -0.00000000000E+00 -0.11312587401E+04  0.11312587401E+04  0.00000000000E+00 0. -1.
         23    2    1    2    0    0 -0.42160801737E+03 -0.48740341036E+02 -0.40348455979E+03  0.58983595626E+03  0.70552988233E+02 0.  0.
        254    2    1    2    0    0  0.42160801737E+03  0.48740341036E+02 -0.24837090104E+03  0.10208260630E+04  0.89457744513E+03 0.  0.
        -24    2    4    4    0    0  0.40032187961E+03  0.30959978304E+03  0.15406908530E+03  0.53454578283E+03  0.76761174718E+02 0.  0.
         24    2    4    4    0    0  0.21286137768E+02 -0.26085944201E+03 -0.40243998634E+03  0.48628028021E+03  0.77523029950E+02 0.  0.
         13    1    3    3    0    0 -0.91500967187E+02 -0.32661779944E+02 -0.12011077045E+03  0.15448564996E+03  0.00000000000E+00 0.  1.
        -13    1    3    3    0    0 -0.33010705019E+03 -0.16078561092E+02 -0.28337378934E+03  0.43535030630E+03  0.00000000000E+00 0. -1.
          2    1    6    6  502    0  0.16857098492E+02 -0.60619156545E+01 -0.31514972286E+02  0.36250545778E+02  0.00000000000E+00 0. -1.
          3    1    5    5  503    0  0.16846472251E+02  0.27985408027E+02 -0.46550561456E+01  0.32994791066E+02  0.00000000000E+00 0. -1.
         -4    1    5    5    0  503  0.38347540735E+03  0.28161437502E+03  0.15872414144E+03  0.50155099176E+03  0.00000000000E+00 0.  1.
         -1    1    6    6    0  502  0.44290392754E+01 -0.25479752635E+03 -0.37092501405E+03  0.45002973443E+03  0.00000000000E+00 0.  1.
<mgrwt>
<rscale>  0 0.14728600E+04</rscale>
<asrwt>0</asrwt>
<pdfrwt beam="1">  1        2 0.17403981E+00 0.14728600E+04</pdfrwt>
<pdfrwt beam="2">  1       -2 0.73754351E-01 0.14728600E+04</pdfrwt>
<totfact> 0.33445906E+01</totfact>
</mgrwt>
</event>
<event>
12    1  0.1562393E-007  0.1034131E+04  0.7818608E-02  0.9271883E-01
         -2   -1    0    0    0  501 -0.00000000000E+00  0.00000000000E+00  0.35438677077E+03  0.35438677077E+03  0.00000000000E+00 0.  1.
          2   -1    0    0  501    0  0.00000000000E+00 -0.00000000000E+00 -0.75442052500E+03  0.75442052500E+03  0.00000000000E+00 0. -1.
         23    2    1    2    0    0  0.64114319332E+02 -0.32622213652E+02 -0.10263394926E+03  0.15577387263E+03  0.92503605797E+02 0.  0.
        254    2    1    2    0    0 -0.64114319332E+02  0.32622213652E+02 -0.29739980497E+03  0.95303342315E+03  0.90258030494E+03 0.  0.
        -24    2    4    4    0    0 -0.23142055051E+03  0.17390825977E+03 -0.53947168055E+03  0.61710936863E+03  0.77425607691E+02 0.  0.
         24    2    4    4    0    0  0.16730623118E+03 -0.14128604612E+03  0.24207187558E+03  0.33592405452E+03  0.79328781898E+02 0.  0.
         13    1    3    3    0    0  0.52019937939E+02 -0.42263371149E+02 -0.17534189117E+02  0.69279970208E+02  0.00000000000E+00 0.  1.
        -13    1    3    3    0    0  0.12094381392E+02  0.96411574967E+01 -0.85099760143E+02  0.86493902419E+02  0.00000000000E+00 0. -1.
          4    1    6    6  502    0  0.74134400302E+01  0.91946684898E+01  0.22463895816E+02  0.25379669757E+02  0.00000000000E+00 0. -1.
          1    1    5    5  503    0 -0.35100283737E+02  0.26073388688E+01 -0.36781484057E+02  0.50908797902E+02  0.00000000000E+00 0. -1.
         -2    1    5    5    0  503 -0.19632026677E+03  0.17130092090E+03 -0.50269019649E+03  0.56620057073E+03  0.00000000000E+00 0.  1.
         -3    1    6    6    0  502  0.15989279115E+03 -0.15048071461E+03  0.21960797976E+03  0.31054438476E+03  0.00000000000E+00 0.  1.
<mgrwt>
<rscale>  0 0.10341308E+04</rscale>
<asrwt>0</asrwt>
<pdfrwt beam="1">  1        2 0.11606470E+00 0.10341308E+04</pdfrwt>
<pdfrwt beam="2">  1       -2 0.54521042E-01 0.10341308E+04</pdfrwt>
<totfact> 0.11744934E+02</totfact>
</mgrwt>
</event>
<event>
12    1  0.1562393E-007  0.1766366E+04  0.7818608E-02  0.8724393E-01
          2   -1    0    0  501    0  0.00000000000E+00  0.00000000000E+00  0.86476955681E+03  0.86476955681E+03  0.00000000000E+00 0. -1.
         -2   -1    0    0    0  501 -0.00000000000E+00 -0.00000000000E+00 -0.90198830120E+03  0.90198830120E+03  0.00000000000E+00 0.  1.
         23    2    1    2    0    0  0.22304678498E+03 -0.32088830371E+03 -0.53543406254E+03  0.66918575552E+03  0.91655705318E+02 0.  0.
        254    2    1    2    0    0 -0.22304678498E+03  0.32088830371E+03  0.49821531815E+03  0.10975721025E+04  0.89650814005E+03 0.  0.
        -24    2    4    4    0    0  0.11521774834E+03  0.24258050501E+03  0.65179596960E+03  0.70957908406E+03  0.80895362065E+02 0.  0.
         24    2    4    4    0    0 -0.33826453332E+03  0.78307798696E+02 -0.15358065145E+03  0.38799301842E+03  0.79978497154E+02 0.  0.
         11    1    3    3    0    0  0.10920035441E+03 -0.23112187284E+03 -0.36162501571E+03  0.44284838207E+03  0.00000000000E+00 0.  1.
        -11    1    3    3    0    0  0.11384643057E+03 -0.89766430869E+02 -0.17380904683E+03  0.22633737345E+03  0.00000000000E+00 0. -1.
          2    1    6    6  502    0 -0.14669240250E+02  0.21267572386E+02 -0.22388093549E+02  0.34186590609E+02  0.00000000000E+00 0. -1.
          3    1    5    5  503    0  0.76390960117E+02  0.15387089517E+03  0.31099827274E+03  0.35529108744E+03  0.00000000000E+00 0. -1.
         -4    1    5    5    0  503  0.38826788223E+02  0.88709609838E+02  0.34079769686E+03  0.35428799662E+03  0.00000000000E+00 0.  1.
         -1    1    6    6    0  502 -0.32359529307E+03  0.57040226310E+02 -0.13119255790E+03  0.35380642781E+03  0.00000000000E+00 0.  1.
<mgrwt>
<rscale>  0 0.17663658E+04</rscale>
<asrwt>0</asrwt>
<pdfrwt beam="1">  1        2 0.13304147E+00 0.17663658E+04</pdfrwt>
<pdfrwt beam="2">  1       -2 0.13876743E+00 0.17663658E+04</pdfrwt>
<totfact> 0.10780925E+01</totfact>
</mgrwt>
</event>
<event>
12    1  0.1562393E-007  0.1488461E+04  0.7818608E-02  0.8892163E-01
          2   -1    0    0  501    0  0.00000000000E+00  0.00000000000E+00  0.77635374545E+03  0.77635374545E+03  0.00000000000E+00 0. -1.
         -2   -1    0    0    0  501 -0.00000000000E+00 -0.00000000000E+00 -0.71343649942E+03  0.71343649942E+03  0.00000000000E+00 0.  1.
         23    2    1    2    0    0  0.22869529575E+03 -0.12283310473E+03  0.39399431188E+03  0.48099789750E+03  0.93477000863E+02 0.  0.
        254    2    1    2    0    0 -0.22869529575E+03  0.12283310473E+03 -0.33107706585E+03  0.10087923474E+04  0.91687538231E+03 0.  0.
        -24    2    4    4    0    0 -0.19414598046E+02  0.44278440055E+03  0.62436949449E+02  0.45470917278E+03  0.80169240741E+02 0.  0.
         24    2    4    4    0    0 -0.20928069770E+03 -0.31995129582E+03 -0.39351401530E+03  0.55408317460E+03  0.77379855299E+02 0.  0.
         11    1    3    3    0    0  0.34581965420E+02  0.76801126701E+01  0.22400068467E+02  0.41912522357E+02  0.00000000000E+00 0.  1.
        -11    1    3    3    0    0  0.19411333033E+03 -0.13051321740E+03  0.37159424341E+03  0.43908537514E+03  0.00000000000E+00 0. -1.
          4    1    6    6  502    0 -0.72727013828E+02 -0.18151637926E+03 -0.20276274058E+03  0.28169157504E+03  0.00000000000E+00 0. -1.
          1    1    5    5  503    0 -0.34520233027E+02  0.11965430529E+03 -0.34603252547E+01  0.12458239488E+03  0.00000000000E+00 0. -1.
         -2    1    5    5    0  503  0.15105634981E+02  0.32313009526E+03  0.65897274704E+02  0.33012677790E+03  0.00000000000E+00 0.  1.
         -3    1    6    6    0  502 -0.13655368387E+03 -0.13843491656E+03 -0.19075127472E+03  0.27239159956E+03  0.00000000000E+00 0.  1.
<mgrwt>
<rscale>  0 0.14884611E+04</rscale>
<asrwt>0</asrwt>
<pdfrwt beam="1">  1        2 0.11943904E+00 0.14884611E+04</pdfrwt>
<pdfrwt beam="2">  1       -2 0.10975946E+00 0.14884611E+04</pdfrwt>
<totfact> 0.22896372E+01</totfact>
</mgrwt>
</event>
<event>
12    1  0.1562393E-007  0.2451004E+04  0.7818608E-02  0.8420652E-01
         -1   -1    0    0    0  501 -0.00000000000E+00  0.00000000000E+00  0.11162070390E+04  0.11162070390E+04  0.00000000000E+00 0.  1.
          1   -1    0    0  501    0  0.00000000000E+00 -0.00000000000E+00 -0.13454984736E+04  0.13454984736E+04  0.00000000000E+00 0. -1.
         23    2    1    2    0    0 -0.17150570100E+01 -0.10159282276E+04 -0.38940104900E+03  0.10916086943E+04  0.88675021614E+02 0.  0.
        254    2    1    2    0    0  0.17150570100E+01  0.10159282276E+04  0.16010961443E+03  0.13700968183E+04  0.90521660276E+03 0.  0.
        -24    2    4    4    0    0 -0.22839257360E+03  0.41916837883E+03  0.45221175756E+03  0.66215707763E+03  0.78046295859E+02 0.  0.
         24    2    4    4    0    0  0.23010763061E+03  0.59675984879E+03 -0.29210214313E+03  0.70793974072E+03  0.82360036848E+02 0.  0.
         13    1    3    3    0    0 -0.18831256111E+01 -0.74527371414E+03 -0.24297179170E+03  0.78388248271E+03  0.00000000000E+00 0. -1.
        -13    1    3    3    0    0  0.16806860105E+00 -0.27065451348E+03 -0.14642925730E+03  0.30772621160E+03  0.00000000000E+00 0.  1.
          4    1    6    6  502    0  0.15392155579E+03  0.46505312261E+03 -0.25051856091E+03  0.55020523584E+03  0.00000000000E+00 0. -1.
          1    1    5    5  503    0 -0.14266225469E+03  0.33192390892E+03  0.34335669513E+03  0.49841731543E+03  0.00000000000E+00 0. -1.
         -2    1    5    5    0  503 -0.85730318915E+02  0.87244469903E+02  0.10885506243E+03  0.16373976220E+03  0.00000000000E+00 0.  1.
         -3    1    6    6    0  502  0.76186074821E+02  0.13170672618E+03 -0.41583582218E+02  0.15773450488E+03  0.00000000000E+00 0.  1.
<mgrwt>
<rscale>  0 0.24510038E+04</rscale>
<asrwt>0</asrwt>
<pdfrwt beam="1">  1        1 0.20699977E+00 0.24510038E+04</pdfrwt>
<pdfrwt beam="2">  1       -1 0.17172416E+00 0.24510038E+04</pdfrwt>
<totfact> 0.17901334E+00</totfact>
</mgrwt>
</event>
<event>
12    1  0.1562393E-007  0.1626331E+04  0.7818608E-02  0.8804533E-01
         -1   -1    0    0    0  501 -0.00000000000E+00  0.00000000000E+00  0.89298134881E+03  0.89298134881E+03  0.00000000000E+00 0.  1.
          1   -1    0    0  501    0  0.00000000000E+00 -0.00000000000E+00 -0.74048341128E+03  0.74048341128E+03  0.00000000000E+00 0. -1.
         23    2    1    2    0    0  0.88915408012E+02  0.49831079793E+03  0.30095600811E+03  0.59581409388E+03  0.90555588102E+02 0.  0.
        254    2    1    2    0    0 -0.88915408012E+02 -0.49831079793E+03 -0.14845807058E+03  0.10376506662E+04  0.89356561330E+03 0.  0.
        -24    2    4    4    0    0  0.35021937875E+03 -0.38625878299E+01 -0.66672672759E+02  0.36648967762E+03  0.84858150266E+02 0.  0.
         24    2    4    4    0    0 -0.43913478677E+03 -0.49444821010E+03 -0.81785397817E+02  0.67116098860E+03  0.80310820616E+02 0.  0.
         11    1    3    3    0    0  0.99510429782E+02  0.40175932786E+03  0.21651392754E+03  0.46710937046E+03  0.00000000000E+00 0.  1.
        -11    1    3    3    0    0 -0.10595021770E+02  0.96551470070E+02  0.84442080570E+02  0.12870472342E+03  0.00000000000E+00 0. -1.
          4    1    6    6  502    0 -0.74588057565E+02 -0.59081054020E+02 -0.35055808618E+02  0.10140443281E+03  0.00000000000E+00 0. -1.
          3    1    5    5  503    0  0.80271528720E+02 -0.37004220075E+02 -0.15230093975E+02  0.89692733200E+02  0.00000000000E+00 0. -1.
         -4    1    5    5    0  503  0.26994785003E+03  0.33141632246E+02 -0.51442578785E+02  0.27679694442E+03  0.00000000000E+00 0.  1.
         -1    1    6    6    0  502 -0.36454672920E+03 -0.43536715608E+03 -0.46729589199E+02  0.56975655579E+03  0.00000000000E+00 0.  1.
<mgrwt>
<rscale>  0 0.16263307E+04</rscale>
<asrwt>0</asrwt>
<pdfrwt beam="1">  1        1 0.11392052E+00 0.16263307E+04</pdfrwt>
<pdfrwt beam="2">  1       -1 0.13738175E+00 0.16263307E+04</pdfrwt>
<totfact> 0.10535205E+01</totfact>
</mgrwt>
</event>
<event>
12    1  0.1562393E-007  0.2022209E+04  0.7818608E-02  0.8596307E-01
          1   -1    0    0  501    0  0.00000000000E+00  0.00000000000E+00  0.20590575545E+04  0.20590575545E+04  0.00000000000E+00 0. -1.
         -1   -1    0    0    0  501 -0.00000000000E+00 -0.00000000000E+00 -0.49650510179E+03  0.49650510179E+03  0.00000000000E+00 0.  1.
         23    2    1    2    0    0  0.50074041739E+03 -0.36549514644E+03 -0.20789681938E+02  0.62736986162E+03  0.93984385511E+02 0.  0.
        254    2    1    2    0    0 -0.50074041739E+03  0.36549514644E+03  0.15833421347E+04  0.19281927947E+04  0.90919055781E+03 0.  0.
        -24    2    4    4    0    0 -0.95166461094E+02  0.32417637804E+03  0.63622817103E+02  0.35235768825E+03  0.77208148622E+02 0.  0.
         24    2    4    4    0    0 -0.40557395629E+03  0.41318768396E+02  0.15197193176E+04  0.15758351064E+04  0.86671817075E+02 0.  0.
         11    1    3    3    0    0  0.69242572268E+02 -0.47750625750E+02  0.29536321525E+02  0.89146230223E+02  0.00000000000E+00 0. -1.
        -11    1    3    3    0    0  0.43149784512E+03 -0.31774452069E+03 -0.50326003463E+02  0.53822363140E+03  0.00000000000E+00 0.  1.
          2    1    6    6  502    0 -0.11951048496E+03  0.49084230057E+02  0.53481473236E+03  0.55019888732E+03  0.00000000000E+00 0. -1.
          1    1    5    5  503    0 -0.98806025018E+01  0.11065991361E+02  0.20029260287E+02  0.24924962151E+02  0.00000000000E+00 0. -1.
         -2    1    5    5    0  503 -0.85285858592E+02  0.31311038668E+03  0.43593556817E+02  0.32743272610E+03  0.00000000000E+00 0.  1.
         -1    1    6    6    0  502 -0.28606347134E+03 -0.77654616619E+01  0.98490458521E+03  0.10256362191E+04  0.00000000000E+00 0.  1.
<mgrwt>
<rscale>  0 0.20222093E+04</rscale>
<asrwt>0</asrwt>
<pdfrwt beam="1">  1        1 0.31677808E+00 0.20222093E+04</pdfrwt>
<pdfrwt beam="2">  1       -1 0.76385401E-01 0.20222093E+04</pdfrwt>
<totfact> 0.43279769E+00</totfact>
</mgrwt>
</event>
<event>
12    1  0.1562393E-007  0.1298928E+04  0.7818608E-02  0.9030416E-01
         -1   -1    0    0    0  501 -0.00000000000E+00  0.00000000000E+00  0.21919067969E+03  0.21919067969E+03  0.00000000000E+00 0.  1.
          1   -1    0    0  501    0  0.00000000000E+00 -0.00000000000E+00 -0.19243664745E+04  0.19243664745E+04  0.00000000000E+00 0. -1.
         23    2    1    2    0    0 -0.28362529495E+03  0.14582289516E+03 -0.32185829632E+03  0.46120795587E+03  0.86095243520E+02 0.  0.
        254    2    1    2    0    0  0.28362529495E+03 -0.14582289516E+03 -0.13833174985E+04  0.16823491983E+04  0.90278674048E+03 0.  0.
        -24    2    4    4    0    0  0.49355285903E+03  0.71265285096E+02 -0.38282907998E+03  0.63450760654E+03  0.85840740732E+02 0.  0.
         24    2    4    4    0    0 -0.20992756408E+03 -0.21708818026E+03 -0.10004884185E+04  0.10478415917E+04  0.76145030917E+02 0.  0.
         11    1    3    3    0    0 -0.20296745328E+03  0.10657273816E+03 -0.17216228203E+03  0.28669389070E+03  0.00000000000E+00 0. -1.
        -11    1    3    3    0    0 -0.80657841662E+02  0.39250157006E+02 -0.14969601429E+03  0.17451406516E+03  0.00000000000E+00 0.  1.
          4    1    6    6  502    0 -0.38439393122E+02 -0.79124800437E+01 -0.16756999134E+03  0.17210431802E+03  0.00000000000E+00 0. -1.
          1    1    5    5  503    0  0.10413320984E+03 -0.23716866227E+01 -0.43928202028E+02  0.11304440376E+03  0.00000000000E+00 0. -1.
         -2    1    5    5    0  503  0.38941964919E+03  0.73636971718E+02 -0.33890087795E+03  0.52146320278E+03  0.00000000000E+00 0.  1.
         -3    1    6    6    0  502 -0.17148817096E+03 -0.20917570022E+03 -0.83291842714E+03  0.87573727373E+03  0.00000000000E+00 0.  1.
<mgrwt>
<rscale>  0 0.12989276E+04</rscale>
<asrwt>0</asrwt>
<pdfrwt beam="1">  1        1 0.29605637E+00 0.12989276E+04</pdfrwt>
<pdfrwt beam="2">  1       -1 0.33721644E-01 0.12989276E+04</pdfrwt>
<totfact> 0.27360828E+01</totfact>
</mgrwt>
</event>
<event>
12    1  0.1562393E-007  0.1602859E+04  0.7818608E-02  0.8818794E-01
          1   -1    0    0  501    0  0.00000000000E+00  0.00000000000E+00  0.57534521280E+03  0.57534521280E+03  0.00000000000E+00 0. -1.
         -1   -1    0    0    0  501 -0.00000000000E+00 -0.00000000000E+00 -0.11163545591E+04  0.11163545591E+04  0.00000000000E+00 0.  1.
         23    2    1    2    0    0  0.14741094526E+03 -0.51218573731E+03 -0.28798047706E+03  0.61230459847E+03  0.88994100106E+02 0.  0.
        254    2    1    2    0    0 -0.14741094526E+03  0.51218573731E+03 -0.25302886922E+03  0.10793951734E+04  0.90388390596E+03 0.  0.
        -24    2    4    4    0    0  0.33413871130E+03  0.18534787990E+03 -0.29743878779E+03  0.49023837508E+03  0.76559238178E+02 0.  0.
         24    2    4    4    0    0 -0.48154965656E+03  0.32683785741E+03  0.44409918569E+02  0.58915679833E+03  0.80127619370E+02 0.  0.
         13    1    3    3    0    0  0.13861568352E+02 -0.77618399548E+01 -0.20510856133E+02  0.25943871260E+02  0.00000000000E+00 0. -1.
        -13    1    3    3    0    0  0.13354937691E+03 -0.50442389735E+03 -0.26746962093E+03  0.58636072721E+03  0.00000000000E+00 0.  1.
          2    1    6    6  502    0 -0.50056868095E+02  0.25169774685E+02 -0.18313403043E+02  0.58945638789E+02  0.00000000000E+00 0. -1.
          3    1    5    5  503    0  0.22944643000E+03  0.16258247402E+03 -0.19668886370E+03  0.34316939578E+03  0.00000000000E+00 0. -1.
         -4    1    5    5    0  503  0.10469228130E+03  0.22765405882E+02 -0.10074992409E+03  0.14706897930E+03  0.00000000000E+00 0.  1.
         -1    1    6    6    0  502 -0.43149278847E+03  0.30166808272E+03  0.62723321612E+02  0.53021115955E+03  0.00000000000E+00 0.  1.
<mgrwt>
<rscale>  0 0.16028590E+04</rscale>
<asrwt>0</asrwt>
<pdfrwt beam="1">  1        1 0.88514649E-01 0.16028590E+04</pdfrwt>
<pdfrwt beam="2">  1       -1 0.17174685E+00 0.16028590E+04</pdfrwt>
<totfact> 0.83371871E+00</totfact>
</mgrwt>
</event>
<event>
12    1  0.1562393E-007  0.1757734E+04  0.7818608E-02  0.8729105E-01
          1   -1    0    0  501    0  0.00000000000E+00  0.00000000000E+00  0.54903638945E+03  0.54903638945E+03  0.00000000000E+00 0. -1.
         -1   -1    0    0    0  501 -0.00000000000E+00 -0.00000000000E+00 -0.14068409934E+04  0.14068409934E+04  0.00000000000E+00 0.  1.
         23    2    1    2    0    0  0.42330497722E+03 -0.15560698209E+03  0.19426843467E+03  0.49947001406E+03  0.91265730824E+02 0.  0.
        254    2    1    2    0    0 -0.42330497722E+03  0.15560698209E+03 -0.10520730386E+04  0.14564073688E+04  0.90047993239E+03 0.  0.
        -24    2    4    4    0    0 -0.53776726852E+03  0.26924005199E+03 -0.28733178388E+03  0.67107383535E+03  0.78081353549E+02 0.  0.
         24    2    4    4    0    0  0.11446229130E+03 -0.11363306990E+03 -0.76474125472E+03  0.78533353343E+03  0.76847129682E+02 0.  0.
         11    1    3    3    0    0  0.30661962509E+02  0.11641311757E+02  0.76787974299E+01  0.33684417975E+02  0.00000000000E+00 0.  1.
        -11    1    3    3    0    0  0.39264301471E+03 -0.16724829385E+03  0.18658963724E+03  0.46578559609E+03  0.00000000000E+00 0. -1.
          2    1    6    6  502    0  0.82251149523E+02 -0.11978590091E+03 -0.59826917776E+03  0.61566218230E+03  0.00000000000E+00 0. -1.
          3    1    5    5  503    0 -0.27867521557E+03  0.17547776647E+03 -0.18057606858E+03  0.37557960387E+03  0.00000000000E+00 0. -1.
         -4    1    5    5    0  503 -0.25909205295E+03  0.93762285519E+02 -0.10675571531E+03  0.29549423148E+03  0.00000000000E+00 0.  1.
         -1    1    6    6    0  502  0.32211141779E+02  0.61528310154E+01 -0.16647207697E+03  0.16967135113E+03  0.00000000000E+00 0.  1.
<mgrwt>
<rscale>  0 0.17577337E+04</rscale>
<asrwt>0</asrwt>
<pdfrwt beam="1">  1        1 0.84467137E-01 0.17577337E+04</pdfrwt>
<pdfrwt beam="2">  1       -1 0.21643708E+00 0.17577337E+04</pdfrwt>
<totfact> 0.42818090E+00</totfact>
</mgrwt>
</event>
<event>
12    1  0.1562393E-007  0.2179805E+04  0.7818608E-02  0.8526881E-01
         -1   -1    0    0    0  501 -0.00000000000E+00  0.00000000000E+00  0.52558110300E+03  0.52558110300E+03  0.00000000000E+00 0.  1.
          1   -1    0    0  501    0  0.00000000000E+00 -0.00000000000E+00 -0.22601410912E+04  0.22601410912E+04  0.00000000000E+00 0. -1.
         23    2    1    2    0    0 -0.23803263127E+03 -0.52472789761E+03 -0.15984202468E+04  0.17015217970E+04  0.90720670730E+02 0.  0.
        254    2    1    2    0    0  0.23803263127E+03  0.52472789761E+03 -0.13613974133E+03  0.10842003972E+04  0.90827175005E+03 0.  0.
        -24    2    4    4    0    0 -0.16032274263E+03  0.57696388629E+03  0.99929876522E+02  0.61253735739E+03  0.81396106160E+02 0.  0.
         24    2    4    4    0    0  0.39835537389E+03 -0.52235988674E+02 -0.23606961785E+03  0.47166303976E+03  0.72948997120E+02 0.  0.
         13    1    3    3    0    0 -0.14575995047E+03 -0.35445307036E+03 -0.93756113671E+03  0.10128691067E+04  0.00000000000E+00 0. -1.
        -13    1    3    3    0    0 -0.92272680799E+02 -0.17027482725E+03 -0.66085911012E+03  0.68865269029E+03  0.00000000000E+00 0.  1.
          2    1    6    6  502    0  0.39348488223E+02  0.89793866967E+01 -0.44813185674E+02  0.60308826229E+02  0.00000000000E+00 0. -1.
          1    1    5    5  503    0 -0.13097313474E+02  0.77107349782E+02  0.40489575114E+02  0.88070929957E+02  0.00000000000E+00 0. -1.
         -2    1    5    5    0  503 -0.14722542915E+03  0.49985653651E+03  0.59440301408E+02  0.52446642744E+03  0.00000000000E+00 0.  1.
         -1    1    6    6    0  502  0.35900688567E+03 -0.61215375371E+02 -0.19125643218E+03  0.41135421353E+03  0.00000000000E+00 0.  1.
<mgrwt>
<rscale>  0 0.21798050E+04</rscale>
<asrwt>0</asrwt>
<pdfrwt beam="1">  1        1 0.34771402E+00 0.21798050E+04</pdfrwt>
<pdfrwt beam="2">  1       -1 0.80858630E-01 0.21798050E+04</pdfrwt>
<totfact> 0.27596063E+00</totfact>
</mgrwt>
</event>
<event>
12    1  0.1562393E-007  0.1612385E+04  0.7818608E-02  0.8812975E-01
         -1   -1    0    0    0  501 -0.00000000000E+00  0.00000000000E+00  0.67565857475E+03  0.67565857475E+03  0.00000000000E+00 0.  1.
          1   -1    0    0  501    0  0.00000000000E+00 -0.00000000000E+00 -0.96194545680E+03  0.96194545680E+03  0.00000000000E+00 0. -1.
         23    2    1    2    0    0 -0.54600499114E+02  0.26711002181E+03  0.38686988030E+03  0.48278033955E+03  0.95286797189E+02 0.  0.
        254    2    1    2    0    0  0.54600499114E+02 -0.26711002181E+03 -0.67315676234E+03  0.11548236920E+04  0.89785786997E+03 0.  0.
        -24    2    4    4    0    0 -0.30622139056E+03  0.87814465074E+02 -0.52898758578E+03  0.62263933504E+03  0.79805734865E+02 0.  0.
         24    2    4    4    0    0  0.36082188967E+03 -0.35492448689E+03 -0.14416917656E+03  0.53218435696E+03  0.79193502685E+02 0.  0.
         13    1    3    3    0    0  0.18430261659E+02  0.10815875027E+03  0.19016793945E+03  0.21954916306E+03  0.00000000000E+00 0.  1.
        -13    1    3    3    0    0 -0.73030760774E+02  0.15895127154E+03  0.19670194085E+03  0.26323117649E+03  0.00000000000E+00 0. -1.
          2    1    6    6  502    0  0.31778839880E+03 -0.32297351459E+03 -0.15221428715E+03  0.47798592736E+03  0.00000000000E+00 0. -1.
          1    1    5    5  503    0 -0.30664375818E+03  0.95127467566E+02 -0.51823544767E+03  0.60962907471E+03  0.00000000000E+00 0. -1.
         -2    1    5    5    0  503  0.42236761597E+00 -0.73130024919E+01 -0.10752138115E+02  0.13010260331E+02  0.00000000000E+00 0.  1.
         -1    1    6    6    0  502  0.43033490873E+02 -0.31950972292E+02  0.80451105892E+01  0.54198429604E+02  0.00000000000E+00 0.  1.
<mgrwt>
<rscale>  0 0.16123854E+04</rscale>
<asrwt>0</asrwt>
<pdfrwt beam="1">  1        1 0.14799161E+00 0.16123854E+04</pdfrwt>
<pdfrwt beam="2">  1       -1 0.10394747E+00 0.16123854E+04</pdfrwt>
<totfact> 0.13550017E+01</totfact>
</mgrwt>
</event>
<event>
12    1  0.1562393E-007  0.1233735E+04  0.7818608E-02  0.9083830E-01
         -1   -1    0    0    0  501 -0.00000000000E+00  0.00000000000E+00  0.32847308921E+03  0.32847308921E+03  0.00000000000E+00 0.  1.
          1   -1    0    0  501    0  0.00000000000E+00 -0.00000000000E+00 -0.11584674384E+04  0.11584674384E+04  0.00000000000E+00 0. -1.
         23    2    1    2    0    0 -0.36025107491E+02  0.17442646111E+03  0.52633596304E+02  0.20630293454E+03  0.89823196525E+02 0.  0.
        254    2    1    2    0    0  0.36025107491E+02 -0.17442646111E+03 -0.88262794552E+03  0.12806375931E+04  0.91064710834E+03 0.  0.
        -24    2    4    4    0    0  0.33604449724E+03  0.13926621482E+03 -0.10468224353E+03  0.38619254682E+03  0.76585431996E+02 0.  0.
         24    2    4    4    0    0 -0.30001938975E+03 -0.31369267593E+03 -0.77794570199E+03  0.89444504627E+03  0.80110526131E+02 0.  0.
         11    1    3    3    0    0 -0.32225433485E+02  0.18337568393E+03  0.58237192652E+02  0.19508124110E+03  0.00000000000E+00 0.  1.
        -11    1    3    3    0    0 -0.37996740054E+01 -0.89492228201E+01 -0.56035963486E+01  0.11221693440E+02  0.00000000000E+00 0. -1.
          4    1    6    6  502    0 -0.25016680575E+03 -0.21183352877E+03 -0.58922783424E+03  0.67427465861E+03  0.00000000000E+00 0. -1.
          1    1    5    5  503    0  0.33086712774E+03  0.14730035329E+03 -0.10180378850E+03  0.37621066126E+03  0.00000000000E+00 0. -1.
         -2    1    5    5    0  503  0.51773695036E+01 -0.80341384690E+01 -0.28784550317E+01  0.99818855576E+01  0.00000000000E+00 0.  1.
         -3    1    6    6    0  502 -0.49852584001E+02 -0.10185914716E+03 -0.18871786775E+03  0.22017038766E+03  0.00000000000E+00 0.  1.
<mgrwt>
<rscale>  0 0.12337348E+04</rscale>
<asrwt>0</asrwt>
<pdfrwt beam="1">  1        1 0.17822576E+00 0.12337348E+04</pdfrwt>
<pdfrwt beam="2">  1       -1 0.50534322E-01 0.12337348E+04</pdfrwt>
<totfact> 0.44513303E+01</totfact>
</mgrwt>
</event>
<event>
12    1  0.1562393E-007  0.2349978E+04  0.7818608E-02  0.8458472E-01
         -2   -1    0    0    0  501 -0.00000000000E+00  0.00000000000E+00  0.83637213173E+03  0.83637213173E+03  0.00000000000E+00 0.  1.
          2   -1    0    0  501    0  0.00000000000E+00 -0.00000000000E+00 -0.16506999536E+04  0.16506999536E+04  0.00000000000E+00 0. -1.
         23    2    1    2    0    0 -0.40671894494E+03 -0.43916298172E+03 -0.11855235852E+04  0.13311974570E+04  0.91302101324E+02 0.  0.
        254    2    1    2    0    0  0.40671894494E+03  0.43916298172E+03  0.37119576336E+03  0.11558746283E+04  0.91650173867E+03 0.  0.
        -24    2    4    4    0    0  0.43521464117E+03 -0.50767848237E+02  0.47116017092E+03  0.64833451693E+03  0.79728168655E+02 0.  0.
         24    2    4    4    0    0 -0.28495696236E+02  0.48993082996E+03 -0.99964407556E+02  0.50754011140E+03  0.82218362010E+02 0.  0.
         11    1    3    3    0    0 -0.32550057660E+03 -0.30078132381E+03 -0.82281665840E+03  0.93458401626E+03  0.00000000000E+00 0. -1.
        -11    1    3    3    0    0 -0.81218368332E+02 -0.13838165791E+03 -0.36270692679E+03  0.39661344070E+03  0.00000000000E+00 0.  1.
          2    1    6    6  502    0 -0.38483266311E+01  0.37500364337E+02 -0.31843363391E+02  0.49346598011E+02  0.00000000000E+00 0. -1.
          3    1    5    5  503    0  0.30772637621E+03  0.28716318881E+00  0.33668855031E+03  0.45613022810E+03  0.00000000000E+00 0. -1.
         -2    1    5    5    0  503  0.12748826496E+03 -0.51055011426E+02  0.13447162060E+03  0.19220428882E+03  0.00000000000E+00 0.  1.
         -1    1    6    6    0  502 -0.24647369605E+02  0.45243046562E+03 -0.68121044165E+02  0.45819351338E+03  0.00000000000E+00 0.  1.
<mgrwt>
<rscale>  0 0.23499782E+04</rscale>
<asrwt>0</asrwt>
<pdfrwt beam="1">  1        2 0.25395384E+00 0.23499782E+04</pdfrwt>
<pdfrwt beam="2">  1       -2 0.12867264E+00 0.23499782E+04</pdfrwt>
<totfact> 0.42053072E+00</totfact>
</mgrwt>
</event>
<event>
12    1  0.1562393E-007  0.1835477E+04  0.7818608E-02  0.8687657E-01
          1   -1    0    0  501    0  0.00000000000E+00  0.00000000000E+00  0.23243755513E+04  0.23243755513E+04  0.00000000000E+00 0. -1.
         -1   -1    0    0    0  501 -0.00000000000E+00 -0.00000000000E+00 -0.36235297432E+03  0.36235297432E+03  0.00000000000E+00 0.  1.
         23    2    1    2    0    0  0.18999661426E+03 -0.29550054497E+03  0.16268711111E+04  0.16687106431E+04  0.12027598650E+03 0.  0.
        254    2    1    2    0    0 -0.18999661426E+03  0.29550054497E+03  0.33515146586E+03  0.10180178824E+04  0.89477070717E+03 0.  0.
        -24    2    4    4    0    0  0.99424059966E+02 -0.16041599014E+03  0.41827127679E+03  0.46591989170E+03  0.80697279398E+02 0.  0.
         24    2    4    4    0    0 -0.28942067423E+03  0.45591653511E+03 -0.83119810936E+02  0.55209799074E+03  0.79240613034E+02 0.  0.
         11    1    3    3    0    0  0.14708760793E+03 -0.24208858154E+03  0.14770460531E+04  0.15039636593E+04  0.00000000000E+00 0. -1.
        -11    1    3    3    0    0  0.42909006329E+02 -0.53411963428E+02  0.14982505800E+03  0.16474698379E+03  0.00000000000E+00 0.  1.
          2    1    6    6  502    0 -0.51388298312E+02  0.14324791298E+03 -0.11121941145E+02  0.15259233057E+03  0.00000000000E+00 0. -1.
          1    1    5    5  503    0  0.14598607353E+02  0.33726406073E+01  0.72450443673E+02  0.73983517285E+02  0.00000000000E+00 0. -1.
         -2    1    5    5    0  503  0.84825452614E+02 -0.16378863075E+03  0.34582083312E+03  0.39193637442E+03  0.00000000000E+00 0.  1.
         -3    1    6    6    0  502 -0.23803237591E+03  0.31266862213E+03 -0.71997869791E+02  0.39950566017E+03  0.00000000000E+00 0.  1.
<mgrwt>
<rscale>  0 0.18354775E+04</rscale>
<asrwt>0</asrwt>
<pdfrwt beam="1">  1        1 0.35759623E+00 0.18354775E+04</pdfrwt>
<pdfrwt beam="2">  1       -1 0.55746613E-01 0.18354775E+04</pdfrwt>
<totfact> 0.54860931E+00</totfact>
</mgrwt>
</event>
<event>
12    1  0.1562393E-007  0.2462148E+04  0.7818608E-02  0.8416596E-01
          2   -1    0    0  501    0  0.00000000000E+00  0.00000000000E+00  0.19617424566E+04  0.19617424566E+04  0.00000000000E+00 0.  1.
         -2   -1    0    0    0  501 -0.00000000000E+00 -0.00000000000E+00 -0.77254945965E+03  0.77254945965E+03  0.00000000000E+00 0. -1.
         23    2    1    2    0    0  0.84939094999E+03 -0.58913539324E+03  0.79468672435E+03  0.13070059969E+04  0.90510709335E+02 0.  0.
        254    2    1    2    0    0 -0.84939094999E+03  0.58913539324E+03  0.39450627265E+03  0.14272859194E+04  0.90164538437E+03 0.  0.
        -24    2    4    4    0    0  0.12837774361E+03  0.30513391722E+03  0.26005469228E+02  0.34158937303E+03  0.80121550439E+02 0.  0.
         24    2    4    4    0    0 -0.97776869360E+03  0.28400147601E+03  0.36850080342E+03  0.10856965464E+04  0.79092933888E+02 0.  0.
         11    1    3    3    0    0  0.35557259725E+02 -0.34349807801E+02  0.17793016319E+02  0.52543500500E+02  0.00000000000E+00 0. -1.
        -11    1    3    3    0    0  0.81383369027E+03 -0.55478558544E+03  0.77689370803E+03  0.12544624964E+04  0.00000000000E+00 0.  1.
          2    1    6    6  502    0 -0.16269881949E+03  0.24744546637E+02  0.39108178371E+02  0.16915273591E+03  0.00000000000E+00 0. -1.
          1    1    5    5  503    0  0.25202422290E+02  0.14308800807E+02  0.15409259085E+02  0.32822997050E+02  0.00000000000E+00 0. -1.
         -2    1    5    5    0  503  0.10317532132E+03  0.29082511642E+03  0.10596210143E+02  0.30876637598E+03  0.00000000000E+00 0.  1.
         -1    1    6    6    0  502 -0.81506987411E+03  0.25925692937E+03  0.32939262505E+03  0.91654381049E+03  0.00000000000E+00 0.  1.
<mgrwt>
<rscale>  0 0.24621479E+04</rscale>
<asrwt>0</asrwt>
<pdfrwt beam="1">  1        2 0.30180653E+00 0.24621479E+04</pdfrwt>
<pdfrwt beam="2">  1       -2 0.11885376E+00 0.24621479E+04</pdfrwt>
<totfact> 0.34139374E+00</totfact>
</mgrwt>
</event>
<event>
12    1  0.1562393E-007  0.1692635E+04  0.7818608E-02  0.8765576E-01
         -2   -1    0    0    0  501 -0.00000000000E+00  0.00000000000E+00  0.67209946784E+03  0.67209946784E+03  0.00000000000E+00 0.  1.
          2   -1    0    0  501    0  0.00000000000E+00 -0.00000000000E+00 -0.10656957618E+04  0.10656957618E+04  0.00000000000E+00 0. -1.
         23    2    1    2    0    0  0.19077343885E+03  0.33841478757E+03 -0.61065539838E+03  0.72862384483E+03  0.84104805226E+02 0.  0.
        254    2    1    2    0    0 -0.19077343885E+03 -0.33841478757E+03  0.21705910440E+03  0.10091713848E+04  0.90575557175E+03 0.  0.
        -24    2    4    4    0    0 -0.40789502746E+03 -0.47071751178E+03 -0.52061780119E+02  0.63024196727E+03  0.80877555839E+02 0.  0.
         24    2    4    4    0    0  0.21712158861E+03  0.13230272421E+03  0.26912088452E+03  0.37892941756E+03  0.80719625470E+02 0.  0.
         13    1    3    3    0    0  0.19337550261E+03  0.28881386698E+03 -0.54240652827E+03  0.64421454243E+03  0.00000000000E+00 0. -1.
        -13    1    3    3    0    0 -0.26020637665E+01  0.49600920593E+02 -0.68248870115E+02  0.84409302399E+02  0.00000000000E+00 0.  1.
          4    1    6    6  502    0  0.20176898926E+03  0.12888790421E+03  0.21236257077E+03  0.32003230828E+03  0.00000000000E+00 0. -1.
          1    1    5    5  503    0 -0.31422224280E+03 -0.38546716897E+03 -0.70371374801E+02  0.50226754486E+03  0.00000000000E+00 0. -1.
         -2    1    5    5    0  503 -0.93672784664E+02 -0.85250342809E+02  0.18309594682E+02  0.12797442242E+03  0.00000000000E+00 0.  1.
         -3    1    6    6    0  502  0.15352599352E+02  0.34148200005E+01  0.56758313745E+02  0.58897109281E+02  0.00000000000E+00 0.  1.
<mgrwt>
<rscale>  0 0.16926353E+04</rscale>
<asrwt>0</asrwt>
<pdfrwt beam="1">  1        2 0.16395319E+00 0.16926353E+04</pdfrwt>
<pdfrwt beam="2">  1       -2 0.10339992E+00 0.16926353E+04</pdfrwt>
<totfact> 0.16619136E+01</totfact>
</mgrwt>
</event>
<event>
12    1  0.1562393E-007  0.1967682E+04  0.7818608E-02  0.8621881E-01
         -1   -1    0    0    0  501 -0.00000000000E+00  0.00000000000E+00  0.75648715118E+03  0.75648715118E+03  0.00000000000E+00 0.  1.
          1   -1    0    0  501    0  0.00000000000E+00 -0.00000000000E+00 -0.12795236163E+04  0.12795236163E+04  0.00000000000E+00 0. -1.
         23    2    1    2    0    0  0.26635148296E+03 -0.42292004165E+03  0.39868822515E+03  0.64577166876E+03  0.90908048053E+02 0.  0.
        254    2    1    2    0    0 -0.26635148296E+03  0.42292004165E+03 -0.92172469028E+03  0.13902390987E+04  0.91289861039E+03 0.  0.
        -24    2    4    4    0    0  0.13459228434E+03  0.36949754171E+03 -0.89055580749E+03  0.97659841288E+03  0.77532557344E+02 0.  0.
         24    2    4    4    0    0 -0.40094376730E+03  0.53422499941E+02 -0.31168882792E+02  0.41364068585E+03  0.80729484732E+02 0.  0.
         11    1    3    3    0    0  0.24545964405E+03 -0.41465128304E+03  0.39486437719E+03  0.62297993528E+03  0.00000000000E+00 0.  1.
        -11    1    3    3    0    0  0.20891838911E+02 -0.82687586123E+01  0.38238479529E+01  0.22791733485E+02  0.00000000000E+00 0. -1.
          2    1    6    6  502    0 -0.39610849472E+03  0.56631922456E+02 -0.40992732577E+02  0.40223067804E+03  0.00000000000E+00 0. -1.
          3    1    5    5  503    0  0.68619486604E+02  0.28403321021E+03 -0.62498180821E+03  0.68991721173E+03  0.00000000000E+00 0. -1.
         -4    1    5    5    0  503  0.65972797733E+02  0.85464331499E+02 -0.26557399927E+03  0.28668120115E+03  0.00000000000E+00 0.  1.
         -1    1    6    6    0  502 -0.48352725757E+01 -0.32094225147E+01  0.98238497845E+01  0.11410007815E+02  0.00000000000E+00 0.  1.
<mgrwt>
<rscale>  0 0.19676821E+04</rscale>
<asrwt>0</asrwt>
<pdfrwt beam="1">  1        1 0.19684979E+00 0.19676821E+04</pdfrwt>
<pdfrwt beam="2">  1       -1 0.11638264E+00 0.19676821E+04</pdfrwt>
<totfact> 0.58053043E+00</totfact>
</mgrwt>
</event>
<event>
12    1  0.1562393E-007  0.1712285E+04  0.7818608E-02  0.8754389E-01
          1   -1    0    0  501    0  0.00000000000E+00  0.00000000000E+00  0.11833554899E+04  0.11833554899E+04  0.00000000000E+00 0. -1.
         -1   -1    0    0    0  501 -0.00000000000E+00 -0.00000000000E+00 -0.61940814486E+03  0.61940814486E+03  0.00000000000E+00 0.  1.
         23    2    1    2    0    0  0.18689754812E+03  0.16653207151E+03  0.78661273737E+03  0.83068334266E+03  0.92798668307E+02 0.  0.
        254    2    1    2    0    0 -0.18689754812E+03 -0.16653207151E+03 -0.22266539234E+03  0.97208029209E+03  0.91252210548E+03 0.  0.
        -24    2    4    4    0    0 -0.15111116206E+03 -0.27378553194E+03  0.29464784859E+03  0.43662223688E+03  0.77643559086E+02 0.  0.
         24    2    4    4    0    0 -0.35786386055E+02  0.10725346043E+03 -0.51731324093E+03  0.53545805521E+03  0.79488171737E+02 0.  0.
         11    1    3    3    0    0 -0.69341016624E+01  0.23871555736E+02  0.10249085378E+03  0.10546235370E+03  0.00000000000E+00 0.  1.
        -11    1    3    3    0    0  0.19383164978E+03  0.14266051577E+03  0.68412188359E+03  0.72522098896E+03  0.00000000000E+00 0. -1.
          4    1    6    6  502    0  0.22208750599E+02  0.88762408435E+01 -0.82301338934E+02  0.85706047891E+02  0.00000000000E+00 0. -1.
          3    1    5    5  503    0 -0.50073433570E+02 -0.81988405878E+02  0.14216963453E+03  0.17158569996E+03  0.00000000000E+00 0. -1.
         -4    1    5    5    0  503 -0.10103772849E+03 -0.19179712606E+03  0.15247821405E+03  0.26503653692E+03  0.00000000000E+00 0.  1.
         -3    1    6    6    0  502 -0.57995136654E+02  0.98377219587E+02 -0.43501190199E+03  0.44975200731E+03  0.00000000000E+00 0.  1.
<mgrwt>
<rscale>  0 0.17122851E+04</rscale>
<asrwt>0</asrwt>
<pdfrwt beam="1">  1        1 0.18205469E+00 0.17122851E+04</pdfrwt>
<pdfrwt beam="2">  1       -1 0.95293561E-01 0.17122851E+04</pdfrwt>
<totfact> 0.11111127E+01</totfact>
</mgrwt>
</event>
<event>
12    1  0.1562393E-007  0.2821900E+04  0.7818608E-02  0.8296501E-01
          1   -1    0    0  501    0  0.00000000000E+00  0.00000000000E+00  0.17441805041E+04  0.17441805041E+04  0.00000000000E+00 0. -1.
         -1   -1    0    0    0  501 -0.00000000000E+00 -0.00000000000E+00 -0.11413843152E+04  0.11413843152E+04  0.00000000000E+00 0.  1.
         23    2    1    2    0    0 -0.10599702005E+03  0.11852505564E+04 -0.16636451124E+03  0.12049659007E+04  0.90616895396E+02 0.  0.
        254    2    1    2    0    0  0.10599702005E+03 -0.11852505564E+04  0.76916070008E+03  0.16805989186E+04  0.90374238203E+03 0.  0.
        -24    2    4    4    0    0  0.37327044273E+03 -0.65370046064E+03  0.77047696404E+03  0.10801064431E+04  0.79624498469E+02 0.  0.
         24    2    4    4    0    0 -0.26727342268E+03 -0.53155009571E+03 -0.13162639616E+01  0.60049247546E+03  0.81295103217E+02 0.  0.
         13    1    3    3    0    0 -0.11680998633E+03  0.98052337575E+03 -0.11946198594E+03  0.99465663893E+03  0.00000000000E+00 0.  1.
        -13    1    3    3    0    0  0.10812966274E+02  0.20472718061E+03 -0.46902525292E+02  0.21030926180E+03  0.00000000000E+00 0. -1.
          2    1    6    6  502    0 -0.16682877285E+03 -0.33110409690E+03 -0.40234585535E+02  0.37293509396E+03  0.00000000000E+00 0. -1.
          1    1    5    5  503    0  0.31768533553E+03 -0.55844407756E+03  0.69495535219E+03  0.94643895826E+03  0.00000000000E+00 0. -1.
         -2    1    5    5    0  503  0.55585107206E+02 -0.95256383082E+02  0.75521611849E+02  0.13366748489E+03  0.00000000000E+00 0.  1.
         -1    1    6    6    0  502 -0.10044464983E+03 -0.20044599881E+03  0.38918321573E+02  0.22755738150E+03  0.00000000000E+00 0.  1.
<mgrwt>
<rscale>  0 0.28219003E+04</rscale>
<asrwt>0</asrwt>
<pdfrwt beam="1">  1        1 0.26833546E+00 0.28219003E+04</pdfrwt>
<pdfrwt beam="2">  1       -1 0.17559759E+00 0.28219003E+04</pdfrwt>
<totfact> 0.86044255E-01</totfact>
</mgrwt>
</event>
<event>
12    1  0.1562393E-007  0.1463512E+04  0.7818608E-02  0.8909086E-01
          2   -1    0    0  501    0  0.00000000000E+00  0.00000000000E+00  0.14729696344E+04  0.14729696344E+04  0.00000000000E+00 0.  1.
         -2   -1    0    0    0  501 -0.00000000000E+00 -0.00000000000E+00 -0.36352861440E+03  0.36352861440E+03  0.00000000000E+00 0. -1.
         23    2    1    2    0    0  0.38703729252E+03  0.73898418004E+02  0.80292064983E+02  0.41432356824E+03  0.99791590392E+02 0.  0.
        254    2    1    2    0    0 -0.38703729252E+03 -0.73898418004E+02  0.10291489550E+04  0.14221746805E+04  0.89898521036E+03 0.  0.
        -24    2    4    4    0    0 -0.29145785302E+03 -0.17563400565E+02 -0.72548403059E+02  0.31204895568E+03  0.82795693304E+02 0.  0.
         24    2    4    4    0    0 -0.95579439497E+02 -0.56335017439E+02  0.11016973581E+04  0.11101257249E+04  0.79580103171E+02 0.  0.
         13    1    3    3    0    0  0.22358231759E+03  0.62898695195E+02  0.92593474177E+02  0.25003769727E+03  0.00000000000E+00 0. -1.
        -13    1    3    3    0    0  0.16345497493E+03  0.10999722809E+02 -0.12301409193E+02  0.16428587096E+03  0.00000000000E+00 0.  1.
          2    1    6    6  502    0 -0.33416208052E+02 -0.54696738910E+02  0.76900878118E+03  0.77167537329E+03  0.00000000000E+00 0. -1.
          3    1    5    5  503    0 -0.25258958633E+03  0.86798799681E+00 -0.35105568557E+02  0.25501892767E+03  0.00000000000E+00 0. -1.
         -4    1    5    5    0  503 -0.38868266692E+02 -0.18431388562E+02 -0.37442834502E+02  0.57030028016E+02  0.00000000000E+00 0.  1.
         -1    1    6    6    0  502 -0.62163231445E+02 -0.16382785288E+01  0.33268857688E+03  0.33845035158E+03  0.00000000000E+00 0.  1.
<mgrwt>
<rscale>  0 0.14635117E+04</rscale>
<asrwt>0</asrwt>
<pdfrwt beam="1">  1        2 0.22661071E+00 0.14635117E+04</pdfrwt>
<pdfrwt beam="2">  1       -2 0.55927480E-01 0.14635117E+04</pdfrwt>
<totfact> 0.38242036E+01</totfact>
</mgrwt>
</event>
<event>
12    1  0.1562393E-007  0.1302982E+04  0.7818608E-02  0.9027204E-01
         -1   -1    0    0    0  501 -0.00000000000E+00  0.00000000000E+00  0.75559416987E+03  0.75559416987E+03  0.00000000000E+00 0.  1.
          1   -1    0    0  501    0  0.00000000000E+00 -0.00000000000E+00 -0.56173066992E+03  0.56173066992E+03  0.00000000000E+00 0. -1.
         23    2    1    2    0    0 -0.37853246600E+02 -0.26727863008E+03  0.24819561936E+03  0.37842578795E+03  0.93457354663E+02 0.  0.
        254    2    1    2    0    0  0.37853246600E+02  0.26727863008E+03 -0.54332119413E+02  0.93889905185E+03  0.89761278733E+03 0.  0.
        -24    2    4    4    0    0  0.32943817393E+03  0.83107892136E+02  0.28331723468E+03  0.44965500146E+03  0.80526596177E+02 0.  0.
         24    2    4    4    0    0 -0.29158492733E+03  0.18417073794E+03 -0.33764935410E+03  0.48924405039E+03  0.80075114486E+02 0.  0.
         11    1    3    3    0    0 -0.16001723869E+02 -0.26286757649E+03  0.22762723070E+03  0.34809420290E+03  0.00000000000E+00 0.  1.
        -11    1    3    3    0    0 -0.21851522730E+02 -0.44110535854E+01  0.20568388661E+02  0.30331585047E+02  0.00000000000E+00 0. -1.
          4    1    6    6  502    0 -0.17074384435E+03  0.13188750735E+03 -0.16237663020E+03  0.27002582287E+03  0.00000000000E+00 0. -1.
          1    1    5    5  503    0  0.28861081600E+03  0.42925659922E+02  0.23274132078E+03  0.37323898214E+03  0.00000000000E+00 0. -1.
         -2    1    5    5    0  503  0.40827357928E+02  0.40182232213E+02  0.50575913907E+02  0.76416019319E+02  0.00000000000E+00 0.  1.
         -3    1    6    6    0  502 -0.12084108297E+03  0.52283230591E+02 -0.17527272390E+03  0.21921822752E+03  0.00000000000E+00 0.  1.
<mgrwt>
<rscale>  0 0.13029818E+04</rscale>
<asrwt>0</asrwt>
<pdfrwt beam="1">  1        1 0.86420103E-01 0.13029818E+04</pdfrwt>
<pdfrwt beam="2">  1       -1 0.11624526E+00 0.13029818E+04</pdfrwt>
<totfact> 0.24744236E+01</totfact>
</mgrwt>
</event>
<event>
12    1  0.1562393E-007  0.2963078E+04  0.7818608E-02  0.8254353E-01
         -2   -1    0    0    0  501 -0.00000000000E+00  0.00000000000E+00  0.15352407466E+04  0.15352407466E+04  0.00000000000E+00 0.  1.
          2   -1    0    0  501    0  0.00000000000E+00 -0.00000000000E+00 -0.14297159579E+04  0.14297159579E+04  0.00000000000E+00 0. -1.
         23    2    1    2    0    0 -0.82306847972E+03  0.19629563870E+03  0.10966453927E+04  0.13884285425E+04  0.95545801178E+02 0.  0.
        254    2    1    2    0    0  0.82306847972E+03 -0.19629563870E+03 -0.99112060403E+03  0.15765281620E+04  0.88721321777E+03 0.  0.
        -24    2    4    4    0    0  0.98487091455E+03 -0.18711265263E+03 -0.96978168792E+03  0.13971172138E+04  0.80486793335E+02 0.  0.
         24    2    4    4    0    0 -0.16180243483E+03 -0.91829860727E+01 -0.21338916109E+02  0.17941094816E+03  0.73949873770E+02 0.  0.
         11    1    3    3    0    0 -0.55399125713E+02  0.30960447559E+02  0.55243440814E+02  0.84139468716E+02  0.00000000000E+00 0. -1.
        -11    1    3    3    0    0 -0.76766935401E+03  0.16533519114E+03  0.10414019519E+04  0.13042890738E+04  0.00000000000E+00 0.  1.
          4    1    6    6  502    0 -0.13283246954E+03  0.21565906529E+02 -0.68386097138E+01  0.13474538905E+03  0.00000000000E+00 0. -1.
          1    1    5    5  503    0  0.55155429648E+03 -0.14275176210E+03 -0.56916457901E+03  0.80531889680E+03  0.00000000000E+00 0. -1.
         -2    1    5    5    0  503  0.43331661807E+03 -0.44360890525E+02 -0.40061710891E+03  0.59179831704E+03  0.00000000000E+00 0.  1.
         -1    1    6    6    0  502 -0.28969965290E+02 -0.30748892602E+02 -0.14500306395E+02  0.44665559111E+02  0.00000000000E+00 0.  1.
<mgrwt>
<rscale>  0 0.29630783E+04</rscale>
<asrwt>0</asrwt>
<pdfrwt beam="1">  1        2 0.21995630E+00 0.29630783E+04</pdfrwt>
<pdfrwt beam="2">  1       -2 0.23619088E+00 0.29630783E+04</pdfrwt>
<totfact> 0.93461334E-01</totfact>
</mgrwt>
</event>
<event>
12    1  0.2039116E-007  0.1734562E+04  0.7818608E-02  0.8741894E-01
         -2   -1    0    0    0  501 -0.00000000000E+00  0.00000000000E+00  0.47828884697E+03  0.47828884697E+03  0.00000000000E+00 0. -1.
          2   -1    0    0  501    0  0.00000000000E+00 -0.00000000000E+00 -0.15726401891E+04  0.15726401891E+04  0.00000000000E+00 0.  1.
         23    2    1    2    0    0 -0.87429525233E+02 -0.23811043504E+03 -0.10910883013E+04  0.11239676689E+04  0.92136519595E+02 0.  0.
        254    2    1    2    0    0  0.87429525233E+02  0.23811043504E+03 -0.32630408040E+01  0.92696136718E+03  0.89157513853E+03 0.  0.
        -24    2    4    4    0    0 -0.11626576171E+03 -0.72759280000E+02 -0.36792996267E+03  0.40025088245E+03  0.77567205027E+02 0.  0.
         24    2    4    4    0    0  0.20369528694E+03  0.31086971504E+03  0.36466692187E+03  0.52671048473E+03  0.79436900511E+02 0.  0.
         13    1    3    3    0    0  0.15953471847E+02 -0.23213293538E+02 -0.17983359717E+03  0.18202607762E+03  0.00000000000E+00 0. -1.
        -13    1    3    3    0    0 -0.10338299708E+03 -0.21489714150E+03 -0.91125470414E+03  0.94194159125E+03  0.00000000000E+00 0.  1.
          4    1    6    6  502    0  0.19758304580E+03  0.31556382307E+03  0.35627861902E+03  0.51531935806E+03  0.00000000000E+00 0. -1.
          3    1    5    5  503    0 -0.12675575915E+03 -0.62886049096E+02 -0.34793733976E+03  0.37560893233E+03  0.00000000000E+00 0. -1.
         -4    1    5    5    0  503  0.10489997435E+02 -0.98732309033E+01 -0.19992622917E+02  0.24641950121E+02  0.00000000000E+00 0.  1.
         -3    1    6    6    0  502  0.61122411472E+01 -0.46941080335E+01  0.83883028469E+01  0.11391126666E+02  0.00000000000E+00 0.  1.
<mgrwt>
<rscale>  0 0.17345619E+04</rscale>
<asrwt>0</asrwt>
<pdfrwt beam="1">  1        2 0.24194464E+00 0.17345619E+04</pdfrwt>
<pdfrwt beam="2">  1       -2 0.73582900E-01 0.17345619E+04</pdfrwt>
<totfact> 0.18260500E+01</totfact>
</mgrwt>
</event>
<event>
12    1  0.1562393E-007  0.1835691E+04  0.7818608E-02  0.8687546E-01
         -1   -1    0    0    0  501 -0.00000000000E+00  0.00000000000E+00  0.33950324282E+03  0.33950324282E+03  0.00000000000E+00 0.  1.
          1   -1    0    0  501    0  0.00000000000E+00 -0.00000000000E+00 -0.24813920568E+04  0.24813920568E+04  0.00000000000E+00 0. -1.
         23    2    1    2    0    0 -0.82508738786E+02  0.64908419734E+02 -0.18534206971E+04  0.18603741059E+04  0.12166650517E+03 0.  0.
        254    2    1    2    0    0  0.82508738786E+02 -0.64908419734E+02 -0.28846811684E+03  0.96052119368E+03  0.91014631470E+03 0.  0.
        -24    2    4    4    0    0  0.62044472138E+02 -0.47574412640E+03 -0.85333993089E+02  0.49345934043E+03  0.77706112727E+02 0.  0.
         24    2    4    4    0    0  0.20464266648E+02  0.41083570667E+03 -0.20313412375E+03  0.46706185325E+03  0.87627269994E+02 0.  0.
         11    1    3    3    0    0  0.31115228905E+02  0.54124240927E+01 -0.44877383986E+03  0.44988377515E+03  0.00000000000E+00 0.  1.
        -11    1    3    3    0    0 -0.11362396769E+03  0.59495995641E+02 -0.14046468573E+04  0.14104903308E+04  0.00000000000E+00 0. -1.
          2    1    6    6  502    0 -0.33445807572E+02  0.12326713426E+03 -0.54043676327E+02  0.13868715652E+03  0.00000000000E+00 0. -1.
          3    1    5    5  503    0  0.68940092968E+02 -0.45929429778E+03 -0.69504291850E+02  0.46961136589E+03  0.00000000000E+00 0. -1.
         -4    1    5    5    0  503 -0.68956208300E+01 -0.16449828625E+02 -0.15829701239E+02  0.23847974541E+02  0.00000000000E+00 0.  1.
         -1    1    6    6    0  502  0.53910074220E+02  0.28756857241E+03 -0.14909044742E+03  0.32837469673E+03  0.00000000000E+00 0.  1.
<mgrwt>
<rscale>  0 0.18356913E+04</rscale>
<asrwt>0</asrwt>
<pdfrwt beam="1">  1        1 0.38175260E+00 0.18356913E+04</pdfrwt>
<pdfrwt beam="2">  1       -1 0.52231271E-01 0.18356913E+04</pdfrwt>
<totfact> 0.48515781E+00</totfact>
</mgrwt>
</event>
<event>
12    1  0.1562393E-007  0.1675667E+04  0.7818608E-02  0.8775365E-01
         -1   -1    0    0    0  501 -0.00000000000E+00  0.00000000000E+00  0.36928466227E+03  0.36928466227E+03  0.00000000000E+00 0.  1.
          1   -1    0    0  501    0  0.00000000000E+00 -0.00000000000E+00 -0.19008783191E+04  0.19008783191E+04  0.00000000000E+00 0. -1.
         23    2    1    2    0    0 -0.55820866260E+02  0.33577007057E+03  0.99542996325E+02  0.36586681507E+03  0.89956705430E+02 0.  0.
        254    2    1    2    0    0  0.55820866260E+02 -0.33577007057E+03 -0.16311366532E+04  0.19042961663E+04  0.92188914645E+03 0.  0.
        -24    2    4    4    0    0  0.27370927028E+03 -0.41876002883E+03 -0.15711440642E+04  0.16508241813E+04  0.80312393414E+02 0.  0.
         24    2    4    4    0    0 -0.21788840402E+03  0.82989958253E+02 -0.59992588960E+02  0.25347198506E+03  0.79285854383E+02 0.  0.
         11    1    3    3    0    0 -0.21872362109E+01  0.42783777987E+02 -0.16909838372E+02  0.46056251419E+02  0.00000000000E+00 0. -1.
        -11    1    3    3    0    0 -0.53633630049E+02  0.29298629259E+03  0.11645283470E+03  0.31981056365E+03  0.00000000000E+00 0.  1.
          2    1    6    6  502    0 -0.70551868277E+02 -0.15925118052E+01  0.68606280318E+01  0.70902541761E+02  0.00000000000E+00 0. -1.
          3    1    5    5  503    0  0.12704910744E+03 -0.13474969453E+03 -0.64565260427E+03  0.67168909569E+03  0.00000000000E+00 0. -1.
         -4    1    5    5    0  503  0.14666016284E+03 -0.28401033429E+03 -0.92549145996E+03  0.97913508558E+03  0.00000000000E+00 0.  1.
         -1    1    6    6    0  502 -0.14733653574E+03  0.84582470058E+02 -0.66853216992E+02  0.18256944330E+03  0.00000000000E+00 0.  1.
<mgrwt>
<rscale>  0 0.16756673E+04</rscale>
<asrwt>0</asrwt>
<pdfrwt beam="1">  1        1 0.29244281E+00 0.16756673E+04</pdfrwt>
<pdfrwt beam="2">  1       -1 0.56813026E-01 0.16756673E+04</pdfrwt>
<totfact> 0.10407001E+01</totfact>
</mgrwt>
</event>
<event>
12    1  0.1562393E-007  0.1531727E+04  0.7818608E-02  0.8863624E-01
          1   -1    0    0  501    0  0.00000000000E+00  0.00000000000E+00  0.18964872057E+04  0.18964872057E+04  0.00000000000E+00 0. -1.
         -1   -1    0    0    0  501 -0.00000000000E+00 -0.00000000000E+00 -0.30928084446E+03  0.30928084446E+03  0.00000000000E+00 0.  1.
         23    2    1    2    0    0  0.46939509219E+01 -0.15406155773E+03  0.12293926992E+04  0.12424052927E+04  0.91692451664E+02 0.  0.
        254    2    1    2    0    0 -0.46939509219E+01  0.15406155773E+03  0.35781366201E+03  0.96336275744E+03  0.88106764153E+03 0.  0.
        -24    2    4    4    0    0 -0.57745160787E+02  0.50047242804E+03  0.96724101960E+02  0.51916937267E+03  0.79838153727E+02 0.  0.
         24    2    4    4    0    0  0.53051209865E+02 -0.34641087031E+03  0.26108956005E+03  0.44419338477E+03  0.79530388953E+02 0.  0.
         11    1    3    3    0    0 -0.12357246946E+02 -0.26990032850E+02  0.71232691059E+02  0.77170329148E+02  0.00000000000E+00 0.  1.
        -11    1    3    3    0    0  0.17051197868E+02 -0.12707152488E+03  0.11581600082E+04  0.11652349636E+04  0.00000000000E+00 0. -1.
          4    1    6    6  502    0  0.31315561539E+02 -0.30097706032E+03  0.25025171000E+03  0.39267515021E+03  0.00000000000E+00 0. -1.
          1    1    5    5  503    0  0.19942129084E+02  0.13257520164E+03  0.26179382452E+02  0.13659880185E+03  0.00000000000E+00 0. -1.
         -2    1    5    5    0  503 -0.77687289871E+02  0.36789722640E+03  0.70544719508E+02  0.38257057081E+03  0.00000000000E+00 0.  1.
         -3    1    6    6    0  502  0.21735648326E+02 -0.45433809991E+02  0.10837850050E+02  0.51518234560E+02  0.00000000000E+00 0.  1.
<mgrwt>
<rscale>  0 0.15317273E+04</rscale>
<asrwt>0</asrwt>
<pdfrwt beam="1">  1        1 0.29176726E+00 0.15317273E+04</pdfrwt>
<pdfrwt beam="2">  1       -1 0.47581669E-01 0.15317273E+04</pdfrwt>
<totfact> 0.14911243E+01</totfact>
</mgrwt>
</event>
<event>
12    1  0.1562393E-007  0.1681914E+04  0.7818608E-02  0.8771747E-01
          2   -1    0    0  501    0  0.00000000000E+00  0.00000000000E+00  0.22020560380E+04  0.22020560380E+04  0.00000000000E+00 0. -1.
         -2   -1    0    0    0  501 -0.00000000000E+00 -0.00000000000E+00 -0.32115835484E+03  0.32115835484E+03  0.00000000000E+00 0.  1.
         23    2    1    2    0    0 -0.42575588944E+03 -0.31073616194E+03  0.10517109316E+04  0.11800901940E+04  0.93230587736E+02 0.  0.
        254    2    1    2    0    0  0.42575588944E+03  0.31073616194E+03  0.82918675154E+03  0.13431241989E+04  0.91575482797E+03 0.  0.
        -24    2    4    4    0    0 -0.12250338631E+03 -0.21683983393E+03  0.36014714503E+03  0.44513223345E+03  0.80063387093E+02 0.  0.
         24    2    4    4    0    0  0.54825927574E+03  0.52757599587E+03  0.46903960652E+03  0.89799196542E+03  0.86410373380E+02 0.  0.
         13    1    3    3    0    0 -0.40599104309E+03 -0.27153519581E+03  0.99458853018E+03  0.11080462238E+04  0.00000000000E+00 0. -1.
        -13    1    3    3    0    0 -0.19764846344E+02 -0.39200966128E+02  0.57122401425E+02  0.72043970191E+02  0.00000000000E+00 0.  1.
          2    1    6    6  502    0  0.16051819580E+03  0.19690061997E+03  0.12495716087E+03  0.28310817257E+03  0.00000000000E+00 0. -1.
          1    1    5    5  503    0  0.11285095570E+02 -0.12922313771E+02  0.31592003869E+02  0.35949885725E+02  0.00000000000E+00 0. -1.
         -2    1    5    5    0  503 -0.13378848188E+03 -0.20391752016E+03  0.32855514116E+03  0.40918234773E+03  0.00000000000E+00 0.  1.
         -1    1    6    6    0  502  0.38774107995E+03  0.33067537590E+03  0.34408244565E+03  0.61488379285E+03  0.00000000000E+00 0.  1.
<mgrwt>
<rscale>  0 0.16819140E+04</rscale>
<asrwt>0</asrwt>
<pdfrwt beam="1">  1        2 0.33877784E+00 0.16819140E+04</pdfrwt>
<pdfrwt beam="2">  1       -2 0.49408979E-01 0.16819140E+04</pdfrwt>
<totfact> 0.19038047E+01</totfact>
</mgrwt>
</event>
<event>
12    1  0.1562393E-007  0.2169059E+04  0.7818608E-02  0.8531418E-01
          2   -1    0    0  501    0  0.00000000000E+00  0.00000000000E+00  0.21503927305E+04  0.21503927305E+04  0.00000000000E+00 0. -1.
         -2   -1    0    0    0  501 -0.00000000000E+00 -0.00000000000E+00 -0.54697164460E+03  0.54697164460E+03  0.00000000000E+00 0.  1.
         23    2    1    2    0    0  0.14259872312E+03 -0.28008735676E+02  0.17099594657E+04  0.17184556369E+04  0.89495901676E+02 0.  0.
        254    2    1    2    0    0 -0.14259872312E+03  0.28008735676E+02 -0.10653837985E+03  0.97890873819E+03  0.96218137907E+03 0.  0.
        -24    2    4    4    0    0 -0.21904254209E+03  0.39725438975E+03 -0.29748182746E+03  0.54831559272E+03  0.79773843662E+02 0.  0.
         24    2    4    4    0    0  0.76443818970E+02 -0.36924565408E+03  0.19094344761E+03  0.43059314547E+03  0.82249901068E+02 0.  0.
         11    1    3    3    0    0  0.13859242922E+03 -0.50040752706E+02  0.15384818396E+04  0.15455220184E+04  0.00000000000E+00 0. -1.
        -11    1    3    3    0    0  0.40062939009E+01  0.22032017030E+02  0.17147762607E+03  0.17293361850E+03  0.00000000000E+00 0.  1.
          2    1    6    6  502    0 -0.17374809660E+02 -0.41580370564E+02  0.24432619565E+02  0.51261721838E+02  0.00000000000E+00 0. -1.
          1    1    5    5  503    0 -0.78285383337E+02  0.78347352022E+02 -0.54812114600E+02  0.12357700725E+03  0.00000000000E+00 0. -1.
         -2    1    5    5    0  503 -0.14075715876E+03  0.31890703773E+03 -0.24266971286E+03  0.42473858548E+03  0.00000000000E+00 0.  1.
         -1    1    6    6    0  502  0.93818628630E+02 -0.32766528351E+03  0.16651082805E+03  0.37933142363E+03  0.00000000000E+00 0.  1.
<mgrwt>
<rscale>  0 0.21690586E+04</rscale>
<asrwt>0</asrwt>
<pdfrwt beam="1">  1        2 0.33082965E+00 0.21690586E+04</pdfrwt>
<pdfrwt beam="2">  1       -2 0.84149485E-01 0.21690586E+04</pdfrwt>
<totfact> 0.62196723E+00</totfact>
</mgrwt>
</event>
<event>
12    1  0.1562393E-007  0.1309484E+04  0.7818608E-02  0.9022078E-01
          2   -1    0    0  501    0  0.00000000000E+00  0.00000000000E+00  0.96720083848E+03  0.96720083848E+03  0.00000000000E+00 0.  1.
         -2   -1    0    0    0  501 -0.00000000000E+00 -0.00000000000E+00 -0.44322455676E+03  0.44322455676E+03  0.00000000000E+00 0. -1.
         23    2    1    2    0    0 -0.28187992295E+03  0.17396973887E+02 -0.72638858516E+02  0.30650835489E+03  0.94403507267E+02 0.  0.
        254    2    1    2    0    0  0.28187992295E+03 -0.17396973887E+02  0.59661514024E+03  0.11039170404E+04  0.88483007450E+03 0.  0.
        -24    2    4    4    0    0  0.42938114772E+02 -0.43177256295E+03  0.26990954446E+03  0.51873269379E+03  0.89225655496E+02 0.  0.
         24    2    4    4    0    0  0.23894180818E+03  0.41437558906E+03  0.32670559578E+03  0.58518434656E+03  0.83089449621E+02 0.  0.
         11    1    3    3    0    0 -0.21354053362E+03  0.27872150048E+02 -0.92793241790E+02  0.23449307446E+03  0.00000000000E+00 0. -1.
        -11    1    3    3    0    0 -0.68339389330E+02 -0.10475176161E+02  0.20154383274E+02  0.72015280426E+02  0.00000000000E+00 0.  1.
          2    1    6    6  502    0  0.22610361805E+02  0.10323352650E+03  0.57213315304E+02  0.12017384451E+03  0.00000000000E+00 0. -1.
          1    1    5    5  503    0  0.23502682128E+02 -0.44652736940E+02  0.58370254115E+02  0.77157822344E+02  0.00000000000E+00 0. -1.
         -2    1    5    5    0  503  0.19435432644E+02 -0.38711982601E+03  0.21153929034E+03  0.44157487144E+03  0.00000000000E+00 0.  1.
         -1    1    6    6    0  502  0.21633144638E+03  0.31114206256E+03  0.26949228048E+03  0.46501050206E+03  0.00000000000E+00 0.  1.
<mgrwt>
<rscale>  0 0.13094841E+04</rscale>
<asrwt>0</asrwt>
<pdfrwt beam="1">  1        2 0.14880013E+00 0.13094841E+04</pdfrwt>
<pdfrwt beam="2">  1       -2 0.68188393E-01 0.13094841E+04</pdfrwt>
<totfact> 0.51015010E+01</totfact>
</mgrwt>
</event>
<event>
12    1  0.1562393E-007  0.1607374E+04  0.7818608E-02  0.8816031E-01
          2   -1    0    0  501    0  0.00000000000E+00  0.00000000000E+00  0.12182131782E+04  0.12182131782E+04  0.00000000000E+00 0. -1.
         -2   -1    0    0    0  501 -0.00000000000E+00 -0.00000000000E+00 -0.53021315598E+03  0.53021315598E+03  0.00000000000E+00 0.  1.
         23    2    1    2    0    0 -0.47439067462E+03  0.12634219422E+03 -0.34581221321E+02  0.50033255211E+03  0.90155086499E+02 0.  0.
        254    2    1    2    0    0  0.47439067462E+03 -0.12634219422E+03  0.72258124356E+03  0.12480937821E+04  0.89140651399E+03 0.  0.
        -24    2    4    4    0    0  0.41619219873E+03 -0.13820836721E+03  0.92270472245E+03  0.10245630284E+04  0.77639522080E+02 0.  0.
         24    2    4    4    0    0  0.58198475892E+02  0.11866172985E+02 -0.20012347888E+03  0.22353075366E+03  0.79929483765E+02 0.  0.
         13    1    3    3    0    0 -0.20832548824E+03  0.69861954348E+02 -0.58230154448E+02  0.22731245589E+03  0.00000000000E+00 0.  1.
        -13    1    3    3    0    0 -0.26606518638E+03  0.56480239874E+02  0.23648933128E+02  0.27302009621E+03  0.00000000000E+00 0. -1.
          2    1    6    6  502    0  0.30768913719E+02 -0.25009645704E+02 -0.37636280221E+02  0.54668985893E+02  0.00000000000E+00 0. -1.
          3    1    5    5  503    0  0.10798133498E+03 -0.10223662024E+02  0.28227775940E+03  0.30239911611E+03  0.00000000000E+00 0. -1.
         -4    1    5    5    0  503  0.30821086374E+03 -0.12798470518E+03  0.64042696304E+03  0.72216391234E+03  0.00000000000E+00 0.  1.
         -1    1    6    6    0  502  0.27429562173E+02  0.36875818689E+02 -0.16248719866E+03  0.16886176777E+03  0.00000000000E+00 0.  1.
<mgrwt>
<rscale>  0 0.16073738E+04</rscale>
<asrwt>0</asrwt>
<pdfrwt beam="1">  1        2 0.18741741E+00 0.16073738E+04</pdfrwt>
<pdfrwt beam="2">  1       -2 0.81571255E-01 0.16073738E+04</pdfrwt>
<totfact> 0.23424383E+01</totfact>
</mgrwt>
</event>
<event>
12    1  0.1562393E-007  0.2444357E+04  0.7818608E-02  0.8423081E-01
          1   -1    0    0  501    0  0.00000000000E+00  0.00000000000E+00  0.12234805047E+04  0.12234805047E+04  0.00000000000E+00 0. -1.
         -1   -1    0    0    0  501 -0.00000000000E+00 -0.00000000000E+00 -0.12208777729E+04  0.12208777729E+04  0.00000000000E+00 0.  1.
         23    2    1    2    0    0 -0.48191595635E+03  0.14859448572E+03  0.92126636441E+03  0.10538698121E+04  0.87100841352E+02 0.  0.
        254    2    1    2    0    0  0.48191595635E+03 -0.14859448572E+03 -0.91866363260E+03  0.13904884654E+04  0.91388839160E+03 0.  0.
        -24    2    4    4    0    0  0.28058092584E+02 -0.45904865145E+03 -0.28267740363E+03  0.54599476535E+03  0.81797605769E+02 0.  0.
         24    2    4    4    0    0  0.45385786377E+03  0.31045416572E+03 -0.63598622897E+03  0.84449370002E+03  0.79513372582E+02 0.  0.
         11    1    3    3    0    0 -0.43136907437E+03  0.12014840557E+03  0.85942119992E+03  0.96908189362E+03  0.00000000000E+00 0. -1.
        -11    1    3    3    0    0 -0.50546881987E+02  0.28446080152E+02  0.61845164490E+02  0.84787918511E+02  0.00000000000E+00 0.  1.
          4    1    6    6  502    0  0.26353507959E+03  0.21942587827E+03 -0.36120350954E+03  0.49806267631E+03  0.00000000000E+00 0. -1.
          3    1    5    5  503    0 -0.79172321004E+01 -0.19993543040E+01 -0.85739954024E+01  0.11840328497E+02  0.00000000000E+00 0. -1.
         -2    1    5    5    0  503  0.35975324684E+02 -0.45704929714E+03 -0.27410340823E+03  0.53415443685E+03  0.00000000000E+00 0.  1.
         -3    1    6    6    0  502  0.19032278417E+03  0.91028287458E+02 -0.27478271943E+03  0.34643102371E+03  0.00000000000E+00 0.  1.
<mgrwt>
<rscale>  0 0.24443569E+04</rscale>
<asrwt>0</asrwt>
<pdfrwt beam="1">  1        1 0.18822777E+00 0.24443569E+04</pdfrwt>
<pdfrwt beam="2">  1       -1 0.18782735E+00 0.24443569E+04</pdfrwt>
<totfact> 0.16784686E+00</totfact>
</mgrwt>
</event>
<event>
12    1  0.1562393E-007  0.1310000E+04  0.7818608E-02  0.9021673E-01
         -2   -1    0    0    0  501 -0.00000000000E+00  0.00000000000E+00  0.11454121784E+03  0.11454121784E+03  0.00000000000E+00 0.  1.
          2   -1    0    0  501    0  0.00000000000E+00 -0.00000000000E+00 -0.37455933933E+04  0.37455933933E+04  0.00000000000E+00 0. -1.
         23    2    1    2    0    0  0.55521701098E+02 -0.11504271001E+03 -0.18933566267E+04  0.18998591372E+04  0.91367068191E+02 0.  0.
        254    2    1    2    0    0 -0.55521701098E+02  0.11504271001E+03 -0.17376955488E+04  0.19602754739E+04  0.89820745315E+03 0.  0.
        -24    2    4    4    0    0 -0.17520950791E+03  0.43730594199E+01  0.19105915782E+02  0.19414139050E+03  0.81291747274E+02 0.  0.
         24    2    4    4    0    0  0.11968780682E+03  0.11066965059E+03 -0.17568014645E+04  0.17661340834E+04  0.79405742908E+02 0.  0.
         13    1    3    3    0    0 -0.47834926360E+01 -0.66605968928E+02 -0.51166660185E+03  0.51600576387E+03  0.00000000000E+00 0. -1.
        -13    1    3    3    0    0  0.60305193734E+02 -0.48436741083E+02 -0.13816900248E+04  0.13838533734E+04  0.00000000000E+00 0.  1.
          2    1    6    6  502    0 -0.88324140776E+01  0.25587554016E+02 -0.24005351364E+03  0.24157488253E+03  0.00000000000E+00 0. -1.
          3    1    5    5  503    0 -0.32815668284E+02  0.29866051353E+02 -0.12442608296E+02  0.46083268216E+02  0.00000000000E+00 0. -1.
         -4    1    5    5    0  503 -0.14239383963E+03 -0.25492991933E+02  0.31548524077E+02  0.14805812228E+03  0.00000000000E+00 0.  1.
         -1    1    6    6    0  502  0.12852022089E+03  0.85082096575E+02 -0.15167479509E+04  0.15245592009E+04  0.00000000000E+00 0.  1.
<mgrwt>
<rscale>  0 0.13099997E+04</rscale>
<asrwt>0</asrwt>
<pdfrwt beam="1">  1        2 0.57624521E+00 0.13099997E+04</pdfrwt>
<pdfrwt beam="2">  1       -2 0.17621723E-01 0.13099997E+04</pdfrwt>
<totfact> 0.14468817E+01</totfact>
</mgrwt>
</event>
<event>
12    1  0.1562393E-007  0.2851695E+04  0.7818608E-02  0.8287396E-01
         -2   -1    0    0    0  501 -0.00000000000E+00  0.00000000000E+00  0.12285996625E+04  0.12285996625E+04  0.00000000000E+00 0.  1.
          2   -1    0    0  501    0  0.00000000000E+00 -0.00000000000E+00 -0.16547631955E+04  0.16547631955E+04  0.00000000000E+00 0. -1.
         23    2    1    2    0    0 -0.10429453476E+04  0.74757228822E+03 -0.19102331411E+03  0.13003634760E+04  0.88633735332E+02 0.  0.
        254    2    1    2    0    0  0.10429453476E+04 -0.74757228822E+03 -0.23514021893E+03  0.15829993820E+04  0.89665868458E+03 0.  0.
        -24    2    4    4    0    0  0.92725344920E+03 -0.61318902034E+03  0.17586831578E+03  0.11284659800E+04  0.81890596732E+02 0.  0.
         24    2    4    4    0    0  0.11569189836E+03 -0.13438326788E+03 -0.41100853471E+03  0.45453340195E+03  0.78924773400E+02 0.  0.
         13    1    3    3    0    0 -0.51989956943E+03  0.39476434846E+03 -0.13808158437E+03  0.66723382486E+03  0.00000000000E+00 0.  1.
        -13    1    3    3    0    0 -0.52304577813E+03  0.35280793977E+03 -0.52941729741E+02  0.63312965113E+03  0.00000000000E+00 0. -1.
          2    1    6    6  502    0  0.71964899046E+02 -0.13008206732E+03 -0.33923083449E+03  0.37037528265E+03  0.00000000000E+00 0. -1.
          1    1    5    5  503    0  0.71297528287E+03 -0.45204517649E+03  0.10183262409E+03  0.85032257344E+03  0.00000000000E+00 0. -1.
         -2    1    5    5    0  503  0.21427816633E+03 -0.16114384385E+03  0.74035691689E+02  0.27814340657E+03  0.00000000000E+00 0.  1.
         -1    1    6    6    0  502  0.43726999311E+02 -0.43012005575E+01 -0.71777700221E+02  0.84158119300E+02  0.00000000000E+00 0.  1.
<mgrwt>
<rscale>  0 0.28516953E+04</rscale>
<asrwt>0</asrwt>
<pdfrwt beam="1">  1        2 0.25457895E+00 0.28516953E+04</pdfrwt>
<pdfrwt beam="2">  1       -2 0.18901533E+00 0.28516953E+04</pdfrwt>
<totfact> 0.14174835E+00</totfact>
</mgrwt>
</event>
<event>
12    1  0.1562393E-007  0.1322417E+04  0.7818608E-02  0.9011975E-01
          1   -1    0    0  501    0  0.00000000000E+00  0.00000000000E+00  0.34923388960E+03  0.34923388960E+03  0.00000000000E+00 0. -1.
         -1   -1    0    0    0  501 -0.00000000000E+00 -0.00000000000E+00 -0.12518729651E+04  0.12518729651E+04  0.00000000000E+00 0.  1.
         23    2    1    2    0    0  0.17996850404E+03 -0.25438717540E+03 -0.37229759845E+03  0.49438454230E+03  0.93322432460E+02 0.  0.
        254    2    1    2    0    0 -0.17996850404E+03  0.25438717540E+03 -0.53034147702E+03  0.11067223124E+04  0.92003842148E+03 0.  0.
        -24    2    4    4    0    0 -0.39887103419E+03  0.37290802547E+03 -0.62069465798E+03  0.83064152291E+03  0.80901073933E+02 0.  0.
         24    2    4    4    0    0  0.21890253015E+03 -0.11852085008E+03  0.90353180964E+02  0.27608078946E+03  0.78047391920E+02 0.  0.
         11    1    3    3    0    0  0.83353184288E+01  0.29392205866E+01 -0.37689998328E+02  0.38712433726E+02  0.00000000000E+00 0. -1.
        -11    1    3    3    0    0  0.17163318561E+03 -0.25732639598E+03 -0.33460760012E+03  0.45567210857E+03  0.00000000000E+00 0.  1.
          2    1    6    6  502    0  0.20077665376E+03 -0.10788466249E+03  0.10450688798E+03  0.25074300535E+03  0.00000000000E+00 0. -1.
          3    1    5    5  503    0 -0.10287404850E+03  0.13811381958E+03 -0.22770557459E+03  0.28549662995E+03  0.00000000000E+00 0. -1.
         -4    1    5    5    0  503 -0.29599698569E+03  0.23479420589E+03 -0.39298908339E+03  0.54514489296E+03  0.00000000000E+00 0.  1.
         -1    1    6    6    0  502  0.18125876397E+02 -0.10636187583E+02 -0.14153707012E+02  0.25337784110E+02  0.00000000000E+00 0.  1.
<mgrwt>
<rscale>  0 0.13224167E+04</rscale>
<asrwt>0</asrwt>
<pdfrwt beam="1">  1        1 0.53728291E-01 0.13224167E+04</pdfrwt>
<pdfrwt beam="2">  1       -1 0.19259584E+00 0.13224167E+04</pdfrwt>
<totfact> 0.11937445E+01</totfact>
</mgrwt>
</event>
