<event>
12    1  0.1536693E-007  0.1284377E+04  0.7818608E-02  0.9042047E-01
         -2   -1    0    0    0  501 -0.00000000000E+00  0.00000000000E+00  0.83089532023E+03  0.83089532023E+03  0.00000000000E+00 0.  1.
          2   -1    0    0  501    0  0.00000000000E+00 -0.00000000000E+00 -0.22257554121E+04  0.22257554121E+04  0.00000000000E+00 0. -1.
         23    2    1    2    0    0  0.24747846904E+03  0.12560007453E+04 -0.46644886499E+03  0.13652801324E+04  0.87360353985E+02 0.  0.
    5000000    2    1    2    0    0 -0.24747846904E+03 -0.12560007453E+04 -0.92841122686E+03  0.16913705999E+04  0.60000302917E+03 0.  0.
         23    2    4    4    0    0 -0.15244157871E+03 -0.79997343326E+03 -0.23871064031E+03  0.85348906079E+03  0.90911375804E+02 0.  0.
         23    2    4    4    0    0 -0.95036890333E+02 -0.45602731208E+03 -0.68970058655E+03  0.83788153908E+03  0.96776311972E+02 0.  0.
          1    1    3    3  502    0  0.59298404216E+02  0.28591432152E+03 -0.14589685496E+03  0.32641873763E+03  0.00000000000E+00 0. -1.
         -1    1    3    3    0  502  0.18818006482E+03  0.97008642383E+03 -0.32055201003E+03  0.10388613948E+04  0.00000000000E+00 0.  1.
         13    1    5    5    0    0 -0.12826274869E+03 -0.48596572501E+03 -0.11848524435E+03  0.51638432559E+03  0.00000000000E+00 0. -1.
        -13    1    5    5    0    0 -0.24178830023E+02 -0.31400770825E+03 -0.12022539596E+03  0.33710473521E+03  0.00000000000E+00 0.  1.
          2    1    6    6  503    0 -0.76662184393E+02 -0.19743963993E+03 -0.25216587571E+03  0.32931311969E+03  0.00000000000E+00 0. -1.
         -2    1    6    6    0  503 -0.18374705939E+02 -0.25858767215E+03 -0.43753471084E+03  0.50856841939E+03  0.00000000000E+00 0.  1.
<mgrwt>
<rscale>  0 0.12843766E+04</rscale>
<asrwt>0</asrwt>
<pdfrwt beam="1">  1        2 0.34242391E+00 0.12843766E+04</pdfrwt>
<pdfrwt beam="2">  1       -2 0.12783005E+00 0.12843766E+04</pdfrwt>
<totfact> 0.21908707E+00</totfact>
</mgrwt>
</event>
<event>
12    1  0.1432447E-007  0.1012508E+04  0.7818608E-02  0.9294931E-01
         -2   -1    0    0    0  501 -0.00000000000E+00  0.00000000000E+00  0.70826162814E+03  0.70826162814E+03  0.00000000000E+00 0.  1.
          2   -1    0    0  501    0  0.00000000000E+00 -0.00000000000E+00 -0.16542494027E+04  0.16542494027E+04  0.00000000000E+00 0. -1.
         23    2    1    2    0    0 -0.56747491703E+03  0.79567709843E+03 -0.65305432823E+03  0.11788958823E+04  0.90474965385E+02 0.  0.
    5000000    2    1    2    0    0  0.56747491703E+03 -0.79567709843E+03 -0.29293344628E+03  0.11836151484E+04  0.60000415769E+03 0.  0.
         23    2    4    4    0    0  0.29668386880E+03 -0.15699941768E+03  0.12439597749E+03  0.36886962546E+03  0.88996102230E+02 0.  0.
         23    2    4    4    0    0  0.27079104823E+03 -0.63867768075E+03 -0.41732942377E+03  0.81474552299E+03  0.91703040230E+02 0.  0.
          3    1    3    3  502    0 -0.32985376047E+03  0.51353888657E+03 -0.44548384477E+03  0.75563320948E+03  0.00000000000E+00 0. -1.
         -3    1    3    3    0  502 -0.23762115656E+03  0.28213821186E+03 -0.20757048346E+03  0.42326267287E+03  0.00000000000E+00 0.  1.
         13    1    5    5    0    0  0.19372590091E+03 -0.14793071315E+03  0.82268601414E+02  0.25725734849E+03  0.00000000000E+00 0. -1.
        -13    1    5    5    0    0  0.10295796789E+03 -0.90687045312E+01  0.42127376076E+02  0.11161227697E+03  0.00000000000E+00 0.  1.
          4    1    6    6  503    0  0.14220427890E+03 -0.23144876297E+03 -0.18419845148E+03  0.32820672806E+03  0.00000000000E+00 0.  1.
         -4    1    6    6    0  503  0.12858676933E+03 -0.40722891778E+03 -0.23313097229E+03  0.48653879493E+03  0.00000000000E+00 0. -1.
<mgrwt>
<rscale>  0 0.10125084E+04</rscale>
<asrwt>0</asrwt>
<pdfrwt beam="1">  1        2 0.25449991E+00 0.10125084E+04</pdfrwt>
<pdfrwt beam="2">  1       -2 0.10896333E+00 0.10125084E+04</pdfrwt>
<totfact> 0.69539928E+00</totfact>
</mgrwt>
</event>
<event>
12    1  0.1432447E-007  0.8261383E+03  0.7818608E-02  0.9522935E-01
         -4   -1    0    0    0  501 -0.00000000000E+00  0.00000000000E+00  0.89668829560E+03  0.89668829560E+03  0.00000000000E+00 0. -1.
          4   -1    0    0  501    0  0.00000000000E+00 -0.00000000000E+00 -0.84977649340E+03  0.84977649340E+03  0.00000000000E+00 0.  1.
         23    2    1    2    0    0  0.57048944971E+03 -0.51130611625E+03 -0.12146415511E+02  0.77155765110E+03  0.90892886507E+02 0.  0.
    5000000    2    1    2    0    0 -0.57048944971E+03  0.51130611625E+03  0.59058217709E+02  0.97490713791E+03  0.60005324575E+03 0.  0.
         23    2    4    4    0    0  0.46458960658E+02  0.74480678537E+02 -0.13891735091E+03  0.18816641596E+03  0.91666587204E+02 0.  0.
         23    2    4    4    0    0 -0.61694841037E+03  0.43682543771E+03  0.19797556862E+03  0.78674072195E+03  0.91240526763E+02 0.  0.
          2    1    3    3  502    0  0.42914271608E+03 -0.43216503064E+03 -0.20053012330E+02  0.60937033713E+03  0.00000000000E+00 0.  1.
         -2    1    3    3    0  502  0.14134673363E+03 -0.79141085608E+02  0.79065968194E+01  0.16218731396E+03  0.00000000000E+00 0. -1.
         11    1    5    5    0    0 -0.20172081419E+02  0.47547869532E-01 -0.51900263497E+02  0.55682604829E+02  0.00000000000E+00 0.  1.
        -11    1    5    5    0    0  0.66631042077E+02  0.74433130667E+02 -0.87017087414E+02  0.13248381113E+03  0.00000000000E+00 0. -1.
          1    1    6    6  503    0 -0.46683753501E+03  0.37510089072E+03  0.16405226498E+03  0.62092761894E+03  0.00000000000E+00 0. -1.
         -1    1    6    6    0  503 -0.15011087536E+03  0.61724546984E+02  0.33923303641E+02  0.16581310301E+03  0.00000000000E+00 0.  1.
<mgrwt>
<rscale>  0 0.82613828E+03</rscale>
<asrwt>0</asrwt>
<pdfrwt beam="1">  1        4 0.13073484E+00 0.82613828E+03</pdfrwt>
<pdfrwt beam="2">  1       -4 0.13795205E+00 0.82613828E+03</pdfrwt>
<totfact> 0.30782944E-01</totfact>
</mgrwt>
</event>
<event>
12    1  0.1432447E-007  0.1331876E+04  0.7818608E-02  0.9004662E-01
         -1   -1    0    0    0  501 -0.00000000000E+00  0.00000000000E+00  0.11010335631E+04  0.11010335631E+04  0.00000000000E+00 0.  1.
          1   -1    0    0  501    0  0.00000000000E+00 -0.00000000000E+00 -0.20818598634E+04  0.20818598634E+04  0.00000000000E+00 0. -1.
         23    2    1    2    0    0  0.53894858124E+03 -0.12098530462E+04 -0.10997735397E+04  0.17240481559E+04  0.92899078609E+02 0.  0.
    5000000    2    1    2    0    0 -0.53894858124E+03  0.12098530462E+04  0.11894723934E+03  0.14588452706E+04  0.59989258305E+03 0.  0.
         23    2    4    4    0    0 -0.13380477116E+03  0.33308162805E+03 -0.21882953710E+03  0.43060690089E+03  0.93213996034E+02 0.  0.
         23    2    4    4    0    0 -0.40514381008E+03  0.87677141813E+03  0.33777677645E+03  0.10282383697E+04  0.10154490494E+03 0.  0.
          2    1    3    3  502    0  0.28477914058E+02 -0.74396207061E+02 -0.40053755187E+02  0.89163280103E+02  0.00000000000E+00 0. -1.
         -2    1    3    3    0  502  0.51047066718E+03 -0.11354568391E+04 -0.10597197845E+04  0.16348848758E+04  0.00000000000E+00 0.  1.
         13    1    5    5    0    0 -0.13052646452E+03  0.20718504419E+03 -0.14771458074E+03  0.28597621901E+03  0.00000000000E+00 0.  1.
        -13    1    5    5    0    0 -0.32783066336E+01  0.12589658386E+03 -0.71114956365E+02  0.14463068188E+03  0.00000000000E+00 0. -1.
          4    1    6    6  503    0 -0.29618698888E+03  0.70810961758E+03  0.23535803924E+03  0.80283209298E+03  0.00000000000E+00 0. -1.
         -4    1    6    6    0  503 -0.10895682121E+03  0.16866180055E+03  0.10241873721E+03  0.22540627672E+03  0.00000000000E+00 0.  1.
<mgrwt>
<rscale>  0 0.13318762E+04</rscale>
<asrwt>0</asrwt>
<pdfrwt beam="1">  1        1 0.32028613E+00 0.13318762E+04</pdfrwt>
<pdfrwt beam="2">  1       -1 0.16938978E+00 0.13318762E+04</pdfrwt>
<totfact> 0.62977511E-01</totfact>
</mgrwt>
</event>
<event>
12    1  0.1432447E-007  0.1047204E+04  0.7818608E-02  0.9258235E-01
          1   -1    0    0  501    0  0.00000000000E+00  0.00000000000E+00  0.14591906074E+04  0.14591906074E+04  0.00000000000E+00 0. -1.
         -1   -1    0    0    0  501 -0.00000000000E+00 -0.00000000000E+00 -0.94629357572E+03  0.94629357572E+03  0.00000000000E+00 0.  1.
         23    2    1    2    0    0  0.44005357724E+03  0.86015298697E+03 -0.29057836790E+03  0.10130104323E+04  0.90796674707E+02 0.  0.
    5000000    2    1    2    0    0 -0.44005357724E+03 -0.86015298697E+03  0.80347539958E+03  0.13924737509E+04  0.59991675863E+03 0.  0.
         23    2    4    4    0    0 -0.51594307830E+03 -0.39558571993E+03  0.49975916444E+03  0.82549418662E+03  0.94847814133E+02 0.  0.
         23    2    4    4    0    0  0.75889501064E+02 -0.46456726704E+03  0.30371623513E+03  0.56697956424E+03  0.87408882867E+02 0.  0.
          4    1    3    3  502    0  0.26898958243E+03  0.44288684378E+03 -0.12922744810E+03  0.53404483444E+03  0.00000000000E+00 0. -1.
         -4    1    3    3    0  502  0.17106399481E+03  0.41726614319E+03 -0.16135091980E+03  0.47896559782E+03  0.00000000000E+00 0.  1.
         13    1    5    5    0    0 -0.34448015170E+03 -0.30600514119E+03  0.38591198948E+03  0.60102727473E+03  0.00000000000E+00 0.  1.
        -13    1    5    5    0    0 -0.17146292660E+03 -0.89580578740E+02  0.11384717496E+03  0.22446691189E+03  0.00000000000E+00 0. -1.
          1    1    6    6  503    0  0.15056113354E+02 -0.56678572168E+02  0.72820683464E+01  0.59094632681E+02  0.00000000000E+00 0. -1.
         -1    1    6    6    0  503  0.60833387709E+02 -0.40788869488E+03  0.29643416678E+03  0.50788493156E+03  0.00000000000E+00 0.  1.
<mgrwt>
<rscale>  0 0.10472040E+04</rscale>
<asrwt>0</asrwt>
<pdfrwt beam="1">  1        1 0.22449086E+00 0.10472040E+04</pdfrwt>
<pdfrwt beam="2">  1       -1 0.14558363E+00 0.10472040E+04</pdfrwt>
<totfact> 0.26371456E+00</totfact>
</mgrwt>
</event>
<event>
12    1  0.1432447E-007  0.3873490E+03  0.7818608E-02  0.1048250E+00
         -2   -1    0    0    0  501 -0.00000000000E+00  0.00000000000E+00  0.19708609508E+03  0.19708609508E+03  0.00000000000E+00 0.  1.
          2   -1    0    0  501    0  0.00000000000E+00 -0.00000000000E+00 -0.13279890096E+04  0.13279890096E+04  0.00000000000E+00 0. -1.
         23    2    1    2    0    0  0.45983861968E+02  0.28770191577E+03 -0.15418363171E+03  0.34221209542E+03  0.91921804104E+02 0.  0.
    5000000    2    1    2    0    0 -0.45983861968E+02 -0.28770191577E+03 -0.97671928286E+03  0.11828630093E+04  0.60024780999E+03 0.  0.
         23    2    4    4    0    0  0.99526426051E+02  0.28258942211E+02 -0.73879749734E+03  0.75154097134E+03  0.91038520619E+02 0.  0.
         23    2    4    4    0    0 -0.14551028802E+03 -0.31596085798E+03 -0.23792178552E+03  0.43132203797E+03  0.91800962533E+02 0.  0.
          3    1    3    3  502    0 -0.48494974646E+01  0.16311389980E+02 -0.39914464273E+02  0.43390592609E+02  0.00000000000E+00 0. -1.
         -3    1    3    3    0  502  0.50833359433E+02  0.27139052578E+03 -0.11426916744E+03  0.29882150281E+03  0.00000000000E+00 0.  1.
         13    1    5    5    0    0  0.67578596534E+02  0.49580010372E+02 -0.64124504560E+03  0.64669950722E+03  0.00000000000E+00 0.  1.
        -13    1    5    5    0    0  0.31947829517E+02 -0.21321068161E+02 -0.97552451738E+02  0.10484146412E+03  0.00000000000E+00 0. -1.
          2    1    6    6  503    0  0.24730826119E+01 -0.85048267033E+02 -0.65343050544E+02  0.10728018511E+03  0.00000000000E+00 0. -1.
         -2    1    6    6    0  503 -0.14798337063E+03 -0.23091259094E+03 -0.17257873497E+03  0.32404185286E+03  0.00000000000E+00 0.  1.
<mgrwt>
<rscale>  0 0.38734905E+03</rscale>
<asrwt>0</asrwt>
<pdfrwt beam="1">  1        2 0.20430601E+00 0.38734905E+03</pdfrwt>
<pdfrwt beam="2">  1       -2 0.30320936E-01 0.38734905E+03</pdfrwt>
<totfact> 0.16825152E+02</totfact>
</mgrwt>
</event>
<event>
12    1  0.1432447E-007  0.7594093E+03  0.7818608E-02  0.9620703E-01
         -2   -1    0    0    0  501 -0.00000000000E+00  0.00000000000E+00  0.10186383991E+04  0.10186383991E+04  0.00000000000E+00 0.  1.
          2   -1    0    0  501    0  0.00000000000E+00 -0.00000000000E+00 -0.10592880688E+04  0.10592880688E+04  0.00000000000E+00 0. -1.
         23    2    1    2    0    0  0.30902255230E+03 -0.57992789245E+03  0.66712817756E+03  0.94085151675E+03  0.91270329257E+02 0.  0.
    5000000    2    1    2    0    0 -0.30902255230E+03  0.57992789245E+03 -0.70777784725E+03  0.11370749511E+04  0.60014886904E+03 0.  0.
         23    2    4    4    0    0 -0.44246725751E+02  0.57985818606E+03 -0.58769112881E+03  0.83119717628E+03  0.85525401526E+02 0.  0.
         23    2    4    4    0    0 -0.26477582655E+03  0.69706386685E-01 -0.12008671845E+03  0.30587777478E+03  0.95048145558E+02 0.  0.
          2    1    3    3  502    0  0.12214890977E+03 -0.23747819257E+03  0.20891451807E+03  0.33905976459E+03  0.00000000000E+00 0. -1.
         -2    1    3    3    0  502  0.18687364253E+03 -0.34244969987E+03  0.45821365949E+03  0.60179175216E+03  0.00000000000E+00 0.  1.
         13    1    5    5    0    0  0.24933331908E+02  0.21386205677E+03 -0.21275304761E+03  0.30269210369E+03  0.00000000000E+00 0. -1.
        -13    1    5    5    0    0 -0.69180057659E+02  0.36599612929E+03 -0.37493808119E+03  0.52850507260E+03  0.00000000000E+00 0.  1.
          2    1    6    6  503    0 -0.80302004860E+02  0.32368532026E+02 -0.64544196181E+01  0.86820466381E+02  0.00000000000E+00 0. -1.
         -2    1    6    6    0  503 -0.18447382169E+03 -0.32298825640E+02 -0.11363229883E+03  0.21905730840E+03  0.00000000000E+00 0.  1.
<mgrwt>
<rscale>  0 0.75940934E+03</rscale>
<asrwt>0</asrwt>
<pdfrwt beam="1">  1        2 0.16296740E+00 0.75940934E+03</pdfrwt>
<pdfrwt beam="2">  1       -2 0.15671360E+00 0.75940934E+03</pdfrwt>
<totfact> 0.62687518E+00</totfact>
</mgrwt>
</event>
<event>
12    1  0.1432447E-007  0.1288070E+04  0.7818608E-02  0.9039080E-01
         -2   -1    0    0    0  501 -0.00000000000E+00  0.00000000000E+00  0.64876801235E+03  0.64876801235E+03  0.00000000000E+00 0. -1.
          2   -1    0    0  501    0  0.00000000000E+00 -0.00000000000E+00 -0.35201735449E+04  0.35201735449E+04  0.00000000000E+00 0.  1.
         23    2    1    2    0    0  0.87935976249E+03  0.93311840171E+03 -0.44596342755E+03  0.13606304425E+04  0.91914519035E+02 0.  0.
    5000000    2    1    2    0    0 -0.87935976249E+03 -0.93311840171E+03 -0.24254421050E+04  0.28083111148E+04  0.59988196265E+03 0.  0.
         23    2    4    4    0    0 -0.40372057386E+03 -0.38192348666E+03 -0.16386589145E+04  0.17328530076E+04  0.93384455108E+02 0.  0.
         23    2    4    4    0    0 -0.47563918864E+03 -0.55119491505E+03 -0.78678319052E+03  0.10754581072E+04  0.86797922142E+02 0.  0.
          2    1    3    3  502    0  0.32441596135E+03  0.40750375778E+03 -0.19388612745E+03  0.55578490354E+03  0.00000000000E+00 0. -1.
         -2    1    3    3    0  502  0.55494380114E+03  0.52561464392E+03 -0.25207730010E+03  0.80484553894E+03  0.00000000000E+00 0.  1.
         11    1    5    5    0    0 -0.10496531915E+03 -0.51105376148E+02 -0.38461454208E+03  0.40194256266E+03  0.00000000000E+00 0.  1.
        -11    1    5    5    0    0 -0.29875525471E+03 -0.33081811051E+03 -0.12540443724E+04  0.13309104449E+04  0.00000000000E+00 0. -1.
          4    1    6    6  503    0 -0.13856017045E+03 -0.14456108454E+03 -0.16376491029E+03  0.25868083393E+03  0.00000000000E+00 0. -1.
         -4    1    6    6    0  503 -0.33707901819E+03 -0.40663383050E+03 -0.62301828023E+03  0.81677727326E+03  0.00000000000E+00 0.  1.
<mgrwt>
<rscale>  0 0.12880701E+04</rscale>
<asrwt>0</asrwt>
<pdfrwt beam="1">  1        2 0.54156516E+00 0.12880701E+04</pdfrwt>
<pdfrwt beam="2">  1       -2 0.99810464E-01 0.12880701E+04</pdfrwt>
<totfact> 0.64534062E-01</totfact>
</mgrwt>
</event>
<event>
12    1  0.1432447E-007  0.5335846E+03  0.7818608E-02  0.1005366E+00
          3   -1    0    0  501    0  0.00000000000E+00  0.00000000000E+00  0.35885297613E+03  0.35885297613E+03  0.00000000000E+00 0. -1.
         -3   -1    0    0    0  501 -0.00000000000E+00 -0.00000000000E+00 -0.13681049653E+04  0.13681049653E+04  0.00000000000E+00 0.  1.
         23    2    1    2    0    0  0.39786724064E+03 -0.22694031700E+03 -0.39008800744E+00  0.46699288747E+03  0.91005253241E+02 0.  0.
    5000000    2    1    2    0    0 -0.39786724064E+03  0.22694031700E+03 -0.10088619012E+04  0.12599650540E+04  0.59992445603E+03 0.  0.
         23    2    4    4    0    0 -0.13138640578E+03 -0.11419278383E+03 -0.68454750928E+03  0.71227443918E+03  0.91799807969E+02 0.  0.
         23    2    4    4    0    0 -0.26648083486E+03  0.34113310083E+03 -0.32431439190E+03  0.54769061480E+03  0.86031139236E+02 0.  0.
          1    1    3    3  502    0  0.22066302400E+03 -0.10388917064E+03 -0.41420009978E+02  0.24738784765E+03  0.00000000000E+00 0. -1.
         -1    1    3    3    0  502  0.17720421664E+03 -0.12305114636E+03  0.41029921970E+02  0.21960503982E+03  0.00000000000E+00 0.  1.
         13    1    5    5    0    0 -0.91505097971E+02 -0.71224189500E+02 -0.58797927041E+03  0.59930433885E+03  0.00000000000E+00 0. -1.
        -13    1    5    5    0    0 -0.39881307809E+02 -0.42968594330E+02 -0.96568238868E+02  0.11297010033E+03  0.00000000000E+00 0.  1.
          1    1    6    6  503    0 -0.23288035078E+03  0.30235711395E+03 -0.31646434851E+03  0.49578499979E+03  0.00000000000E+00 0. -1.
         -1    1    6    6    0  503 -0.33600484080E+02  0.38775986878E+02 -0.78500433917E+01  0.51905615015E+02  0.00000000000E+00 0.  1.
<mgrwt>
<rscale>  0 0.53358459E+03</rscale>
<asrwt>0</asrwt>
<pdfrwt beam="1">  1        3 0.55208151E-01 0.53358459E+03</pdfrwt>
<pdfrwt beam="2">  1       -3 0.21047769E+00 0.53358459E+03</pdfrwt>
<totfact> 0.10798091E+00</totfact>
</mgrwt>
</event>
<event>
12    1  0.1432447E-007  0.5780413E+03  0.7818608E-02  0.9952041E-01
         -1   -1    0    0    0  501 -0.00000000000E+00  0.00000000000E+00  0.36997467325E+03  0.36997467325E+03  0.00000000000E+00 0.  1.
          1   -1    0    0  501    0  0.00000000000E+00 -0.00000000000E+00 -0.18531405197E+04  0.18531405197E+04  0.00000000000E+00 0. -1.
         23    2    1    2    0    0  0.39859785990E+02  0.43176871813E+03 -0.14116603271E+04  0.14794401228E+04  0.89135680729E+02 0.  0.
    5000000    2    1    2    0    0 -0.39859785990E+02 -0.43176871813E+03 -0.71505519359E+02  0.74367507008E+03  0.59993878192E+03 0.  0.
         23    2    4    4    0    0 -0.14054339309E+03 -0.54026206251E+03 -0.29865151320E+02  0.56600289189E+03  0.88497484969E+02 0.  0.
         23    2    4    4    0    0  0.10068360710E+03  0.10849334437E+03 -0.41640368039E+02  0.17767217818E+03  0.89025210692E+02 0.  0.
          4    1    3    3  502    0  0.28788933617E+02  0.15784239612E+03 -0.66376865348E+03  0.68288494643E+03  0.00000000000E+00 0. -1.
         -4    1    3    3    0  502  0.11070852373E+02  0.27392632201E+03 -0.74789167358E+03  0.79655517641E+03  0.00000000000E+00 0.  1.
         13    1    5    5    0    0 -0.11409052528E+03 -0.27937839734E+03 -0.34489338321E+02  0.30374076335E+03  0.00000000000E+00 0. -1.
        -13    1    5    5    0    0 -0.26452867801E+02 -0.26088366517E+03  0.46241870003E+01  0.26226212855E+03  0.00000000000E+00 0.  1.
          4    1    6    6  503    0  0.22474680977E+01  0.33919595121E+02 -0.42183998241E+02  0.54176376343E+02  0.00000000000E+00 0. -1.
         -4    1    6    6    0  503  0.98436138998E+02  0.74573749250E+02  0.54363020171E+00  0.12349580184E+03  0.00000000000E+00 0.  1.
<mgrwt>
<rscale>  0 0.57804126E+03</rscale>
<asrwt>0</asrwt>
<pdfrwt beam="1">  1        1 0.28509853E+00 0.57804126E+03</pdfrwt>
<pdfrwt beam="2">  1       -1 0.56919182E-01 0.57804126E+03</pdfrwt>
<totfact> 0.12578177E+01</totfact>
</mgrwt>
</event>
<event>
12    1  0.1432447E-007  0.7974403E+03  0.7818608E-02  0.9563730E-01
         -2   -1    0    0    0  501 -0.00000000000E+00  0.00000000000E+00  0.75016868335E+03  0.75016868335E+03  0.00000000000E+00 0.  1.
          2   -1    0    0  501    0  0.00000000000E+00 -0.00000000000E+00 -0.13199354402E+04  0.13199354402E+04  0.00000000000E+00 0. -1.
         23    2    1    2    0    0 -0.68558049871E+03 -0.21048414598E+03  0.30955129421E+03  0.78652597633E+03  0.92070145946E+02 0.  0.
    5000000    2    1    2    0    0  0.68558049871E+03  0.21048414598E+03 -0.87931805105E+03  0.12835781472E+04  0.60004035630E+03 0.  0.
         23    2    4    4    0    0  0.11628902043E+03  0.25967730566E+03 -0.53058827256E+03  0.60805972521E+03  0.85189641970E+02 0.  0.
         23    2    4    4    0    0  0.56929147828E+03 -0.49193159688E+02 -0.34872977849E+03  0.67551842200E+03  0.90553441983E+02 0.  0.
          3    1    3    3  502    0 -0.44860788751E+03 -0.18271696512E+03  0.20242273548E+03  0.52498522828E+03  0.00000000000E+00 0. -1.
         -3    1    3    3    0  502 -0.23697261120E+03 -0.27767180858E+02  0.10712855873E+03  0.26154074805E+03  0.00000000000E+00 0.  1.
         13    1    5    5    0    0  0.12700069884E+03  0.20930085469E+03 -0.42190110485E+03  0.48778742045E+03  0.00000000000E+00 0. -1.
        -13    1    5    5    0    0 -0.10711678413E+02  0.50376450977E+02 -0.10868716771E+03  0.12027230476E+03  0.00000000000E+00 0.  1.
          3    1    6    6  503    0  0.42124030356E+03 -0.57431442025E+01 -0.28473408002E+03  0.50847799694E+03  0.00000000000E+00 0. -1.
         -3    1    6    6    0  503  0.14805117472E+03 -0.43450015485E+02 -0.63995698473E+02  0.16704042506E+03  0.00000000000E+00 0.  1.
<mgrwt>
<rscale>  0 0.79744030E+03</rscale>
<asrwt>0</asrwt>
<pdfrwt beam="1">  1        2 0.20306699E+00 0.79744030E+03</pdfrwt>
<pdfrwt beam="2">  1       -2 0.11541057E+00 0.79744030E+03</pdfrwt>
<totfact> 0.95542971E+00</totfact>
</mgrwt>
</event>
<event>
12    1  0.1432447E-007  0.9924859E+03  0.7818608E-02  0.9316825E-01
          2   -1    0    0  501    0  0.00000000000E+00  0.00000000000E+00  0.27852973214E+04  0.27852973214E+04  0.00000000000E+00 0. -1.
         -2   -1    0    0    0  501 -0.00000000000E+00 -0.00000000000E+00 -0.74537528124E+03  0.74537528124E+03  0.00000000000E+00 0.  1.
         23    2    1    2    0    0  0.88177568173E+03  0.44509788913E+03 -0.19860666098E+03  0.10116641316E+04  0.91538110332E+02 0.  0.
    5000000    2    1    2    0    0 -0.88177568173E+03 -0.44509788913E+03  0.22385287011E+04  0.25190084710E+04  0.59895947052E+03 0.  0.
         23    2    4    4    0    0 -0.14996216652E+03 -0.61314015374E+02  0.10629256570E+04  0.10790405067E+04  0.90936257465E+02 0.  0.
         23    2    4    4    0    0 -0.73181351521E+03 -0.38378387375E+03  0.11756030441E+04  0.14399679642E+04  0.92866237051E+02 0.  0.
          3    1    3    3  502    0  0.30982672759E+03  0.20304788089E+03 -0.58916509174E+02  0.37508958679E+03  0.00000000000E+00 0. -1.
         -3    1    3    3    0  502  0.57194895414E+03  0.24205000824E+03 -0.13969015181E+03  0.63657454484E+03  0.00000000000E+00 0.  1.
         13    1    5    5    0    0 -0.65959434769E+02 -0.45916755001E+02  0.27508731361E+03  0.28658685514E+03  0.00000000000E+00 0. -1.
        -13    1    5    5    0    0 -0.84002731751E+02 -0.15397260373E+02  0.78783834343E+03  0.79245365161E+03  0.00000000000E+00 0.  1.
          2    1    6    6  503    0 -0.52150560495E+03 -0.29745323939E+03  0.91199829752E+03  0.10918733536E+04  0.00000000000E+00 0.  1.
         -2    1    6    6    0  503 -0.21030791026E+03 -0.86330634367E+02  0.26360474656E+03  0.34809461064E+03  0.00000000000E+00 0. -1.
<mgrwt>
<rscale>  0 0.99248595E+03</rscale>
<asrwt>0</asrwt>
<pdfrwt beam="1">  1        2 0.42850728E+00 0.99248595E+03</pdfrwt>
<pdfrwt beam="2">  1       -2 0.11467312E+00 0.99248595E+03</pdfrwt>
<totfact> 0.14218831E+00</totfact>
</mgrwt>
</event>
<event>
12    1  0.1432447E-007  0.7627197E+03  0.7818608E-02  0.9615604E-01
          1   -1    0    0  501    0  0.00000000000E+00  0.00000000000E+00  0.28406587636E+04  0.28406587636E+04  0.00000000000E+00 0. -1.
         -1   -1    0    0    0  501 -0.00000000000E+00 -0.00000000000E+00 -0.21556568230E+03  0.21556568230E+03  0.00000000000E+00 0.  1.
         23    2    1    2    0    0 -0.39692106783E+03 -0.53044214829E+03  0.10525821109E+04  0.12474207706E+04  0.95990999714E+02 0.  0.
    5000000    2    1    2    0    0  0.39692106783E+03  0.53044214829E+03  0.15725109704E+04  0.18088036753E+04  0.60005397832E+03 0.  0.
         23    2    4    4    0    0  0.49185681365E+03  0.25191061272E+03  0.12099729233E+04  0.13333024607E+04  0.90988431892E+02 0.  0.
         23    2    4    4    0    0 -0.94935745815E+02  0.27853153557E+03  0.36253804719E+03  0.47550121462E+03  0.89860766245E+02 0.  0.
          3    1    3    3  502    0 -0.88093523265E+02 -0.16400287665E+03  0.35879590562E+03  0.40421765706E+03  0.00000000000E+00 0. -1.
         -3    1    3    3    0  502 -0.30882754457E+03 -0.36643927165E+03  0.69378620525E+03  0.84320311354E+03  0.00000000000E+00 0.  1.
         11    1    5    5    0    0  0.41534215399E+03  0.21727516113E+03  0.93707530118E+03  0.10477727428E+04  0.00000000000E+00 0. -1.
        -11    1    5    5    0    0  0.76514659657E+02  0.34635451591E+02  0.27289762209E+03  0.28552971788E+03  0.00000000000E+00 0.  1.
          3    1    6    6  503    0 -0.91161531409E+02  0.13017970834E+03  0.17603507424E+03  0.23716139786E+03  0.00000000000E+00 0. -1.
         -3    1    6    6    0  503 -0.37742144055E+01  0.14835182723E+03  0.18650297295E+03  0.23833981676E+03  0.00000000000E+00 0.  1.
<mgrwt>
<rscale>  0 0.76271975E+03</rscale>
<asrwt>0</asrwt>
<pdfrwt beam="1">  1        1 0.43702440E+00 0.76271975E+03</pdfrwt>
<pdfrwt beam="2">  1       -1 0.33163953E-01 0.76271975E+03</pdfrwt>
<totfact> 0.70569572E+00</totfact>
</mgrwt>
</event>
<event>
12    1  0.1432447E-007  0.8683427E+03  0.7818608E-02  0.9466043E-01
         -1   -1    0    0    0  501 -0.00000000000E+00  0.00000000000E+00  0.20374493362E+04  0.20374493362E+04  0.00000000000E+00 0.  1.
          1   -1    0    0  501    0  0.00000000000E+00 -0.00000000000E+00 -0.44326791869E+03  0.44326791869E+03  0.00000000000E+00 0. -1.
         23    2    1    2    0    0 -0.77394824203E+03 -0.14179795406E+03  0.11495459152E+04  0.13959310598E+04  0.89806300394E+02 0.  0.
    5000000    2    1    2    0    0  0.77394824203E+03  0.14179795406E+03  0.44463550237E+03  0.10847861951E+04  0.59996484730E+03 0.  0.
         23    2    4    4    0    0  0.83215182984E+03  0.19534310363E+03  0.43444290912E+03  0.96340609439E+03  0.93675319004E+02 0.  0.
         23    2    4    4    0    0 -0.58203587814E+02 -0.53545149575E+02  0.10192593254E+02  0.12138010071E+03  0.91512289954E+02 0.  0.
          1    1    3    3  502    0 -0.54916675751E+03 -0.62808641754E+02  0.83389136239E+03  0.10004518266E+04  0.00000000000E+00 0.  1.
         -1    1    3    3    0  502 -0.22478148451E+03 -0.78989312303E+02  0.31565455277E+03  0.39547923324E+03  0.00000000000E+00 0. -1.
         13    1    5    5    0    0  0.37213211322E+03  0.13339008548E+03  0.18518102607E+03  0.43654007492E+03  0.00000000000E+00 0. -1.
        -13    1    5    5    0    0  0.46001971662E+03  0.61953018153E+02  0.24926188305E+03  0.52686601947E+03  0.00000000000E+00 0.  1.
          1    1    6    6  503    0 -0.48916250977E+02 -0.22600677734E+02  0.47637971830E+02  0.71923338380E+02  0.00000000000E+00 0. -1.
         -1    1    6    6    0  503 -0.92873368375E+01 -0.30944471841E+02 -0.37445378576E+02  0.49456762326E+02  0.00000000000E+00 0.  1.
<mgrwt>
<rscale>  0 0.86834274E+03</rscale>
<asrwt>0</asrwt>
<pdfrwt beam="1">  1        1 0.68195066E-01 0.86834274E+03</pdfrwt>
<pdfrwt beam="2">  1       -1 0.31345374E+00 0.86834274E+03</pdfrwt>
<totfact> 0.14606296E+00</totfact>
</mgrwt>
</event>
<event>
12    1  0.1432447E-007  0.3436297E+03  0.7818608E-02  0.1065260E+00
          1   -1    0    0  501    0  0.00000000000E+00  0.00000000000E+00  0.11000898925E+04  0.11000898925E+04  0.00000000000E+00 0. -1.
         -1   -1    0    0    0  501 -0.00000000000E+00 -0.00000000000E+00 -0.29712924978E+03  0.29712924978E+03  0.00000000000E+00 0.  1.
         23    2    1    2    0    0  0.26592866206E+03 -0.19889733145E+03  0.24302011261E+01  0.34302619578E+03  0.85923590166E+02 0.  0.
    5000000    2    1    2    0    0 -0.26592866206E+03  0.19889733145E+03  0.80053044160E+03  0.10541929465E+04  0.60016296018E+03 0.  0.
         23    2    4    4    0    0 -0.30981338285E+02  0.63159355525E+02  0.75811633297E+03  0.76721217743E+03  0.94473294503E+02 0.  0.
         23    2    4    4    0    0 -0.23494732378E+03  0.13573797592E+03  0.42414108629E+02  0.28698076907E+03  0.83270415811E+02 0.  0.
          1    1    3    3  502    0  0.31837361877E+02 -0.54663989333E+02 -0.22021470372E+02  0.66982941847E+02  0.00000000000E+00 0. -1.
         -1    1    3    3    0  502  0.23409130019E+03 -0.14423334211E+03  0.24451671498E+02  0.27604325393E+03  0.00000000000E+00 0.  1.
         13    1    5    5    0    0 -0.13851656933E+01  0.39868653050E+02  0.95115801175E+02  0.10314283210E+03  0.00000000000E+00 0.  1.
        -13    1    5    5    0    0 -0.29596172591E+02  0.23290702474E+02  0.66300053179E+03  0.66406934533E+03  0.00000000000E+00 0. -1.
          4    1    6    6  503    0 -0.11637387723E+03  0.62057997911E+02  0.62493011596E+02  0.14594331401E+03  0.00000000000E+00 0. -1.
         -4    1    6    6    0  503 -0.11857344655E+03  0.73679978010E+02 -0.20078902967E+02  0.14103745507E+03  0.00000000000E+00 0.  1.
<mgrwt>
<rscale>  0 0.34362970E+03</rscale>
<asrwt>0</asrwt>
<pdfrwt beam="1">  1        1 0.16924460E+00 0.34362970E+03</pdfrwt>
<pdfrwt beam="2">  1       -1 0.45712193E-01 0.34362970E+03</pdfrwt>
<totfact> 0.65239924E+01</totfact>
</mgrwt>
</event>
<event>
12    1  0.1432447E-007  0.9127137E+03  0.7818608E-02  0.9409827E-01
          2   -1    0    0  501    0  0.00000000000E+00  0.00000000000E+00  0.16211910749E+04  0.16211910749E+04  0.00000000000E+00 0. -1.
         -2   -1    0    0    0  501 -0.00000000000E+00 -0.00000000000E+00 -0.54344926231E+03  0.54344926231E+03  0.00000000000E+00 0.  1.
         23    2    1    2    0    0  0.10271701714E+03 -0.82063685143E+03  0.31604065761E+03  0.89012814724E+03  0.91928198658E+02 0.  0.
    5000000    2    1    2    0    0 -0.10271701714E+03  0.82063685143E+03  0.76170115502E+03  0.12745121900E+04  0.60016418204E+03 0.  0.
         23    2    4    4    0    0  0.19866292313E+03  0.16577748692E+03  0.10132392848E+03  0.29257871691E+03  0.91578572328E+02 0.  0.
         23    2    4    4    0    0 -0.30137994027E+03  0.65485936451E+03  0.66037722654E+03  0.98193347311E+03  0.91785666607E+02 0.  0.
          4    1    3    3  502    0  0.14941441904E+02 -0.60845646529E+02  0.24554181425E+00  0.62653808172E+02  0.00000000000E+00 0. -1.
         -4    1    3    3    0  502  0.87775575240E+02 -0.75979120490E+03  0.31579511579E+03  0.82747433906E+03  0.00000000000E+00 0.  1.
         13    1    5    5    0    0  0.94729110078E+02  0.22346357387E+02  0.37413319981E+02  0.10427233812E+03  0.00000000000E+00 0.  1.
        -13    1    5    5    0    0  0.10393381305E+03  0.14343112953E+03  0.63910608501E+02  0.18830637879E+03  0.00000000000E+00 0. -1.
          4    1    6    6  503    0 -0.16565477006E+03  0.43025616443E+03  0.37555187200E+03  0.59464365669E+03  0.00000000000E+00 0. -1.
         -4    1    6    6    0  503 -0.13572517021E+03  0.22460320007E+03  0.28482535455E+03  0.38728981642E+03  0.00000000000E+00 0.  1.
<mgrwt>
<rscale>  0 0.91271374E+03</rscale>
<asrwt>0</asrwt>
<pdfrwt beam="1">  1        2 0.24941401E+00 0.91271374E+03</pdfrwt>
<pdfrwt beam="2">  1       -2 0.83607579E-01 0.91271374E+03</pdfrwt>
<totfact> 0.13668192E+01</totfact>
</mgrwt>
</event>
<event>
12    1  0.1432447E-007  0.1367962E+04  0.7818608E-02  0.8977341E-01
          1   -1    0    0  501    0  0.00000000000E+00  0.00000000000E+00  0.17380056767E+04  0.17380056767E+04  0.00000000000E+00 0. -1.
         -1   -1    0    0    0  501 -0.00000000000E+00 -0.00000000000E+00 -0.12702055584E+04  0.12702055584E+04  0.00000000000E+00 0.  1.
         23    2    1    2    0    0 -0.91108382961E+03 -0.98792693693E+03  0.70020719476E+03  0.15182246881E+04  0.92966180805E+02 0.  0.
    5000000    2    1    2    0    0  0.91108382961E+03  0.98792693693E+03 -0.23240707649E+03  0.14899865470E+04  0.59997790280E+03 0.  0.
         23    2    4    4    0    0  0.38253819858E+03  0.63793906004E+03  0.11939731469E+03  0.75914337788E+03  0.93494554516E+02 0.  0.
         23    2    4    4    0    0  0.52854563102E+03  0.34998787688E+03 -0.35180439118E+03  0.73084316914E+03  0.92268142874E+02 0.  0.
          2    1    3    3  502    0 -0.79348119176E+03 -0.90126197315E+03  0.63311890960E+03  0.13574701100E+04  0.00000000000E+00 0. -1.
         -2    1    3    3    0  502 -0.11760263784E+03 -0.86664963773E+02  0.67088285155E+02  0.16075457809E+03  0.00000000000E+00 0.  1.
         13    1    5    5    0    0  0.39749666910E+01  0.43759089087E+02 -0.30860111967E+01  0.44047493720E+02  0.00000000000E+00 0. -1.
        -13    1    5    5    0    0  0.37856323189E+03  0.59417997096E+03  0.12248332589E+03  0.71509588416E+03  0.00000000000E+00 0.  1.
          4    1    6    6  503    0  0.20531299810E+03  0.19078846132E+03 -0.15163825154E+03  0.31866569237E+03  0.00000000000E+00 0. -1.
         -4    1    6    6    0  503  0.32323263292E+03  0.15919941556E+03 -0.20016613965E+03  0.41217747678E+03  0.00000000000E+00 0.  1.
<mgrwt>
<rscale>  0 0.13679620E+04</rscale>
<asrwt>0</asrwt>
<pdfrwt beam="1">  1        1 0.26738549E+00 0.13679620E+04</pdfrwt>
<pdfrwt beam="2">  1       -1 0.19541624E+00 0.13679620E+04</pdfrwt>
<totfact> 0.69826811E-01</totfact>
</mgrwt>
</event>
<event>
12    1  0.1432447E-007  0.1008475E+04  0.7818608E-02  0.9299298E-01
          1   -1    0    0  501    0  0.00000000000E+00  0.00000000000E+00  0.11071142456E+04  0.11071142456E+04  0.00000000000E+00 0. -1.
         -1   -1    0    0    0  501 -0.00000000000E+00 -0.00000000000E+00 -0.12062307459E+04  0.12062307459E+04  0.00000000000E+00 0.  1.
         23    2    1    2    0    0  0.49856845791E+03  0.86862268799E+03 -0.43903799671E+03  0.10973447887E+04  0.91298090729E+02 0.  0.
    5000000    2    1    2    0    0 -0.49856845791E+03 -0.86862268799E+03  0.33992149633E+03  0.12160002028E+04  0.60002832288E+03 0.  0.
         23    2    4    4    0    0 -0.15048271966E+03 -0.26965929656E+03 -0.15488116438E+03  0.35850822546E+03  0.95805988891E+02 0.  0.
         23    2    4    4    0    0 -0.34808573825E+03 -0.59896339143E+03  0.49480266071E+03  0.85749197735E+03  0.10267420672E+03 0.  0.
          1    1    3    3  502    0  0.35584772197E+03  0.58445431748E+03 -0.34137538515E+03  0.76469052828E+03  0.00000000000E+00 0. -1.
         -1    1    3    3    0  502  0.14272073594E+03  0.28416837051E+03 -0.97662611561E+02  0.33265426040E+03  0.00000000000E+00 0.  1.
         11    1    5    5    0    0 -0.47448064579E+02 -0.19618987825E+02 -0.38087748481E+02  0.63928867501E+02  0.00000000000E+00 0.  1.
        -11    1    5    5    0    0 -0.10303465508E+03 -0.25004030874E+03 -0.11679341590E+03  0.29457935796E+03  0.00000000000E+00 0. -1.
          3    1    6    6  503    0 -0.14089488216E+03 -0.22850877443E+03  0.13219951983E+03  0.29923960442E+03  0.00000000000E+00 0. -1.
         -3    1    6    6    0  503 -0.20719085609E+03 -0.37045461700E+03  0.36260314088E+03  0.55825237293E+03  0.00000000000E+00 0.  1.
<mgrwt>
<rscale>  0 0.10084753E+04</rscale>
<asrwt>0</asrwt>
<pdfrwt beam="1">  1        1 0.17032527E+00 0.10084753E+04</pdfrwt>
<pdfrwt beam="2">  1       -1 0.18557396E+00 0.10084753E+04</pdfrwt>
<totfact> 0.23847024E+00</totfact>
</mgrwt>
</event>
<event>
12    1  0.1432447E-007  0.5074324E+03  0.7818608E-02  0.1011857E+00
         -2   -1    0    0    0  501 -0.00000000000E+00  0.00000000000E+00  0.11928740903E+04  0.11928740903E+04  0.00000000000E+00 0.  1.
          2   -1    0    0  501    0  0.00000000000E+00 -0.00000000000E+00 -0.96750200204E+03  0.96750200204E+03  0.00000000000E+00 0. -1.
         23    2    1    2    0    0 -0.13842868247E+03  0.43934660102E+03  0.98323820626E+03  0.10895768678E+04  0.90732819774E+02 0.  0.
    5000000    2    1    2    0    0  0.13842868247E+03 -0.43934660102E+03 -0.75786611799E+03  0.10707992246E+04  0.60005165660E+03 0.  0.
         23    2    4    4    0    0 -0.17757241345E+02 -0.34561821513E+03 -0.85700304566E+02  0.36841654362E+03  0.92838231143E+02 0.  0.
         23    2    4    4    0    0  0.15618592381E+03 -0.93728385894E+02 -0.67216581342E+03  0.70238268095E+03  0.91408405781E+02 0.  0.
          3    1    3    3  502    0 -0.69041877600E+02  0.34425752274E+03  0.71055284610E+03  0.79256884239E+03  0.00000000000E+00 0. -1.
         -3    1    3    3    0  502 -0.69386804869E+02  0.95089078280E+02  0.27268536016E+03  0.29700802539E+03  0.00000000000E+00 0.  1.
         11    1    5    5    0    0 -0.46220794974E+01 -0.18292645567E+03 -0.92536460066E+02  0.20505230611E+03  0.00000000000E+00 0. -1.
        -11    1    5    5    0    0 -0.13135161847E+02 -0.16269175946E+03  0.68361555002E+01  0.16336423751E+03  0.00000000000E+00 0.  1.
          3    1    6    6  503    0  0.88159966027E+02 -0.53722957248E+01 -0.23008121218E+03  0.24645162886E+03  0.00000000000E+00 0.  1.
         -3    1    6    6    0  503  0.68025957787E+02 -0.88356090169E+02 -0.44208460124E+03  0.45593105209E+03  0.00000000000E+00 0. -1.
<mgrwt>
<rscale>  0 0.50743242E+03</rscale>
<asrwt>0</asrwt>
<pdfrwt beam="1">  1        2 0.14884646E+00 0.50743242E+03</pdfrwt>
<pdfrwt beam="2">  1       -2 0.18351909E+00 0.50743242E+03</pdfrwt>
<totfact> 0.48246666E+00</totfact>
</mgrwt>
</event>
<event>
12    1  0.1432447E-007  0.4536733E+03  0.7818608E-02  0.1026632E+00
         -2   -1    0    0    0  501 -0.00000000000E+00  0.00000000000E+00  0.38534226967E+03  0.38534226967E+03  0.00000000000E+00 0.  1.
          2   -1    0    0  501    0  0.00000000000E+00 -0.00000000000E+00 -0.77321624305E+03  0.77321624305E+03  0.00000000000E+00 0. -1.
         23    2    1    2    0    0  0.82237452775E+02  0.25762858504E+03  0.13684884476E+03  0.31666947559E+03  0.91741288358E+02 0.  0.
    5000000    2    1    2    0    0 -0.82237452775E+02 -0.25762858504E+03 -0.52472281815E+03  0.84188903712E+03  0.60025630232E+03 0.  0.
         23    2    4    4    0    0 -0.25483625406E+03  0.46570468408E+02 -0.12199363277E+03  0.30061282816E+03  0.91516671212E+02 0.  0.
         23    2    4    4    0    0  0.17259880128E+03 -0.30419905345E+03 -0.40272918538E+03  0.54127620896E+03  0.91987647568E+02 0.  0.
          3    1    3    3  502    0  0.51762941785E+01  0.78670620635E+02  0.83096652290E+02  0.11454655907E+03  0.00000000000E+00 0. -1.
         -3    1    3    3    0  502  0.77061158596E+02  0.17895796441E+03  0.53752192475E+02  0.20212291653E+03  0.00000000000E+00 0.  1.
         13    1    5    5    0    0 -0.66158768506E+02 -0.27205743260E+02 -0.40864072307E+02  0.82383296377E+02  0.00000000000E+00 0. -1.
        -13    1    5    5    0    0 -0.18867748555E+03  0.73776211668E+02 -0.81129560463E+02  0.21822953178E+03  0.00000000000E+00 0.  1.
          4    1    6    6  503    0  0.31273275058E+02 -0.13742026355E+03 -0.12986448656E+03  0.19164324000E+03  0.00000000000E+00 0. -1.
         -4    1    6    6    0  503  0.14132552622E+03 -0.16677878990E+03 -0.27286469882E+03  0.34963296896E+03  0.00000000000E+00 0.  1.
<mgrwt>
<rscale>  0 0.45367329E+03</rscale>
<asrwt>0</asrwt>
<pdfrwt beam="1">  1        2 0.11895635E+00 0.45367329E+03</pdfrwt>
<pdfrwt beam="2">  1       -2 0.59283426E-01 0.45367329E+03</pdfrwt>
<totfact> 0.99294785E+01</totfact>
</mgrwt>
</event>
<event>
12    1  0.1432447E-007  0.6087944E+03  0.7818608E-02  0.9887327E-01
         -2   -1    0    0    0  501 -0.00000000000E+00  0.00000000000E+00  0.16674893373E+04  0.16674893373E+04  0.00000000000E+00 0.  1.
          2   -1    0    0  501    0  0.00000000000E+00 -0.00000000000E+00 -0.30267380700E+03  0.30267380700E+03  0.00000000000E+00 0. -1.
         23    2    1    2    0    0 -0.25954413525E+03  0.40507049914E+03  0.11524290379E+03  0.50280487192E+03  0.89925218550E+02 0.  0.
    5000000    2    1    2    0    0  0.25954413525E+03 -0.40507049914E+03  0.12495726265E+04  0.14673582724E+04  0.60021936258E+03 0.  0.
         23    2    4    4    0    0  0.15819911876E+03  0.10147956713E+03  0.17967821270E+03  0.27578693806E+03  0.91919047889E+02 0.  0.
         23    2    4    4    0    0  0.10134501649E+03 -0.50655006627E+03  0.10698944138E+04  0.11915713343E+04  0.91128514102E+02 0.  0.
          3    1    3    3  502    0 -0.11630019837E+03  0.24938315635E+03  0.91177850997E+02  0.28988117449E+03  0.00000000000E+00 0. -1.
         -3    1    3    3    0  502 -0.14324393689E+03  0.15568734279E+03  0.24065052796E+02  0.21292369743E+03  0.00000000000E+00 0.  1.
         11    1    5    5    0    0  0.17082798492E+02 -0.17529212179E+02  0.24458646530E+02  0.34602321801E+02  0.00000000000E+00 0. -1.
        -11    1    5    5    0    0  0.14111632027E+03  0.11900877931E+03  0.15521956617E+03  0.24118461626E+03  0.00000000000E+00 0.  1.
          1    1    6    6  503    0  0.47772043553E+02 -0.90824594243E+02  0.16500813200E+03  0.19431664543E+03  0.00000000000E+00 0. -1.
         -1    1    6    6    0  503  0.53572972936E+02 -0.41572547203E+03  0.90488628182E+03  0.99725468891E+03  0.00000000000E+00 0.  1.
<mgrwt>
<rscale>  0 0.60879437E+03</rscale>
<asrwt>0</asrwt>
<pdfrwt beam="1">  1        2 0.46565202E-01 0.60879437E+03</pdfrwt>
<pdfrwt beam="2">  1       -2 0.25653682E+00 0.60879437E+03</pdfrwt>
<totfact> 0.66733006E+00</totfact>
</mgrwt>
</event>
<event>
12    1  0.1432447E-007  0.1648271E+04  0.7818608E-02  0.8791430E-01
         -2   -1    0    0    0  501 -0.00000000000E+00  0.00000000000E+00  0.86739106108E+03  0.86739106108E+03  0.00000000000E+00 0.  1.
          2   -1    0    0  501    0  0.00000000000E+00 -0.00000000000E+00 -0.37235751795E+04  0.37235751795E+04  0.00000000000E+00 0. -1.
         23    2    1    2    0    0 -0.85273791916E+03  0.13901396233E+04 -0.21853786447E+04  0.27282790201E+04  0.89311030376E+02 0.  0.
    5000000    2    1    2    0    0  0.85273791916E+03 -0.13901396233E+04 -0.67080547373E+03  0.18626872204E+04  0.59997797180E+03 0.  0.
         23    2    4    4    0    0  0.34229647281E+03 -0.86322766552E+03 -0.11915112448E+03  0.94026359413E+03  0.87004357108E+02 0.  0.
         23    2    4    4    0    0  0.51044144635E+03 -0.52691195774E+03 -0.55165434925E+03  0.92242362631E+03  0.91411946502E+02 0.  0.
          3    1    3    3  502    0 -0.55297627447E+03  0.82662978030E+03 -0.13629960343E+04  0.16872633888E+04  0.00000000000E+00 0. -1.
         -3    1    3    3    0  502 -0.29976164469E+03  0.56350984296E+03 -0.82238261037E+03  0.10410156313E+04  0.00000000000E+00 0.  1.
         11    1    5    5    0    0  0.16522322566E+02 -0.18870451102E+02  0.80564623628E+01  0.26343645411E+02  0.00000000000E+00 0.  1.
        -11    1    5    5    0    0  0.32577415025E+03 -0.84435721442E+03 -0.12720758685E+03  0.91391994872E+03  0.00000000000E+00 0. -1.
          2    1    6    6  503    0  0.92033904137E+02 -0.92829690697E+02 -0.57165293087E+02  0.14267256821E+03  0.00000000000E+00 0. -1.
         -2    1    6    6    0  503  0.41840754221E+03 -0.43408226705E+03 -0.49448905616E+03  0.77975105810E+03  0.00000000000E+00 0.  1.
<mgrwt>
<rscale>  0 0.16482710E+04</rscale>
<asrwt>0</asrwt>
<pdfrwt beam="1">  1        2 0.57285770E+00 0.16482710E+04</pdfrwt>
<pdfrwt beam="2">  1       -2 0.13344478E+00 0.16482710E+04</pdfrwt>
<totfact> 0.21454742E-01</totfact>
</mgrwt>
</event>
<event>
12    1  0.1432447E-007  0.5355650E+03  0.7818608E-02  0.1004891E+00
          2   -1    0    0  501    0  0.00000000000E+00  0.00000000000E+00  0.16813008634E+04  0.16813008634E+04  0.00000000000E+00 0. -1.
         -2   -1    0    0    0  501 -0.00000000000E+00 -0.00000000000E+00 -0.80611763502E+03  0.80611763502E+03  0.00000000000E+00 0.  1.
         23    2    1    2    0    0 -0.62679558589E+02  0.52132127530E+03 -0.60485103845E+03  0.80624659929E+03  0.92109722646E+02 0.  0.
    5000000    2    1    2    0    0  0.62679558589E+02 -0.52132127530E+03  0.14800342669E+04  0.16811718992E+04  0.60011076001E+03 0.  0.
         23    2    4    4    0    0  0.20706076164E+02 -0.41822746317E+03  0.38283049345E+03  0.57448684808E+03  0.90183143459E+02 0.  0.
         23    2    4    4    0    0  0.41973482424E+02 -0.10309381213E+03  0.10972037734E+04  0.11066850511E+04  0.92225671828E+02 0.  0.
          1    1    3    3  502    0 -0.79911094089E+01  0.25823576289E+03 -0.23619659978E+03  0.35005485401E+03  0.00000000000E+00 0. -1.
         -1    1    3    3    0  502 -0.54688449180E+02  0.26308551240E+03 -0.36865443867E+03  0.45619174528E+03  0.00000000000E+00 0.  1.
         13    1    5    5    0    0  0.14716875832E+02 -0.39046320282E+03  0.31828237224E+03  0.50396603821E+03  0.00000000000E+00 0. -1.
        -13    1    5    5    0    0  0.59892003327E+01 -0.27764260350E+02  0.64548121205E+02  0.70520809868E+02  0.00000000000E+00 0.  1.
          1    1    6    6  503    0  0.43670925287E+02 -0.32833251933E+02  0.77410667479E+03  0.77603241949E+03  0.00000000000E+00 0. -1.
         -1    1    6    6    0  503 -0.16974428628E+01 -0.70260560193E+02  0.32309709864E+03  0.33065263159E+03  0.00000000000E+00 0.  1.
<mgrwt>
<rscale>  0 0.53556502E+03</rscale>
<asrwt>0</asrwt>
<pdfrwt beam="1">  1        2 0.25866167E+00 0.53556502E+03</pdfrwt>
<pdfrwt beam="2">  1       -2 0.12401810E+00 0.53556502E+03</pdfrwt>
<totfact> 0.52595443E+00</totfact>
</mgrwt>
</event>
<event>
12    1  0.1432447E-007  0.6247186E+03  0.7818608E-02  0.9855410E-01
         -2   -1    0    0    0  501 -0.00000000000E+00  0.00000000000E+00  0.44864562084E+03  0.44864562084E+03  0.00000000000E+00 0.  1.
          2   -1    0    0  501    0  0.00000000000E+00 -0.00000000000E+00 -0.12112387311E+04  0.12112387311E+04  0.00000000000E+00 0. -1.
         23    2    1    2    0    0 -0.37650409121E+03 -0.48116101290E+03 -0.29720930254E+03  0.68529495710E+03  0.89579895513E+02 0.  0.
    5000000    2    1    2    0    0  0.37650409121E+03  0.48116101290E+03 -0.46538380768E+03  0.97458939479E+03  0.59997595699E+03 0.  0.
         23    2    4    4    0    0  0.24506526408E+03  0.18874649502E+03  0.84600944449E+02  0.33190656493E+03  0.85571169226E+02 0.  0.
         23    2    4    4    0    0  0.13143882713E+03  0.29241451788E+03 -0.54998475213E+03  0.64268282986E+03  0.88179230465E+02 0.  0.
          3    1    3    3  502    0 -0.19279656517E+03 -0.23303147025E+03 -0.19596595817E+03  0.36038429271E+03  0.00000000000E+00 0. -1.
         -3    1    3    3    0  502 -0.18370752604E+03 -0.24812954264E+03 -0.10124334437E+03  0.32491066439E+03  0.00000000000E+00 0.  1.
         13    1    5    5    0    0  0.89150248481E+02  0.53111754800E+02 -0.10725747494E+02  0.10432481470E+03  0.00000000000E+00 0.  1.
        -13    1    5    5    0    0  0.15591501560E+03  0.13563474022E+03  0.95326691943E+02  0.22758175023E+03  0.00000000000E+00 0. -1.
          1    1    6    6  503    0  0.49655565310E+02  0.19203629825E+03 -0.27863171659E+03  0.34202229240E+03  0.00000000000E+00 0. -1.
         -1    1    6    6    0  503  0.81783261817E+02  0.10037821963E+03 -0.27135303554E+03  0.30066053746E+03  0.00000000000E+00 0.  1.
<mgrwt>
<rscale>  0 0.62471862E+03</rscale>
<asrwt>0</asrwt>
<pdfrwt beam="1">  1        2 0.18634442E+00 0.62471862E+03</pdfrwt>
<pdfrwt beam="2">  1       -2 0.69022403E-01 0.62471862E+03</pdfrwt>
<totfact> 0.36919801E+01</totfact>
</mgrwt>
</event>
<event>
12    1  0.1432447E-007  0.8308704E+03  0.7818608E-02  0.9516378E-01
          1   -1    0    0  501    0  0.00000000000E+00  0.00000000000E+00  0.13393866371E+04  0.13393866371E+04  0.00000000000E+00 0. -1.
         -1   -1    0    0    0  501 -0.00000000000E+00 -0.00000000000E+00 -0.54581824487E+03  0.54581824487E+03  0.00000000000E+00 0.  1.
         23    2    1    2    0    0 -0.67202685387E+03 -0.26740168169E+03  0.14557183779E+03  0.74375364021E+03  0.94098701826E+02 0.  0.
    5000000    2    1    2    0    0  0.67202685387E+03  0.26740168169E+03  0.64799655445E+03  0.11414512418E+04  0.59990636857E+03 0.  0.
         23    2    4    4    0    0  0.11984883547E+03  0.33889452450E+03  0.31127028885E+03  0.48479347381E+03  0.94457807669E+02 0.  0.
         23    2    4    4    0    0  0.55217801839E+03 -0.71492842806E+02  0.33672626560E+03  0.65665776795E+03  0.88334906414E+02 0.  0.
          3    1    3    3  502    0 -0.47025075204E+03 -0.22491595514E+03  0.79969389714E+02  0.52736899792E+03  0.00000000000E+00 0. -1.
         -3    1    3    3    0  502 -0.20177610183E+03 -0.42485726547E+02  0.65602448077E+02  0.21638464230E+03  0.00000000000E+00 0.  1.
         13    1    5    5    0    0 -0.84492856457E+01  0.97195440546E+02  0.71332680761E+02  0.12085816247E+03  0.00000000000E+00 0.  1.
        -13    1    5    5    0    0  0.12829812112E+03  0.24169908395E+03  0.23993760809E+03  0.36393531134E+03  0.00000000000E+00 0. -1.
          4    1    6    6  503    0  0.37993826227E+03 -0.96459385057E+01  0.24227907901E+03  0.45071640684E+03  0.00000000000E+00 0. -1.
         -4    1    6    6    0  503  0.17223975612E+03 -0.61846904300E+02  0.94447186587E+02  0.20594136111E+03  0.00000000000E+00 0.  1.
<mgrwt>
<rscale>  0 0.83087036E+03</rscale>
<asrwt>0</asrwt>
<pdfrwt beam="1">  1        1 0.20605948E+00 0.83087036E+03</pdfrwt>
<pdfrwt beam="2">  1       -1 0.83972038E-01 0.83087036E+03</pdfrwt>
<totfact> 0.12207161E+01</totfact>
</mgrwt>
</event>
<event>
12    1  0.1432447E-007  0.8586667E+03  0.7818608E-02  0.9478778E-01
         -1   -1    0    0    0  501 -0.00000000000E+00  0.00000000000E+00  0.30789689613E+03  0.30789689613E+03  0.00000000000E+00 0.  1.
          1   -1    0    0  501    0  0.00000000000E+00 -0.00000000000E+00 -0.26483531153E+04  0.26483531153E+04  0.00000000000E+00 0. -1.
         23    2    1    2    0    0  0.38243284730E+03  0.69785087831E+03 -0.90132783656E+03  0.12057309366E+04  0.90246836349E+02 0.  0.
    5000000    2    1    2    0    0 -0.38243284730E+03 -0.69785087831E+03 -0.14391283826E+04  0.17505190748E+04  0.59997983189E+03 0.  0.
         23    2    4    4    0    0 -0.91376152717E+00  0.60926213608E+02 -0.34970580506E+03  0.36612565202E+03  0.89671648308E+02 0.  0.
         23    2    4    4    0    0 -0.38151908577E+03 -0.75877709191E+03 -0.10894225776E+04  0.13843934228E+04  0.91673925574E+02 0.  0.
          1    1    3    3  502    0  0.12421324313E+03  0.22584182320E+03 -0.35758729915E+03  0.44079715901E+03  0.00000000000E+00 0. -1.
         -1    1    3    3    0  502  0.25821960417E+03  0.47200905511E+03 -0.54374053741E+03  0.76493377759E+03  0.00000000000E+00 0.  1.
         11    1    5    5    0    0  0.14956951727E+02  0.23084431090E+02 -0.30178589801E+03  0.30303684529E+03  0.00000000000E+00 0. -1.
        -11    1    5    5    0    0 -0.15870713254E+02  0.37841782518E+02 -0.47919907046E+02  0.63088806730E+02  0.00000000000E+00 0.  1.
          2    1    6    6  503    0 -0.22516229369E+03 -0.53075349848E+03 -0.70135225506E+03  0.90790545781E+03  0.00000000000E+00 0. -1.
         -2    1    6    6    0  503 -0.15635679208E+03 -0.22802359344E+03 -0.38807032249E+03  0.47648796500E+03  0.00000000000E+00 0.  1.
<mgrwt>
<rscale>  0 0.85866670E+03</rscale>
<asrwt>0</asrwt>
<pdfrwt beam="1">  1        1 0.40743896E+00 0.85866670E+03</pdfrwt>
<pdfrwt beam="2">  1       -1 0.47368751E-01 0.85866670E+03</pdfrwt>
<totfact> 0.49451689E+00</totfact>
</mgrwt>
</event>
<event>
12    1  0.1432447E-007  0.9490385E+03  0.7818608E-02  0.9366275E-01
          1   -1    0    0  501    0  0.00000000000E+00  0.00000000000E+00  0.35105704049E+04  0.35105704049E+04  0.00000000000E+00 0. -1.
         -1   -1    0    0    0  501 -0.00000000000E+00 -0.00000000000E+00 -0.27914841658E+03  0.27914841658E+03  0.00000000000E+00 0.  1.
         23    2    1    2    0    0  0.60243538618E+03 -0.65954260087E+03  0.16167925717E+04  0.18493704821E+04  0.90709002621E+02 0.  0.
    5000000    2    1    2    0    0 -0.60243538618E+03  0.65954260087E+03  0.16146294167E+04  0.19403483395E+04  0.59999890698E+03 0.  0.
         23    2    4    4    0    0 -0.49471438376E+03  0.69740806940E+03  0.10516784580E+04  0.13588457903E+04  0.96508890670E+02 0.  0.
         23    2    4    4    0    0 -0.10772100242E+03 -0.37865468531E+02  0.56295095868E+03  0.58150254919E+03  0.90519747917E+02 0.  0.
          2    1    3    3  502    0  0.46663864952E+02 -0.49890273612E+02  0.18088781470E+03  0.19335707176E+03  0.00000000000E+00 0. -1.
         -2    1    3    3    0  502  0.55577152122E+03 -0.60965232725E+03  0.14359047570E+04  0.16560134103E+04  0.00000000000E+00 0.  1.
         11    1    5    5    0    0 -0.28067501595E+03  0.31263594226E+03  0.50662873515E+03  0.65817351227E+03  0.00000000000E+00 0. -1.
        -11    1    5    5    0    0 -0.21403936781E+03  0.38477212714E+03  0.54504972283E+03  0.70067227800E+03  0.00000000000E+00 0.  1.
          4    1    6    6  503    0 -0.47177017609E+02 -0.63088374590E+02  0.26746288188E+03  0.27882289573E+03  0.00000000000E+00 0. -1.
         -4    1    6    6    0  503 -0.60543984812E+02  0.25222906059E+02  0.29548807680E+03  0.30267965346E+03  0.00000000000E+00 0.  1.
<mgrwt>
<rscale>  0 0.94903851E+03</rscale>
<asrwt>0</asrwt>
<pdfrwt beam="1">  1        1 0.54008772E+00 0.94903851E+03</pdfrwt>
<pdfrwt beam="2">  1       -1 0.42945913E-01 0.94903851E+03</pdfrwt>
<totfact> 0.13727104E+00</totfact>
</mgrwt>
</event>
<event>
12    1  0.1432447E-007  0.2095627E+04  0.7818608E-02  0.8563172E-01
         -1   -1    0    0    0  501 -0.00000000000E+00  0.00000000000E+00  0.17331082797E+04  0.17331082797E+04  0.00000000000E+00 0.  1.
          1   -1    0    0  501    0  0.00000000000E+00 -0.00000000000E+00 -0.26492402795E+04  0.26492402795E+04  0.00000000000E+00 0. -1.
         23    2    1    2    0    0  0.61766453051E+03  0.19746915905E+04 -0.83219596795E+02  0.20726636321E+04  0.89959329016E+02 0.  0.
    5000000    2    1    2    0    0 -0.61766453051E+03 -0.19746915905E+04 -0.83291240301E+03  0.23096849271E+04  0.59998753460E+03 0.  0.
         23    2    4    4    0    0  0.69017977219E+02 -0.12331181823E+03 -0.12705101511E+03  0.21076970964E+03  0.91173594665E+02 0.  0.
         23    2    4    4    0    0 -0.68668250773E+03 -0.18513797722E+04 -0.70586138789E+03  0.20989152174E+04  0.89804586228E+02 0.  0.
          2    1    3    3  502    0  0.34483740798E+03  0.11601144280E+04 -0.89543380350E+02  0.12135882090E+04  0.00000000000E+00 0. -1.
         -2    1    3    3    0  502  0.27282712253E+03  0.81457716243E+03  0.63237835551E+01  0.85907542310E+03  0.00000000000E+00 0.  1.
         13    1    5    5    0    0  0.64786505064E+02 -0.12617887419E+03 -0.78819324805E+02  0.16226794352E+03  0.00000000000E+00 0.  1.
        -13    1    5    5    0    0  0.42314721555E+01  0.28670559623E+01 -0.48231690310E+02  0.48501766119E+02  0.00000000000E+00 0. -1.
          4    1    6    6  503    0 -0.13320022369E+03 -0.31874456776E+03 -0.15689633069E+03  0.37941646993E+03  0.00000000000E+00 0. -1.
         -4    1    6    6    0  503 -0.55348228403E+03 -0.15326352045E+04 -0.54896505720E+03  0.17194987475E+04  0.00000000000E+00 0.  1.
<mgrwt>
<rscale>  0 0.20956265E+04</rscale>
<asrwt>0</asrwt>
<pdfrwt beam="1">  1        1 0.40757543E+00 0.20956265E+04</pdfrwt>
<pdfrwt beam="2">  1       -1 0.26663204E+00 0.20956265E+04</pdfrwt>
<totfact> 0.51007782E-02</totfact>
</mgrwt>
</event>
<event>
12    1  0.1432447E-007  0.1909034E+04  0.7818608E-02  0.8650372E-01
         -2   -1    0    0    0  501 -0.00000000000E+00  0.00000000000E+00  0.94112204562E+03  0.94112204562E+03  0.00000000000E+00 0.  1.
          2   -1    0    0  501    0  0.00000000000E+00 -0.00000000000E+00 -0.40715462102E+04  0.40715462102E+04  0.00000000000E+00 0. -1.
         23    2    1    2    0    0 -0.18589603578E+04  0.25771243896E+03 -0.19864622816E+04  0.27343474172E+04  0.92054814774E+02 0.  0.
    5000000    2    1    2    0    0  0.18589603578E+04 -0.25771243896E+03 -0.11439618830E+04  0.22783208386E+04  0.59995644892E+03 0.  0.
         23    2    4    4    0    0  0.16775136819E+04 -0.81449352914E+02 -0.86775986704E+03  0.18927598292E+04  0.94055484131E+02 0.  0.
         23    2    4    4    0    0  0.18144667588E+03 -0.17626308605E+03 -0.27620201597E+03  0.38556100936E+03  0.91532325556E+02 0.  0.
          3    1    3    3  502    0 -0.85315798040E+03  0.79195518824E+02 -0.94196071044E+03  0.12733579425E+04  0.00000000000E+00 0. -1.
         -3    1    3    3    0  502 -0.10058023774E+04  0.17851692014E+03 -0.10445015711E+04  0.14609894747E+04  0.00000000000E+00 0.  1.
         11    1    5    5    0    0  0.10313677616E+04 -0.89612560700E+02 -0.50819893829E+03  0.11532632100E+04  0.00000000000E+00 0.  1.
        -11    1    5    5    0    0  0.64614592031E+03  0.81632077865E+01 -0.35956092874E+03  0.73949661918E+03  0.00000000000E+00 0. -1.
          1    1    6    6  503    0  0.15688255613E+02 -0.42397241683E+02 -0.97527384835E+02  0.10749529413E+03  0.00000000000E+00 0. -1.
         -1    1    6    6    0  503  0.16575842027E+03 -0.13386584437E+03 -0.17867463114E+03  0.27806571524E+03  0.00000000000E+00 0.  1.
<mgrwt>
<rscale>  0 0.19090342E+04</rscale>
<asrwt>0</asrwt>
<pdfrwt beam="1">  1        2 0.62639173E+00 0.19090342E+04</pdfrwt>
<pdfrwt beam="2">  1       -2 0.14478801E+00 0.19090342E+04</pdfrwt>
<totfact> 0.90020575E-02</totfact>
</mgrwt>
</event>
<event>
12    1  0.1432447E-007  0.8303774E+03  0.7818608E-02  0.9517059E-01
          1   -1    0    0  501    0  0.00000000000E+00  0.00000000000E+00  0.12114481245E+04  0.12114481245E+04  0.00000000000E+00 0. -1.
         -1   -1    0    0    0  501 -0.00000000000E+00 -0.00000000000E+00 -0.64225472351E+03  0.64225472351E+03  0.00000000000E+00 0.  1.
         23    2    1    2    0    0 -0.43888378241E+03  0.60132215267E+03  0.48649228704E+03  0.89398225260E+03  0.91226185164E+02 0.  0.
    5000000    2    1    2    0    0  0.43888378241E+03 -0.60132215267E+03  0.82701114000E+02  0.95972059546E+03  0.60001403428E+03 0.  0.
         23    2    4    4    0    0  0.13874115254E+02 -0.46061276409E+03 -0.76441577127E+02  0.47595985619E+03  0.91311885742E+02 0.  0.
         23    2    4    4    0    0  0.42500966715E+03 -0.14070938858E+03  0.15914269113E+03  0.48376073926E+03  0.90915936469E+02 0.  0.
          1    1    3    3  502    0 -0.37847956449E+03  0.51603831148E+03  0.37758674270E+03  0.74304378600E+03  0.00000000000E+00 0.  1.
         -1    1    3    3    0  502 -0.60404217912E+02  0.85283841189E+02  0.10890554434E+03  0.15093846660E+03  0.00000000000E+00 0. -1.
         13    1    5    5    0    0 -0.34694984682E+01 -0.51335950368E+02 -0.39087469353E+02  0.64616154947E+02  0.00000000000E+00 0.  1.
        -13    1    5    5    0    0  0.17343613722E+02 -0.40927681372E+03 -0.37354107774E+02  0.41134370125E+03  0.00000000000E+00 0. -1.
          1    1    6    6  503    0  0.33565426219E+03 -0.14522679635E+03  0.11120516557E+03  0.38225802144E+03  0.00000000000E+00 0. -1.
         -1    1    6    6    0  503  0.89355404966E+02  0.45174077725E+01  0.47937525553E+02  0.10150271782E+03  0.00000000000E+00 0.  1.
<mgrwt>
<rscale>  0 0.83037740E+03</rscale>
<asrwt>0</asrwt>
<pdfrwt beam="1">  1        1 0.18637663E+00 0.83037740E+03</pdfrwt>
<pdfrwt beam="2">  1       -1 0.98808419E-01 0.83037740E+03</pdfrwt>
<totfact> 0.10507660E+01</totfact>
</mgrwt>
</event>
<event>
12    1  0.1432447E-007  0.3248913E+03  0.7818608E-02  0.1073420E+00
         -2   -1    0    0    0  501 -0.00000000000E+00  0.00000000000E+00  0.39879985081E+03  0.39879985081E+03  0.00000000000E+00 0.  1.
          2   -1    0    0  501    0  0.00000000000E+00 -0.00000000000E+00 -0.70266814769E+03  0.70266814769E+03  0.00000000000E+00 0. -1.
         23    2    1    2    0    0  0.22338229127E+03  0.33724099982E+02  0.17651769518E+03  0.30031902816E+03  0.89420685472E+02 0.  0.
    5000000    2    1    2    0    0 -0.22338229127E+03 -0.33724099982E+02 -0.48038599205E+03  0.80114897035E+03  0.60002667304E+03 0.  0.
         23    2    4    4    0    0  0.14947580147E+02  0.10952961235E+03 -0.48774174038E+03  0.50836366181E+03  0.91221933794E+02 0.  0.
         23    2    4    4    0    0 -0.23832987142E+03 -0.14325371233E+03  0.73557483330E+01  0.29278530854E+03  0.91358503465E+02 0.  0.
          1    1    3    3  502    0  0.51452973833E+02  0.28849189409E+02  0.90456996239E+02  0.10799144602E+03  0.00000000000E+00 0. -1.
         -1    1    3    3    0  502  0.17192931744E+03  0.48749105730E+01  0.86060698937E+02  0.19232758213E+03  0.00000000000E+00 0.  1.
         11    1    5    5    0    0  0.50370569821E+02  0.79759297199E+02 -0.27767785034E+03  0.29326392271E+03  0.00000000000E+00 0. -1.
        -11    1    5    5    0    0 -0.35422989674E+02  0.29770315146E+02 -0.21006389004E+03  0.21509973910E+03  0.00000000000E+00 0.  1.
          1    1    6    6  503    0 -0.18151273264E+03 -0.11313472856E+03 -0.33653572034E+02  0.21651536164E+03  0.00000000000E+00 0. -1.
         -1    1    6    6    0  503 -0.56817138777E+02 -0.30118983769E+02  0.41009320367E+02  0.76269946893E+02  0.00000000000E+00 0.  1.
<mgrwt>
<rscale>  0 0.32489127E+03</rscale>
<asrwt>0</asrwt>
<pdfrwt beam="1">  1        2 0.10810279E+00 0.32489127E+03</pdfrwt>
<pdfrwt beam="2">  1       -2 0.61353824E-01 0.32489127E+03</pdfrwt>
<totfact> 0.10582444E+02</totfact>
</mgrwt>
</event>
<event>
12    1  0.1432447E-007  0.8461572E+03  0.7818608E-02  0.9495509E-01
          1   -1    0    0  501    0  0.00000000000E+00  0.00000000000E+00  0.15832782339E+04  0.15832782339E+04  0.00000000000E+00 0. -1.
         -1   -1    0    0    0  501 -0.00000000000E+00 -0.00000000000E+00 -0.88580910780E+03  0.88580910780E+03  0.00000000000E+00 0.  1.
         23    2    1    2    0    0 -0.61433738273E+03 -0.53608496853E+03 -0.45322656909E+03  0.93644510292E+03  0.81960933153E+02 0.  0.
    5000000    2    1    2    0    0  0.61433738273E+03  0.53608496853E+03  0.11506956952E+04  0.15326422388E+04  0.60007844145E+03 0.  0.
         23    2    4    4    0    0  0.56738057139E+03  0.35851170860E+03  0.47653461258E+03  0.82793409481E+03  0.89096971663E+02 0.  0.
         23    2    4    4    0    0  0.46956811335E+02  0.17757325993E+03  0.67416108263E+03  0.70470814400E+03  0.91559806191E+02 0.  0.
          3    1    3    3  502    0 -0.41362685039E+03 -0.36474823106E+03 -0.34947404162E+03  0.65288632180E+03  0.00000000000E+00 0. -1.
         -3    1    3    3    0  502 -0.20071053233E+03 -0.17133673747E+03 -0.10375252747E+03  0.28355878112E+03  0.00000000000E+00 0.  1.
         13    1    5    5    0    0  0.44014470550E+03  0.31672110617E+03  0.36507484983E+03  0.65369661683E+03  0.00000000000E+00 0.  1.
        -13    1    5    5    0    0  0.12723586589E+03  0.41790602437E+02  0.11145976275E+03  0.17423747798E+03  0.00000000000E+00 0. -1.
          2    1    6    6  503    0  0.46065987335E+02  0.34166999968E+02  0.26521548134E+03  0.27134610853E+03  0.00000000000E+00 0. -1.
         -2    1    6    6    0  503  0.89082400073E+00  0.14340625996E+03  0.40894560130E+03  0.43336203547E+03  0.00000000000E+00 0.  1.
<mgrwt>
<rscale>  0 0.84615722E+03</rscale>
<asrwt>0</asrwt>
<pdfrwt beam="1">  1        1 0.24358127E+00 0.84615722E+03</pdfrwt>
<pdfrwt beam="2">  1       -1 0.13627832E+00 0.84615722E+03</pdfrwt>
<totfact> 0.26514979E+00</totfact>
</mgrwt>
</event>
<event>
12    1  0.1432447E-007  0.1082823E+04  0.7818608E-02  0.9222098E-01
          1   -1    0    0  501    0  0.00000000000E+00  0.00000000000E+00  0.10736366173E+04  0.10736366173E+04  0.00000000000E+00 0. -1.
         -1   -1    0    0    0  501 -0.00000000000E+00 -0.00000000000E+00 -0.20611121317E+04  0.20611121317E+04  0.00000000000E+00 0.  1.
         23    2    1    2    0    0  0.10121357334E+04  0.34844760343E+03 -0.14662121441E+04  0.18177093083E+04  0.91948914439E+02 0.  0.
    5000000    2    1    2    0    0 -0.10121357334E+04 -0.34844760343E+03  0.47873662962E+03  0.13170394407E+04  0.59964127007E+03 0.  0.
         23    2    4    4    0    0 -0.61364524473E+03 -0.13022813007E+03 -0.19916582581E+02  0.63572733002E+03  0.10115688618E+03 0.  0.
         23    2    4    4    0    0 -0.39849048864E+03 -0.21821947336E+03  0.49865321220E+03  0.68131211071E+03  0.95481715878E+02 0.  0.
          4    1    3    3  502    0  0.64028411846E+03  0.26682170267E+03 -0.95168976471E+03  0.11776548652E+04  0.00000000000E+00 0. -1.
         -4    1    3    3    0  502  0.37185161492E+03  0.81625900764E+02 -0.51452237939E+03  0.64005444306E+03  0.00000000000E+00 0.  1.
         11    1    5    5    0    0 -0.38557759904E+03 -0.38024821460E+02 -0.36530406997E+02  0.38916634305E+03  0.00000000000E+00 0.  1.
        -11    1    5    5    0    0 -0.22806764570E+03 -0.92203308615E+02  0.16613824416E+02  0.24656098697E+03  0.00000000000E+00 0. -1.
          3    1    6    6  503    0 -0.10967598794E+03 -0.89839689014E+02  0.20933411000E+03  0.25282555579E+03  0.00000000000E+00 0. -1.
         -3    1    6    6    0  503 -0.28881450070E+03 -0.12837978435E+03  0.28931910220E+03  0.42848655491E+03  0.00000000000E+00 0.  1.
<mgrwt>
<rscale>  0 0.10828227E+04</rscale>
<asrwt>0</asrwt>
<pdfrwt beam="1">  1        1 0.16517487E+00 0.10828227E+04</pdfrwt>
<pdfrwt beam="2">  1       -1 0.31709417E+00 0.10828227E+04</pdfrwt>
<totfact> 0.34047645E-01</totfact>
</mgrwt>
</event>
<event>
12    1  0.1432447E-007  0.6596745E+03  0.7818608E-02  0.9788793E-01
         -4   -1    0    0    0  501 -0.00000000000E+00  0.00000000000E+00  0.42876316596E+03  0.42876316596E+03  0.00000000000E+00 0.  1.
          4   -1    0    0  501    0  0.00000000000E+00 -0.00000000000E+00 -0.22242862966E+04  0.22242862966E+04  0.00000000000E+00 0. -1.
         23    2    1    2    0    0  0.64703067159E+03  0.16653970302E-01 -0.16288782647E+04  0.17550807553E+04  0.91735306216E+02 0.  0.
    5000000    2    1    2    0    0 -0.64703067159E+03 -0.16653970302E-01 -0.16664486594E+03  0.89796870718E+03  0.59994049495E+03 0.  0.
         23    2    4    4    0    0 -0.23933594084E+03 -0.70125785423E+02  0.20406169318E+03  0.33497043660E+03  0.91458736099E+02 0.  0.
         23    2    4    4    0    0 -0.40769473075E+03  0.70109131453E+02 -0.37070655912E+03  0.56299827059E+03  0.91724674506E+02 0.  0.
          3    1    3    3  502    0  0.52094665941E+03 -0.35518001780E+02 -0.13246595420E+04  0.14238573849E+04  0.00000000000E+00 0. -1.
         -3    1    3    3    0  502  0.12608401218E+03  0.35534655750E+02 -0.30421872268E+03  0.33122337042E+03  0.00000000000E+00 0.  1.
         11    1    5    5    0    0 -0.16911389744E+03 -0.53408089393E+02  0.87231971656E+02  0.19763944748E+03  0.00000000000E+00 0. -1.
        -11    1    5    5    0    0 -0.70222043399E+02 -0.16717696030E+02  0.11682972153E+03  0.13733098912E+03  0.00000000000E+00 0.  1.
          2    1    6    6  503    0 -0.30121134975E+03  0.29310988678E+02 -0.31230490814E+03  0.43488132510E+03  0.00000000000E+00 0. -1.
         -2    1    6    6    0  503 -0.10648338100E+03  0.40798142775E+02 -0.58401650989E+02  0.12811694548E+03  0.00000000000E+00 0.  1.
<mgrwt>
<rscale>  0 0.65967452E+03</rscale>
<asrwt>0</asrwt>
<pdfrwt beam="1">  1        4 0.34219790E+00 0.65967452E+03</pdfrwt>
<pdfrwt beam="2">  1       -4 0.65963563E-01 0.65967452E+03</pdfrwt>
<totfact> 0.72956641E-02</totfact>
</mgrwt>
</event>
<event>
12    1  0.1432447E-007  0.8357715E+03  0.7818608E-02  0.9509635E-01
          1   -1    0    0  501    0  0.00000000000E+00  0.00000000000E+00  0.32258791631E+04  0.32258791631E+04  0.00000000000E+00 0. -1.
         -1   -1    0    0    0  501 -0.00000000000E+00 -0.00000000000E+00 -0.32617499374E+03  0.32617499374E+03  0.00000000000E+00 0.  1.
         23    2    1    2    0    0 -0.58199481528E+03  0.46456389371E+03  0.34683857401E+03  0.82593382349E+03  0.85627729215E+02 0.  0.
    5000000    2    1    2    0    0  0.58199481528E+03 -0.46456389371E+03  0.25528655953E+04  0.27261203333E+04  0.60005978673E+03 0.  0.
         23    2    4    4    0    0 -0.30082178803E+02  0.84562362786E+02  0.40491321100E+03  0.42438148247E+03  0.89939999701E+02 0.  0.
         23    2    4    4    0    0  0.61207699408E+03 -0.54912625650E+03  0.21479523843E+04  0.23017388508E+04  0.90135453250E+02 0.  0.
          1    1    3    3  502    0 -0.16885401792E+03  0.10366287405E+03  0.12456197468E+03  0.23403708331E+03  0.00000000000E+00 0. -1.
         -1    1    3    3    0  502 -0.41314079736E+03  0.36090101966E+03  0.22227659933E+03  0.59189674019E+03  0.00000000000E+00 0.  1.
         11    1    5    5    0    0 -0.39979797012E+02  0.48412452858E+02  0.10654864566E+03  0.12367200028E+03  0.00000000000E+00 0. -1.
        -11    1    5    5    0    0  0.98976182089E+01  0.36149909928E+02  0.29836456534E+03  0.30070948220E+03  0.00000000000E+00 0.  1.
          3    1    6    6  503    0  0.16083339948E+03 -0.18166148107E+03  0.55076123664E+03  0.60183570506E+03  0.00000000000E+00 0. -1.
         -3    1    6    6    0  503  0.45124359461E+03 -0.36746477543E+03  0.15971911477E+04  0.16999031458E+04  0.00000000000E+00 0.  1.
<mgrwt>
<rscale>  0 0.83577149E+03</rscale>
<asrwt>0</asrwt>
<pdfrwt beam="1">  1        1 0.49628908E+00 0.83577149E+03</pdfrwt>
<pdfrwt beam="2">  1       -1 0.50180770E-01 0.83577149E+03</pdfrwt>
<totfact> 0.17211039E+00</totfact>
</mgrwt>
</event>
<event>
12    1  0.1432447E-007  0.6413381E+03  0.7818608E-02  0.9823170E-01
         -1   -1    0    0    0  501 -0.00000000000E+00  0.00000000000E+00  0.72689752405E+03  0.72689752405E+03  0.00000000000E+00 0.  1.
          1   -1    0    0  501    0  0.00000000000E+00 -0.00000000000E+00 -0.97436667717E+03  0.97436667717E+03  0.00000000000E+00 0. -1.
         23    2    1    2    0    0  0.32447035160E+03 -0.39382582197E+03 -0.63797656878E+03  0.82210139050E+03  0.91960898388E+02 0.  0.
    5000000    2    1    2    0    0 -0.32447035160E+03  0.39382582197E+03  0.39050741566E+03  0.87916281071E+03  0.60004284758E+03 0.  0.
         23    2    4    4    0    0  0.13525839126E+03  0.20193979707E+03  0.36826635754E+02  0.26147629788E+03  0.89101847370E+02 0.  0.
         23    2    4    4    0    0 -0.45972874286E+03  0.19188602491E+03  0.35368077991E+03  0.61768651283E+03  0.90971261918E+02 0.  0.
          2    1    3    3  502    0  0.23108355851E+03 -0.21151015856E+03 -0.40115156139E+03  0.50897812663E+03  0.00000000000E+00 0. -1.
         -2    1    3    3    0  502  0.93386793094E+02 -0.18231566341E+03 -0.23682500740E+03  0.31312326387E+03  0.00000000000E+00 0.  1.
         13    1    5    5    0    0  0.12644487243E+03  0.11543337431E+03  0.33506170154E+02  0.17445868596E+03  0.00000000000E+00 0.  1.
        -13    1    5    5    0    0  0.88135188310E+01  0.86506422754E+02  0.33204655996E+01  0.87017611917E+02  0.00000000000E+00 0. -1.
          4    1    6    6  503    0 -0.37020839667E+03  0.11296212474E+03  0.27122308482E+03  0.47262740116E+03  0.00000000000E+00 0.  1.
         -4    1    6    6    0  503 -0.89520346192E+02  0.78923900170E+02  0.82457695090E+02  0.14505911168E+03  0.00000000000E+00 0. -1.
<mgrwt>
<rscale>  0 0.64133811E+03</rscale>
<asrwt>0</asrwt>
<pdfrwt beam="1">  1        1 0.14990257E+00 0.64133811E+03</pdfrwt>
<pdfrwt beam="2">  1       -1 0.11183039E+00 0.64133811E+03</pdfrwt>
<totfact> 0.12187381E+01</totfact>
</mgrwt>
</event>
<event>
12    1  0.1432447E-007  0.5124945E+03  0.7818608E-02  0.1010568E+00
         -3   -1    0    0    0  501 -0.00000000000E+00  0.00000000000E+00  0.51983564709E+03  0.51983564709E+03  0.00000000000E+00 0.  1.
          3   -1    0    0  501    0  0.00000000000E+00 -0.00000000000E+00 -0.57410898683E+03  0.57410898683E+03  0.00000000000E+00 0. -1.
         23    2    1    2    0    0  0.17563249784E+02 -0.34543910979E+03  0.12433879499E+03  0.37871094372E+03  0.91242515503E+02 0.  0.
    5000000    2    1    2    0    0 -0.17563249784E+02  0.34543910979E+03 -0.17861213473E+03  0.71523369020E+03  0.60001690861E+03 0.  0.
         23    2    4    4    0    0  0.26965425723E+03  0.11657188012E+03 -0.28035409812E+02  0.30893005628E+03  0.91374907917E+02 0.  0.
         23    2    4    4    0    0 -0.28721750701E+03  0.22886722967E+03 -0.15057672492E+03  0.40630363392E+03  0.86805458929E+02 0.  0.
          2    1    3    3  502    0  0.82565030148E+01 -0.26984822199E+03  0.13493226395E+03  0.30181608407E+03  0.00000000000E+00 0. -1.
         -2    1    3    3    0  502  0.93067467691E+01 -0.75590887807E+02 -0.10593468964E+02  0.76894859643E+02  0.00000000000E+00 0.  1.
         11    1    5    5    0    0  0.12221290581E+03  0.44943442598E+01 -0.15972414819E+02  0.12333414577E+03  0.00000000000E+00 0. -1.
        -11    1    5    5    0    0  0.14744135142E+03  0.11207753587E+03 -0.12062994993E+02  0.18559591052E+03  0.00000000000E+00 0.  1.
          1    1    6    6  503    0 -0.16077339679E+03  0.92921731356E+02 -0.11143052512E+03  0.21656245104E+03  0.00000000000E+00 0. -1.
         -1    1    6    6    0  503 -0.12644411022E+03  0.13594549831E+03 -0.39146199801E+02  0.18974118288E+03  0.00000000000E+00 0.  1.
<mgrwt>
<rscale>  0 0.51249448E+03</rscale>
<asrwt>0</asrwt>
<pdfrwt beam="1">  1        3 0.88324460E-01 0.51249448E+03</pdfrwt>
<pdfrwt beam="2">  1       -3 0.79974715E-01 0.51249448E+03</pdfrwt>
<totfact> 0.44272702E+00</totfact>
</mgrwt>
</event>
<event>
12    1  0.1432447E-007  0.7013483E+03  0.7818608E-02  0.9714929E-01
          1   -1    0    0  501    0  0.00000000000E+00  0.00000000000E+00  0.87039302765E+03  0.87039302765E+03  0.00000000000E+00 0. -1.
         -1   -1    0    0    0  501 -0.00000000000E+00 -0.00000000000E+00 -0.70841482389E+03  0.70841482389E+03  0.00000000000E+00 0.  1.
         23    2    1    2    0    0  0.22967506437E+03 -0.61468601433E+03 -0.51698057424E+02  0.66438470322E+03  0.90248619465E+02 0.  0.
    5000000    2    1    2    0    0 -0.22967506437E+03  0.61468601433E+03  0.21367626118E+03  0.91442314832E+03  0.59993551169E+03 0.  0.
         23    2    4    4    0    0  0.21691673344E+02  0.27216498396E+02  0.24929022826E+03  0.26774907900E+03  0.91283541343E+02 0.  0.
         23    2    4    4    0    0 -0.25136673772E+03  0.58746951594E+03 -0.35613967085E+02  0.64667406932E+03  0.92808018491E+02 0.  0.
          4    1    3    3  502    0 -0.36957424840E+01 -0.65839404581E+02 -0.69072085620E+01  0.66303810133E+02  0.00000000000E+00 0. -1.
         -4    1    3    3    0  502  0.23337080686E+03 -0.54884660975E+03 -0.44790848862E+02  0.59808089308E+03  0.00000000000E+00 0.  1.
         11    1    5    5    0    0 -0.34053822837E+02  0.14237188553E+01  0.11758143019E+03  0.12242174052E+03  0.00000000000E+00 0. -1.
        -11    1    5    5    0    0  0.55745496182E+02  0.25792779541E+02  0.13170879807E+03  0.14532733848E+03  0.00000000000E+00 0.  1.
          4    1    6    6  503    0 -0.19493360029E+03  0.34860815509E+03 -0.59655348295E+01  0.39945255278E+03  0.00000000000E+00 0. -1.
         -4    1    6    6    0  503 -0.56433137425E+02  0.23886136085E+03 -0.29648432255E+02  0.24722151654E+03  0.00000000000E+00 0.  1.
<mgrwt>
<rscale>  0 0.70134828E+03</rscale>
<asrwt>0</asrwt>
<pdfrwt beam="1">  1        1 0.13390662E+00 0.70134828E+03</pdfrwt>
<pdfrwt beam="2">  1       -1 0.10898690E+00 0.70134828E+03</pdfrwt>
<totfact> 0.15555931E+01</totfact>
</mgrwt>
</event>
<event>
12    1  0.1432447E-007  0.5488279E+03  0.7818608E-02  0.1001766E+00
          2   -1    0    0  501    0  0.00000000000E+00  0.00000000000E+00  0.87042523420E+03  0.87042523420E+03  0.00000000000E+00 0. -1.
         -2   -1    0    0    0  501 -0.00000000000E+00 -0.00000000000E+00 -0.56709600150E+03  0.56709600150E+03  0.00000000000E+00 0.  1.
         23    2    1    2    0    0 -0.32255779309E+03 -0.20637113496E+03 -0.30763982325E+03  0.49946504986E+03  0.90501380944E+02 0.  0.
    5000000    2    1    2    0    0  0.32255779309E+03  0.20637113496E+03  0.61096905594E+03  0.93805618584E+03  0.60002803705E+03 0.  0.
         23    2    4    4    0    0  0.39120828428E+02 -0.19021364874E+03  0.16038382344E+03  0.26780496659E+03  0.91021194919E+02 0.  0.
         23    2    4    4    0    0  0.28343696466E+03  0.39658478370E+03  0.45058523250E+03  0.67025121925E+03  0.92701896187E+02 0.  0.
          4    1    3    3  502    0 -0.89882021478E+02 -0.10808835932E+03 -0.11967747617E+03  0.18462006800E+03  0.00000000000E+00 0. -1.
         -4    1    3    3    0  502 -0.23267577161E+03 -0.98282775641E+02 -0.18796234708E+03  0.31484498186E+03  0.00000000000E+00 0.  1.
         11    1    5    5    0    0 -0.83755985993E+01  0.74307082294E+01  0.83278900932E+01  0.13954204746E+02  0.00000000000E+00 0.  1.
        -11    1    5    5    0    0  0.47496427027E+02 -0.19764435697E+03  0.15205593335E+03  0.25385076185E+03  0.00000000000E+00 0. -1.
          4    1    6    6  503    0  0.24259937102E+03  0.30473280656E+03  0.31206039823E+03  0.49909741570E+03  0.00000000000E+00 0. -1.
         -4    1    6    6    0  503  0.40837593636E+02  0.91851977140E+02  0.13852483428E+03  0.17115380355E+03  0.00000000000E+00 0.  1.
<mgrwt>
<rscale>  0 0.54882789E+03</rscale>
<asrwt>0</asrwt>
<pdfrwt beam="1">  1        2 0.13391157E+00 0.54882789E+03</pdfrwt>
<pdfrwt beam="2">  1       -2 0.87245539E-01 0.54882789E+03</pdfrwt>
<totfact> 0.36123253E+01</totfact>
</mgrwt>
</event>
<event>
12    1  0.1432447E-007  0.1300989E+04  0.7818608E-02  0.9028781E-01
          1   -1    0    0  501    0  0.00000000000E+00  0.00000000000E+00  0.73016647073E+03  0.73016647073E+03  0.00000000000E+00 0. -1.
         -1   -1    0    0    0  501 -0.00000000000E+00 -0.00000000000E+00 -0.23836397579E+04  0.23836397579E+04  0.00000000000E+00 0.  1.
         23    2    1    2    0    0  0.12240618321E+04  0.24675527422E+03 -0.82016383002E+03  0.14971289502E+04  0.97523592732E+02 0.  0.
    5000000    2    1    2    0    0 -0.12240618321E+04 -0.24675527422E+03 -0.83330945712E+03  0.16166772784E+04  0.60002103049E+03 0.  0.
         23    2    4    4    0    0 -0.11014805573E+04 -0.37470100635E+03 -0.59808449750E+03  0.13114174929E+04  0.91926668174E+02 0.  0.
         23    2    4    4    0    0 -0.12258127485E+03  0.12794573212E+03 -0.23522495962E+03  0.30525978553E+03  0.80352197978E+02 0.  0.
          1    1    3    3  502    0  0.35946028988E+03  0.10668169354E+03 -0.28156601399E+03  0.46890521854E+03  0.00000000000E+00 0. -1.
         -1    1    3    3    0  502  0.86460154225E+03  0.14007358068E+03 -0.53859781603E+03  0.10282237316E+04  0.00000000000E+00 0.  1.
         13    1    5    5    0    0 -0.28572219572E+03 -0.14034111778E+03 -0.16057843093E+03  0.35653644267E+03  0.00000000000E+00 0. -1.
        -13    1    5    5    0    0 -0.81575836156E+03 -0.23435988857E+03 -0.43750606657E+03  0.95488105024E+03  0.00000000000E+00 0.  1.
          2    1    6    6  503    0 -0.22668006834E+02  0.57513336939E+02 -0.13006362312E+03  0.14400752939E+03  0.00000000000E+00 0. -1.
         -2    1    6    6    0  503 -0.99913268017E+02  0.70432395183E+02 -0.10516133649E+03  0.16125225614E+03  0.00000000000E+00 0.  1.
<mgrwt>
<rscale>  0 0.13009889E+04</rscale>
<asrwt>0</asrwt>
<pdfrwt beam="1">  1        1 0.11233330E+00 0.13009889E+04</pdfrwt>
<pdfrwt beam="2">  1       -1 0.36671381E+00 0.13009889E+04</pdfrwt>
<totfact> 0.30079513E-01</totfact>
</mgrwt>
</event>
<event>
12    1  0.1432447E-007  0.1037337E+04  0.7818608E-02  0.9268516E-01
         -1   -1    0    0    0  501 -0.00000000000E+00  0.00000000000E+00  0.14857772349E+04  0.14857772349E+04  0.00000000000E+00 0.  1.
          1   -1    0    0  501    0  0.00000000000E+00 -0.00000000000E+00 -0.14748872440E+04  0.14748872440E+04  0.00000000000E+00 0. -1.
         23    2    1    2    0    0 -0.81640825502E+03  0.51290111213E+03 -0.10345180307E+04  0.14170844909E+04  0.91164186896E+02 0.  0.
    5000000    2    1    2    0    0  0.81640825502E+03 -0.51290111213E+03  0.10454080216E+04  0.15435799879E+04  0.60014269798E+03 0.  0.
         23    2    4    4    0    0  0.23188884294E+03 -0.46699408234E+03  0.60484515356E+03  0.80349234288E+03  0.88917809622E+02 0.  0.
         23    2    4    4    0    0  0.58451941207E+03 -0.45907029789E+02  0.44056286801E+03  0.74008764506E+03  0.99316077408E+02 0.  0.
          1    1    3    3  502    0 -0.35478418248E+03  0.26344248514E+03 -0.42962043148E+03  0.61631767317E+03  0.00000000000E+00 0. -1.
         -1    1    3    3    0  502 -0.46162407254E+03  0.24945862699E+03 -0.60489759917E+03  0.80076681775E+03  0.00000000000E+00 0.  1.
         13    1    5    5    0    0  0.10907381809E+03 -0.23194324967E+03  0.36442555318E+03  0.44553423289E+03  0.00000000000E+00 0. -1.
        -13    1    5    5    0    0  0.12281502485E+03 -0.23505083267E+03  0.24041960037E+03  0.35795810999E+03  0.00000000000E+00 0.  1.
          2    1    6    6  503    0  0.45406361258E+03 -0.42490863225E+02  0.39023521156E+03  0.60021892512E+03  0.00000000000E+00 0. -1.
         -2    1    6    6    0  503  0.13045579949E+03 -0.34161665644E+01  0.50327656441E+02  0.13986871994E+03  0.00000000000E+00 0.  1.
<mgrwt>
<rscale>  0 0.10373369E+04</rscale>
<asrwt>0</asrwt>
<pdfrwt beam="1">  1        1 0.22690573E+00 0.10373369E+04</pdfrwt>
<pdfrwt beam="2">  1       -1 0.22858111E+00 0.10373369E+04</pdfrwt>
<totfact> 0.65891861E-01</totfact>
</mgrwt>
</event>
<event>
12    1  0.1432447E-007  0.2550614E+03  0.7818608E-02  0.1110147E+00
         -3   -1    0    0    0  501 -0.00000000000E+00  0.00000000000E+00  0.10419094564E+04  0.10419094564E+04  0.00000000000E+00 0.  1.
          3   -1    0    0  501    0  0.00000000000E+00 -0.00000000000E+00 -0.18468508613E+03  0.18468508613E+03  0.00000000000E+00 0. -1.
         23    2    1    2    0    0 -0.21365547185E+03 -0.64195065068E+01  0.18374635072E+03  0.29959996609E+03  0.10152609301E+03 0.  0.
    5000000    2    1    2    0    0  0.21365547185E+03  0.64195065068E+01  0.67347801957E+03  0.92699457646E+03  0.60004702418E+03 0.  0.
         23    2    4    4    0    0  0.81840091088E+02 -0.22639333928E+02  0.74021393788E+03  0.75141755133E+03  0.97474728363E+02 0.  0.
         23    2    4    4    0    0  0.13181538076E+03  0.29058840434E+02 -0.66735918312E+02  0.17557702513E+03  0.90298937682E+02 0.  0.
          1    1    3    3  502    0 -0.32030156510E+02  0.36797686014E+02  0.26572675087E+02  0.55552746857E+02  0.00000000000E+00 0. -1.
         -1    1    3    3    0  502 -0.18162531534E+03 -0.43217192521E+02  0.15717367564E+03  0.24404721923E+03  0.00000000000E+00 0.  1.
         11    1    5    5    0    0  0.80694171530E+02  0.12303055538E+02  0.33923293627E+03  0.34891531859E+03  0.00000000000E+00 0.  1.
        -11    1    5    5    0    0  0.11459195581E+01 -0.34942389466E+02  0.40098100161E+03  0.40250223274E+03  0.00000000000E+00 0. -1.
          4    1    6    6  503    0  0.12932116887E+03  0.43567466439E+00 -0.69320645313E+02  0.14672936447E+03  0.00000000000E+00 0. -1.
         -4    1    6    6    0  503  0.24942118882E+01  0.28623165770E+02  0.25847270018E+01  0.28847660656E+02  0.00000000000E+00 0.  1.
<mgrwt>
<rscale>  0 0.25506143E+03</rscale>
<asrwt>0</asrwt>
<pdfrwt beam="1">  1        3 0.28413091E-01 0.25506143E+03</pdfrwt>
<pdfrwt beam="2">  1       -3 0.16029376E+00 0.25506143E+03</pdfrwt>
<totfact> 0.84551288E+00</totfact>
</mgrwt>
</event>
<event>
12    1  0.1432447E-007  0.3946641E+03  0.7818608E-02  0.1045643E+00
         -2   -1    0    0    0  501 -0.00000000000E+00  0.00000000000E+00  0.54200374899E+03  0.54200374899E+03  0.00000000000E+00 0.  1.
          2   -1    0    0  501    0  0.00000000000E+00 -0.00000000000E+00 -0.66137013188E+03  0.66137013188E+03  0.00000000000E+00 0. -1.
         23    2    1    2    0    0  0.14993064952E+03  0.31196294315E+03 -0.32206660248E+03  0.48157549514E+03  0.91585935178E+02 0.  0.
    5000000    2    1    2    0    0 -0.14993064952E+03 -0.31196294315E+03  0.20270021959E+03  0.72179838573E+03  0.60008787112E+03 0.  0.
         23    2    4    4    0    0 -0.49674812674E+01  0.20222972173E+01 -0.17839498583E+03  0.20037839100E+03  0.91093155921E+02 0.  0.
         23    2    4    4    0    0 -0.14496316826E+03 -0.31398524036E+03  0.38109520541E+03  0.52141999473E+03  0.83929756338E+02 0.  0.
          1    1    3    3  502    0  0.20869258660E+01  0.86028037837E+02 -0.57098940719E+02  0.10327375071E+03  0.00000000000E+00 0. -1.
         -1    1    3    3    0  502  0.14784372366E+03  0.22593490531E+03 -0.26496766176E+03  0.37830174443E+03  0.00000000000E+00 0.  1.
         11    1    5    5    0    0  0.37950281158E+02  0.17206014726E+02 -0.56077503941E+02  0.69863847811E+02  0.00000000000E+00 0. -1.
        -11    1    5    5    0    0 -0.42917762426E+02 -0.15183717508E+02 -0.12231748189E+03  0.13051454319E+03  0.00000000000E+00 0.  1.
          1    1    6    6  503    0 -0.85424081528E+02 -0.19988121694E+03  0.29555729776E+03  0.36688402916E+03  0.00000000000E+00 0. -1.
         -1    1    6    6    0  503 -0.59539086727E+02 -0.11410402343E+03  0.85537907648E+02  0.15453596557E+03  0.00000000000E+00 0.  1.
<mgrwt>
<rscale>  0 0.39466413E+03</rscale>
<asrwt>0</asrwt>
<pdfrwt beam="1">  1        2 0.10174925E+00 0.39466413E+03</pdfrwt>
<pdfrwt beam="2">  1       -2 0.83385192E-01 0.39466413E+03</pdfrwt>
<totfact> 0.58016893E+01</totfact>
</mgrwt>
</event>
<event>
12    1  0.1432447E-007  0.1225029E+04  0.7818608E-02  0.9091227E-01
          2   -1    0    0  501    0  0.00000000000E+00  0.00000000000E+00  0.41796107442E+04  0.41796107442E+04  0.00000000000E+00 0. -1.
         -2   -1    0    0    0  501 -0.00000000000E+00 -0.00000000000E+00 -0.37629090193E+03  0.37629090193E+03  0.00000000000E+00 0.  1.
         23    2    1    2    0    0 -0.11612568911E+04 -0.13299500855E+01  0.14099520426E+04  0.18288986839E+04  0.91576731612E+02 0.  0.
    5000000    2    1    2    0    0  0.11612568911E+04  0.13299500855E+01  0.23933677997E+04  0.27270029622E+04  0.59984697658E+03 0.  0.
         23    2    4    4    0    0  0.11917311510E+04  0.34405055731E+02  0.22261701528E+04  0.25269916924E+04  0.91905493896E+02 0.  0.
         23    2    4    4    0    0 -0.30474259903E+02 -0.33075105646E+02  0.16719764688E+03  0.20001126984E+03  0.10013396932E+03 0.  0.
          3    1    3    3  502    0 -0.81439555858E+03 -0.16077372274E+01  0.10528905341E+04  0.13310977378E+04  0.00000000000E+00 0. -1.
         -3    1    3    3    0  502 -0.34686133253E+03  0.27778714185E+00  0.35706150844E+03  0.49780094614E+03  0.00000000000E+00 0.  1.
         11    1    5    5    0    0  0.90091381345E+03  0.29051534291E+02  0.17629679961E+04  0.19800368295E+04  0.00000000000E+00 0.  1.
        -11    1    5    5    0    0  0.29081733756E+03  0.53535214404E+01  0.46320215677E+03  0.54695486290E+03  0.00000000000E+00 0. -1.
          1    1    6    6  503    0 -0.42815814084E+02 -0.56012864089E+02  0.69873975227E+02  0.99262315574E+02  0.00000000000E+00 0. -1.
         -1    1    6    6    0  503  0.12341554181E+02  0.22937758444E+02  0.97323671651E+02  0.10074895427E+03  0.00000000000E+00 0.  1.
<mgrwt>
<rscale>  0 0.12250286E+04</rscale>
<asrwt>0</asrwt>
<pdfrwt beam="1">  1        2 0.64301701E+00 0.12250286E+04</pdfrwt>
<pdfrwt beam="2">  1       -2 0.57890911E-01 0.12250286E+04</pdfrwt>
<totfact> 0.69090556E-01</totfact>
</mgrwt>
</event>
<event>
12    1  0.1432447E-007  0.5044600E+03  0.7818608E-02  0.1012621E+00
          2   -1    0    0  501    0  0.00000000000E+00  0.00000000000E+00  0.81450025218E+03  0.81450025218E+03  0.00000000000E+00 0. -1.
         -2   -1    0    0    0  501 -0.00000000000E+00 -0.00000000000E+00 -0.68518123066E+03  0.68518123066E+03  0.00000000000E+00 0.  1.
         23    2    1    2    0    0  0.20820378546E+03  0.41040628263E+03 -0.36640618856E+03  0.59552849328E+03  0.92836190035E+02 0.  0.
    5000000    2    1    2    0    0 -0.20820378546E+03 -0.41040628263E+03  0.49572521008E+03  0.90415298956E+03  0.59997250897E+03 0.  0.
         23    2    4    4    0    0 -0.16482319923E+03 -0.59224177788E+02  0.50094222083E+03  0.53860898147E+03  0.92099598651E+02 0.  0.
         23    2    4    4    0    0 -0.43380586233E+02 -0.35118210484E+03 -0.52170107525E+01  0.36554400809E+03  0.91566689478E+02 0.  0.
          1    1    3    3  502    0  0.95886408056E+02  0.99846204858E+02 -0.92718050974E+02  0.16661363945E+03  0.00000000000E+00 0. -1.
         -1    1    3    3    0  502  0.11231737741E+03  0.31056007777E+03 -0.27368813759E+03  0.42891485382E+03  0.00000000000E+00 0.  1.
         13    1    5    5    0    0 -0.62740354961E+02  0.12961988661E+01  0.28870011430E+03  0.29544168336E+03  0.00000000000E+00 0. -1.
        -13    1    5    5    0    0 -0.10208284427E+03 -0.60520376654E+02  0.21224210654E+03  0.24316729811E+03  0.00000000000E+00 0.  1.
          3    1    6    6  503    0 -0.86661594551E+00 -0.23654425633E+03  0.29663977288E+02  0.23839859012E+03  0.00000000000E+00 0. -1.
         -3    1    6    6    0  503 -0.42513970287E+02 -0.11463784852E+03 -0.34880988040E+02  0.12714541796E+03  0.00000000000E+00 0.  1.
<mgrwt>
<rscale>  0 0.50445997E+03</rscale>
<asrwt>0</asrwt>
<pdfrwt beam="1">  1        2 0.12530773E+00 0.50445997E+03</pdfrwt>
<pdfrwt beam="2">  1       -2 0.10541250E+00 0.50445997E+03</pdfrwt>
<totfact> 0.25542354E+01</totfact>
</mgrwt>
</event>
<event>
12    1  0.1432447E-007  0.4059351E+03  0.7818608E-02  0.1041744E+00
         -2   -1    0    0    0  501 -0.00000000000E+00  0.00000000000E+00  0.19335091882E+03  0.19335091882E+03  0.00000000000E+00 0.  1.
          2   -1    0    0  501    0  0.00000000000E+00 -0.00000000000E+00 -0.22451997635E+04  0.22451997635E+04  0.00000000000E+00 0. -1.
         23    2    1    2    0    0 -0.18276282763E+03  0.33288886848E+03 -0.14682590167E+04  0.15194164190E+04  0.92867994402E+02 0.  0.
    5000000    2    1    2    0    0  0.18276282763E+03 -0.33288886848E+03 -0.58358982800E+03  0.91913426331E+03  0.60001121382E+03 0.  0.
         23    2    4    4    0    0 -0.87682880908E+01 -0.56037705753E+02 -0.56040812573E+03  0.57019833635E+03  0.88610202877E+02 0.  0.
         23    2    4    4    0    0  0.19153111572E+03 -0.27685116273E+03 -0.23181702272E+02  0.34893592696E+03  0.88815287004E+02 0.  0.
          3    1    3    3  502    0 -0.12070887649E+03  0.19003755779E+03 -0.10296603686E+04  0.10539854747E+04  0.00000000000E+00 0. -1.
         -3    1    3    3    0  502 -0.62053951139E+02  0.14285131070E+03 -0.43859864811E+03  0.46543094434E+03  0.00000000000E+00 0.  1.
         13    1    5    5    0    0 -0.75148104087E+01  0.18409229100E+02 -0.25775778305E+03  0.25852359044E+03  0.00000000000E+00 0. -1.
        -13    1    5    5    0    0 -0.12534776820E+01 -0.74446934854E+02 -0.30265034268E+03  0.31167474591E+03  0.00000000000E+00 0.  1.
          1    1    6    6  503    0  0.15357836052E+03 -0.22115132651E+03 -0.54348424259E+02  0.27467794461E+03  0.00000000000E+00 0. -1.
         -1    1    6    6    0  503  0.37952755206E+02 -0.55699836223E+02  0.31166721987E+02  0.74257982348E+02  0.00000000000E+00 0.  1.
<mgrwt>
<rscale>  0 0.40593508E+03</rscale>
<asrwt>0</asrwt>
<pdfrwt beam="1">  1        2 0.34541535E+00 0.40593508E+03</pdfrwt>
<pdfrwt beam="2">  1       -2 0.29746295E-01 0.40593508E+03</pdfrwt>
<totfact> 0.55617112E+01</totfact>
</mgrwt>
</event>
<event>
12    1  0.1432447E-007  0.2186863E+03  0.7818608E-02  0.1134866E+00
         -2   -1    0    0    0  501 -0.00000000000E+00  0.00000000000E+00  0.23675208326E+03  0.23675208326E+03  0.00000000000E+00 0.  1.
          2   -1    0    0  501    0  0.00000000000E+00 -0.00000000000E+00 -0.74222661222E+03  0.74222661222E+03  0.00000000000E+00 0. -1.
         23    2    1    2    0    0  0.14674307866E+03 -0.11924082353E+03 -0.73864264492E+02  0.21577434678E+03  0.73148711740E+02 0.  0.
    5000000    2    1    2    0    0 -0.14674307866E+03  0.11924082353E+03 -0.43161026447E+03  0.76320434869E+03  0.60036784752E+03 0.  0.
         23    2    4    4    0    0 -0.72300931538E+02  0.41424070555E+02  0.13112112534E+03  0.18292088173E+03  0.96560453291E+02 0.  0.
         23    2    4    4    0    0 -0.74442147123E+02  0.77816752976E+02 -0.56273138981E+03  0.58028346696E+03  0.92006546755E+02 0.  0.
          1    1    3    3  502    0 -0.51209083970E+01 -0.18822048804E+02 -0.14405789371E+02  0.24249123518E+02  0.00000000000E+00 0. -1.
         -1    1    3    3    0  502  0.15186398706E+03 -0.10041877473E+03 -0.59458475121E+02  0.19152522326E+03  0.00000000000E+00 0.  1.
         13    1    5    5    0    0  0.10892079712E+02  0.38444741616E+02  0.21816918701E+02  0.45525965118E+02  0.00000000000E+00 0.  1.
        -13    1    5    5    0    0 -0.83193011250E+02  0.29793289395E+01  0.10930420663E+03  0.13739491661E+03  0.00000000000E+00 0. -1.
          4    1    6    6  503    0 -0.54622724438E+02  0.74694738810E+02 -0.24458132066E+03  0.26150137370E+03  0.00000000000E+00 0. -1.
         -4    1    6    6    0  503 -0.19819422685E+02  0.31220141662E+01 -0.31815006914E+03  0.31878209326E+03  0.00000000000E+00 0.  1.
<mgrwt>
<rscale>  0 0.21868629E+03</rscale>
<asrwt>0</asrwt>
<pdfrwt beam="1">  1        2 0.11418871E+00 0.21868629E+03</pdfrwt>
<pdfrwt beam="2">  1       -2 0.36423398E-01 0.21868629E+03</pdfrwt>
<totfact> 0.28190021E+02</totfact>
</mgrwt>
</event>
<event>
12    1  0.1432447E-007  0.9375006E+03  0.7818608E-02  0.9379881E-01
          1   -1    0    0  501    0  0.00000000000E+00  0.00000000000E+00  0.15603007512E+04  0.15603007512E+04  0.00000000000E+00 0. -1.
         -1   -1    0    0    0  501 -0.00000000000E+00 -0.00000000000E+00 -0.57730027407E+03  0.57730027407E+03  0.00000000000E+00 0.  1.
         23    2    1    2    0    0 -0.36281182852E+03 -0.76839955485E+03  0.38694163573E+03  0.93860258136E+03  0.95815851858E+02 0.  0.
    5000000    2    1    2    0    0  0.36281182852E+03  0.76839955485E+03  0.59605884137E+03  0.11989984439E+04  0.60020065581E+03 0.  0.
         23    2    4    4    0    0  0.27371250718E+03  0.84084568173E+03  0.46801863615E+03  0.10046458066E+04  0.91278452592E+02 0.  0.
         23    2    4    4    0    0  0.89099321341E+02 -0.72446126884E+02  0.12804020521E+03  0.19435263725E+03  0.90507033378E+02 0.  0.
          1    1    3    3  502    0 -0.14343955330E+03 -0.32689907538E+03  0.11211117016E+03  0.37417485941E+03  0.00000000000E+00 0. -1.
         -1    1    3    3    0  502 -0.21937227521E+03 -0.44150047947E+03  0.27483046557E+03  0.56442772195E+03  0.00000000000E+00 0.  1.
         13    1    5    5    0    0  0.51948722141E+02  0.17070770024E+03  0.54560396024E+02  0.18659213667E+03  0.00000000000E+00 0. -1.
        -13    1    5    5    0    0  0.22176378503E+03  0.67013798149E+03  0.41345824013E+03  0.81805366995E+03  0.00000000000E+00 0.  1.
          4    1    6    6  503    0  0.20969770043E+01  0.16294258710E+02  0.73406827361E+00  0.16445030729E+02  0.00000000000E+00 0. -1.
         -4    1    6    6    0  503  0.87002344337E+02 -0.88740385594E+02  0.12730613694E+03  0.17790760652E+03  0.00000000000E+00 0.  1.
<mgrwt>
<rscale>  0 0.93750061E+03</rscale>
<asrwt>0</asrwt>
<pdfrwt beam="1">  1        1 0.24004627E+00 0.93750061E+03</pdfrwt>
<pdfrwt beam="2">  1       -1 0.88815427E-01 0.93750061E+03</pdfrwt>
<totfact> 0.74937008E+00</totfact>
</mgrwt>
</event>
<event>
12    1  0.1432447E-007  0.6096035E+03  0.7818608E-02  0.9885680E-01
          2   -1    0    0  501    0  0.00000000000E+00  0.00000000000E+00  0.11403773733E+04  0.11403773733E+04  0.00000000000E+00 0. -1.
         -2   -1    0    0    0  501 -0.00000000000E+00 -0.00000000000E+00 -0.57468412000E+03  0.57468412000E+03  0.00000000000E+00 0.  1.
         23    2    1    2    0    0 -0.48166118878E+03 -0.33924006920E+02 -0.28465534500E+03  0.56779471935E+03  0.90630231468E+02 0.  0.
    5000000    2    1    2    0    0  0.48166118878E+03  0.33924006920E+02  0.85034859825E+03  0.11472667739E+04  0.59998331055E+03 0.  0.
         23    2    4    4    0    0 -0.10851218106E+03  0.81640893310E+02  0.11727228779E+03  0.20060968215E+03  0.89729182487E+02 0.  0.
         23    2    4    4    0    0  0.59017336984E+03 -0.47716886390E+02  0.73307631046E+03  0.94665709176E+03  0.90428229544E+02 0.  0.
          1    1    3    3  502    0 -0.28807565150E+03  0.24325602754E+02 -0.17039307569E+03  0.33557877790E+03  0.00000000000E+00 0. -1.
         -1    1    3    3    0  502 -0.19358553728E+03 -0.58249609675E+02 -0.11426226931E+03  0.23221594145E+03  0.00000000000E+00 0.  1.
         11    1    5    5    0    0 -0.77036909653E+02  0.56529887680E+02  0.23267782638E+02  0.98344818668E+02  0.00000000000E+00 0. -1.
        -11    1    5    5    0    0 -0.31475271408E+02  0.25111005631E+02  0.94004505154E+02  0.10226486348E+03  0.00000000000E+00 0.  1.
          2    1    6    6  503    0  0.92153622329E+02 -0.52809271051E+01  0.67744468711E+02  0.11449668703E+03  0.00000000000E+00 0. -1.
         -2    1    6    6    0  503  0.49801974751E+03 -0.42435959285E+02  0.66533184175E+03  0.83216040473E+03  0.00000000000E+00 0.  1.
<mgrwt>
<rscale>  0 0.60960346E+03</rscale>
<asrwt>0</asrwt>
<pdfrwt beam="1">  1        2 0.17544267E+00 0.60960346E+03</pdfrwt>
<pdfrwt beam="2">  1       -2 0.88412942E-01 0.60960346E+03</pdfrwt>
<totfact> 0.23455777E+01</totfact>
</mgrwt>
</event>
<event>
12    1  0.1432447E-007  0.6665213E+03  0.7818608E-02  0.9776263E-01
          2   -1    0    0  501    0  0.00000000000E+00  0.00000000000E+00  0.10082785954E+04  0.10082785954E+04  0.00000000000E+00 0. -1.
         -2   -1    0    0    0  501 -0.00000000000E+00 -0.00000000000E+00 -0.49455903090E+03  0.49455903090E+03  0.00000000000E+00 0.  1.
         23    2    1    2    0    0 -0.16612829230E+03 -0.55032429340E+03  0.22654124936E+03  0.62402882917E+03  0.87381946461E+02 0.  0.
    5000000    2    1    2    0    0  0.16612829230E+03  0.55032429340E+03  0.28717831515E+03  0.87880879713E+03  0.59948150916E+03 0.  0.
         23    2    4    4    0    0 -0.15073545789E+03  0.10948486303E+03  0.25337183589E+03  0.32718718595E+03  0.90255492527E+02 0.  0.
         23    2    4    4    0    0  0.31686375018E+03  0.44083943037E+03  0.33806479255E+02  0.55162161118E+03  0.91659611244E+02 0.  0.
          1    1    3    3  502    0 -0.95525610858E+02 -0.44163409489E+03  0.17567007402E+03  0.48479458641E+03  0.00000000000E+00 0. -1.
         -1    1    3    3    0  502 -0.70602681440E+02 -0.10869019850E+03  0.50871175335E+02  0.13923424276E+03  0.00000000000E+00 0.  1.
         11    1    5    5    0    0 -0.74708182154E+02  0.10749197459E+03  0.16388555442E+03  0.20974821103E+03  0.00000000000E+00 0. -1.
        -11    1    5    5    0    0 -0.76027275731E+02  0.19928884393E+01  0.89486281473E+02  0.11743897492E+03  0.00000000000E+00 0.  1.
          1    1    6    6  503    0  0.64594768722E+02  0.12215868096E+03 -0.26571666302E+02  0.14071702431E+03  0.00000000000E+00 0. -1.
         -1    1    6    6    0  503  0.25226898146E+03  0.31868074940E+03  0.60378145557E+02  0.41090458687E+03  0.00000000000E+00 0.  1.
<mgrwt>
<rscale>  0 0.66652129E+03</rscale>
<asrwt>0</asrwt>
<pdfrwt beam="1">  1        2 0.15511978E+00 0.66652129E+03</pdfrwt>
<pdfrwt beam="2">  1       -2 0.76086005E-01 0.66652129E+03</pdfrwt>
<totfact> 0.39414603E+01</totfact>
</mgrwt>
</event>
<event>
12    1  0.1432447E-007  0.1134541E+04  0.7818608E-02  0.9172165E-01
         -2   -1    0    0    0  501 -0.00000000000E+00  0.00000000000E+00  0.19855239783E+04  0.19855239783E+04  0.00000000000E+00 0.  1.
          2   -1    0    0  501    0  0.00000000000E+00 -0.00000000000E+00 -0.78625873701E+03  0.78625873701E+03  0.00000000000E+00 0. -1.
         23    2    1    2    0    0  0.11194875351E+04 -0.12716600702E+03  0.94002836990E+03  0.14692448761E+04  0.74857431774E+02 0.  0.
    5000000    2    1    2    0    0 -0.11194875351E+04  0.12716600702E+03  0.25923687140E+03  0.13025378392E+04  0.59998127668E+03 0.  0.
         23    2    4    4    0    0 -0.56945672510E+03  0.71472637118E+02  0.42363764016E+03  0.71876724397E+03  0.88137399702E+02 0.  0.
         23    2    4    4    0    0 -0.55003081005E+03  0.55693369905E+02 -0.16440076876E+03  0.58377059523E+03  0.90137958904E+02 0.  0.
          1    1    3    3  502    0  0.76544485114E+03 -0.52367402087E+02  0.64685612105E+03  0.10035292752E+04  0.00000000000E+00 0. -1.
         -1    1    3    3    0  502  0.35404268401E+03 -0.74798604936E+02  0.29317224885E+03  0.46571560087E+03  0.00000000000E+00 0.  1.
         13    1    5    5    0    0 -0.16836471090E+03 -0.19039234203E+02  0.11994900706E+03  0.20759800724E+03  0.00000000000E+00 0.  1.
        -13    1    5    5    0    0 -0.40109201420E+03  0.90511871321E+02  0.30368863310E+03  0.51116923673E+03  0.00000000000E+00 0. -1.
          3    1    6    6  503    0 -0.16089903575E+03  0.55625177207E+02 -0.64192451534E+02  0.18194320784E+03  0.00000000000E+00 0. -1.
         -3    1    6    6    0  503 -0.38913177429E+03  0.68192697273E-01 -0.10020831723E+03  0.40182738739E+03  0.00000000000E+00 0.  1.
<mgrwt>
<rscale>  0 0.11345411E+04</rscale>
<asrwt>0</asrwt>
<pdfrwt beam="1">  1        2 0.12096288E+00 0.11345411E+04</pdfrwt>
<pdfrwt beam="2">  1       -2 0.30546523E+00 0.11345411E+04</pdfrwt>
<totfact> 0.10253822E+00</totfact>
</mgrwt>
</event>
<event>
12    1  0.1432447E-007  0.6477465E+03  0.7818608E-02  0.9811017E-01
         -2   -1    0    0    0  501 -0.00000000000E+00  0.00000000000E+00  0.10939412731E+04  0.10939412731E+04  0.00000000000E+00 0.  1.
          2   -1    0    0  501    0  0.00000000000E+00 -0.00000000000E+00 -0.45208605743E+03  0.45208605743E+03  0.00000000000E+00 0. -1.
         23    2    1    2    0    0 -0.17896642797E+03 -0.52316612122E+03  0.10719435963E+03  0.57054836193E+03  0.91120962626E+02 0.  0.
    5000000    2    1    2    0    0  0.17896642797E+03  0.52316612122E+03  0.53466085603E+03  0.97547896859E+03  0.59997101134E+03 0.  0.
         23    2    4    4    0    0 -0.16118805977E+03  0.15548323886E+03  0.32897545824E+01  0.23957617652E+03  0.85025253267E+02 0.  0.
         23    2    4    4    0    0  0.34015448774E+03  0.36768288236E+03  0.53137110145E+03  0.73590279206E+03  0.91114732060E+02 0.  0.
          2    1    3    3  502    0 -0.10492625753E+03 -0.41773282081E+03  0.95622604534E+02  0.44119600134E+03  0.00000000000E+00 0. -1.
         -2    1    3    3    0  502 -0.74040170436E+02 -0.10543330041E+03  0.11571755099E+02  0.12935236059E+03  0.00000000000E+00 0.  1.
         13    1    5    5    0    0 -0.95355709697E+02  0.11638633681E+03 -0.34237904200E+02  0.15430724174E+03  0.00000000000E+00 0. -1.
        -13    1    5    5    0    0 -0.65832350074E+02  0.39096902049E+02  0.37527658782E+02  0.85268934787E+02  0.00000000000E+00 0.  1.
          2    1    6    6  503    0  0.82363537541E+02  0.15167922967E+03  0.17071066139E+03  0.24276010987E+03  0.00000000000E+00 0.  1.
         -2    1    6    6    0  503  0.25779095020E+03  0.21600365269E+03  0.36066044006E+03  0.49314268220E+03  0.00000000000E+00 0. -1.
<mgrwt>
<rscale>  0 0.64774652E+03</rscale>
<asrwt>0</asrwt>
<pdfrwt beam="1">  1        2 0.69551701E-01 0.64774652E+03</pdfrwt>
<pdfrwt beam="2">  1       -2 0.16829866E+00 0.64774652E+03</pdfrwt>
<totfact> 0.15545621E+01</totfact>
</mgrwt>
</event>
<event>
12    1  0.1432447E-007  0.1052206E+04  0.7818608E-02  0.9253069E-01
         -2   -1    0    0    0  501 -0.00000000000E+00  0.00000000000E+00  0.62141767236E+03  0.62141767236E+03  0.00000000000E+00 0.  1.
          2   -1    0    0  501    0  0.00000000000E+00 -0.00000000000E+00 -0.21113189937E+04  0.21113189937E+04  0.00000000000E+00 0. -1.
         23    2    1    2    0    0 -0.61541610002E+03  0.83947741862E+03 -0.42732948928E+03  0.11288844108E+04  0.91160342767E+02 0.  0.
    5000000    2    1    2    0    0  0.61541610002E+03 -0.83947741862E+03 -0.10625718321E+04  0.16038522552E+04  0.59985318685E+03 0.  0.
         23    2    4    4    0    0  0.31664041257E+03 -0.55577190143E+03 -0.98018525276E+03  0.11739386984E+04  0.90693883788E+02 0.  0.
         23    2    4    4    0    0  0.29877568745E+03 -0.28370551718E+03 -0.82386579306E+02  0.42991355684E+03  0.91007615138E+02 0.  0.
          3    1    3    3  502    0 -0.22111144504E+03  0.35081609762E+03 -0.13360814966E+03  0.43567573163E+03  0.00000000000E+00 0. -1.
         -3    1    3    3    0  502 -0.39430465498E+03  0.48866132099E+03 -0.29372133963E+03  0.69320867921E+03  0.00000000000E+00 0.  1.
         11    1    5    5    0    0  0.10426390001E+03 -0.13400191964E+03 -0.20423369071E+03  0.26559155810E+03  0.00000000000E+00 0.  1.
        -11    1    5    5    0    0  0.21237651256E+03 -0.42176998179E+03 -0.77595156204E+03  0.90834714029E+03  0.00000000000E+00 0. -1.
          4    1    6    6  503    0  0.14713290713E+03 -0.85220527729E+02 -0.54633281745E+02  0.17859290630E+03  0.00000000000E+00 0.  1.
         -4    1    6    6    0  503  0.15164278032E+03 -0.19848498945E+03 -0.27753297561E+02  0.25132065054E+03  0.00000000000E+00 0. -1.
<mgrwt>
<rscale>  0 0.10522064E+04</rscale>
<asrwt>0</asrwt>
<pdfrwt beam="1">  1        2 0.32481830E+00 0.10522064E+04</pdfrwt>
<pdfrwt beam="2">  1       -2 0.95602721E-01 0.10522064E+04</pdfrwt>
<totfact> 0.52970993E+00</totfact>
</mgrwt>
</event>
<event>
12    1  0.1432447E-007  0.3992139E+03  0.7818608E-02  0.1044052E+00
         -1   -1    0    0    0  501 -0.00000000000E+00  0.00000000000E+00  0.19663992033E+03  0.19663992033E+03  0.00000000000E+00 0.  1.
          1   -1    0    0  501    0  0.00000000000E+00 -0.00000000000E+00 -0.11575508510E+04  0.11575508510E+04  0.00000000000E+00 0. -1.
         23    2    1    2    0    0  0.27457808768E+03  0.44686270423E+02 -0.30145961719E+03  0.42021850346E+03  0.91190464699E+02 0.  0.
    5000000    2    1    2    0    0 -0.27457808768E+03 -0.44686270423E+02 -0.65945131353E+03  0.93397226792E+03  0.60003181027E+03 0.  0.
         23    2    4    4    0    0 -0.34213825430E+03  0.74763803509E+02 -0.67829517272E+03  0.76869246655E+03  0.90308113858E+02 0.  0.
         23    2    4    4    0    0  0.67560166616E+02 -0.11945007393E+03  0.18843859193E+02  0.16527980137E+03  0.90164435538E+02 0.  0.
          4    1    3    3  502    0  0.88782168545E+02 -0.27027591686E+02 -0.11053541901E+03  0.14432894034E+03  0.00000000000E+00 0. -1.
         -4    1    3    3    0  502  0.18579591914E+03  0.71713862109E+02 -0.19092419818E+03  0.27588956312E+03  0.00000000000E+00 0.  1.
         13    1    5    5    0    0 -0.22138228712E+03  0.70554439493E+02 -0.36253971962E+03  0.43060781958E+03  0.00000000000E+00 0. -1.
        -13    1    5    5    0    0 -0.12075596718E+03  0.42093640159E+01 -0.31575545310E+03  0.33808464697E+03  0.00000000000E+00 0.  1.
          3    1    6    6  503    0  0.64577563366E+02 -0.44848756781E+02  0.39255882385E+02  0.87878876739E+02  0.00000000000E+00 0. -1.
         -3    1    6    6    0  503  0.29826032503E+01 -0.74601317151E+02 -0.20412023193E+02  0.77400924630E+02  0.00000000000E+00 0.  1.
<mgrwt>
<rscale>  0 0.39921391E+03</rscale>
<asrwt>0</asrwt>
<pdfrwt beam="1">  1        1 0.17808475E+00 0.39921391E+03</pdfrwt>
<pdfrwt beam="2">  1       -1 0.30252295E-01 0.39921391E+03</pdfrwt>
<totfact> 0.12213080E+02</totfact>
</mgrwt>
</event>
<event>
12    1  0.1432447E-007  0.1385069E+04  0.7818608E-02  0.8964698E-01
          2   -1    0    0  501    0  0.00000000000E+00  0.00000000000E+00  0.26869427399E+04  0.26869427399E+04  0.00000000000E+00 0. -1.
         -2   -1    0    0    0  501 -0.00000000000E+00 -0.00000000000E+00 -0.95486500665E+03  0.95486500665E+03  0.00000000000E+00 0.  1.
         23    2    1    2    0    0 -0.11475057224E+04 -0.74839594546E+03  0.16462775351E+04  0.21436716100E+04  0.90732435352E+02 0.  0.
    5000000    2    1    2    0    0  0.11475057224E+04  0.74839594546E+03  0.85800198146E+02  0.14981361365E+04  0.60015359319E+03 0.  0.
         23    2    4    4    0    0  0.10024689280E+04  0.56218310972E+03 -0.13787716827E+03  0.11607002655E+04  0.84977599375E+02 0.  0.
         23    2    4    4    0    0  0.14503679439E+03  0.18621283574E+03  0.22367736641E+03  0.33743587099E+03  0.90113877176E+02 0.  0.
          3    1    3    3  502    0 -0.38492595618E+03 -0.30182205052E+03  0.60044900545E+03  0.77446985097E+03  0.00000000000E+00 0. -1.
         -3    1    3    3    0  502 -0.76257976624E+03 -0.44657389493E+03  0.10458285297E+04  0.13692017590E+04  0.00000000000E+00 0.  1.
         11    1    5    5    0    0  0.29625144873E+03  0.16680285080E+03 -0.80015363787E+02  0.34927148517E+03  0.00000000000E+00 0.  1.
        -11    1    5    5    0    0  0.70621747929E+03  0.39538025892E+03 -0.57861804482E+02  0.81142878037E+03  0.00000000000E+00 0. -1.
          4    1    6    6  503    0  0.59452018314E+02  0.13666538881E+03  0.16543419784E+03  0.22266666745E+03  0.00000000000E+00 0.  1.
         -4    1    6    6    0  503  0.85584776079E+02  0.49547446926E+02  0.58243168579E+02  0.11476920353E+03  0.00000000000E+00 0. -1.
<mgrwt>
<rscale>  0 0.13850694E+04</rscale>
<asrwt>0</asrwt>
<pdfrwt beam="1">  1        2 0.41337580E+00 0.13850694E+04</pdfrwt>
<pdfrwt beam="2">  1       -2 0.14690231E+00 0.13850694E+04</pdfrwt>
<totfact> 0.82021638E-01</totfact>
</mgrwt>
</event>
<event>
12    1  0.1473259E-007  0.1392308E+04  0.7818608E-02  0.8959406E-01
          1   -1    0    0  501    0  0.00000000000E+00  0.00000000000E+00  0.21968056632E+04  0.21968056632E+04  0.00000000000E+00 0. -1.
         -1   -1    0    0    0  501 -0.00000000000E+00 -0.00000000000E+00 -0.12588957444E+04  0.12588957444E+04  0.00000000000E+00 0.  1.
         23    2    1    2    0    0 -0.88653565838E+03  0.10609862316E+04 -0.39810429101E+03  0.14415501484E+04  0.89120967011E+02 0.  0.
    5000000    2    1    2    0    0  0.88653565838E+03 -0.10609862316E+04  0.13360142098E+04  0.20141512592E+04  0.60019502578E+03 0.  0.
         23    2    4    4    0    0  0.56846687121E+03 -0.52466456747E+03  0.37342441415E+03  0.86377859332E+03  0.90775399626E+02 0.  0.
         23    2    4    4    0    0  0.31806878717E+03 -0.53632166409E+03  0.96258979562E+03  0.11503726658E+04  0.89271915834E+02 0.  0.
          3    1    3    3  502    0 -0.16714663165E+03  0.14986536939E+03 -0.57945010898E+02  0.23185178391E+03  0.00000000000E+00 0. -1.
         -3    1    3    3    0  502 -0.71938902673E+03  0.91112086218E+03 -0.34015928011E+03  0.12096983645E+04  0.00000000000E+00 0.  1.
         11    1    5    5    0    0  0.30917366467E+03 -0.25156307256E+03  0.23407230093E+03  0.46223606141E+03  0.00000000000E+00 0. -1.
        -11    1    5    5    0    0  0.25929320654E+03 -0.27310149491E+03  0.13935211322E+03  0.40154253192E+03  0.00000000000E+00 0.  1.
          3    1    6    6  503    0  0.14766348125E+03 -0.27378110258E+03  0.40165710883E+03  0.50802463415E+03  0.00000000000E+00 0. -1.
         -3    1    6    6    0  503  0.17040530592E+03 -0.26254056151E+03  0.56093268679E+03  0.64234803170E+03  0.00000000000E+00 0.  1.
<mgrwt>
<rscale>  0 0.13923075E+04</rscale>
<asrwt>0</asrwt>
<pdfrwt beam="1">  1        1 0.33797010E+00 0.13923075E+04</pdfrwt>
<pdfrwt beam="2">  1       -1 0.19367627E+00 0.13923075E+04</pdfrwt>
<totfact> 0.34927483E-01</totfact>
</mgrwt>
</event>
<event>
12    1  0.1432447E-007  0.1420342E+04  0.7818608E-02  0.8939224E-01
         -1   -1    0    0    0  501 -0.00000000000E+00  0.00000000000E+00  0.21391559873E+04  0.21391559873E+04  0.00000000000E+00 0.  1.
          1   -1    0    0  501    0  0.00000000000E+00 -0.00000000000E+00 -0.11080825397E+04  0.11080825397E+04  0.00000000000E+00 0. -1.
         23    2    1    2    0    0 -0.89294834901E+03  0.10752997686E+04 -0.14606118670E+02  0.14013654509E+04  0.99927184138E+02 0.  0.
    5000000    2    1    2    0    0  0.89294834901E+03 -0.10752997686E+04  0.10456795663E+04  0.18458730761E+04  0.60014607519E+03 0.  0.
         23    2    4    4    0    0  0.88790724437E+03 -0.10495450959E+04  0.10739200504E+04  0.17469117335E+04  0.92044265705E+02 0.  0.
         23    2    4    4    0    0  0.50411046363E+01 -0.25754672650E+02 -0.28240484144E+02  0.98961342664E+02  0.91143329421E+02 0.  0.
          3    1    3    3  502    0 -0.23870741545E+03  0.28304921030E+03  0.40153615855E+02  0.37243844929E+03  0.00000000000E+00 0. -1.
         -3    1    3    3    0  502 -0.65424093355E+03  0.79225055825E+03 -0.54759734525E+02  0.10289270016E+04  0.00000000000E+00 0.  1.
         11    1    5    5    0    0  0.28568569828E+03 -0.27995142745E+03  0.28824691114E+03  0.49302677586E+03  0.00000000000E+00 0. -1.
        -11    1    5    5    0    0  0.60222154609E+03 -0.76959366845E+03  0.78567313928E+03  0.12538849576E+04  0.00000000000E+00 0.  1.
          4    1    6    6  503    0  0.30910967900E+02 -0.25830112225E+01 -0.49372228745E+02  0.58307605462E+02  0.00000000000E+00 0. -1.
         -4    1    6    6    0  503 -0.25869863264E+02 -0.23171661428E+02  0.21131744600E+02  0.40653737202E+02  0.00000000000E+00 0.  1.
<mgrwt>
<rscale>  0 0.14203423E+04</rscale>
<asrwt>0</asrwt>
<pdfrwt beam="1">  1        1 0.17047424E+00 0.14203423E+04</pdfrwt>
<pdfrwt beam="2">  1       -1 0.32910092E+00 0.14203423E+04</pdfrwt>
<totfact> 0.25590051E-01</totfact>
</mgrwt>
</event>
<event>
12    1  0.1432447E-007  0.6252238E+03  0.7818608E-02  0.9854414E-01
          1   -1    0    0  501    0  0.00000000000E+00  0.00000000000E+00  0.17019769409E+04  0.17019769409E+04  0.00000000000E+00 0. -1.
         -1   -1    0    0    0  501 -0.00000000000E+00 -0.00000000000E+00 -0.23946766457E+03  0.23946766457E+03  0.00000000000E+00 0.  1.
         23    2    1    2    0    0  0.12714984885E+03  0.46679261005E+03  0.71174448192E+03  0.86544869948E+03  0.91426577302E+02 0.  0.
    5000000    2    1    2    0    0 -0.12714984885E+03 -0.46679261005E+03  0.75076479444E+03  0.10759959060E+04  0.60004748841E+03 0.  0.
         23    2    4    4    0    0 -0.32827332565E+03 -0.12874181661E+03  0.30510014698E+03  0.47488993336E+03  0.89980650390E+02 0.  0.
         23    2    4    4    0    0  0.20112347679E+03 -0.33805079344E+03  0.44566464746E+03  0.60110597266E+03  0.89344392717E+02 0.  0.
          3    1    3    3  502    0  0.92280945376E+02  0.43505955246E+03  0.65420245545E+03  0.79105843007E+03  0.00000000000E+00 0. -1.
         -3    1    3    3    0  502  0.34868903476E+02  0.31733057590E+02  0.57542026471E+02  0.74390269418E+02  0.00000000000E+00 0.  1.
         11    1    5    5    0    0 -0.59126474043E+02 -0.43602680076E+02  0.26029512255E+02  0.77940163913E+02  0.00000000000E+00 0.  1.
        -11    1    5    5    0    0 -0.26914685160E+03 -0.85139136530E+02  0.27907063473E+03  0.39694976945E+03  0.00000000000E+00 0. -1.
          4    1    6    6  503    0  0.19738179300E+03 -0.26897150293E+03  0.38077172256E+03  0.50625324324E+03  0.00000000000E+00 0. -1.
         -4    1    6    6    0  503  0.37416837926E+01 -0.69079290517E+02  0.64892924899E+02  0.94852729417E+02  0.00000000000E+00 0.  1.
<mgrwt>
<rscale>  0 0.62522383E+03</rscale>
<asrwt>0</asrwt>
<pdfrwt beam="1">  1        1 0.26184260E+00 0.62522383E+03</pdfrwt>
<pdfrwt beam="2">  1       -1 0.36841180E-01 0.62522383E+03</pdfrwt>
<totfact> 0.35304403E+01</totfact>
</mgrwt>
</event>
<event>
12    1  0.1432447E-007  0.4215316E+03  0.7818608E-02  0.1036569E+00
          3   -1    0    0  501    0  0.00000000000E+00  0.00000000000E+00  0.18053772461E+04  0.18053772461E+04  0.00000000000E+00 0. -1.
         -3   -1    0    0    0  501 -0.00000000000E+00 -0.00000000000E+00 -0.16952411696E+03  0.16952411696E+03  0.00000000000E+00 0.  1.
         23    2    1    2    0    0 -0.11757819415E+03  0.34299190592E+03  0.80569280018E+03  0.88833161376E+03  0.92325990269E+02 0.  0.
    5000000    2    1    2    0    0  0.11757819415E+03 -0.34299190592E+03  0.83016032892E+03  0.10865697493E+04  0.59999964085E+03 0.  0.
         23    2    4    4    0    0 -0.46114520718E+02 -0.27382110248E+03  0.70346024474E+02  0.30081270115E+03  0.91843196970E+02 0.  0.
         23    2    4    4    0    0  0.16369271487E+03 -0.69170803441E+02  0.75981430444E+03  0.78575704811E+03  0.92284649117E+02 0.  0.
          2    1    3    3  502    0 -0.22258856481E+02  0.20621889941E+03  0.44133240203E+03  0.48764329202E+03  0.00000000000E+00 0. -1.
         -2    1    3    3    0  502 -0.95319337669E+02  0.13677300651E+03  0.36436039815E+03  0.40068832174E+03  0.00000000000E+00 0.  1.
         13    1    5    5    0    0 -0.25705432060E+02 -0.99781561276E+02  0.71776658015E+02  0.12557475003E+03  0.00000000000E+00 0.  1.
        -13    1    5    5    0    0 -0.20409088658E+02 -0.17403954120E+03 -0.14306335413E+01  0.17523795112E+03  0.00000000000E+00 0. -1.
          2    1    6    6  503    0  0.10525936869E+03 -0.78740465598E+02  0.62237400999E+03  0.63610455425E+03  0.00000000000E+00 0.  1.
         -2    1    6    6    0  503  0.58433346182E+02  0.95696621566E+01  0.13744029445E+03  0.14965249386E+03  0.00000000000E+00 0. -1.
<mgrwt>
<rscale>  0 0.42153157E+03</rscale>
<asrwt>0</asrwt>
<pdfrwt beam="1">  1        3 0.27775033E+00 0.42153157E+03</pdfrwt>
<pdfrwt beam="2">  1       -3 0.26080635E-01 0.42153157E+03</pdfrwt>
<totfact> 0.19756456E+00</totfact>
</mgrwt>
</event>
<event>
12    1  0.1432447E-007  0.5542903E+03  0.7818608E-02  0.1000506E+00
         -1   -1    0    0    0  501 -0.00000000000E+00  0.00000000000E+00  0.20371154744E+03  0.20371154744E+03  0.00000000000E+00 0.  1.
          1   -1    0    0  501    0  0.00000000000E+00 -0.00000000000E+00 -0.19208931629E+04  0.19208931629E+04  0.00000000000E+00 0. -1.
         23    2    1    2    0    0  0.39134895562E+03  0.19154347015E+03 -0.33927082024E+03  0.55987885831E+03  0.92286188029E+02 0.  0.
    5000000    2    1    2    0    0 -0.39134895562E+03 -0.19154347015E+03 -0.13779107952E+04  0.15647258520E+04  0.59990493113E+03 0.  0.
         23    2    4    4    0    0 -0.49803761654E+03 -0.10120853367E+03 -0.12526579582E+04  0.13550110939E+04  0.92835712484E+02 0.  0.
         23    2    4    4    0    0  0.10668866092E+03 -0.90334936481E+02 -0.12525283704E+03  0.20971475816E+03  0.93536813553E+02 0.  0.
          3    1    3    3  502    0  0.14760941949E+03  0.97428056171E+02 -0.18734175120E+03  0.25763869778E+03  0.00000000000E+00 0. -1.
         -3    1    3    3    0  502  0.24373953613E+03  0.94115413980E+02 -0.15192906904E+03  0.30224016053E+03  0.00000000000E+00 0.  1.
         11    1    5    5    0    0 -0.21575151821E+03  0.26291695982E+01 -0.51147747643E+03  0.55512596682E+03  0.00000000000E+00 0. -1.
        -11    1    5    5    0    0 -0.28228609832E+03 -0.10383770327E+03 -0.74118048175E+03  0.79988512703E+03  0.00000000000E+00 0.  1.
          3    1    6    6  503    0  0.20102106317E+02  0.90789849314E+01  0.68363418928E+01  0.23092384378E+02  0.00000000000E+00 0. -1.
         -3    1    6    6    0  503  0.86586554598E+02 -0.99413921412E+02 -0.13208917893E+03  0.18662237379E+03  0.00000000000E+00 0.  1.
<mgrwt>
<rscale>  0 0.55429025E+03</rscale>
<asrwt>0</asrwt>
<pdfrwt beam="1">  1        1 0.29552203E+00 0.55429025E+03</pdfrwt>
<pdfrwt beam="2">  1       -1 0.31340238E-01 0.55429025E+03</pdfrwt>
<totfact> 0.33962597E+01</totfact>
</mgrwt>
</event>
<event>
12    1  0.1432447E-007  0.7114944E+03  0.7818608E-02  0.9697775E-01
         -2   -1    0    0    0  501 -0.00000000000E+00  0.00000000000E+00  0.86711484548E+03  0.86711484548E+03  0.00000000000E+00 0.  1.
          2   -1    0    0  501    0  0.00000000000E+00 -0.00000000000E+00 -0.62252496012E+03  0.62252496012E+03  0.00000000000E+00 0. -1.
         23    2    1    2    0    0 -0.10713869370E+03 -0.59072449653E+03  0.45565858324E+01  0.60756564519E+03  0.93172529500E+02 0.  0.
    5000000    2    1    2    0    0  0.10713869370E+03  0.59072449653E+03  0.24003329954E+03  0.88207416041E+03  0.60000392423E+03 0.  0.
         23    2    4    4    0    0  0.30486259676E+03  0.17860790353E+03  0.19517300632E+03  0.41291586292E+03  0.86977131188E+02 0.  0.
         23    2    4    4    0    0 -0.19772390306E+03  0.41211659300E+03  0.44860293216E+02  0.46915829749E+03  0.95719559808E+02 0.  0.
          3    1    3    3  502    0 -0.37605036383E+02 -0.42051376643E+03  0.22734160817E+02  0.42280351062E+03  0.00000000000E+00 0.  1.
         -3    1    3    3    0  502 -0.69533657321E+02 -0.17021073009E+03 -0.18177574985E+02  0.18476213457E+03  0.00000000000E+00 0. -1.
         11    1    5    5    0    0  0.63070178410E+02  0.12183183694E+02  0.78711073878E+01  0.64716548897E+02  0.00000000000E+00 0.  1.
        -11    1    5    5    0    0  0.24179241835E+03  0.16642471983E+03  0.18730189893E+03  0.34819931402E+03  0.00000000000E+00 0. -1.
          4    1    6    6  503    0 -0.24015197989E+02  0.90519968997E+02  0.44405844567E+02  0.10364590466E+03  0.00000000000E+00 0. -1.
         -4    1    6    6    0  503 -0.17370870507E+03  0.32159662400E+03  0.45444864928E+00  0.36551239283E+03  0.00000000000E+00 0.  1.
<mgrwt>
<rscale>  0 0.71149442E+03</rscale>
<asrwt>0</asrwt>
<pdfrwt beam="1">  1        2 0.95773071E-01 0.71149442E+03</pdfrwt>
<pdfrwt beam="2">  1       -2 0.13340228E+00 0.71149442E+03</pdfrwt>
<totfact> 0.19618542E+01</totfact>
</mgrwt>
</event>
<event>
12    1  0.1432447E-007  0.7490728E+03  0.7818608E-02  0.9636806E-01
          2   -1    0    0  501    0  0.00000000000E+00  0.00000000000E+00  0.18941701096E+04  0.18941701096E+04  0.00000000000E+00 0. -1.
         -2   -1    0    0    0  501 -0.00000000000E+00 -0.00000000000E+00 -0.34848546199E+03  0.34848546199E+03  0.00000000000E+00 0.  1.
         23    2    1    2    0    0  0.37766045733E+03 -0.56756446739E+03  0.46239231524E+03  0.82902367000E+03  0.93363518303E+02 0.  0.
    5000000    2    1    2    0    0 -0.37766045733E+03  0.56756446739E+03  0.10832923323E+04  0.14136319015E+04  0.60006335508E+03 0.  0.
         23    2    4    4    0    0 -0.15023033308E+02 -0.44560259809E+02  0.43130741817E+03  0.44420081330E+03  0.95273108905E+02 0.  0.
         23    2    4    4    0    0 -0.36263742402E+03  0.61212472720E+03  0.65198491415E+03  0.96943108824E+03  0.92248163230E+02 0.  0.
          2    1    3    3  502    0  0.12908517975E+03 -0.21968800081E+03  0.12196830653E+03  0.28249260013E+03  0.00000000000E+00 0. -1.
         -2    1    3    3    0  502  0.24857527758E+03 -0.34787646658E+03  0.34042400871E+03  0.54653106987E+03  0.00000000000E+00 0.  1.
         13    1    5    5    0    0 -0.53424738990E+02 -0.32957370599E+02  0.31430581988E+03  0.32051293176E+03  0.00000000000E+00 0.  1.
        -13    1    5    5    0    0  0.38401705682E+02 -0.11602889210E+02  0.11700159829E+03  0.12368788154E+03  0.00000000000E+00 0. -1.
          1    1    6    6  503    0 -0.31037733227E+03  0.55159389116E+03  0.54095287329E+03  0.83259829466E+03  0.00000000000E+00 0. -1.
         -1    1    6    6    0  503 -0.52260091753E+02  0.60530836042E+02  0.11103204086E+03  0.13683279358E+03  0.00000000000E+00 0.  1.
<mgrwt>
<rscale>  0 0.74907276E+03</rscale>
<asrwt>0</asrwt>
<pdfrwt beam="1">  1        2 0.29141078E+00 0.74907276E+03</pdfrwt>
<pdfrwt beam="2">  1       -2 0.53613149E-01 0.74907276E+03</pdfrwt>
<totfact> 0.25859768E+01</totfact>
</mgrwt>
</event>
<event>
12    1  0.1432447E-007  0.4708840E+03  0.7818608E-02  0.1021671E+00
         -1   -1    0    0    0  501 -0.00000000000E+00  0.00000000000E+00  0.10891624786E+03  0.10891624786E+03  0.00000000000E+00 0. -1.
          1   -1    0    0  501    0  0.00000000000E+00 -0.00000000000E+00 -0.25745856432E+04  0.25745856432E+04  0.00000000000E+00 0.  1.
         23    2    1    2    0    0  0.18475389039E+03  0.22402337665E+03 -0.34189519906E+03  0.45758831757E+03  0.90411658229E+02 0.  0.
    5000000    2    1    2    0    0 -0.18475389039E+03 -0.22402337665E+03 -0.21237741963E+04  0.22259135735E+04  0.59996160420E+03 0.  0.
         23    2    4    4    0    0 -0.53519854628E+02  0.19273357526E+03 -0.67859690685E+03  0.71328606804E+03  0.90954092856E+02 0.  0.
         23    2    4    4    0    0 -0.13123403576E+03 -0.41675695190E+03 -0.14451772894E+04  0.15126275054E+04  0.92713770373E+02 0.  0.
          1    1    3    3  502    0  0.15348180956E+03  0.22480207878E+03 -0.29696508348E+03  0.40284103725E+03  0.00000000000E+00 0. -1.
         -1    1    3    3    0  502  0.31272080827E+02 -0.77870213767E+00 -0.44930115583E+02  0.54747280321E+02  0.00000000000E+00 0.  1.
         11    1    5    5    0    0 -0.27713775756E+02  0.70600180452E+02 -0.12858822721E+03  0.14928955430E+03  0.00000000000E+00 0.  1.
        -11    1    5    5    0    0 -0.25806078872E+02  0.12213339480E+03 -0.55000867964E+03  0.56399651374E+03  0.00000000000E+00 0. -1.
          4    1    6    6  503    0 -0.12533474648E+03 -0.37382615142E+03 -0.13725213034E+04  0.14280299431E+04  0.00000000000E+00 0. -1.
         -4    1    6    6    0  503 -0.58992892787E+01 -0.42930800486E+02 -0.72655986052E+02  0.84597562338E+02  0.00000000000E+00 0.  1.
<mgrwt>
<rscale>  0 0.47088399E+03</rscale>
<asrwt>0</asrwt>
<pdfrwt beam="1">  1        1 0.39609008E+00 0.47088399E+03</pdfrwt>
<pdfrwt beam="2">  1       -1 0.16756347E-01 0.47088399E+03</pdfrwt>
<totfact> 0.36153283E+01</totfact>
</mgrwt>
</event>
<event>
12    1  0.1432447E-007  0.1010419E+04  0.7818608E-02  0.9297191E-01
         -2   -1    0    0    0  501 -0.00000000000E+00  0.00000000000E+00  0.68595486184E+03  0.68595486184E+03  0.00000000000E+00 0.  1.
          2   -1    0    0  501    0  0.00000000000E+00 -0.00000000000E+00 -0.16770193421E+04  0.16770193421E+04  0.00000000000E+00 0. -1.
         23    2    1    2    0    0  0.10760940963E+03 -0.95249083202E+03 -0.20148122901E+03  0.98377425908E+03  0.91643532523E+02 0.  0.
    5000000    2    1    2    0    0 -0.10760940963E+03  0.95249083202E+03 -0.78958325123E+03  0.13791999448E+04  0.59994350325E+03 0.  0.
         23    2    4    4    0    0  0.71313476868E+02  0.79096977647E+03 -0.35869915623E+03  0.87622774498E+03  0.91603368471E+02 0.  0.
         23    2    4    4    0    0 -0.17892288650E+03  0.16152105555E+03 -0.43088409500E+03  0.50297219986E+03  0.96007707020E+02 0.  0.
          3    1    3    3  502    0  0.67773959816E+02 -0.26459560660E+03 -0.39920895156E+02  0.27603953074E+03  0.00000000000E+00 0. -1.
         -3    1    3    3    0  502  0.39835449819E+02 -0.68789522542E+03 -0.16156033385E+03  0.70773472834E+03  0.00000000000E+00 0.  1.
         11    1    5    5    0    0 -0.81418064271E+01  0.41517517619E+03 -0.19276071560E+03  0.45781372786E+03  0.00000000000E+00 0.  1.
        -11    1    5    5    0    0  0.79455283295E+02  0.37579460028E+03 -0.16593844063E+03  0.41841401712E+03  0.00000000000E+00 0. -1.
          4    1    6    6  503    0 -0.83902221427E+02  0.13784162265E+03 -0.27679061321E+03  0.32039497383E+03  0.00000000000E+00 0. -1.
         -4    1    6    6    0  503 -0.95020665076E+02  0.23679432899E+02 -0.15409348179E+03  0.18257722602E+03  0.00000000000E+00 0.  1.
<mgrwt>
<rscale>  0 0.10104192E+04</rscale>
<asrwt>0</asrwt>
<pdfrwt beam="1">  1        2 0.25800298E+00 0.10104192E+04</pdfrwt>
<pdfrwt beam="2">  1       -2 0.10553152E+00 0.10104192E+04</pdfrwt>
<totfact> 0.73007258E+00</totfact>
</mgrwt>
</event>
<event>
12    1  0.1432447E-007  0.1130293E+04  0.7818608E-02  0.9176159E-01
         -2   -1    0    0    0  501 -0.00000000000E+00  0.00000000000E+00  0.93665117794E+03  0.93665117794E+03  0.00000000000E+00 0.  1.
          2   -1    0    0  501    0  0.00000000000E+00 -0.00000000000E+00 -0.22939597797E+04  0.22939597797E+04  0.00000000000E+00 0. -1.
         23    2    1    2    0    0  0.72907079003E+03  0.80001092033E+03 -0.16344141029E+04  0.19623572947E+04  0.89302872276E+02 0.  0.
    5000000    2    1    2    0    0 -0.72907079003E+03 -0.80001092033E+03  0.27710550112E+03  0.12682536629E+04  0.60009849621E+03 0.  0.
         23    2    4    4    0    0 -0.43330618024E+03 -0.74802712238E+03  0.29783217635E+02  0.86982982818E+03  0.91750031570E+02 0.  0.
         23    2    4    4    0    0 -0.29576460980E+03 -0.51983797950E+02  0.24732228349E+03  0.39842383471E+03  0.85989653423E+02 0.  0.
          1    1    3    3  502    0  0.62861238830E+03  0.65406760637E+03 -0.13247689720E+04  0.16056060531E+04  0.00000000000E+00 0. -1.
         -1    1    3    3    0  502  0.10045840173E+03  0.14594331396E+03 -0.30964513083E+03  0.35675124165E+03  0.00000000000E+00 0.  1.
         11    1    5    5    0    0 -0.40239065624E+03 -0.63457171088E+03  0.33937513781E+02  0.75216437786E+03  0.00000000000E+00 0.  1.
        -11    1    5    5    0    0 -0.30915523993E+02 -0.11345541151E+03 -0.41542961460E+01  0.11766545032E+03  0.00000000000E+00 0. -1.
          3    1    6    6  503    0 -0.85647902085E+01  0.10277672906E+02  0.30242053015E+02  0.33069139121E+02  0.00000000000E+00 0. -1.
         -3    1    6    6    0  503 -0.28719981959E+03 -0.62261470856E+02  0.21708023047E+03  0.36535469559E+03  0.00000000000E+00 0.  1.
<mgrwt>
<rscale>  0 0.11302932E+04</rscale>
<asrwt>0</asrwt>
<pdfrwt beam="1">  1        2 0.35291689E+00 0.11302932E+04</pdfrwt>
<pdfrwt beam="2">  1       -2 0.14410018E+00 0.11302932E+04</pdfrwt>
<totfact> 0.14985408E+00</totfact>
</mgrwt>
</event>
<event>
12    1  0.1432447E-007  0.9487889E+03  0.7818608E-02  0.9366567E-01
         -1   -1    0    0    0  501 -0.00000000000E+00  0.00000000000E+00  0.13833478360E+04  0.13833478360E+04  0.00000000000E+00 0.  1.
          1   -1    0    0  501    0  0.00000000000E+00 -0.00000000000E+00 -0.79971612495E+03  0.79971612495E+03  0.00000000000E+00 0. -1.
         23    2    1    2    0    0 -0.84785856192E+03 -0.40501152745E+03  0.49166284408E+03  0.10644487031E+04  0.91761706778E+02 0.  0.
    5000000    2    1    2    0    0  0.84785856192E+03  0.40501152745E+03  0.91968866951E+02  0.11186152579E+04  0.59995278500E+03 0.  0.
         23    2    4    4    0    0  0.44357833331E+03  0.26427336313E+03  0.33103563622E+03  0.61976543281E+03  0.89008151440E+02 0.  0.
         23    2    4    4    0    0  0.40428022861E+03  0.14073816432E+03 -0.23906676926E+03  0.49884982504E+03  0.91915687655E+02 0.  0.
          2    1    3    3  502    0 -0.27765971419E+03 -0.15142358103E+03  0.12100204040E+03  0.33862296371E+03  0.00000000000E+00 0. -1.
         -2    1    3    3    0  502 -0.57019884773E+03 -0.25358794643E+03  0.37066080368E+03  0.72582573936E+03  0.00000000000E+00 0.  1.
         11    1    5    5    0    0  0.19885215536E+03  0.81462253273E+02  0.10142503507E+03  0.23762431723E+03  0.00000000000E+00 0. -1.
        -11    1    5    5    0    0  0.24472617795E+03  0.18281110986E+03  0.22961060114E+03  0.38214111558E+03  0.00000000000E+00 0.  1.
          3    1    6    6  503    0  0.17769339553E+03  0.10807185627E+03 -0.13002935736E+03  0.24527964186E+03  0.00000000000E+00 0. -1.
         -3    1    6    6    0  503  0.22658683308E+03  0.32666308050E+02 -0.10903741190E+03  0.25357018319E+03  0.00000000000E+00 0.  1.
<mgrwt>
<rscale>  0 0.94878893E+03</rscale>
<asrwt>0</asrwt>
<pdfrwt beam="1">  1        1 0.12303325E+00 0.94878893E+03</pdfrwt>
<pdfrwt beam="2">  1       -1 0.21282274E+00 0.94878893E+03</pdfrwt>
<totfact> 0.27521483E+00</totfact>
</mgrwt>
</event>
<event>
12    1  0.1432447E-007  0.8375144E+03  0.7818608E-02  0.9507250E-01
          1   -1    0    0  501    0  0.00000000000E+00  0.00000000000E+00  0.34675890162E+04  0.34675890162E+04  0.00000000000E+00 0. -1.
         -1   -1    0    0    0  501 -0.00000000000E+00 -0.00000000000E+00 -0.35998213912E+03  0.35998213912E+03  0.00000000000E+00 0.  1.
         23    2    1    2    0    0  0.72797882111E+03 -0.22972283640E+03  0.26404271768E+04  0.27500925300E+04  0.91801426988E+02 0.  0.
    5000000    2    1    2    0    0 -0.72797882111E+03  0.22972283640E+03  0.46717970029E+03  0.10774786253E+04  0.59998130818E+03 0.  0.
         23    2    4    4    0    0 -0.28244581881E+01  0.16709085427E+03 -0.29283815251E+02  0.19204026531E+03  0.89969942312E+02 0.  0.
         23    2    4    4    0    0 -0.72515436292E+03  0.62631982134E+02  0.49646351554E+03  0.88543836004E+03  0.88053687698E+02 0.  0.
          3    1    3    3  502    0  0.47260418741E+02 -0.28530188934E+02  0.27368382149E+03  0.27919590434E+03  0.00000000000E+00 0. -1.
         -3    1    3    3    0  502  0.68071840237E+03 -0.20119264747E+03  0.23667433553E+04  0.24708966256E+04  0.00000000000E+00 0.  1.
         13    1    5    5    0    0 -0.27529352841E+02  0.14544003716E+03  0.15863234015E-01  0.14802253183E+03  0.00000000000E+00 0. -1.
        -13    1    5    5    0    0  0.24704894652E+02  0.21650817104E+02 -0.29299678485E+02  0.44017733476E+02  0.00000000000E+00 0.  1.
          4    1    6    6  503    0 -0.37240266938E+03  0.53742664588E+02  0.20973951213E+03  0.43076987488E+03  0.00000000000E+00 0. -1.
         -4    1    6    6    0  503 -0.35275169354E+03  0.88893175453E+01  0.28672400341E+03  0.45466848516E+03  0.00000000000E+00 0.  1.
<mgrwt>
<rscale>  0 0.83751440E+03</rscale>
<asrwt>0</asrwt>
<pdfrwt beam="1">  1        1 0.53347521E+00 0.83751440E+03</pdfrwt>
<pdfrwt beam="2">  1       -1 0.55381870E-01 0.83751440E+03</pdfrwt>
<totfact> 0.93514284E-01</totfact>
</mgrwt>
</event>
<event>
12    1  0.1432447E-007  0.8878335E+03  0.7818608E-02  0.9440919E-01
          1   -1    0    0  501    0  0.00000000000E+00  0.00000000000E+00  0.15035319828E+04  0.15035319828E+04  0.00000000000E+00 0. -1.
         -1   -1    0    0    0  501 -0.00000000000E+00 -0.00000000000E+00 -0.83782156211E+03  0.83782156211E+03  0.00000000000E+00 0.  1.
         23    2    1    2    0    0  0.46949621220E+02  0.82171424906E+03  0.97235184167E+03  0.12772471840E+04  0.92052653098E+02 0.  0.
    5000000    2    1    2    0    0 -0.46949621220E+02 -0.82171424906E+03 -0.30664142098E+03  0.10641063609E+04  0.60072856788E+03 0.  0.
         23    2    4    4    0    0 -0.24400969912E+03 -0.53573581932E+03 -0.37015479767E+03  0.70176656573E+03  0.94382928357E+02 0.  0.
         23    2    4    4    0    0  0.19706007790E+03 -0.28597842974E+03  0.63513376689E+02  0.36233979520E+03  0.81485223141E+02 0.  0.
          1    1    3    3  502    0  0.46071262031E+02  0.16329111191E+03  0.20715703553E+03  0.26776965061E+03  0.00000000000E+00 0. -1.
         -1    1    3    3    0  502  0.87835918985E+00  0.65842313715E+03  0.76519480613E+03  0.10094775334E+04  0.00000000000E+00 0.  1.
         13    1    5    5    0    0 -0.10812824864E+02 -0.67360867846E+02 -0.16351359634E+02  0.70155332373E+02  0.00000000000E+00 0.  1.
        -13    1    5    5    0    0 -0.23319687426E+03 -0.46837495147E+03 -0.35380343804E+03  0.63161123335E+03  0.00000000000E+00 0. -1.
          3    1    6    6  503    0  0.19534007043E+03 -0.23699067376E+03  0.61900173981E+02  0.31329531453E+03  0.00000000000E+00 0. -1.
         -3    1    6    6    0  503  0.17200074663E+01 -0.48987755980E+02  0.16132027082E+01  0.49044480675E+02  0.00000000000E+00 0.  1.
<mgrwt>
<rscale>  0 0.88783355E+03</rscale>
<asrwt>0</asrwt>
<pdfrwt beam="1">  1        1 0.23131261E+00 0.88783355E+03</pdfrwt>
<pdfrwt beam="2">  1       -1 0.12889562E+00 0.88783355E+03</pdfrwt>
<totfact> 0.34416763E+00</totfact>
</mgrwt>
</event>
<event>
12    1  0.1432447E-007  0.3400403E+03  0.7818608E-02  0.1066779E+00
         -2   -1    0    0    0  501 -0.00000000000E+00  0.00000000000E+00  0.40734582982E+03  0.40734582982E+03  0.00000000000E+00 0.  1.
          2   -1    0    0  501    0  0.00000000000E+00 -0.00000000000E+00 -0.46187705835E+03  0.46187705835E+03  0.00000000000E+00 0. -1.
         23    2    1    2    0    0 -0.42948506100E+02 -0.19274483039E+03  0.66509411683E+02  0.22606578879E+03  0.87676081108E+02 0.  0.
    5000000    2    1    2    0    0  0.42948506100E+02  0.19274483039E+03 -0.12104064021E+03  0.64315709938E+03  0.60000422839E+03 0.  0.
         23    2    4    4    0    0 -0.15890177864E+03  0.44597607681E+01 -0.26224622203E+03  0.32021773660E+03  0.92177291904E+02 0.  0.
         23    2    4    4    0    0  0.20185028474E+03  0.18828506962E+03  0.14120558182E+03  0.32293936278E+03  0.90310635063E+02 0.  0.
          2    1    3    3  502    0  0.23180086837E+02 -0.87563717865E+02  0.40042917148E+02  0.99036136464E+02  0.00000000000E+00 0. -1.
         -2    1    3    3    0  502 -0.66128592937E+02 -0.10518111253E+03  0.26466494535E+02  0.12702965232E+03  0.00000000000E+00 0.  1.
         13    1    5    5    0    0  0.10619821876E+00 -0.21086067718E+02 -0.45890774436E+02  0.50503432637E+02  0.00000000000E+00 0. -1.
        -13    1    5    5    0    0 -0.15900797686E+03  0.25545828486E+02 -0.21635544759E+03  0.26971430396E+03  0.00000000000E+00 0.  1.
          4    1    6    6  503    0  0.55471025218E+02  0.93566636283E+02  0.90123863093E+02  0.14125884313E+03  0.00000000000E+00 0. -1.
         -4    1    6    6    0  503  0.14637925952E+03  0.94718433339E+02  0.51081718723E+02  0.18168051965E+03  0.00000000000E+00 0.  1.
<mgrwt>
<rscale>  0 0.34004028E+03</rscale>
<asrwt>0</asrwt>
<pdfrwt beam="1">  1        2 0.71058009E-01 0.34004028E+03</pdfrwt>
<pdfrwt beam="2">  1       -2 0.62668589E-01 0.34004028E+03</pdfrwt>
<totfact> 0.16484718E+02</totfact>
</mgrwt>
</event>
<event>
12    1  0.1432447E-007  0.5721081E+03  0.7818608E-02  0.9965025E-01
         -2   -1    0    0    0  501 -0.00000000000E+00  0.00000000000E+00  0.17739874326E+03  0.17739874326E+03  0.00000000000E+00 0.  1.
          2   -1    0    0  501    0  0.00000000000E+00 -0.00000000000E+00 -0.28768470873E+04  0.28768470873E+04  0.00000000000E+00 0. -1.
         23    2    1    2    0    0 -0.42641561745E+03 -0.36224617983E+03 -0.75775880416E+03  0.94635978861E+03  0.91355736624E+02 0.  0.
    5000000    2    1    2    0    0  0.42641561745E+03  0.36224617983E+03 -0.19416895399E+04  0.21078860419E+04  0.59997726869E+03 0.  0.
         23    2    4    4    0    0  0.37267131876E+03  0.32618529377E+03 -0.19319130998E+04  0.19965873691E+04  0.93766411014E+02 0.  0.
         23    2    4    4    0    0  0.53744298690E+02  0.36060886062E+02 -0.97764400807E+01  0.11129867278E+03  0.90016546463E+02 0.  0.
          4    1    3    3  502    0 -0.28287444142E+03 -0.22392660577E+03 -0.55552881310E+03  0.66239968038E+03  0.00000000000E+00 0. -1.
         -4    1    3    3    0  502 -0.14354117603E+03 -0.13831957407E+03 -0.20222999106E+03  0.28396010824E+03  0.00000000000E+00 0.  1.
         13    1    5    5    0    0  0.14193438880E+03  0.11787032485E+03 -0.90674540225E+03  0.92532481255E+03  0.00000000000E+00 0. -1.
        -13    1    5    5    0    0  0.23073692996E+03  0.20831496892E+03 -0.10251676975E+04  0.10712625566E+04  0.00000000000E+00 0.  1.
          1    1    6    6  503    0  0.12110207211E+02 -0.17263777291E+02  0.27028977952E+02  0.34282076573E+02  0.00000000000E+00 0. -1.
         -1    1    6    6    0  503  0.41634091479E+02  0.53324663352E+02 -0.36805418033E+02  0.77016596209E+02  0.00000000000E+00 0.  1.
<mgrwt>
<rscale>  0 0.57210808E+03</rscale>
<asrwt>0</asrwt>
<pdfrwt beam="1">  1        2 0.44259187E+00 0.57210808E+03</pdfrwt>
<pdfrwt beam="2">  1       -2 0.27292114E-01 0.57210808E+03</pdfrwt>
<totfact> 0.27593391E+01</totfact>
</mgrwt>
</event>
<event>
12    1  0.1432447E-007  0.8045556E+03  0.7818608E-02  0.9553446E-01
          1   -1    0    0  501    0  0.00000000000E+00  0.00000000000E+00  0.20002147456E+04  0.20002147456E+04  0.00000000000E+00 0. -1.
         -1   -1    0    0    0  501 -0.00000000000E+00 -0.00000000000E+00 -0.36457461629E+03  0.36457461629E+03  0.00000000000E+00 0.  1.
         23    2    1    2    0    0 -0.73211485577E+03 -0.35070196854E+02  0.90403256321E+03  0.11679047248E+04  0.97490974191E+02 0.  0.
    5000000    2    1    2    0    0  0.73211485577E+03  0.35070196854E+02  0.73160756605E+03  0.11968846371E+04  0.60005093369E+03 0.  0.
         23    2    4    4    0    0  0.16751242290E+02  0.12405457963E+03  0.33532231242E+03  0.36924464672E+03  0.90721624098E+02 0.  0.
         23    2    4    4    0    0  0.71536361348E+03 -0.88984382774E+02  0.39628525363E+03  0.82763999036E+03  0.91008963973E+02 0.  0.
          3    1    3    3  502    0 -0.41986267988E+03 -0.40520839665E+02  0.58748395143E+03  0.72323163758E+03  0.00000000000E+00 0. -1.
         -3    1    3    3    0  502 -0.31225217589E+03  0.54506428114E+01  0.31654861179E+03  0.44467308720E+03  0.00000000000E+00 0.  1.
         13    1    5    5    0    0 -0.34015815324E+02  0.62265175932E+02  0.11815415457E+03  0.13782028903E+03  0.00000000000E+00 0.  1.
        -13    1    5    5    0    0  0.50767057614E+02  0.61789403696E+02  0.21716815785E+03  0.23142435769E+03  0.00000000000E+00 0. -1.
          3    1    6    6  503    0  0.48709394133E+03 -0.28485246615E+02  0.29887758197E+03  0.57218854057E+03  0.00000000000E+00 0. -1.
         -3    1    6    6    0  503  0.22826967215E+03 -0.60499136159E+02  0.97407671654E+02  0.25545144978E+03  0.00000000000E+00 0.  1.
<mgrwt>
<rscale>  0 0.80455558E+03</rscale>
<asrwt>0</asrwt>
<pdfrwt beam="1">  1        1 0.30772534E+00 0.80455558E+03</pdfrwt>
<pdfrwt beam="2">  1       -1 0.56088404E-01 0.80455558E+03</pdfrwt>
<totfact> 0.99373888E+00</totfact>
</mgrwt>
</event>
<event>
12    1  0.1432447E-007  0.4089747E+03  0.7818608E-02  0.1040716E+00
         -2   -1    0    0    0  501 -0.00000000000E+00  0.00000000000E+00  0.22181460837E+03  0.22181460837E+03  0.00000000000E+00 0. -1.
          2   -1    0    0  501    0  0.00000000000E+00 -0.00000000000E+00 -0.83798236296E+03  0.83798236296E+03  0.00000000000E+00 0.  1.
         23    2    1    2    0    0  0.17086250178E+03 -0.11051904701E+03 -0.10847161111E+03  0.24680810161E+03  0.87975532616E+02 0.  0.
    5000000    2    1    2    0    0 -0.17086250178E+03  0.11051904701E+03 -0.50769614347E+03  0.81298886972E+03  0.60148738467E+03 0.  0.
         23    2    4    4    0    0 -0.90047710096E+02  0.33567600901E+03 -0.38352937387E+03  0.52558969280E+03  0.91448189935E+02 0.  0.
         23    2    4    4    0    0 -0.80814791682E+02 -0.22515696200E+03 -0.12416676960E+03  0.28739917691E+03  0.99770797968E+02 0.  0.
          3    1    3    3  502    0  0.11727967029E+03 -0.62510098902E+02 -0.22641416877E+02  0.13481345366E+03  0.00000000000E+00 0. -1.
         -3    1    3    3    0  502  0.53582831485E+02 -0.48008948107E+02 -0.85830194237E+02  0.11199464796E+03  0.00000000000E+00 0.  1.
         11    1    5    5    0    0 -0.50518274994E+02  0.29338156782E+03 -0.29005365734E+03  0.41563922406E+03  0.00000000000E+00 0.  1.
        -11    1    5    5    0    0 -0.39529435102E+02  0.42294441190E+02 -0.93475716535E+02  0.10995046874E+03  0.00000000000E+00 0. -1.
          3    1    6    6  503    0 -0.10269098862E+03 -0.19307024512E+03 -0.11663396968E+03  0.24784075850E+03  0.00000000000E+00 0. -1.
         -3    1    6    6    0  503  0.21876196935E+02 -0.32086716878E+02 -0.75327999221E+01  0.39558418409E+02  0.00000000000E+00 0.  1.
<mgrwt>
<rscale>  0 0.40897467E+03</rscale>
<asrwt>0</asrwt>
<pdfrwt beam="1">  1        2 0.12892036E+00 0.40897467E+03</pdfrwt>
<pdfrwt beam="2">  1       -2 0.34125325E-01 0.40897467E+03</pdfrwt>
<totfact> 0.26784114E+02</totfact>
</mgrwt>
</event>
<event>
12    1  0.1432447E-007  0.7491514E+03  0.7818608E-02  0.9636683E-01
         -1   -1    0    0    0  501 -0.00000000000E+00  0.00000000000E+00  0.86448754618E+03  0.86448754618E+03  0.00000000000E+00 0.  1.
          1   -1    0    0  501    0  0.00000000000E+00 -0.00000000000E+00 -0.70623029335E+03  0.70623029335E+03  0.00000000000E+00 0. -1.
         23    2    1    2    0    0 -0.58517471410E+03  0.31066705982E+03  0.70437188925E+02  0.67249332112E+03  0.91336746629E+02 0.  0.
    5000000    2    1    2    0    0  0.58517471410E+03 -0.31066705982E+03  0.87820063902E+02  0.89822451841E+03  0.60012619820E+03 0.  0.
         23    2    4    4    0    0  0.55919004407E+03 -0.54867532026E+02  0.20018536565E+03  0.60338349217E+03  0.91068691347E+02 0.  0.
         23    2    4    4    0    0  0.25984670036E+02 -0.25579952779E+03 -0.11236530174E+03  0.29484102625E+03  0.90535452877E+02 0.  0.
          1    1    3    3  502    0 -0.32254229781E+03  0.19387935032E+03  0.80692844301E+02  0.38488189289E+03  0.00000000000E+00 0. -1.
         -1    1    3    3    0  502 -0.26263241630E+03  0.11678770950E+03 -0.10255655376E+02  0.28761142823E+03  0.00000000000E+00 0.  1.
         11    1    5    5    0    0  0.41027060732E+03 -0.25038118804E+02  0.18500174106E+03  0.45074884672E+03  0.00000000000E+00 0. -1.
        -11    1    5    5    0    0  0.14891943675E+03 -0.29829413222E+02  0.15183624584E+02  0.15263464545E+03  0.00000000000E+00 0.  1.
          4    1    6    6  503    0 -0.31973233979E+02 -0.68943090238E+02 -0.42688636912E+02  0.87165114031E+02  0.00000000000E+00 0. -1.
         -4    1    6    6    0  503  0.57957904015E+02 -0.18685643755E+03 -0.69676664832E+02  0.20767591222E+03  0.00000000000E+00 0.  1.
<mgrwt>
<rscale>  0 0.74915141E+03</rscale>
<asrwt>0</asrwt>
<pdfrwt beam="1">  1        1 0.10865081E+00 0.74915141E+03</pdfrwt>
<pdfrwt beam="2">  1       -1 0.13299808E+00 0.74915141E+03</pdfrwt>
<totfact> 0.13239788E+01</totfact>
</mgrwt>
</event>
<event>
12    1  0.1432447E-007  0.1111347E+04  0.7818608E-02  0.9194202E-01
          2   -1    0    0  501    0  0.00000000000E+00  0.00000000000E+00  0.11615801822E+04  0.11615801822E+04  0.00000000000E+00 0. -1.
         -2   -1    0    0    0  501 -0.00000000000E+00 -0.00000000000E+00 -0.11189704171E+04  0.11189704171E+04  0.00000000000E+00 0.  1.
         23    2    1    2    0    0  0.45200627465E+03 -0.95290018444E+03  0.11696027614E+03  0.10648355968E+04  0.88694465039E+02 0.  0.
    5000000    2    1    2    0    0 -0.45200627465E+03  0.95290018444E+03 -0.74350511080E+02  0.12157150026E+04  0.60008877272E+03 0.  0.
         23    2    4    4    0    0 -0.21105322776E+03  0.87015321554E+03  0.81068466763E+02  0.90354279543E+03  0.90041120654E+02 0.  0.
         23    2    4    4    0    0 -0.24095304689E+03  0.82746968901E+02 -0.15541897784E+03  0.31217220714E+03  0.91602382987E+02 0.  0.
          4    1    3    3  502    0  0.70202263732E+02 -0.11515194524E+03  0.41468962726E+02  0.14109572352E+03  0.00000000000E+00 0. -1.
         -4    1    3    3    0  502  0.38180401092E+03 -0.83774823921E+03  0.75491313411E+02  0.92373987326E+03  0.00000000000E+00 0.  1.
         13    1    5    5    0    0 -0.20591288880E+03  0.70111380296E+03  0.69728892803E+02  0.73404550333E+03  0.00000000000E+00 0. -1.
        -13    1    5    5    0    0 -0.51403389596E+01  0.16903941258E+03  0.11339573960E+02  0.16949729210E+03  0.00000000000E+00 0.  1.
          1    1    6    6  503    0 -0.24296576409E+03  0.67790862173E+02 -0.15681526547E+03  0.29701681938E+03  0.00000000000E+00 0. -1.
         -1    1    6    6    0  503  0.20127171981E+01  0.14956106727E+02  0.13962876217E+01  0.15155387758E+02  0.00000000000E+00 0.  1.
<mgrwt>
<rscale>  0 0.11113473E+04</rscale>
<asrwt>0</asrwt>
<pdfrwt beam="1">  1        2 0.17870464E+00 0.11113473E+04</pdfrwt>
<pdfrwt beam="2">  1       -2 0.17214930E+00 0.11113473E+04</pdfrwt>
<totfact> 0.40285672E+00</totfact>
</mgrwt>
</event>
<event>
12    1  0.1432447E-007  0.2063308E+03  0.7818608E-02  0.1144505E+00
          3   -1    0    0  501    0  0.00000000000E+00  0.00000000000E+00  0.37370299058E+04  0.37370299058E+04  0.00000000000E+00 0. -1.
         -3   -1    0    0    0  501 -0.00000000000E+00 -0.00000000000E+00 -0.46248849104E+02  0.46248849104E+02  0.00000000000E+00 0.  1.
         23    2    1    2    0    0 -0.94955079416E+02  0.12018142707E+03  0.45241827830E+03  0.48635715139E+03  0.91656629057E+02 0.  0.
    5000000    2    1    2    0    0  0.94955079416E+02 -0.12018142707E+03  0.32383627784E+04  0.32969216035E+04  0.59936510800E+03 0.  0.
         23    2    4    4    0    0  0.63830555831E+02 -0.12311754788E+03  0.21320961629E+03  0.27023721749E+03  0.91310146113E+02 0.  0.
         23    2    4    4    0    0  0.31124523584E+02  0.29361208012E+01  0.30251531621E+04  0.30266843860E+04  0.91045931500E+02 0.  0.
          2    1    3    3  502    0  0.81525287397E+01  0.56898841062E+02  0.15042713931E+03  0.16103498402E+03  0.00000000000E+00 0.  1.
         -2    1    3    3    0  502 -0.10310760816E+03  0.63282586012E+02  0.30199113899E+03  0.32532216737E+03  0.00000000000E+00 0. -1.
         11    1    5    5    0    0  0.43408499488E+02 -0.69050430202E+02  0.19211689030E+03  0.20871310280E+03  0.00000000000E+00 0. -1.
        -11    1    5    5    0    0  0.20422056344E+02 -0.54067117674E+02  0.21092725988E+02  0.61524114691E+02  0.00000000000E+00 0.  1.
          3    1    6    6  503    0  0.34583093317E+02 -0.39368112252E+02  0.14093236819E+04  0.14102975143E+04  0.00000000000E+00 0. -1.
         -3    1    6    6    0  503 -0.34585697326E+01  0.42304233053E+02  0.16158294802E+04  0.16163868717E+04  0.00000000000E+00 0.  1.
<mgrwt>
<rscale>  0 0.20633083E+03</rscale>
<asrwt>0</asrwt>
<pdfrwt beam="1">  1        3 0.57492744E+00 0.20633083E+03</pdfrwt>
<pdfrwt beam="2">  1       -3 0.71152105E-02 0.20633083E+03</pdfrwt>
<totfact> 0.62518810E-01</totfact>
</mgrwt>
</event>
<event>
12    1  0.1432447E-007  0.8755546E+03  0.7818608E-02  0.9456666E-01
          1   -1    0    0  501    0  0.00000000000E+00  0.00000000000E+00  0.21576307163E+04  0.21576307163E+04  0.00000000000E+00 0. -1.
         -1   -1    0    0    0  501 -0.00000000000E+00 -0.00000000000E+00 -0.92629491195E+03  0.92629491195E+03  0.00000000000E+00 0.  1.
         23    2    1    2    0    0  0.42640706896E+02 -0.77951990977E+03  0.17877349595E+04  0.19529075581E+04  0.91553948402E+02 0.  0.
    5000000    2    1    2    0    0 -0.42640706896E+02  0.77951990977E+03 -0.55639915513E+03  0.11310180702E+04  0.60012693294E+03 0.  0.
         23    2    4    4    0    0  0.21591455168E+03  0.11185878549E+03 -0.20549439907E+03  0.32814550907E+03  0.79498714177E+02 0.  0.
         23    2    4    4    0    0 -0.25855525857E+03  0.66766112428E+03 -0.35090475606E+03  0.80287256111E+03  0.94063823836E+02 0.  0.
          1    1    3    3  502    0  0.47394327498E+02 -0.22302131832E+03  0.46595472619E+03  0.51874708439E+03  0.00000000000E+00 0.  1.
         -1    1    3    3    0  502 -0.47536206017E+01 -0.55649859145E+03  0.13217802333E+04  0.14341604737E+04  0.00000000000E+00 0. -1.
         13    1    5    5    0    0  0.15959549297E+03  0.10403268778E+03 -0.19033958583E+03  0.26930035172E+03  0.00000000000E+00 0. -1.
        -13    1    5    5    0    0  0.56319058705E+02  0.78260977087E+01 -0.15154813239E+02  0.58845157346E+02  0.00000000000E+00 0.  1.
          3    1    6    6  503    0 -0.35022105781E+02  0.41205770602E+02 -0.46764579199E+02  0.71493980809E+02  0.00000000000E+00 0. -1.
         -3    1    6    6    0  503 -0.22353315279E+03  0.62645535368E+03 -0.30414017686E+03  0.73137858030E+03  0.00000000000E+00 0.  1.
<mgrwt>
<rscale>  0 0.87555462E+03</rscale>
<asrwt>0</asrwt>
<pdfrwt beam="1">  1        1 0.33194319E+00 0.87555462E+03</pdfrwt>
<pdfrwt beam="2">  1       -1 0.14250691E+00 0.87555462E+03</pdfrwt>
<totfact> 0.96396815E-01</totfact>
</mgrwt>
</event>
<event>
12    1  0.1432447E-007  0.9309939E+03  0.7818608E-02  0.9387646E-01
          2   -1    0    0  501    0  0.00000000000E+00  0.00000000000E+00  0.20259315710E+04  0.20259315710E+04  0.00000000000E+00 0. -1.
         -2   -1    0    0    0  501 -0.00000000000E+00 -0.00000000000E+00 -0.44946530381E+03  0.44946530381E+03  0.00000000000E+00 0.  1.
         23    2    1    2    0    0  0.25672679225E+03  0.81636496915E+03  0.65196247320E+03  0.10800750837E+04  0.95638439936E+02 0.  0.
    5000000    2    1    2    0    0 -0.25672679225E+03 -0.81636496915E+03  0.92450379401E+03  0.13953217912E+04  0.59987934373E+03 0.  0.
         23    2    4    4    0    0 -0.12875188347E+03  0.11177365510E+02  0.25011704658E+02  0.16245552209E+03  0.95206251324E+02 0.  0.
         23    2    4    4    0    0 -0.12797490878E+03 -0.82754233466E+03  0.89949208935E+03  0.12328662691E+04  0.98332729404E+02 0.  0.
          2    1    3    3  502    0  0.12461663473E+03  0.54045151699E+03  0.43880137477E+03  0.70722259182E+03  0.00000000000E+00 0. -1.
         -2    1    3    3    0  502  0.13211015752E+03  0.27591345215E+03  0.21316109842E+03  0.37285249185E+03  0.00000000000E+00 0.  1.
         13    1    5    5    0    0  0.98078319328E+01 -0.14965484634E+02  0.10400458303E+02  0.20696106650E+02  0.00000000000E+00 0. -1.
        -13    1    5    5    0    0 -0.13855971540E+03  0.26142850145E+02  0.14611246355E+02  0.14175941544E+03  0.00000000000E+00 0.  1.
          2    1    6    6  503    0 -0.25672531048E+02 -0.46882307079E+03  0.52400925090E+03  0.70359068043E+03  0.00000000000E+00 0. -1.
         -2    1    6    6    0  503 -0.10230237773E+03 -0.35871926387E+03  0.37548283845E+03  0.52927558864E+03  0.00000000000E+00 0.  1.
<mgrwt>
<rscale>  0 0.93099389E+03</rscale>
<asrwt>0</asrwt>
<pdfrwt beam="1">  1        2 0.31168177E+00 0.93099389E+03</pdfrwt>
<pdfrwt beam="2">  1       -2 0.69148510E-01 0.93099389E+03</pdfrwt>
<totfact> 0.12478185E+01</totfact>
</mgrwt>
</event>
<event>
12    1  0.1432447E-007  0.3834003E+03  0.7818608E-02  0.1049684E+00
          2   -1    0    0  501    0  0.00000000000E+00  0.00000000000E+00  0.19167932262E+04  0.19167932262E+04  0.00000000000E+00 0. -1.
         -2   -1    0    0    0  501 -0.00000000000E+00 -0.00000000000E+00 -0.13070176121E+03  0.13070176121E+03  0.00000000000E+00 0.  1.
         23    2    1    2    0    0 -0.43708629543E+01  0.30896525401E+03  0.49124003091E+03  0.58741053752E+03  0.90861097258E+02 0.  0.
    5000000    2    1    2    0    0  0.43708629543E+01 -0.30896525401E+03  0.12948514341E+04  0.14600844499E+04  0.59977306695E+03 0.  0.
         23    2    4    4    0    0 -0.80340661151E+02 -0.30394282387E+03  0.26096983435E+03  0.41868050751E+03  0.91390650022E+02 0.  0.
         23    2    4    4    0    0  0.84711524105E+02 -0.50224301409E+01  0.10338815997E+04  0.10414039424E+04  0.91704644507E+02 0.  0.
          3    1    3    3  502    0  0.28239847878E+02  0.11159402191E+03  0.24064805850E+03  0.26676244637E+03  0.00000000000E+00 0. -1.
         -3    1    3    3    0  502 -0.32610710832E+02  0.19737123210E+03  0.25059197241E+03  0.32064809115E+03  0.00000000000E+00 0.  1.
         11    1    5    5    0    0  0.12772209433E+02 -0.12334930354E+03  0.10609097403E+03  0.16319765559E+03  0.00000000000E+00 0. -1.
        -11    1    5    5    0    0 -0.93112870584E+02 -0.18059352033E+03  0.15487886032E+03  0.25548285192E+03  0.00000000000E+00 0.  1.
          4    1    6    6  503    0  0.83926801665E+02 -0.37526642522E+02  0.72104596884E+03  0.72688324104E+03  0.00000000000E+00 0. -1.
         -4    1    6    6    0  503  0.78472244018E+00  0.32504212382E+02  0.31283563090E+03  0.31452070134E+03  0.00000000000E+00 0.  1.
<mgrwt>
<rscale>  0 0.38340030E+03</rscale>
<asrwt>0</asrwt>
<pdfrwt beam="1">  1        2 0.29489125E+00 0.38340030E+03</pdfrwt>
<pdfrwt beam="2">  1       -2 0.20107965E-01 0.38340030E+03</pdfrwt>
<totfact> 0.16828039E+02</totfact>
</mgrwt>
</event>
<event>
12    1  0.1432447E-007  0.5040638E+03  0.7818608E-02  0.1012724E+00
          2   -1    0    0  501    0  0.00000000000E+00  0.00000000000E+00  0.17184645509E+04  0.17184645509E+04  0.00000000000E+00 0. -1.
         -2   -1    0    0    0  501 -0.00000000000E+00 -0.00000000000E+00 -0.16591313212E+03  0.16591313212E+03  0.00000000000E+00 0.  1.
         23    2    1    2    0    0 -0.33422238618E+03 -0.76049624808E+02  0.71887044427E+03  0.80157765959E+03  0.90905884603E+02 0.  0.
    5000000    2    1    2    0    0  0.33422238618E+03  0.76049624808E+02  0.83368097446E+03  0.10828000234E+04  0.59995314366E+03 0.  0.
         23    2    4    4    0    0  0.47697005254E+03  0.16594397267E+02  0.46448491581E+03  0.67286797481E+03  0.96069086943E+02 0.  0.
         23    2    4    4    0    0 -0.14274766636E+03  0.59455227542E+02  0.36919605865E+03  0.40993204857E+03  0.88468832864E+02 0.  0.
          4    1    3    3  502    0 -0.44826090649E+02  0.17840424605E+02  0.13181616713E+03  0.14036794887E+03  0.00000000000E+00 0. -1.
         -4    1    3    3    0  502 -0.28939629554E+03 -0.93890049414E+02  0.58705427714E+03  0.66120971072E+03  0.00000000000E+00 0.  1.
         11    1    5    5    0    0  0.17658385870E+03  0.14212180542E+02  0.23782212434E+03  0.29655220123E+03  0.00000000000E+00 0.  1.
        -11    1    5    5    0    0  0.30038619384E+03  0.23822167253E+01  0.22666279148E+03  0.37631577358E+03  0.00000000000E+00 0. -1.
          1    1    6    6  503    0  0.12873758798E+01  0.31297381912E+02  0.69335187219E+02  0.76082531753E+02  0.00000000000E+00 0. -1.
         -1    1    6    6    0  503 -0.14403504224E+03  0.28157845630E+02  0.29986087143E+03  0.33384951681E+03  0.00000000000E+00 0.  1.
<mgrwt>
<rscale>  0 0.50406381E+03</rscale>
<asrwt>0</asrwt>
<pdfrwt beam="1">  1        2 0.26437915E+00 0.50406381E+03</pdfrwt>
<pdfrwt beam="2">  1       -2 0.25525098E-01 0.50406381E+03</pdfrwt>
<totfact> 0.13849819E+02</totfact>
</mgrwt>
</event>
<event>
12    1  0.1432447E-007  0.5608509E+03  0.7818608E-02  0.9990131E-01
          2   -1    0    0  501    0  0.00000000000E+00  0.00000000000E+00  0.46324049421E+04  0.46324049421E+04  0.00000000000E+00 0. -1.
         -2   -1    0    0    0  501 -0.00000000000E+00 -0.00000000000E+00 -0.77348108445E+02  0.77348108445E+02  0.00000000000E+00 0.  1.
         23    2    1    2    0    0  0.33434523481E+03  0.28481631780E+03  0.14976337368E+04  0.15632173870E+04  0.88513944437E+02 0.  0.
    5000000    2    1    2    0    0 -0.33434523481E+03 -0.28481631780E+03  0.30574230968E+04  0.31465356635E+04  0.59995301327E+03 0.  0.
         23    2    4    4    0    0 -0.42912507136E+03 -0.56815034754E+02  0.13873875109E+04  0.14556583636E+04  0.81981040710E+02 0.  0.
         23    2    4    4    0    0  0.94779836552E+02 -0.22800128304E+03  0.16700355859E+04  0.16908772999E+04  0.95285795517E+02 0.  0.
          4    1    3    3  502    0  0.18587159475E+03  0.16575413476E+03  0.69325998305E+03  0.73663565419E+03  0.00000000000E+00 0. -1.
         -4    1    3    3    0  502  0.14847364006E+03  0.11906218304E+03  0.80437375380E+03  0.82658173281E+03  0.00000000000E+00 0.  1.
         13    1    5    5    0    0 -0.30928819338E+03 -0.58091360346E+02  0.11038883833E+04  0.11478690498E+04  0.00000000000E+00 0.  1.
        -13    1    5    5    0    0 -0.11983687798E+03  0.12763255919E+01  0.28349912765E+03  0.30778931383E+03  0.00000000000E+00 0. -1.
          2    1    6    6  503    0  0.51478566011E+02 -0.96756257115E+02  0.10457236770E+04  0.10514512945E+04  0.00000000000E+00 0. -1.
         -2    1    6    6    0  503  0.43301270541E+02 -0.13124502593E+03  0.62431190886E+03  0.63942600542E+03  0.00000000000E+00 0.  1.
<mgrwt>
<rscale>  0 0.56085089E+03</rscale>
<asrwt>0</asrwt>
<pdfrwt beam="1">  1        2 0.71267747E+00 0.56085089E+03</pdfrwt>
<pdfrwt beam="2">  1       -2 0.11899713E-01 0.56085089E+03</pdfrwt>
<totfact> 0.56036701E+00</totfact>
</mgrwt>
</event>
<event>
12    1  0.1432447E-007  0.7945125E+03  0.7818608E-02  0.9567994E-01
          2   -1    0    0  501    0  0.00000000000E+00  0.00000000000E+00  0.17685391060E+04  0.17685391060E+04  0.00000000000E+00 0. -1.
         -2   -1    0    0    0  501 -0.00000000000E+00 -0.00000000000E+00 -0.43993144899E+03  0.43993144899E+03  0.00000000000E+00 0.  1.
         23    2    1    2    0    0  0.76707175136E+03  0.10307494686E+03  0.50354678340E+03  0.92794223883E+03  0.92162460526E+02 0.  0.
    5000000    2    1    2    0    0 -0.76707175136E+03 -0.10307494686E+03  0.82506087361E+03  0.12805283162E+04  0.60000317244E+03 0.  0.
         23    2    4    4    0    0 -0.12522446340E+03 -0.93526175445E+02 -0.53307253272E+02  0.18872160461E+03  0.91355728154E+02 0.  0.
         23    2    4    4    0    0 -0.64184728796E+03 -0.95487714133E+01  0.87836812688E+03  0.10918067116E+04  0.91935896069E+02 0.  0.
          3    1    3    3  502    0  0.42929555268E+03  0.90036591281E+02  0.32291509635E+03  0.54467918885E+03  0.00000000000E+00 0. -1.
         -3    1    3    3    0  502  0.33777619868E+03  0.13038355578E+02  0.18063168705E+03  0.38326304997E+03  0.00000000000E+00 0.  1.
         11    1    5    5    0    0  0.20419904874E+01 -0.23178971839E+02 -0.35183181596E+02  0.42181639701E+02  0.00000000000E+00 0. -1.
        -11    1    5    5    0    0 -0.12726645389E+03 -0.70347203607E+02 -0.18124071676E+02  0.14653996490E+03  0.00000000000E+00 0.  1.
          1    1    6    6  503    0 -0.48197530508E+03  0.13433439655E+02  0.59717278549E+03  0.76752588734E+03  0.00000000000E+00 0. -1.
         -1    1    6    6    0  503 -0.15987198288E+03 -0.22982211068E+02  0.28119534139E+03  0.32428082421E+03  0.00000000000E+00 0.  1.
<mgrwt>
<rscale>  0 0.79451246E+03</rscale>
<asrwt>0</asrwt>
<pdfrwt beam="1">  1        2 0.27208294E+00 0.79451246E+03</pdfrwt>
<pdfrwt beam="2">  1       -2 0.67681762E-01 0.79451246E+03</pdfrwt>
<totfact> 0.18390714E+01</totfact>
</mgrwt>
</event>
<event>
12    1  0.1432447E-007  0.6512983E+03  0.7818608E-02  0.9804346E-01
         -1   -1    0    0    0  501 -0.00000000000E+00  0.00000000000E+00  0.58048677936E+03  0.58048677936E+03  0.00000000000E+00 0.  1.
          1   -1    0    0  501    0  0.00000000000E+00 -0.00000000000E+00 -0.77265689139E+03  0.77265689139E+03  0.00000000000E+00 0. -1.
         23    2    1    2    0    0  0.44083244970E+03  0.29304035898E+03 -0.53890386120E+02  0.53981984499E+03  0.91079035074E+02 0.  0.
    5000000    2    1    2    0    0 -0.44083244970E+03 -0.29304035898E+03 -0.13827972590E+03  0.81332382575E+03  0.60180433883E+03 0.  0.
         23    2    4    4    0    0 -0.37557025269E+03  0.76601074260E+02 -0.16268153337E+03  0.42624984948E+03  0.91120324837E+02 0.  0.
         23    2    4    4    0    0 -0.65262197017E+02 -0.36964143324E+03  0.24401807464E+02  0.38707397628E+03  0.91306469533E+02 0.  0.
          4    1    3    3  502    0  0.33075678553E+03  0.20563837545E+03 -0.78020951395E+02  0.39720833512E+03  0.00000000000E+00 0. -1.
         -4    1    3    3    0  502  0.11007566417E+03  0.87401983524E+02  0.24130565275E+02  0.14261150987E+03  0.00000000000E+00 0.  1.
         13    1    5    5    0    0 -0.28605059447E+03  0.25652960231E+02 -0.14505075327E+03  0.32174949571E+03  0.00000000000E+00 0. -1.
        -13    1    5    5    0    0 -0.89519658221E+02  0.50948114029E+02 -0.17630780097E+02  0.10450035377E+03  0.00000000000E+00 0.  1.
          2    1    6    6  503    0 -0.81251108767E+02 -0.29163877552E+03 -0.33137367888E+01  0.30276376750E+03  0.00000000000E+00 0. -1.
         -2    1    6    6    0  503  0.15988911750E+02 -0.78002657719E+02  0.27715544253E+02  0.84310208773E+02  0.00000000000E+00 0.  1.
<mgrwt>
<rscale>  0 0.65129830E+03</rscale>
<asrwt>0</asrwt>
<pdfrwt beam="1">  1        1 0.11887029E+00 0.65129830E+03</pdfrwt>
<pdfrwt beam="2">  1       -1 0.89305658E-01 0.65129830E+03</pdfrwt>
<totfact> 0.29779576E+01</totfact>
</mgrwt>
</event>
<event>
12    1  0.1432447E-007  0.6425322E+03  0.7818608E-02  0.9820894E-01
         -2   -1    0    0    0  501 -0.00000000000E+00  0.00000000000E+00  0.10669243322E+04  0.10669243322E+04  0.00000000000E+00 0.  1.
          2   -1    0    0  501    0  0.00000000000E+00 -0.00000000000E+00 -0.75444600507E+03  0.75444600507E+03  0.00000000000E+00 0. -1.
         23    2    1    2    0    0 -0.26699924404E+03  0.43117877774E+03  0.75902445497E+03  0.91768336849E+03  0.93919683097E+02 0.  0.
    5000000    2    1    2    0    0  0.26699924404E+03 -0.43117877774E+03 -0.44654612780E+03  0.90368696882E+03  0.60003579782E+03 0.  0.
         23    2    4    4    0    0 -0.17543811953E+03 -0.19139887859E+03 -0.15058276886E+03  0.31355060512E+03  0.90701417758E+02 0.  0.
         23    2    4    4    0    0  0.44243736357E+03 -0.23977989915E+03 -0.29596335893E+03  0.59013636370E+03  0.86147531647E+02 0.  0.
          3    1    3    3  502    0 -0.16686391649E+03  0.20035322898E+03  0.33339053800E+03  0.42324252364E+03  0.00000000000E+00 0. -1.
         -3    1    3    3    0  502 -0.10013532755E+03  0.23082554877E+03  0.42563391697E+03  0.49444084485E+03  0.00000000000E+00 0.  1.
         11    1    5    5    0    0 -0.11556372935E+03 -0.93929330910E+02 -0.12924840784E+03  0.19718733650E+03  0.00000000000E+00 0. -1.
        -11    1    5    5    0    0 -0.59874390182E+02 -0.97469547680E+02 -0.21334361027E+02  0.11636326862E+03  0.00000000000E+00 0.  1.
          3    1    6    6  503    0  0.36654281644E+03 -0.23037513698E+03 -0.26525065230E+03  0.50772457944E+03  0.00000000000E+00 0. -1.
         -3    1    6    6    0  503  0.75894547134E+02 -0.94047621688E+01 -0.30712706630E+02  0.82411784258E+02  0.00000000000E+00 0.  1.
<mgrwt>
<rscale>  0 0.64253220E+03</rscale>
<asrwt>0</asrwt>
<pdfrwt beam="1">  1        2 0.11606862E+00 0.64253220E+03</pdfrwt>
<pdfrwt beam="2">  1       -2 0.16414221E+00 0.64253220E+03</pdfrwt>
<totfact> 0.90074710E+00</totfact>
</mgrwt>
</event>
<event>
12    1  0.1432447E-007  0.2567812E+04  0.7818608E-02  0.8379218E-01
         -2   -1    0    0    0  501 -0.00000000000E+00  0.00000000000E+00  0.19815188247E+04  0.19815188247E+04  0.00000000000E+00 0.  1.
          2   -1    0    0  501    0  0.00000000000E+00 -0.00000000000E+00 -0.35836102115E+04  0.35836102115E+04  0.00000000000E+00 0. -1.
         23    2    1    2    0    0  0.31244352362E+03  0.25173170408E+04 -0.64695369452E+02  0.25388897489E+04  0.85262107251E+02 0.  0.
    5000000    2    1    2    0    0 -0.31244352362E+03 -0.25173170408E+04 -0.15373960173E+04  0.30262392872E+04  0.60002639110E+03 0.  0.
         23    2    4    4    0    0 -0.27275243038E+03 -0.24845319296E+04 -0.14714985914E+04  0.29018849185E+04  0.91297198366E+02 0.  0.
         23    2    4    4    0    0 -0.39691093238E+02 -0.32785111236E+02 -0.65897425939E+02  0.12435436872E+03  0.92039621210E+02 0.  0.
          3    1    3    3  502    0  0.15162034368E+03  0.11106855467E+04  0.11499354154E+02  0.11210456491E+04  0.00000000000E+00 0. -1.
         -3    1    3    3    0  502  0.16082317994E+03  0.14066314941E+04 -0.76194723606E+02  0.14178440998E+04  0.00000000000E+00 0.  1.
         13    1    5    5    0    0  0.64965007617E+00 -0.22640780087E+03 -0.12575151455E+03  0.25898717681E+03  0.00000000000E+00 0. -1.
        -13    1    5    5    0    0 -0.27340208046E+03 -0.22581241287E+04 -0.13457470768E+04  0.26428977417E+04  0.00000000000E+00 0.  1.
          1    1    6    6  503    0 -0.10560868507E+01 -0.53819043593E+02 -0.12667294740E+02  0.55299775123E+02  0.00000000000E+00 0. -1.
         -1    1    6    6    0  503 -0.38635006387E+02  0.21033932357E+02 -0.53230131199E+02  0.69054593594E+02  0.00000000000E+00 0.  1.
<mgrwt>
<rscale>  0 0.25678124E+04</rscale>
<asrwt>0</asrwt>
<pdfrwt beam="1">  1        2 0.55132465E+00 0.25678124E+04</pdfrwt>
<pdfrwt beam="2">  1       -2 0.30484905E+00 0.25678124E+04</pdfrwt>
<totfact> 0.17567496E-02</totfact>
</mgrwt>
</event>
<event>
12    1  0.1432447E-007  0.1363204E+04  0.7818608E-02  0.8980893E-01
          1   -1    0    0  501    0  0.00000000000E+00  0.00000000000E+00  0.17876116345E+04  0.17876116345E+04  0.00000000000E+00 0. -1.
         -1   -1    0    0    0  501 -0.00000000000E+00 -0.00000000000E+00 -0.14722563552E+04  0.14722563552E+04  0.00000000000E+00 0.  1.
         23    2    1    2    0    0 -0.13197859779E+04  0.12460417935E+03  0.98903539160E+03  0.16564332703E+04  0.90658392305E+02 0.  0.
    5000000    2    1    2    0    0  0.13197859779E+04 -0.12460417935E+03 -0.67368011227E+03  0.16034347194E+04  0.59983062350E+03 0.  0.
         23    2    4    4    0    0  0.29406481887E+03  0.13473453695E+03 -0.36755840476E+03  0.49824085054E+03  0.92288954316E+02 0.  0.
         23    2    4    4    0    0  0.10257211590E+04 -0.25933871630E+03 -0.30612170750E+03  0.11051938689E+04  0.91556115094E+02 0.  0.
          3    1    3    3  502    0 -0.28943232016E+03 -0.74688357633E+01  0.19818454371E+03  0.35086174602E+03  0.00000000000E+00 0. -1.
         -3    1    3    3    0  502 -0.10303536577E+04  0.13207301511E+03  0.79085084790E+03  0.13055715243E+04  0.00000000000E+00 0.  1.
         13    1    5    5    0    0  0.12634845357E+03  0.89004828491E+01 -0.14190675259E+03  0.19021218874E+03  0.00000000000E+00 0.  1.
        -13    1    5    5    0    0  0.16771636530E+03  0.12583405410E+03 -0.22565165218E+03  0.30802866180E+03  0.00000000000E+00 0. -1.
          2    1    6    6  503    0  0.19455110883E+03 -0.13610249547E+02 -0.48108329649E+02  0.20087255717E+03  0.00000000000E+00 0. -1.
         -2    1    6    6    0  503  0.83117005020E+03 -0.24572846675E+03 -0.25801337785E+03  0.90432131175E+03  0.00000000000E+00 0.  1.
<mgrwt>
<rscale>  0 0.13632036E+04</rscale>
<asrwt>0</asrwt>
<pdfrwt beam="1">  1        1 0.27501717E+00 0.13632036E+04</pdfrwt>
<pdfrwt beam="2">  1       -1 0.22650098E+00 0.13632036E+04</pdfrwt>
<totfact> 0.39713327E-01</totfact>
</mgrwt>
</event>
<event>
12    1  0.1432447E-007  0.9919128E+03  0.7818608E-02  0.9317459E-01
         -1   -1    0    0    0  501 -0.00000000000E+00  0.00000000000E+00  0.38587604390E+03  0.38587604390E+03  0.00000000000E+00 0.  1.
          1   -1    0    0  501    0  0.00000000000E+00 -0.00000000000E+00 -0.32882698787E+04  0.32882698787E+04  0.00000000000E+00 0. -1.
         23    2    1    2    0    0  0.63287485365E+03  0.69953020161E+03 -0.20816099183E+04  0.22871748814E+04  0.90531777492E+02 0.  0.
    5000000    2    1    2    0    0 -0.63287485365E+03 -0.69953020161E+03 -0.82078391650E+03  0.13869710412E+04  0.60010778051E+03 0.  0.
         23    2    4    4    0    0 -0.36872389355E+03 -0.10858784348E+03 -0.87916222043E+02  0.40505019553E+03  0.92670218364E+02 0.  0.
         23    2    4    4    0    0 -0.26415096011E+03 -0.59094235813E+03 -0.73286769446E+03  0.98192084569E+03  0.89916012259E+02 0.  0.
          1    1    3    3  502    0  0.44042210111E+03  0.42232772855E+03 -0.13464208256E+04  0.14782359003E+04  0.00000000000E+00 0. -1.
         -1    1    3    3    0  502  0.19245275254E+03  0.27720247305E+03 -0.73518909268E+03  0.80893898103E+03  0.00000000000E+00 0.  1.
         13    1    5    5    0    0 -0.13873363801E+03 -0.18754615936E+02 -0.72506808678E+02  0.15765784230E+03  0.00000000000E+00 0.  1.
        -13    1    5    5    0    0 -0.22999025554E+03 -0.89833227543E+02 -0.15409413365E+02  0.24739235322E+03  0.00000000000E+00 0. -1.
          1    1    6    6  503    0 -0.21977851631E+03 -0.53102553803E+03 -0.60911492294E+03  0.83744355489E+03  0.00000000000E+00 0. -1.
         -1    1    6    6    0  503 -0.44372443792E+02 -0.59916820096E+02 -0.12375277151E+03  0.14447729080E+03  0.00000000000E+00 0.  1.
<mgrwt>
<rscale>  0 0.99191276E+03</rscale>
<asrwt>0</asrwt>
<pdfrwt beam="1">  1        1 0.50588769E+00 0.99191276E+03</pdfrwt>
<pdfrwt beam="2">  1       -1 0.59365544E-01 0.99191276E+03</pdfrwt>
<totfact> 0.10862955E+00</totfact>
</mgrwt>
</event>
<event>
12    1  0.1432447E-007  0.1227640E+04  0.7818608E-02  0.9089002E-01
          1   -1    0    0  501    0  0.00000000000E+00  0.00000000000E+00  0.24283643502E+04  0.24283643502E+04  0.00000000000E+00 0. -1.
         -1   -1    0    0    0  501 -0.00000000000E+00 -0.00000000000E+00 -0.90070884161E+03  0.90070884161E+03  0.00000000000E+00 0.  1.
         23    2    1    2    0    0  0.11623495162E+04 -0.16789240256E+03 -0.15829933056E+03  0.11885962833E+04  0.91968418645E+02 0.  0.
    5000000    2    1    2    0    0 -0.11623495162E+04  0.16789240256E+03  0.16859548391E+04  0.21404769085E+04  0.59996118161E+03 0.  0.
         23    2    4    4    0    0 -0.13444314209E+01  0.95929336761E+02  0.30050085283E+03  0.32885737498E+03  0.92963247441E+02 0.  0.
         23    2    4    4    0    0 -0.11610050848E+04  0.71963065794E+02  0.13854539863E+04  0.18116195335E+04  0.96804422710E+02 0.  0.
          4    1    3    3  502    0  0.40232249605E+03 -0.39579543611E+02 -0.94605345790E+02  0.41518682849E+03  0.00000000000E+00 0.  1.
         -4    1    3    3    0  502  0.76002702014E+03 -0.12831285894E+03 -0.63693984775E+02  0.77340945483E+03  0.00000000000E+00 0. -1.
         11    1    5    5    0    0  0.14641948731E+02 -0.13180548239E+01  0.24097972771E+01  0.14897350572E+02  0.00000000000E+00 0.  1.
        -11    1    5    5    0    0 -0.15986380152E+02  0.97247391585E+02  0.29809105556E+03  0.31396002440E+03  0.00000000000E+00 0. -1.
          4    1    6    6  503    0 -0.10709020127E+04  0.91426105829E+02  0.12863619424E+04  0.16762806748E+04  0.00000000000E+00 0. -1.
         -4    1    6    6    0  503 -0.90103072073E+02 -0.19463040035E+02  0.99092043864E+02  0.13533885873E+03  0.00000000000E+00 0.  1.
<mgrwt>
<rscale>  0 0.12276397E+04</rscale>
<asrwt>0</asrwt>
<pdfrwt beam="1">  1        1 0.37359451E+00 0.12276397E+04</pdfrwt>
<pdfrwt beam="2">  1       -1 0.13857059E+00 0.12276397E+04</pdfrwt>
<totfact> 0.64276064E-01</totfact>
</mgrwt>
</event>
<event>
12    1  0.1432447E-007  0.2172050E+03  0.7818608E-02  0.1135984E+00
         -1   -1    0    0    0  501 -0.00000000000E+00  0.00000000000E+00  0.10012072971E+03  0.10012072971E+03  0.00000000000E+00 0.  1.
          1   -1    0    0  501    0  0.00000000000E+00 -0.00000000000E+00 -0.13440976354E+04  0.13440976354E+04  0.00000000000E+00 0. -1.
         23    2    1    2    0    0 -0.55123316363E+02 -0.67345312274E+02 -0.20139045907E+03  0.23815191388E+03  0.92651206089E+02 0.  0.
    5000000    2    1    2    0    0  0.55123316363E+02  0.67345312274E+02 -0.10425864467E+04  0.12060664513E+04  0.60002984511E+03 0.  0.
         23    2    4    4    0    0 -0.13660539068E+01  0.15430640933E+03 -0.10528827194E+04  0.10680058317E+04  0.90896103403E+02 0.  0.
         23    2    4    4    0    0  0.56489370269E+02 -0.86961097057E+02  0.10296272765E+02  0.13806061957E+03  0.90561802593E+02 0.  0.
          4    1    3    3  502    0 -0.73432838867E+02 -0.31646399782E+02 -0.93419463149E+02  0.12296777032E+03  0.00000000000E+00 0. -1.
         -4    1    3    3    0  502  0.18309522505E+02 -0.35698912493E+02 -0.10797099592E+03  0.11518414356E+03  0.00000000000E+00 0.  1.
         13    1    5    5    0    0  0.43558662054E+02  0.56876276447E+02 -0.39930091088E+03  0.40567657720E+03  0.00000000000E+00 0. -1.
        -13    1    5    5    0    0 -0.44924715961E+02  0.97430132885E+02 -0.65358180855E+03  0.66232925450E+03  0.00000000000E+00 0.  1.
          1    1    6    6  503    0  0.65082103913E+02 -0.20282677433E+02 -0.73195581181E+01  0.68561236749E+02  0.00000000000E+00 0. -1.
         -1    1    6    6    0  503 -0.85927336431E+01 -0.66678419624E+02  0.17615830883E+02  0.69499382822E+02  0.00000000000E+00 0.  1.
<mgrwt>
<rscale>  0 0.21720495E+03</rscale>
<asrwt>0</asrwt>
<pdfrwt beam="1">  1        1 0.20678424E+00 0.21720495E+03</pdfrwt>
<pdfrwt beam="2">  1       -1 0.15403190E-01 0.21720495E+03</pdfrwt>
<totfact> 0.28484193E+02</totfact>
</mgrwt>
</event>
<event>
12    1  0.1432447E-007  0.1150869E+04  0.7818608E-02  0.9156982E-01
         -1   -1    0    0    0  501 -0.00000000000E+00  0.00000000000E+00  0.11869897222E+04  0.11869897222E+04  0.00000000000E+00 0.  1.
          1   -1    0    0  501    0  0.00000000000E+00 -0.00000000000E+00 -0.11648805342E+04  0.11648805342E+04  0.00000000000E+00 0. -1.
         23    2    1    2    0    0 -0.78158266450E+03 -0.75734275095E+03  0.15061310189E+03  0.11024506558E+04  0.90959541313E+02 0.  0.
    5000000    2    1    2    0    0  0.78158266450E+03  0.75734275095E+03 -0.12850391397E+03  0.12494196006E+04  0.60008047675E+03 0.  0.
         23    2    4    4    0    0  0.51006952181E+03  0.13980344791E+03 -0.18316468783E+03  0.56662419065E+03  0.88304866391E+02 0.  0.
         23    2    4    4    0    0  0.27151314268E+03  0.61753930304E+03  0.54660773863E+02  0.68279540995E+03  0.90264024899E+02 0.  0.
          1    1    3    3  502    0 -0.45726096966E+03 -0.48179054200E+03  0.56811017637E+02  0.66666124265E+03  0.00000000000E+00 0. -1.
         -1    1    3    3    0  502 -0.32432169484E+03 -0.27555220896E+03  0.93802084250E+02  0.43578941315E+03  0.00000000000E+00 0.  1.
         13    1    5    5    0    0  0.17613097463E+03  0.11007166404E+02 -0.82602467723E+02  0.19484980269E+03  0.00000000000E+00 0.  1.
        -13    1    5    5    0    0  0.33393854719E+03  0.12879628151E+03 -0.10056222011E+03  0.37177438796E+03  0.00000000000E+00 0. -1.
          1    1    6    6  503    0  0.72711204388E+02  0.10431994122E+03  0.35761812154E+02  0.13209268181E+03  0.00000000000E+00 0. -1.
         -1    1    6    6    0  503  0.19880193830E+03  0.51321936182E+03  0.18898961709E+02  0.55070272814E+03  0.00000000000E+00 0.  1.
<mgrwt>
<rscale>  0 0.11508693E+04</rscale>
<asrwt>0</asrwt>
<pdfrwt beam="1">  1        1 0.17921239E+00 0.11508693E+04</pdfrwt>
<pdfrwt beam="2">  1       -1 0.18261380E+00 0.11508693E+04</pdfrwt>
<totfact> 0.22283633E+00</totfact>
</mgrwt>
</event>
<event>
12    1  0.1432447E-007  0.3876743E+03  0.7818608E-02  0.1048133E+00
         -1   -1    0    0    0  501 -0.00000000000E+00  0.00000000000E+00  0.11164245816E+03  0.11164245816E+03  0.00000000000E+00 0.  1.
          1   -1    0    0  501    0  0.00000000000E+00 -0.00000000000E+00 -0.22425950324E+04  0.22425950324E+04  0.00000000000E+00 0. -1.
         23    2    1    2    0    0  0.20127533999E+02  0.26083492065E+03 -0.10891545503E+04  0.11239191145E+04  0.92176830405E+02 0.  0.
    5000000    2    1    2    0    0 -0.20127533999E+02 -0.26083492065E+03 -0.10417980240E+04  0.12303183761E+04  0.59991683618E+03 0.  0.
         23    2    4    4    0    0 -0.89611378882E+02 -0.33848677352E+03 -0.10288906331E+04  0.10907717309E+04  0.92539391747E+02 0.  0.
         23    2    4    4    0    0  0.69483844883E+02  0.77651852874E+02 -0.12907390888E+02  0.13954664518E+03  0.91917628812E+02 0.  0.
          1    1    3    3  502    0  0.51250114811E+02  0.19254657363E+03 -0.86037138992E+03  0.88314193982E+03  0.00000000000E+00 0. -1.
         -1    1    3    3    0  502 -0.31122580812E+02  0.68288347018E+02 -0.22878316036E+03  0.24077717466E+03  0.00000000000E+00 0.  1.
         11    1    5    5    0    0 -0.84391959710E+02 -0.34421945462E+03 -0.10075444503E+04  0.10680612600E+04  0.00000000000E+00 0. -1.
        -11    1    5    5    0    0 -0.52194191718E+01  0.57326810946E+01 -0.21346182812E+02  0.22710470926E+02  0.00000000000E+00 0.  1.
          2    1    6    6  503    0  0.87212861540E+02  0.37383691978E+02 -0.68646688912E+01  0.95135415713E+02  0.00000000000E+00 0. -1.
         -2    1    6    6    0  503 -0.17729016656E+02  0.40268160896E+02 -0.60427219969E+01  0.44411229466E+02  0.00000000000E+00 0.  1.
<mgrwt>
<rscale>  0 0.38767433E+03</rscale>
<asrwt>0</asrwt>
<pdfrwt beam="1">  1        1 0.34501457E+00 0.38767433E+03</pdfrwt>
<pdfrwt beam="2">  1       -1 0.17175765E-01 0.38767433E+03</pdfrwt>
<totfact> 0.59025284E+01</totfact>
</mgrwt>
</event>
<event>
12    1  0.1588734E-007  0.1090522E+04  0.7818608E-02  0.9214480E-01
         -2   -1    0    0    0  501 -0.00000000000E+00  0.00000000000E+00  0.92153502065E+03  0.92153502065E+03  0.00000000000E+00 0.  1.
          2   -1    0    0  501    0  0.00000000000E+00 -0.00000000000E+00 -0.14114742733E+04  0.14114742733E+04  0.00000000000E+00 0. -1.
         23    2    1    2    0    0  0.91043541595E+03 -0.45553412214E+03  0.75385719495E+02  0.10230587798E+04  0.67544631531E+02 0.  0.
    5000000    2    1    2    0    0 -0.91043541595E+03  0.45553412214E+03 -0.56532497211E+03  0.13099505141E+04  0.59997836812E+03 0.  0.
         23    2    4    4    0    0 -0.65602956030E+03  0.57687393867E+03 -0.35853699078E+03  0.94886175711E+03  0.92906055988E+02 0.  0.
         23    2    4    4    0    0 -0.25440585565E+03 -0.12133981654E+03 -0.20678798133E+03  0.36108875697E+03  0.90433017886E+02 0.  0.
          4    1    3    3  502    0  0.73322005160E+03 -0.34487508508E+03  0.78823770713E+02  0.81410297580E+03  0.00000000000E+00 0. -1.
         -4    1    3    3    0  502  0.17721536435E+03 -0.11065903706E+03 -0.34380512182E+01  0.20895580403E+03  0.00000000000E+00 0.  1.
         13    1    5    5    0    0 -0.47256003325E+03  0.35766160439E+03 -0.24016220030E+03  0.63946281419E+03  0.00000000000E+00 0.  1.
        -13    1    5    5    0    0 -0.18346952705E+03  0.21921233428E+03 -0.11837479048E+03  0.30939894292E+03  0.00000000000E+00 0. -1.
          1    1    6    6  503    0 -0.57372891204E+02 -0.41141443611E+02 -0.10013128776E+02  0.71305888785E+02  0.00000000000E+00 0. -1.
         -1    1    6    6    0  503 -0.19703296445E+03 -0.80198372926E+02 -0.19677485255E+03  0.28978286819E+03  0.00000000000E+00 0.  1.
<mgrwt>
<rscale>  0 0.10905217E+04</rscale>
<asrwt>0</asrwt>
<pdfrwt beam="1">  1        2 0.21714989E+00 0.10905217E+04</pdfrwt>
<pdfrwt beam="2">  1       -2 0.14177462E+00 0.10905217E+04</pdfrwt>
<totfact> 0.48699731E+00</totfact>
</mgrwt>
</event>
<event>
12    1  0.1432447E-007  0.5329704E+03  0.7818608E-02  0.1005514E+00
         -1   -1    0    0    0  501 -0.00000000000E+00  0.00000000000E+00  0.84304316772E+03  0.84304316772E+03  0.00000000000E+00 0.  1.
          1   -1    0    0  501    0  0.00000000000E+00 -0.00000000000E+00 -0.42406439477E+03  0.42406439477E+03  0.00000000000E+00 0. -1.
         23    2    1    2    0    0  0.27153740443E+03  0.24978982719E+03 -0.99255475775E+02  0.39274494130E+03  0.90936349533E+02 0.  0.
    5000000    2    1    2    0    0 -0.27153740443E+03 -0.24978982719E+03  0.51823424872E+03  0.87436262119E+03  0.59984642785E+03 0.  0.
         23    2    4    4    0    0 -0.41208701017E+03 -0.30980890563E+03  0.41974237840E+03  0.67151716460E+03  0.94627565599E+02 0.  0.
         23    2    4    4    0    0  0.14054960573E+03  0.60019078435E+02  0.98491870321E+02  0.20284545659E+03  0.89939698083E+02 0.  0.
          2    1    3    3  502    0  0.10767383796E+03  0.13124932096E+03 -0.55735499687E+01  0.16985612763E+03  0.00000000000E+00 0. -1.
         -2    1    3    3    0  502  0.16386356647E+03  0.11854050623E+03 -0.93681925807E+02  0.22288881367E+03  0.00000000000E+00 0.  1.
         13    1    5    5    0    0 -0.94284034977E+02 -0.10315285958E+03  0.15752056669E+03  0.21057711324E+03  0.00000000000E+00 0. -1.
        -13    1    5    5    0    0 -0.31780297519E+03 -0.20665604605E+03  0.26222181171E+03  0.46094005136E+03  0.00000000000E+00 0.  1.
          3    1    6    6  503    0  0.88667589907E+02 -0.85859593070E+01  0.66129375307E+02  0.11094482627E+03  0.00000000000E+00 0. -1.
         -3    1    6    6    0  503  0.51882015827E+02  0.68605037742E+02  0.32362495014E+02  0.91900630321E+02  0.00000000000E+00 0.  1.
<mgrwt>
<rscale>  0 0.53297043E+03</rscale>
<asrwt>0</asrwt>
<pdfrwt beam="1">  1        1 0.65240677E-01 0.53297043E+03</pdfrwt>
<pdfrwt beam="2">  1       -1 0.12969895E+00 0.53297043E+03</pdfrwt>
<totfact> 0.29691231E+01</totfact>
</mgrwt>
</event>
<event>
12    1  0.1432447E-007  0.3502596E+03  0.7818608E-02  0.1062509E+00
          1   -1    0    0  501    0  0.00000000000E+00  0.00000000000E+00  0.11523461387E+04  0.11523461387E+04  0.00000000000E+00 0. -1.
         -1   -1    0    0    0  501 -0.00000000000E+00 -0.00000000000E+00 -0.15790671665E+03  0.15790671665E+03  0.00000000000E+00 0.  1.
         23    2    1    2    0    0  0.11073227561E+03  0.26917110260E+02  0.51003065530E+03  0.53072872985E+03  0.92496203501E+02 0.  0.
    5000000    2    1    2    0    0 -0.11073227561E+03 -0.26917110260E+02  0.48440876679E+03  0.77952412554E+03  0.60001653417E+03 0.  0.
         23    2    4    4    0    0 -0.18671505142E+03 -0.26036160922E+03  0.18317475903E+03  0.38056710125E+03  0.92885134601E+02 0.  0.
         23    2    4    4    0    0  0.75982775810E+02  0.23344449896E+03  0.30123400776E+03  0.39895702429E+03  0.90305390103E+02 0.  0.
          1    1    3    3  502    0  0.55376683880E+02  0.11650691787E+02  0.42100178405E+03  0.42478796818E+03  0.00000000000E+00 0. -1.
         -1    1    3    3    0  502  0.55355591726E+02  0.15266418473E+02  0.89028871248E+02  0.10594076167E+03  0.00000000000E+00 0.  1.
         13    1    5    5    0    0 -0.15293028831E+03 -0.24254450079E+03  0.12932759186E+03  0.31454909627E+03  0.00000000000E+00 0.  1.
        -13    1    5    5    0    0 -0.33784763101E+02 -0.17817108437E+02  0.53847167163E+02  0.66018004986E+02  0.00000000000E+00 0. -1.
          3    1    6    6  503    0  0.23436036620E+02  0.19517006923E+03  0.22679008598E+03  0.30012388581E+03  0.00000000000E+00 0. -1.
         -3    1    6    6    0  503  0.52546739190E+02  0.38274429727E+02  0.74443921786E+02  0.98833138477E+02  0.00000000000E+00 0.  1.
<mgrwt>
<rscale>  0 0.35025960E+03</rscale>
<asrwt>0</asrwt>
<pdfrwt beam="1">  1        1 0.17728402E+00 0.35025960E+03</pdfrwt>
<pdfrwt beam="2">  1       -1 0.24293342E-01 0.35025960E+03</pdfrwt>
<totfact> 0.18009779E+02</totfact>
</mgrwt>
</event>
<event>
12    1  0.1432447E-007  0.1138223E+04  0.7818608E-02  0.9168718E-01
         -2   -1    0    0    0  501 -0.00000000000E+00  0.00000000000E+00  0.20058361926E+04  0.20058361926E+04  0.00000000000E+00 0.  1.
          2   -1    0    0  501    0  0.00000000000E+00 -0.00000000000E+00 -0.73246090885E+03  0.73246090885E+03  0.00000000000E+00 0. -1.
         23    2    1    2    0    0 -0.10250227883E+04  0.46200359233E+03  0.41571216541E+03  0.12021636254E+04  0.90894124172E+02 0.  0.
    5000000    2    1    2    0    0  0.10250227883E+04 -0.46200359233E+03  0.85766311830E+03  0.15361334760E+04  0.60000082987E+03 0.  0.
         23    2    4    4    0    0  0.13169216447E+03 -0.12263930565E+03 -0.59442872786E+02  0.20852140362E+03  0.86974106326E+02 0.  0.
         23    2    4    4    0    0  0.89333062383E+03 -0.33936428668E+03  0.91710599108E+03  0.13276120724E+04  0.90899358509E+02 0.  0.
          1    1    3    3  502    0 -0.27023926913E+03  0.11097624624E+03  0.14979615369E+03  0.32830454987E+03  0.00000000000E+00 0. -1.
         -1    1    3    3    0  502 -0.75478351917E+03  0.35102734609E+03  0.26591601171E+03  0.87385907549E+03  0.00000000000E+00 0.  1.
         11    1    5    5    0    0  0.96365804636E+01  0.11436285360E+02 -0.16352705697E+02  0.22159947868E+02  0.00000000000E+00 0.  1.
        -11    1    5    5    0    0  0.12205558400E+03 -0.13407559101E+03 -0.43090167089E+02  0.18636145576E+03  0.00000000000E+00 0. -1.
          2    1    6    6  503    0  0.10478670701E+03 -0.40772914212E+02  0.15179079701E+03  0.18889978972E+03  0.00000000000E+00 0.  1.
         -2    1    6    6    0  503  0.78854391682E+03 -0.29859137247E+03  0.76531519408E+03  0.11387122827E+04  0.00000000000E+00 0. -1.
<mgrwt>
<rscale>  0 0.11382227E+04</rscale>
<asrwt>0</asrwt>
<pdfrwt beam="1">  1        2 0.11268629E+00 0.11382227E+04</pdfrwt>
<pdfrwt beam="2">  1       -2 0.30859018E+00 0.11382227E+04</pdfrwt>
<totfact> 0.10768465E+00</totfact>
</mgrwt>
</event>
<event>
12    1  0.1432447E-007  0.1013551E+04  0.7818608E-02  0.9293806E-01
          2   -1    0    0  501    0  0.00000000000E+00  0.00000000000E+00  0.24336452850E+04  0.24336452850E+04  0.00000000000E+00 0. -1.
         -2   -1    0    0    0  501 -0.00000000000E+00 -0.00000000000E+00 -0.50926972609E+03  0.50926972609E+03  0.00000000000E+00 0.  1.
         23    2    1    2    0    0 -0.90962418094E+03 -0.19196865822E+03  0.30704176241E+03  0.98331602139E+03  0.91474793126E+02 0.  0.
    5000000    2    1    2    0    0  0.90962418094E+03  0.19196865822E+03  0.16173337965E+04  0.19595989897E+04  0.59999289565E+03 0.  0.
         23    2    4    4    0    0  0.92873589569E+03  0.48433630269E+02  0.13763859090E+04  0.16639327210E+04  0.96632028111E+02 0.  0.
         23    2    4    4    0    0 -0.19111714748E+02  0.14353502795E+03  0.24094788746E+03  0.29566626872E+03  0.91624757013E+02 0.  0.
          2    1    3    3  502    0 -0.35741026078E+03 -0.10525465153E+03  0.87174005154E+02  0.38264858990E+03  0.00000000000E+00 0. -1.
         -2    1    3    3    0  502 -0.55221392016E+03 -0.86714006690E+02  0.21986775726E+03  0.60066743149E+03  0.00000000000E+00 0.  1.
         13    1    5    5    0    0  0.61615210598E+03  0.21545860978E+02  0.83078575993E+03  0.10345591432E+04  0.00000000000E+00 0.  1.
        -13    1    5    5    0    0  0.31258378970E+03  0.26887769291E+02  0.54560014909E+03  0.62937357778E+03  0.00000000000E+00 0. -1.
          1    1    6    6  503    0  0.12140897482E+02  0.13105309302E+03  0.21894437514E+03  0.25545832143E+03  0.00000000000E+00 0. -1.
         -1    1    6    6    0  503 -0.31252612230E+02  0.12481934928E+02  0.22003512318E+02  0.40207947288E+02  0.00000000000E+00 0.  1.
<mgrwt>
<rscale>  0 0.10135506E+04</rscale>
<asrwt>0</asrwt>
<pdfrwt beam="1">  1        2 0.37440696E+00 0.10135506E+04</pdfrwt>
<pdfrwt beam="2">  1       -2 0.78349190E-01 0.10135506E+04</pdfrwt>
<totfact> 0.55488366E+00</totfact>
</mgrwt>
</event>
<event>
12    1  0.1432447E-007  0.5167736E+03  0.7818608E-02  0.1009491E+00
         -1   -1    0    0    0  501 -0.00000000000E+00  0.00000000000E+00  0.35783387968E+03  0.35783387968E+03  0.00000000000E+00 0.  1.
          1   -1    0    0  501    0  0.00000000000E+00 -0.00000000000E+00 -0.11470858510E+04  0.11470858510E+04  0.00000000000E+00 0. -1.
         23    2    1    2    0    0 -0.36140562103E+03 -0.19605739502E+03  0.13627826821E+02  0.42161626806E+03  0.92314867545E+02 0.  0.
    5000000    2    1    2    0    0  0.36140562103E+03  0.19605739502E+03 -0.80287979819E+03  0.10833034627E+04  0.59989823874E+03 0.  0.
         23    2    4    4    0    0  0.46701737589E+03  0.10561827333E+03 -0.34794518488E+03  0.59884367367E+03  0.91035403936E+02 0.  0.
         23    2    4    4    0    0 -0.10561175485E+03  0.90439121696E+02 -0.45493461330E+03  0.48445978900E+03  0.91666282135E+02 0.  0.
          1    1    3    3  502    0 -0.20193641367E+03 -0.10824821459E+03 -0.38321663600E+02  0.23230269269E+03  0.00000000000E+00 0. -1.
         -1    1    3    3    0  502 -0.15946920736E+03 -0.87809180436E+02  0.51949490421E+02  0.18931357537E+03  0.00000000000E+00 0.  1.
         11    1    5    5    0    0  0.34283696471E+03  0.51772434878E+02 -0.20887127015E+03  0.40477744117E+03  0.00000000000E+00 0.  1.
        -11    1    5    5    0    0  0.12418041118E+03  0.53845838451E+02 -0.13907391473E+03  0.19406623250E+03  0.00000000000E+00 0. -1.
          2    1    6    6  503    0 -0.28185528696E+02  0.13875788404E+02 -0.22800222447E+02  0.38817672204E+02  0.00000000000E+00 0. -1.
         -2    1    6    6    0  503 -0.77426226158E+02  0.76563333291E+02 -0.43213439085E+03  0.44564211679E+03  0.00000000000E+00 0.  1.
<mgrwt>
<rscale>  0 0.51677356E+03</rscale>
<asrwt>0</asrwt>
<pdfrwt beam="1">  1        1 0.17647475E+00 0.51677356E+03</pdfrwt>
<pdfrwt beam="2">  1       -1 0.55051365E-01 0.51677356E+03</pdfrwt>
<totfact> 0.41246306E+01</totfact>
</mgrwt>
</event>
<event>
12    1  0.1432447E-007  0.6500050E+03  0.7818608E-02  0.9806770E-01
         -1   -1    0    0    0  501 -0.00000000000E+00  0.00000000000E+00  0.23299252964E+03  0.23299252964E+03  0.00000000000E+00 0.  1.
          1   -1    0    0  501    0  0.00000000000E+00 -0.00000000000E+00 -0.21387719896E+04  0.21387719896E+04  0.00000000000E+00 0. -1.
         23    2    1    2    0    0  0.53365163871E+03 -0.39346812126E+02 -0.43491881181E+03  0.69556529186E+03  0.91238474655E+02 0.  0.
    5000000    2    1    2    0    0 -0.53365163871E+03  0.39346812126E+02 -0.14708606482E+04  0.16761992274E+04  0.59990045880E+03 0.  0.
         23    2    4    4    0    0 -0.29475435522E+03  0.28491217517E+03 -0.56528161261E+03  0.70376104796E+03  0.87642647086E+02 0.  0.
         23    2    4    4    0    0 -0.23889728349E+03 -0.24556536304E+03 -0.90557903557E+03  0.97243817945E+03  0.90489577298E+02 0.  0.
          3    1    3    3  502    0  0.28290409775E+03  0.11465474386E+02 -0.26957059709E+03  0.39094052289E+03  0.00000000000E+00 0. -1.
         -3    1    3    3    0  502  0.25074754096E+03 -0.50812286511E+02 -0.16534821473E+03  0.30462476897E+03  0.00000000000E+00 0.  1.
         13    1    5    5    0    0 -0.18935092422E+03  0.22004593655E+03 -0.34310564767E+03  0.44943906390E+03  0.00000000000E+00 0.  1.
        -13    1    5    5    0    0 -0.10540343100E+03  0.64866238618E+02 -0.22217596494E+03  0.25432198406E+03  0.00000000000E+00 0. -1.
          1    1    6    6  503    0 -0.84202496775E+02 -0.12556428186E+03 -0.49493388295E+03  0.51750941811E+03  0.00000000000E+00 0. -1.
         -1    1    6    6    0  503 -0.15469478671E+03 -0.12000108118E+03 -0.41064515263E+03  0.45492876134E+03  0.00000000000E+00 0.  1.
<mgrwt>
<rscale>  0 0.65000505E+03</rscale>
<asrwt>0</asrwt>
<pdfrwt beam="1">  1        1 0.32904184E+00 0.65000505E+03</pdfrwt>
<pdfrwt beam="2">  1       -1 0.35845005E-01 0.65000505E+03</pdfrwt>
<totfact> 0.18889943E+01</totfact>
</mgrwt>
</event>
<event>
12    1  0.1432447E-007  0.9792968E+03  0.7818608E-02  0.9331548E-01
          2   -1    0    0  501    0  0.00000000000E+00  0.00000000000E+00  0.16396657634E+04  0.16396657634E+04  0.00000000000E+00 0. -1.
         -2   -1    0    0    0  501 -0.00000000000E+00 -0.00000000000E+00 -0.64950419547E+03  0.64950419547E+03  0.00000000000E+00 0.  1.
         23    2    1    2    0    0  0.58110018481E+03  0.72665811129E+03  0.28896863505E+03  0.97866960818E+03  0.92638514930E+02 0.  0.
    5000000    2    1    2    0    0 -0.58110018481E+03 -0.72665811129E+03  0.70119293292E+03  0.13105003507E+04  0.60002516998E+03 0.  0.
         23    2    4    4    0    0 -0.40014663867E+03 -0.72413200520E+03  0.34194418765E+03  0.89979451150E+03  0.90663344691E+02 0.  0.
         23    2    4    4    0    0 -0.18095354614E+03 -0.25261060880E+01  0.35924874527E+03  0.41070583923E+03  0.82879782389E+02 0.  0.
          4    1    3    3  502    0  0.35570880538E+03  0.50569033434E+03  0.21396093689E+03  0.65424059106E+03  0.00000000000E+00 0. -1.
         -4    1    3    3    0  502  0.22539137942E+03  0.22096777695E+03  0.75007698161E+02  0.32442901712E+03  0.00000000000E+00 0.  1.
         11    1    5    5    0    0 -0.12563217069E+03 -0.15332006682E+03  0.97138946043E+02  0.22074070771E+03  0.00000000000E+00 0.  1.
        -11    1    5    5    0    0 -0.27451446798E+03 -0.57081193838E+03  0.24480524161E+03  0.67905380380E+03  0.00000000000E+00 0. -1.
          2    1    6    6  503    0 -0.20592559372E+02  0.22809750556E+02  0.10184306123E+03  0.10637832177E+03  0.00000000000E+00 0. -1.
         -2    1    6    6    0  503 -0.16036098676E+03 -0.25335856644E+02  0.25740568404E+03  0.30432751746E+03  0.00000000000E+00 0.  1.
<mgrwt>
<rscale>  0 0.97929683E+03</rscale>
<asrwt>0</asrwt>
<pdfrwt beam="1">  1        2 0.25225627E+00 0.97929683E+03</pdfrwt>
<pdfrwt beam="2">  1       -2 0.99923723E-01 0.97929683E+03</pdfrwt>
<totfact> 0.87580646E+00</totfact>
</mgrwt>
</event>
<event>
12    1  0.1432447E-007  0.6553796E+03  0.7818608E-02  0.9796737E-01
         -2   -1    0    0    0  501 -0.00000000000E+00  0.00000000000E+00  0.35805481225E+03  0.35805481225E+03  0.00000000000E+00 0.  1.
          2   -1    0    0  501    0  0.00000000000E+00 -0.00000000000E+00 -0.12314152404E+04  0.12314152404E+04  0.00000000000E+00 0. -1.
         23    2    1    2    0    0 -0.26317593308E+03 -0.44994142956E+03 -0.28241876714E+03  0.59919281108E+03  0.86964377918E+02 0.  0.
    5000000    2    1    2    0    0  0.26317593308E+03  0.44994142956E+03 -0.59094166105E+03  0.99027724161E+03  0.59977337946E+03 0.  0.
         23    2    4    4    0    0  0.20903963705E+03 -0.92529538479E+02 -0.17405509325E+03  0.29923083439E+03  0.83574107315E+02 0.  0.
         23    2    4    4    0    0  0.54136296035E+02  0.54247096804E+03 -0.41688656780E+03  0.69104640722E+03  0.80902637879E+02 0.  0.
          4    1    3    3  502    0 -0.65373883967E+02 -0.18788779708E+03 -0.87151018275E+02  0.21718855629E+03  0.00000000000E+00 0. -1.
         -4    1    3    3    0  502 -0.19780204912E+03 -0.26205363248E+03 -0.19526774886E+03  0.38200425479E+03  0.00000000000E+00 0.  1.
         11    1    5    5    0    0  0.87041060930E+02 -0.68501946987E+02 -0.43673103822E+02  0.11906302124E+03  0.00000000000E+00 0.  1.
        -11    1    5    5    0    0  0.12199857612E+03 -0.24027591492E+02 -0.13038198943E+03  0.18016781315E+03  0.00000000000E+00 0. -1.
          1    1    6    6  503    0  0.45471291408E+02  0.17477895838E+03 -0.17038924420E+03  0.24828978468E+03  0.00000000000E+00 0. -1.
         -1    1    6    6    0  503  0.86650046263E+01  0.36769200965E+03 -0.24649732359E+03  0.44275662254E+03  0.00000000000E+00 0.  1.
<mgrwt>
<rscale>  0 0.65537959E+03</rscale>
<asrwt>0</asrwt>
<pdfrwt beam="1">  1        2 0.18944849E+00 0.65537959E+03</pdfrwt>
<pdfrwt beam="2">  1       -2 0.55085357E-01 0.65537959E+03</pdfrwt>
<totfact> 0.57754701E+01</totfact>
</mgrwt>
</event>
<event>
12    1  0.1432447E-007  0.2077606E+04  0.7818608E-02  0.8571173E-01
          2   -1    0    0  501    0  0.00000000000E+00  0.00000000000E+00  0.15059681146E+04  0.15059681146E+04  0.00000000000E+00 0. -1.
         -2   -1    0    0    0  501 -0.00000000000E+00 -0.00000000000E+00 -0.43827582782E+04  0.43827582782E+04  0.00000000000E+00 0.  1.
         23    2    1    2    0    0  0.15550991916E+04 -0.13231932854E+04  0.29919351836E+03  0.20656166309E+04  0.89896263502E+02 0.  0.
    5000000    2    1    2    0    0 -0.15550991916E+04  0.13231932854E+04 -0.31759836819E+04  0.38231097619E+04  0.60010160587E+03 0.  0.
         23    2    4    4    0    0 -0.21312977478E+01  0.15936741849E+03 -0.32824477829E+03  0.37568963073E+03  0.89417826292E+02 0.  0.
         23    2    4    4    0    0 -0.15529678939E+04  0.11638258669E+04 -0.28477389036E+04  0.34474201312E+04  0.94280271560E+02 0.  0.
          4    1    3    3  502    0  0.25793021268E+03 -0.23961336038E+03  0.21097678028E+02  0.35268636081E+03  0.00000000000E+00 0. -1.
         -4    1    3    3    0  502  0.12971689789E+04 -0.10835799250E+04  0.27809584033E+03  0.17129302701E+04  0.00000000000E+00 0.  1.
         11    1    5    5    0    0 -0.33202110546E+02  0.97168185498E+02 -0.25400696988E+03  0.27397732966E+03  0.00000000000E+00 0.  1.
        -11    1    5    5    0    0  0.31070812798E+02  0.62199232989E+02 -0.74237808408E+02  0.10171230107E+03  0.00000000000E+00 0. -1.
          2    1    6    6  503    0 -0.10246382701E+04  0.77769803148E+03 -0.19643199719E+04  0.23480312529E+04  0.00000000000E+00 0. -1.
         -2    1    6    6    0  503 -0.52832962375E+03  0.38612783542E+03 -0.88341893175E+03  0.10993888782E+04  0.00000000000E+00 0.  1.
<mgrwt>
<rscale>  0 0.20776065E+04</rscale>
<asrwt>0</asrwt>
<pdfrwt beam="1">  1        2 0.23168740E+00 0.20776065E+04</pdfrwt>
<pdfrwt beam="2">  1       -2 0.67427050E+00 0.20776065E+04</pdfrwt>
<totfact> 0.30297093E-03</totfact>
</mgrwt>
</event>
<event>
12    1  0.1432447E-007  0.1043831E+04  0.7818608E-02  0.9261737E-01
         -1   -1    0    0    0  501 -0.00000000000E+00  0.00000000000E+00  0.67652912544E+03  0.67652912544E+03  0.00000000000E+00 0.  1.
          1   -1    0    0  501    0  0.00000000000E+00 -0.00000000000E+00 -0.16251905596E+04  0.16251905596E+04  0.00000000000E+00 0. -1.
         23    2    1    2    0    0  0.87462406991E+03 -0.39452054605E+03 -0.39133713236E+03  0.10403201440E+04  0.92236251039E+02 0.  0.
    5000000    2    1    2    0    0 -0.87462406991E+03  0.39452054605E+03 -0.55732430185E+03  0.12613995410E+04  0.59992057791E+03 0.  0.
         23    2    4    4    0    0 -0.10381445243E+03  0.32470074581E+03 -0.16227698334E+03  0.38772717808E+03  0.88263981539E+02 0.  0.
         23    2    4    4    0    0 -0.77080961748E+03  0.69819800240E+02 -0.39504731851E+03  0.87367236297E+03  0.90657283463E+02 0.  0.
          3    1    3    3  502    0  0.22139868273E+03 -0.57925482483E+02 -0.10225651218E+03  0.25065740069E+03  0.00000000000E+00 0. -1.
         -3    1    3    3    0  502  0.65322538718E+03 -0.33659506357E+03 -0.28908062018E+03  0.78966274335E+03  0.00000000000E+00 0.  1.
         11    1    5    5    0    0 -0.93161221944E+02  0.16145164060E+03 -0.10763768996E+03  0.21524757333E+03  0.00000000000E+00 0. -1.
        -11    1    5    5    0    0 -0.10653230484E+02  0.16324910522E+03 -0.54639293379E+02  0.17247960475E+03  0.00000000000E+00 0.  1.
          3    1    6    6  503    0 -0.35081541653E+03  0.32274635606E+02 -0.23067468786E+03  0.42109846853E+03  0.00000000000E+00 0. -1.
         -3    1    6    6    0  503 -0.41999420095E+03  0.37545164634E+02 -0.16437263065E+03  0.45257389444E+03  0.00000000000E+00 0.  1.
<mgrwt>
<rscale>  0 0.10438308E+04</rscale>
<asrwt>0</asrwt>
<pdfrwt beam="1">  1        1 0.25002931E+00 0.10438308E+04</pdfrwt>
<pdfrwt beam="2">  1       -1 0.10408141E+00 0.10438308E+04</pdfrwt>
<totfact> 0.46658883E+00</totfact>
</mgrwt>
</event>
<event>
12    1  0.1432447E-007  0.7517097E+03  0.7818608E-02  0.9632672E-01
          2   -1    0    0  501    0  0.00000000000E+00  0.00000000000E+00  0.89364297801E+03  0.89364297801E+03  0.00000000000E+00 0. -1.
         -2   -1    0    0    0  501 -0.00000000000E+00 -0.00000000000E+00 -0.80500655326E+03  0.80500655326E+03  0.00000000000E+00 0.  1.
         23    2    1    2    0    0  0.31532156601E+03  0.61666425182E+03 -0.22153456844E+03  0.73255283542E+03  0.88620551832E+02 0.  0.
    5000000    2    1    2    0    0 -0.31532156601E+03 -0.61666425182E+03  0.31017099319E+03  0.96609669584E+03  0.59785808621E+03 0.  0.
         23    2    4    4    0    0 -0.31778456116E+03 -0.67329406214E+03  0.37581356966E+03  0.83917777899E+03  0.93121341144E+02 0.  0.
         23    2    4    4    0    0  0.24629951488E+01  0.56629810322E+02 -0.65642576477E+02  0.12691891686E+03  0.92663163382E+02 0.  0.
          3    1    3    3  502    0  0.21471458033E+03  0.47444378792E+03 -0.19625271678E+03  0.55651988980E+03  0.00000000000E+00 0. -1.
         -3    1    3    3    0  502  0.10060698568E+03  0.14222046390E+03 -0.25281851657E+02  0.17603294562E+03  0.00000000000E+00 0.  1.
         11    1    5    5    0    0 -0.16751946841E+03 -0.35200975923E+03  0.14464295379E+03  0.41580671828E+03  0.00000000000E+00 0.  1.
        -11    1    5    5    0    0 -0.15026509275E+03 -0.32128430291E+03  0.23117061588E+03  0.42337106070E+03  0.00000000000E+00 0. -1.
          4    1    6    6  503    0  0.55223061156E+01 -0.14884442378E+01  0.21433978706E+02  0.22183930541E+02  0.00000000000E+00 0. -1.
         -4    1    6    6    0  503 -0.30593109669E+01  0.58118254559E+02 -0.87076555182E+02  0.10473498632E+03  0.00000000000E+00 0.  1.
<mgrwt>
<rscale>  0 0.75170974E+03</rscale>
<asrwt>0</asrwt>
<pdfrwt beam="1">  1        2 0.13748353E+00 0.75170974E+03</pdfrwt>
<pdfrwt beam="2">  1       -2 0.12384716E+00 0.75170974E+03</pdfrwt>
<totfact> 0.14760494E+01</totfact>
</mgrwt>
</event>
<event>
12    1  0.1432447E-007  0.5538901E+03  0.7818608E-02  0.1000598E+00
         -2   -1    0    0    0  501 -0.00000000000E+00  0.00000000000E+00  0.59749745313E+03  0.59749745313E+03  0.00000000000E+00 0.  1.
          2   -1    0    0  501    0  0.00000000000E+00 -0.00000000000E+00 -0.59373509864E+03  0.59373509864E+03  0.00000000000E+00 0. -1.
         23    2    1    2    0    0 -0.31383703911E+03  0.29599426402E+03  0.80553827550E+02  0.44823797662E+03  0.91225397266E+02 0.  0.
    5000000    2    1    2    0    0  0.31383703911E+03 -0.29599426402E+03 -0.76791473060E+02  0.74299457516E+03  0.60003142995E+03 0.  0.
         23    2    4    4    0    0  0.39057012804E+03 -0.61027420448E+02  0.11045536167E+03  0.42035193375E+03  0.90697245408E+02 0.  0.
         23    2    4    4    0    0 -0.76733088935E+02 -0.23496684357E+03 -0.18724683473E+03  0.32264264140E+03  0.89103941668E+02 0.  0.
          4    1    3    3  502    0 -0.14063271783E+03  0.19321850228E+03  0.32456688694E+02  0.24117294125E+03  0.00000000000E+00 0. -1.
         -4    1    3    3    0  502 -0.17320432127E+03  0.10277576174E+03  0.48097138856E+02  0.20706503537E+03  0.00000000000E+00 0.  1.
         13    1    5    5    0    0  0.31984994503E+03 -0.13939664540E+02  0.79025425868E+02  0.32976251988E+03  0.00000000000E+00 0. -1.
        -13    1    5    5    0    0  0.70720183007E+02 -0.47087755908E+02  0.31429935802E+02  0.90589413872E+02  0.00000000000E+00 0.  1.
          1    1    6    6  503    0  0.92996737314E+01  0.25689087126E+01 -0.10844173003E+02  0.14514796299E+02  0.00000000000E+00 0. -1.
         -1    1    6    6    0  503 -0.86032762666E+02 -0.23753575228E+03 -0.17640266173E+03  0.30812784510E+03  0.00000000000E+00 0.  1.
<mgrwt>
<rscale>  0 0.55389013E+03</rscale>
<asrwt>0</asrwt>
<pdfrwt beam="1">  1        2 0.91343862E-01 0.55389013E+03</pdfrwt>
<pdfrwt beam="2">  1       -2 0.91922684E-01 0.55389013E+03</pdfrwt>
<totfact> 0.51986376E+01</totfact>
</mgrwt>
</event>
<event>
12    1  0.1432447E-007  0.2134258E+04  0.7818608E-02  0.8546301E-01
         -2   -1    0    0    0  501 -0.00000000000E+00  0.00000000000E+00  0.17545133609E+04  0.17545133609E+04  0.00000000000E+00 0. -1.
          2   -1    0    0  501    0  0.00000000000E+00 -0.00000000000E+00 -0.26101709884E+04  0.26101709884E+04  0.00000000000E+00 0.  1.
         23    2    1    2    0    0  0.19201562637E+04 -0.84058994252E+03 -0.36199118547E+03  0.21290771850E+04  0.91326408896E+02 0.  0.
    5000000    2    1    2    0    0 -0.19201562637E+04  0.84058994252E+03 -0.49366644204E+03  0.22356071644E+04  0.60053418640E+03 0.  0.
         23    2    4    4    0    0 -0.52459006713E+02 -0.35165840766E+02  0.86877020398E+01  0.11054446522E+03  0.90310679772E+02 0.  0.
         23    2    4    4    0    0 -0.18676972570E+04  0.87575578328E+03 -0.50235414408E+03  0.21250626992E+04  0.91052477655E+02 0.  0.
          2    1    3    3  502    0  0.92286071835E+03 -0.38205056014E+03 -0.21402049972E+03  0.10214887715E+04  0.00000000000E+00 0. -1.
         -2    1    3    3    0  502  0.99729554532E+03 -0.45853938238E+03 -0.14797068575E+03  0.11075884135E+04  0.00000000000E+00 0.  1.
         11    1    5    5    0    0 -0.56792961075E+02 -0.60773275846E+02  0.67075360190E-01  0.83179540657E+02  0.00000000000E+00 0. -1.
        -11    1    5    5    0    0  0.43339543621E+01  0.25607435080E+02  0.86206266796E+01  0.27364924559E+02  0.00000000000E+00 0.  1.
          2    1    6    6  503    0 -0.11582641165E+04  0.53438148923E+03 -0.35531397238E+03  0.13241553378E+04  0.00000000000E+00 0. -1.
         -2    1    6    6    0  503 -0.70943314044E+03  0.34137429406E+03 -0.14704017170E+03  0.80090736137E+03  0.00000000000E+00 0.  1.
<mgrwt>
<rscale>  0 0.21342575E+04</rscale>
<asrwt>0</asrwt>
<pdfrwt beam="1">  1        2 0.40156477E+00 0.21342575E+04</pdfrwt>
<pdfrwt beam="2">  1       -2 0.26992513E+00 0.21342575E+04</pdfrwt>
<totfact> 0.12771359E-01</totfact>
</mgrwt>
</event>
<event>
12    1  0.1432447E-007  0.8340348E+03  0.7818608E-02  0.9512019E-01
          1   -1    0    0  501    0  0.00000000000E+00  0.00000000000E+00  0.63743045776E+03  0.63743045776E+03  0.00000000000E+00 0. -1.
         -1   -1    0    0    0  501 -0.00000000000E+00 -0.00000000000E+00 -0.18395384705E+04  0.18395384705E+04  0.00000000000E+00 0.  1.
         23    2    1    2    0    0 -0.76029950953E+03  0.31888951473E+03  0.86052609890E+02  0.83407679200E+03  0.92375194120E+02 0.  0.
    5000000    2    1    2    0    0  0.76029950953E+03 -0.31888951473E+03 -0.12881606226E+04  0.16428921362E+04  0.59999242901E+03 0.  0.
         23    2    4    4    0    0  0.56033328670E+03 -0.30729655744E+03 -0.12668747872E+04  0.14218244733E+04  0.90600993706E+02 0.  0.
         23    2    4    4    0    0  0.19996622282E+03 -0.11592957292E+02 -0.21285835422E+02  0.22106766294E+03  0.91087528662E+02 0.  0.
          2    1    3    3  502    0 -0.24447669551E+03  0.10202214062E+03  0.71245678935E+02  0.27432338323E+03  0.00000000000E+00 0. -1.
         -2    1    3    3    0  502 -0.51582281402E+03  0.21686737411E+03  0.14806930955E+02  0.55975340876E+03  0.00000000000E+00 0.  1.
         11    1    5    5    0    0  0.27860107536E+03 -0.19471280076E+03 -0.61109864370E+03  0.69926617701E+03  0.00000000000E+00 0.  1.
        -11    1    5    5    0    0  0.28173221134E+03 -0.11258375668E+03 -0.65577614347E+03  0.72255829628E+03  0.00000000000E+00 0. -1.
          3    1    6    6  503    0  0.34258345669E+02 -0.25832050603E+01  0.31817406516E+02  0.46825789408E+02  0.00000000000E+00 0. -1.
         -3    1    6    6    0  503  0.16570787716E+03 -0.90097522318E+01 -0.53103241938E+02  0.17424187353E+03  0.00000000000E+00 0.  1.
<mgrwt>
<rscale>  0 0.83403485E+03</rscale>
<asrwt>0</asrwt>
<pdfrwt beam="1">  1        1 0.98066224E-01 0.83403485E+03</pdfrwt>
<pdfrwt beam="2">  1       -1 0.28300592E+00 0.83403485E+03</pdfrwt>
<totfact> 0.13833902E+00</totfact>
</mgrwt>
</event>
<event>
12    1  0.1432447E-007  0.3637701E+03  0.7818608E-02  0.1057101E+00
         -2   -1    0    0    0  501 -0.00000000000E+00  0.00000000000E+00  0.16557870005E+04  0.16557870005E+04  0.00000000000E+00 0.  1.
          2   -1    0    0  501    0  0.00000000000E+00 -0.00000000000E+00 -0.18008264619E+03  0.18008264619E+03  0.00000000000E+00 0. -1.
         23    2    1    2    0    0 -0.44863052679E+02 -0.32332521990E+03  0.82717142717E+03  0.89393827998E+03  0.91439527403E+02 0.  0.
    5000000    2    1    2    0    0  0.44863052679E+02  0.32332521990E+03  0.64853292718E+03  0.94193136676E+03  0.60007320448E+03 0.  0.
         23    2    4    4    0    0  0.11287483802E+03  0.13504125872E+03 -0.55124826682E+02  0.20462397876E+03  0.88630443706E+02 0.  0.
         23    2    4    4    0    0 -0.68011785338E+02  0.18828396118E+03  0.70365775386E+03  0.73730738800E+03  0.91714212913E+02 0.  0.
          1    1    3    3  502    0  0.24612309949E+02 -0.55477532046E+02  0.11799167903E+03  0.13268594003E+03  0.00000000000E+00 0. -1.
         -1    1    3    3    0  502 -0.69475362628E+02 -0.26784768785E+03  0.70917974814E+03  0.76125233994E+03  0.00000000000E+00 0.  1.
         11    1    5    5    0    0  0.50171695948E+02  0.14581123280E+02 -0.44106180712E+02  0.68375166598E+02  0.00000000000E+00 0. -1.
        -11    1    5    5    0    0  0.62703142070E+02  0.12046013544E+03 -0.11018645970E+02  0.13624881216E+03  0.00000000000E+00 0.  1.
          1    1    6    6  503    0 -0.60072568791E+02  0.12933200441E+03  0.60929754588E+03  0.62576271885E+03  0.00000000000E+00 0. -1.
         -1    1    6    6    0  503 -0.79392165469E+01  0.58951956767E+02  0.94360207985E+02  0.11154466916E+03  0.00000000000E+00 0.  1.
<mgrwt>
<rscale>  0 0.36377011E+03</rscale>
<asrwt>0</asrwt>
<pdfrwt beam="1">  1        2 0.27705024E-01 0.36377011E+03</pdfrwt>
<pdfrwt beam="2">  1       -2 0.25473645E+00 0.36377011E+03</pdfrwt>
<totfact> 0.12682223E+01</totfact>
</mgrwt>
</event>
<event>
12    1  0.1432447E-007  0.1823463E+04  0.7818608E-02  0.8693921E-01
          2   -1    0    0  501    0  0.00000000000E+00  0.00000000000E+00  0.17147224160E+04  0.17147224160E+04  0.00000000000E+00 0. -1.
         -2   -1    0    0    0  501 -0.00000000000E+00 -0.00000000000E+00 -0.20104144066E+04  0.20104144066E+04  0.00000000000E+00 0.  1.
         23    2    1    2    0    0 -0.16126759534E+04  0.76527691676E+03  0.13773063042E+03  0.17927163621E+04  0.92139776427E+02 0.  0.
    5000000    2    1    2    0    0  0.16126759534E+04 -0.76527691676E+03 -0.43342262093E+03  0.19324204605E+04  0.60001764800E+03 0.  0.
         23    2    4    4    0    0  0.80639618503E+03 -0.96982475318E+02 -0.31018744941E+03  0.87422951614E+03  0.91545537105E+02 0.  0.
         23    2    4    4    0    0  0.80627976835E+03 -0.66829444144E+03 -0.12323517152E+03  0.10581909444E+04  0.88750447485E+02 0.  0.
          1    1    3    3  502    0 -0.37733128596E+03  0.21241382460E+03  0.59007776426E+02  0.43701310040E+03  0.00000000000E+00 0. -1.
         -1    1    3    3    0  502 -0.12353446674E+04  0.55286309216E+03  0.78722853990E+02  0.13557032617E+04  0.00000000000E+00 0.  1.
         11    1    5    5    0    0  0.51072909478E+03 -0.75007486922E+02 -0.24144231926E+03  0.56988132526E+03  0.00000000000E+00 0. -1.
        -11    1    5    5    0    0  0.29566709025E+03 -0.21974988396E+02 -0.68745130155E+02  0.30434819088E+03  0.00000000000E+00 0.  1.
          4    1    6    6  503    0  0.50844282105E+03 -0.39956816926E+03 -0.35967647168E+02  0.64765924359E+03  0.00000000000E+00 0. -1.
         -4    1    6    6    0  503  0.29783694730E+03 -0.26872627218E+03 -0.87267524351E+02  0.41053170078E+03  0.00000000000E+00 0.  1.
<mgrwt>
<rscale>  0 0.18234629E+04</rscale>
<asrwt>0</asrwt>
<pdfrwt beam="1">  1        2 0.26380345E+00 0.18234629E+04</pdfrwt>
<pdfrwt beam="2">  1       -2 0.30929452E+00 0.18234629E+04</pdfrwt>
<totfact> 0.24369832E-01</totfact>
</mgrwt>
</event>
<event>
12    1  0.1965989E-007  0.9090435E+03  0.7818608E-02  0.9414347E-01
         -1   -1    0    0    0  501 -0.00000000000E+00  0.00000000000E+00  0.62341384231E+03  0.62341384231E+03  0.00000000000E+00 0.  1.
          1   -1    0    0  501    0  0.00000000000E+00 -0.00000000000E+00 -0.14495167195E+04  0.14495167195E+04  0.00000000000E+00 0. -1.
         23    2    1    2    0    0  0.31031810641E+03 -0.75248323790E+03 -0.93781812298E+02  0.82441565080E+03  0.91311480563E+02 0.  0.
    5000000    2    1    2    0    0 -0.31031810641E+03  0.75248323790E+03 -0.73232106487E+03  0.12485149110E+04  0.59997249139E+03 0.  0.
         23    2    4    4    0    0 -0.13359905434E+02  0.68029117798E+03 -0.43293224896E+03  0.81127107891E+03  0.88067345712E+02 0.  0.
         23    2    4    4    0    0 -0.29695820097E+03  0.72192059927E+02 -0.29938881590E+03  0.43724383208E+03  0.90291965102E+02 0.  0.
          2    1    3    3  502    0  0.69260642301E+02 -0.28224380593E+03 -0.36085475551E+02  0.29284938808E+03  0.00000000000E+00 0. -1.
         -2    1    3    3    0  502  0.24105746411E+03 -0.47023943198E+03 -0.57696336747E+02  0.53156626272E+03  0.00000000000E+00 0.  1.
         11    1    5    5    0    0 -0.34804088657E+02  0.29471969201E+03 -0.22696365900E+03  0.37360878463E+03  0.00000000000E+00 0.  1.
        -11    1    5    5    0    0  0.21444183223E+02  0.38557148597E+03 -0.20596858996E+03  0.43766229428E+03  0.00000000000E+00 0. -1.
          4    1    6    6  503    0 -0.64566921275E+02 -0.17681229454E+02 -0.42102798603E+02  0.79083239995E+02  0.00000000000E+00 0.  1.
         -4    1    6    6    0  503 -0.23239127970E+03  0.89873289381E+02 -0.25728601730E+03  0.35816059208E+03  0.00000000000E+00 0. -1.
<mgrwt>
<rscale>  0 0.90904347E+03</rscale>
<asrwt>0</asrwt>
<pdfrwt beam="1">  1        1 0.22300257E+00 0.90904347E+03</pdfrwt>
<pdfrwt beam="2">  1       -1 0.95909822E-01 0.90904347E+03</pdfrwt>
<totfact> 0.75544178E+00</totfact>
</mgrwt>
</event>
<event>
12    1  0.1432447E-007  0.6832748E+03  0.7818608E-02  0.9746270E-01
         -1   -1    0    0    0  501 -0.00000000000E+00  0.00000000000E+00  0.49445152684E+03  0.49445152684E+03  0.00000000000E+00 0.  1.
          1   -1    0    0  501    0  0.00000000000E+00 -0.00000000000E+00 -0.10243285901E+04  0.10243285901E+04  0.00000000000E+00 0. -1.
         23    2    1    2    0    0 -0.42254166017E+03  0.39662454561E+03 -0.26395270360E+03  0.64326252337E+03  0.90901922238E+02 0.  0.
    5000000    2    1    2    0    0  0.42254166017E+03 -0.39662454561E+03 -0.26592435964E+03  0.87551759356E+03  0.59996900488E+03 0.  0.
         23    2    4    4    0    0 -0.12129242435E+03 -0.49966736151E+02  0.26580026729E+02  0.16164817650E+03  0.90637234162E+02 0.  0.
         23    2    4    4    0    0  0.54383408453E+03 -0.34665780946E+03 -0.29250438637E+03  0.71386941706E+03  0.90130906006E+02 0.  0.
          3    1    3    3  502    0 -0.25426839226E+03  0.27914854379E+03 -0.20543143759E+03  0.42985858180E+03  0.00000000000E+00 0. -1.
         -3    1    3    3    0  502 -0.16827326791E+03  0.11747600182E+03 -0.58521266016E+02  0.21340394156E+03  0.00000000000E+00 0.  1.
         13    1    5    5    0    0 -0.89540658024E+02 -0.17065037427E+02 -0.23197206184E+02  0.94057723322E+02  0.00000000000E+00 0. -1.
        -13    1    5    5    0    0 -0.31751766331E+02 -0.32901698724E+02  0.49777232912E+02  0.67590453175E+02  0.00000000000E+00 0.  1.
          4    1    6    6  503    0  0.41835161795E+03 -0.29086843842E+03 -0.26302681693E+03  0.57341575766E+03  0.00000000000E+00 0. -1.
         -4    1    6    6    0  503  0.12548246657E+03 -0.55789371033E+02 -0.29477569448E+02  0.14045365940E+03  0.00000000000E+00 0.  1.
<mgrwt>
<rscale>  0 0.68327476E+03</rscale>
<asrwt>0</asrwt>
<pdfrwt beam="1">  1        1 0.15758901E+00 0.68327476E+03</pdfrwt>
<pdfrwt beam="2">  1       -1 0.76069466E-01 0.68327476E+03</pdfrwt>
<totfact> 0.26053318E+01</totfact>
</mgrwt>
</event>
<event>
12    1  0.1432447E-007  0.6230000E+03  0.7818608E-02  0.9858805E-01
          2   -1    0    0  501    0  0.00000000000E+00  0.00000000000E+00  0.65435875948E+03  0.65435875948E+03  0.00000000000E+00 0. -1.
         -2   -1    0    0    0  501 -0.00000000000E+00 -0.00000000000E+00 -0.72913096413E+03  0.72913096413E+03  0.00000000000E+00 0.  1.
         23    2    1    2    0    0 -0.33741671520E+03  0.44226216474E+03 -0.35663017538E+02  0.56432832842E+03  0.88026981015E+02 0.  0.
    5000000    2    1    2    0    0  0.33741671520E+03 -0.44226216474E+03 -0.39109187112E+02  0.81916139519E+03  0.60004166588E+03 0.  0.
         23    2    4    4    0    0  0.29158843186E+03 -0.84519956077E+02 -0.23944365245E+03  0.39657273953E+03  0.88143283748E+02 0.  0.
         23    2    4    4    0    0  0.45828283341E+02 -0.35774220866E+03  0.20033446533E+03  0.42258865566E+03  0.91474337821E+02 0.  0.
          3    1    3    3  502    0 -0.13245267345E+03  0.21491570225E+03  0.19865647395E+02  0.25323331875E+03  0.00000000000E+00 0. -1.
         -3    1    3    3    0  502 -0.20496404174E+03  0.22734646249E+03 -0.55528664933E+02  0.31109500967E+03  0.00000000000E+00 0.  1.
         11    1    5    5    0    0  0.24988551940E+02  0.16951244990E+02 -0.30980420246E+02  0.43261517234E+02  0.00000000000E+00 0.  1.
        -11    1    5    5    0    0  0.26659987992E+03 -0.10147120107E+03 -0.20846323220E+03  0.35331122229E+03  0.00000000000E+00 0. -1.
          4    1    6    6  503    0 -0.27959316559E+02 -0.10998505876E+03  0.56847714796E+02  0.12692556563E+03  0.00000000000E+00 0.  1.
         -4    1    6    6    0  503  0.73787599900E+02 -0.24775714990E+03  0.14348675054E+03  0.29566309003E+03  0.00000000000E+00 0. -1.
<mgrwt>
<rscale>  0 0.62299997E+03</rscale>
<asrwt>0</asrwt>
<pdfrwt beam="1">  1        2 0.10067058E+00 0.62299997E+03</pdfrwt>
<pdfrwt beam="2">  1       -2 0.11217399E+00 0.62299997E+03</pdfrwt>
<totfact> 0.28640741E+01</totfact>
</mgrwt>
</event>
<event>
12    1  0.1432447E-007  0.7092407E+03  0.7818608E-02  0.9701559E-01
         -1   -1    0    0    0  501 -0.00000000000E+00  0.00000000000E+00  0.31121375159E+03  0.31121375159E+03  0.00000000000E+00 0.  1.
          1   -1    0    0  501    0  0.00000000000E+00 -0.00000000000E+00 -0.18528130244E+04  0.18528130244E+04  0.00000000000E+00 0. -1.
         23    2    1    2    0    0 -0.48674375525E+03  0.38045791417E+03 -0.43190033486E+03  0.75935842242E+03  0.91758414982E+02 0.  0.
    5000000    2    1    2    0    0  0.48674375525E+03 -0.38045791417E+03 -0.11096989380E+04  0.14046683536E+04  0.59999478575E+03 0.  0.
         23    2    4    4    0    0 -0.10342895510E+03 -0.51662242765E+02 -0.73927218100E+02  0.16475046456E+03  0.91164389507E+02 0.  0.
         23    2    4    4    0    0  0.59017271035E+03 -0.32879567141E+03 -0.10357717199E+04  0.12399178890E+04  0.90348737105E+02 0.  0.
          1    1    3    3  502    0 -0.37948449500E+03  0.33070194945E+03 -0.37759556144E+03  0.62924611190E+03  0.00000000000E+00 0. -1.
         -1    1    3    3    0  502 -0.10725926024E+03  0.49755964723E+02 -0.54304773417E+02  0.13011231052E+03  0.00000000000E+00 0.  1.
         11    1    5    5    0    0 -0.75425209605E+02 -0.39461633374E+02 -0.39435453016E+00  0.85125426684E+02  0.00000000000E+00 0.  1.
        -11    1    5    5    0    0 -0.28003745498E+02 -0.12200609390E+02 -0.73532863570E+02  0.79625037872E+02  0.00000000000E+00 0. -1.
          4    1    6    6  503    0  0.18493438080E+03 -0.15071885402E+03 -0.38278235268E+03  0.45104237903E+03  0.00000000000E+00 0. -1.
         -4    1    6    6    0  503  0.40523832954E+03 -0.17807681739E+03 -0.65298936720E+03  0.78887551002E+03  0.00000000000E+00 0.  1.
<mgrwt>
<rscale>  0 0.70924066E+03</rscale>
<asrwt>0</asrwt>
<pdfrwt beam="1">  1        1 0.28504815E+00 0.70924066E+03</pdfrwt>
<pdfrwt beam="2">  1       -1 0.47879040E-01 0.70924066E+03</pdfrwt>
<totfact> 0.17105105E+01</totfact>
</mgrwt>
</event>
<event>
12    1  0.1432447E-007  0.8811401E+03  0.7818608E-02  0.9449469E-01
          2   -1    0    0  501    0  0.00000000000E+00  0.00000000000E+00  0.25577156385E+04  0.25577156385E+04  0.00000000000E+00 0. -1.
         -2   -1    0    0    0  501 -0.00000000000E+00 -0.00000000000E+00 -0.66041193912E+03  0.66041193912E+03  0.00000000000E+00 0.  1.
         23    2    1    2    0    0 -0.81275784517E+03  0.30961208225E+02  0.20395160071E+04  0.21975686413E+04  0.90268925116E+02 0.  0.
    5000000    2    1    2    0    0  0.81275784517E+03 -0.30961208225E+02 -0.14221230769E+03  0.10205589363E+04  0.59981854818E+03 0.  0.
         23    2    4    4    0    0  0.32957228747E+03 -0.23892566617E+03  0.10935650005E+03  0.43056310729E+03  0.87877065442E+02 0.  0.
         23    2    4    4    0    0  0.48318555771E+03  0.20796445794E+03 -0.25156880775E+03  0.58999582903E+03  0.89948397994E+02 0.  0.
          4    1    3    3  502    0 -0.59382898322E+03 -0.66658543281E+01  0.15555669471E+04  0.16650723173E+04  0.00000000000E+00 0. -1.
         -4    1    3    3    0  502 -0.21892886196E+03  0.37627062553E+02  0.48394905997E+03  0.53249632401E+03  0.00000000000E+00 0.  1.
         11    1    5    5    0    0  0.10544766410E+03 -0.12709116246E+03  0.30226672515E+02  0.16788396342E+03  0.00000000000E+00 0. -1.
        -11    1    5    5    0    0  0.22412462337E+03 -0.11183450371E+03  0.79129827540E+02  0.26267914387E+03  0.00000000000E+00 0.  1.
          3    1    6    6  503    0  0.23952906722E+03  0.65148910942E+02 -0.14902840581E+03  0.28953068987E+03  0.00000000000E+00 0. -1.
         -3    1    6    6    0  503  0.24365649049E+03  0.14281554700E+03 -0.10254040194E+03  0.30046513916E+03  0.00000000000E+00 0.  1.
<mgrwt>
<rscale>  0 0.88114011E+03</rscale>
<asrwt>0</asrwt>
<pdfrwt beam="1">  1        2 0.39349471E+00 0.88114011E+03</pdfrwt>
<pdfrwt beam="2">  1       -2 0.10160184E+00 0.88114011E+03</pdfrwt>
<totfact> 0.26342689E+00</totfact>
</mgrwt>
</event>
<event>
12    1  0.1432447E-007  0.1065366E+04  0.7818608E-02  0.9239622E-01
         -2   -1    0    0    0  501 -0.00000000000E+00  0.00000000000E+00  0.63151763649E+03  0.63151763649E+03  0.00000000000E+00 0.  1.
          2   -1    0    0  501    0  0.00000000000E+00 -0.00000000000E+00 -0.22751330761E+04  0.22751330761E+04  0.00000000000E+00 0. -1.
         23    2    1    2    0    0 -0.75264399911E+03  0.66547450953E+03 -0.16721671607E+03  0.10227485558E+04  0.93401638591E+02 0.  0.
    5000000    2    1    2    0    0  0.75264399911E+03 -0.66547450953E+03 -0.14763987235E+04  0.18839021567E+04  0.60000402757E+03 0.  0.
         23    2    4    4    0    0 -0.11449503365E+02  0.48228147125E+02 -0.24079794692E+03  0.26274125043E+03  0.92694488154E+02 0.  0.
         23    2    4    4    0    0  0.76409350247E+03 -0.71370265666E+03 -0.12356007766E+04  0.16211609063E+04  0.90791201921E+02 0.  0.
          1    1    3    3  502    0 -0.47905395496E+03  0.48190330217E+03 -0.11002280920E+03  0.68835201964E+03  0.00000000000E+00 0. -1.
         -1    1    3    3    0  502 -0.27359004415E+03  0.18357120736E+03 -0.57193906878E+02  0.33439653619E+03  0.00000000000E+00 0.  1.
         11    1    5    5    0    0  0.43541449888E+01  0.56853148559E+02 -0.23773645824E+03  0.24447875707E+03  0.00000000000E+00 0.  1.
        -11    1    5    5    0    0 -0.15803648353E+02 -0.86250014343E+01 -0.30614886828E+01  0.18262493367E+02  0.00000000000E+00 0. -1.
          2    1    6    6  503    0  0.50528560101E+03 -0.50348620949E+03 -0.78601538430E+03  0.10614292657E+04  0.00000000000E+00 0.  1.
         -2    1    6    6    0  503  0.25880790147E+03 -0.21021644717E+03 -0.44958539228E+03  0.55973164059E+03  0.00000000000E+00 0. -1.
<mgrwt>
<rscale>  0 0.10653655E+04</rscale>
<asrwt>0</asrwt>
<pdfrwt beam="1">  1        2 0.35002048E+00 0.10653655E+04</pdfrwt>
<pdfrwt beam="2">  1       -2 0.97156559E-01 0.10653655E+04</pdfrwt>
<totfact> 0.41267503E+00</totfact>
</mgrwt>
</event>
<event>
12    1  0.1432447E-007  0.7101871E+03  0.7818608E-02  0.9699968E-01
          1   -1    0    0  501    0  0.00000000000E+00  0.00000000000E+00  0.22797512906E+04  0.22797512906E+04  0.00000000000E+00 0. -1.
         -1   -1    0    0    0  501 -0.00000000000E+00 -0.00000000000E+00 -0.23697333603E+03  0.23697333603E+03  0.00000000000E+00 0.  1.
         23    2    1    2    0    0 -0.23120296522E+03  0.54533106858E+03  0.10942627243E+04  0.12476134949E+04  0.91037011213E+02 0.  0.
    5000000    2    1    2    0    0  0.23120296522E+03 -0.54533106858E+03  0.94851523023E+03  0.12691111317E+04  0.60010093909E+03 0.  0.
         23    2    4    4    0    0 -0.50610282242E+02 -0.53599301781E+03  0.63247267170E+03  0.83565639573E+03  0.91923965660E+02 0.  0.
         23    2    4    4    0    0  0.28181324747E+03 -0.93380507718E+01  0.31604255853E+03  0.43345473596E+03  0.92164004269E+02 0.  0.
          3    1    3    3  502    0 -0.13260005571E+03  0.31231731671E+03  0.71876852767E+03  0.79482896113E+03  0.00000000000E+00 0. -1.
         -3    1    3    3    0  502 -0.98602909518E+02  0.23301375187E+03  0.37549419662E+03  0.45278453377E+03  0.00000000000E+00 0.  1.
         11    1    5    5    0    0 -0.65671928943E+02 -0.42678396420E+03  0.54241862807E+03  0.69330752371E+03  0.00000000000E+00 0.  1.
        -11    1    5    5    0    0  0.15061646700E+02 -0.10920905361E+03  0.90054043630E+02  0.14234887202E+03  0.00000000000E+00 0. -1.
          4    1    6    6  503    0  0.21471034020E+03  0.13471116615E+02  0.28237863686E+03  0.35499252912E+03  0.00000000000E+00 0.  1.
         -4    1    6    6    0  503  0.67102907266E+02 -0.22809167386E+02  0.33663921664E+02  0.78462206840E+02  0.00000000000E+00 0. -1.
<mgrwt>
<rscale>  0 0.71018708E+03</rscale>
<asrwt>0</asrwt>
<pdfrwt beam="1">  1        1 0.35073095E+00 0.71018708E+03</pdfrwt>
<pdfrwt beam="2">  1       -1 0.36457438E-01 0.71018708E+03</pdfrwt>
<totfact> 0.14598763E+01</totfact>
</mgrwt>
</event>
<event>
12    1  0.1432447E-007  0.1565472E+04  0.7818608E-02  0.8842045E-01
          1   -1    0    0  501    0  0.00000000000E+00  0.00000000000E+00  0.23224729317E+04  0.23224729317E+04  0.00000000000E+00 0. -1.
         -1   -1    0    0    0  501 -0.00000000000E+00 -0.00000000000E+00 -0.11916969456E+04  0.11916969456E+04  0.00000000000E+00 0.  1.
         23    2    1    2    0    0  0.14734280417E+04 -0.51526095079E+03  0.95631228849E+03  0.18328750684E+04  0.91726670203E+02 0.  0.
    5000000    2    1    2    0    0 -0.14734280417E+04  0.51526095079E+03  0.17446369760E+03  0.16812948088E+04  0.59985882580E+03 0.  0.
         23    2    4    4    0    0 -0.80312502385E+03  0.30449711362E+03 -0.18978667460E+03  0.88440016747E+03  0.91740820948E+02 0.  0.
         23    2    4    4    0    0 -0.67030301782E+03  0.21076383717E+03  0.36425037220E+03  0.79689464132E+03  0.92925803501E+02 0.  0.
          2    1    3    3  502    0  0.65277417261E+03 -0.18781481905E+03  0.38678854778E+03  0.78166099261E+03  0.00000000000E+00 0. -1.
         -2    1    3    3    0  502  0.82065386906E+03 -0.32744613174E+03  0.56952374071E+03  0.10512140758E+04  0.00000000000E+00 0.  1.
         11    1    5    5    0    0  0.15310362986E+01 -0.20490497519E+01 -0.15637313223E+01  0.29979881057E+01  0.00000000000E+00 0. -1.
        -11    1    5    5    0    0 -0.80465606015E+03  0.30654616337E+03 -0.18822294328E+03  0.88140217937E+03  0.00000000000E+00 0.  1.
          1    1    6    6  503    0 -0.19750520532E+02  0.15973502295E+02  0.32080442883E+02  0.40919318817E+02  0.00000000000E+00 0. -1.
         -1    1    6    6    0  503 -0.65055249729E+03  0.19479033487E+03  0.33216992932E+03  0.75597532250E+03  0.00000000000E+00 0.  1.
<mgrwt>
<rscale>  0 0.15654716E+04</rscale>
<asrwt>0</asrwt>
<pdfrwt beam="1">  1        1 0.35730353E+00 0.15654716E+04</pdfrwt>
<pdfrwt beam="2">  1       -1 0.18333799E+00 0.15654716E+04</pdfrwt>
<totfact> 0.33239288E-01</totfact>
</mgrwt>
</event>
<event>
12    1  0.1432447E-007  0.7975175E+03  0.7818608E-02  0.9563617E-01
         -2   -1    0    0    0  501 -0.00000000000E+00  0.00000000000E+00  0.31736493489E+04  0.31736493489E+04  0.00000000000E+00 0.  1.
          2   -1    0    0  501    0  0.00000000000E+00 -0.00000000000E+00 -0.27475753902E+03  0.27475753902E+03  0.00000000000E+00 0. -1.
         23    2    1    2    0    0 -0.86052887410E+02  0.71312576154E+03  0.20880319551E+04  0.22099863623E+04  0.90602567328E+02 0.  0.
    5000000    2    1    2    0    0  0.86052887410E+02 -0.71312576154E+03  0.81085985482E+03  0.12384205256E+04  0.60019850283E+03 0.  0.
         23    2    4    4    0    0 -0.20123693476E+03 -0.34763718290E+03  0.58279034477E+03  0.71247810242E+03  0.81440442203E+02 0.  0.
         23    2    4    4    0    0  0.28728982217E+03 -0.36548857864E+03  0.22806951005E+03  0.52594242315E+03  0.92099880640E+02 0.  0.
          1    1    3    3  502    0 -0.39086095850E+02  0.54774537672E+03  0.15009742617E+04  0.15982729601E+04  0.00000000000E+00 0. -1.
         -1    1    3    3    0  502 -0.46966791560E+02  0.16538038482E+03  0.58705769333E+03  0.61171340225E+03  0.00000000000E+00 0.  1.
         11    1    5    5    0    0 -0.18346166686E+02 -0.90171826209E+02  0.16268259005E+03  0.18690416041E+03  0.00000000000E+00 0.  1.
        -11    1    5    5    0    0 -0.18289076808E+03 -0.25746535669E+03  0.42010775472E+03  0.52557394201E+03  0.00000000000E+00 0. -1.
          3    1    6    6  503    0  0.15790729666E+03 -0.22810061106E+03  0.18162746063E+03  0.33159182372E+03  0.00000000000E+00 0. -1.
         -3    1    6    6    0  503  0.12938252551E+03 -0.13738796758E+03  0.46442049419E+02  0.19435059943E+03  0.00000000000E+00 0.  1.
<mgrwt>
<rscale>  0 0.79751752E+03</rscale>
<asrwt>0</asrwt>
<pdfrwt beam="1">  1        2 0.42270393E-01 0.79751752E+03</pdfrwt>
<pdfrwt beam="2">  1       -2 0.48825372E+00 0.79751752E+03</pdfrwt>
<totfact> 0.24866916E-01</totfact>
</mgrwt>
</event>
<event>
12    1  0.1432447E-007  0.7244525E+03  0.7818608E-02  0.9676305E-01
         -2   -1    0    0    0  501 -0.00000000000E+00  0.00000000000E+00  0.39242983358E+03  0.39242983358E+03  0.00000000000E+00 0.  1.
          2   -1    0    0  501    0  0.00000000000E+00 -0.00000000000E+00 -0.14136040481E+04  0.14136040481E+04  0.00000000000E+00 0. -1.
         23    2    1    2    0    0 -0.60358797783E+03  0.59675046747E+02 -0.58681914687E+03  0.84870584359E+03  0.89807235944E+02 0.  0.
    5000000    2    1    2    0    0  0.60358797783E+03 -0.59675046747E+02 -0.43435506769E+03  0.95732803813E+03  0.59994423872E+03 0.  0.
         23    2    4    4    0    0 -0.95720039433E+02  0.46745424389E+02 -0.94810286676E+02  0.16775364652E+03  0.88344976144E+02 0.  0.
         23    2    4    4    0    0  0.69930801726E+03 -0.10642047114E+03 -0.33954478101E+03  0.78957439161E+03  0.88204545734E+02 0.  0.
          3    1    3    3  502    0 -0.17295694810E+03  0.42180806414E+02 -0.12837903479E+03  0.21948690827E+03  0.00000000000E+00 0. -1.
         -3    1    3    3    0  502 -0.43063102973E+03  0.17494240334E+02 -0.45844011207E+03  0.62921893532E+03  0.00000000000E+00 0.  1.
         11    1    5    5    0    0  0.93066693606E+01  0.20590909840E+02 -0.41153878038E+02  0.46949348667E+02  0.00000000000E+00 0. -1.
        -11    1    5    5    0    0 -0.10502670879E+03  0.26154514549E+02 -0.53656408638E+02  0.12080429785E+03  0.00000000000E+00 0.  1.
          2    1    6    6  503    0  0.38636756239E+03 -0.34070593512E+02 -0.14516685767E+03  0.41414262661E+03  0.00000000000E+00 0. -1.
         -2    1    6    6    0  503  0.31294045487E+03 -0.72349877625E+02 -0.19437792334E+03  0.37543176500E+03  0.00000000000E+00 0.  1.
<mgrwt>
<rscale>  0 0.72445253E+03</rscale>
<asrwt>0</asrwt>
<pdfrwt beam="1">  1        2 0.21747754E+00 0.72445253E+03</pdfrwt>
<pdfrwt beam="2">  1       -2 0.60373821E-01 0.72445253E+03</pdfrwt>
<totfact> 0.37211047E+01</totfact>
</mgrwt>
</event>
<event>
12    1  0.1432447E-007  0.1103045E+04  0.7818608E-02  0.9202229E-01
          2   -1    0    0  501    0  0.00000000000E+00  0.00000000000E+00  0.10038309369E+04  0.10038309369E+04  0.00000000000E+00 0. -1.
         -2   -1    0    0    0  501 -0.00000000000E+00 -0.00000000000E+00 -0.14621180286E+04  0.14621180286E+04  0.00000000000E+00 0.  1.
         23    2    1    2    0    0  0.10726422930E+04  0.17063688620E+03  0.12105945536E+03  0.10965249967E+04  0.89628349299E+02 0.  0.
    5000000    2    1    2    0    0 -0.10726422930E+04 -0.17063688620E+03 -0.57934654703E+03  0.13694239688E+04  0.60000095768E+03 0.  0.
         23    2    4    4    0    0 -0.90622836230E+03 -0.76983294387E+02 -0.19982721504E+03  0.93492317987E+03  0.83511461078E+02 0.  0.
         23    2    4    4    0    0 -0.16641393068E+03 -0.93653591809E+02 -0.37951933198E+03  0.43450078895E+03  0.91057238420E+02 0.  0.
          1    1    3    3  502    0  0.68921183663E+03  0.83018535507E+02  0.42883798750E+02  0.69551711207E+03  0.00000000000E+00 0. -1.
         -1    1    3    3    0  502  0.38343045635E+03  0.87618350689E+02  0.78175656612E+02  0.40100788461E+03  0.00000000000E+00 0.  1.
         11    1    5    5    0    0 -0.78139622306E+03 -0.92412069421E+02 -0.18475301919E+03  0.80824113116E+03  0.00000000000E+00 0.  1.
        -11    1    5    5    0    0 -0.12483213924E+03  0.15428775034E+02 -0.15074195857E+02  0.12668204872E+03  0.00000000000E+00 0. -1.
          4    1    6    6  503    0 -0.56105019175E+02  0.71117176768E+01 -0.64071079597E+02  0.85460241901E+02  0.00000000000E+00 0. -1.
         -4    1    6    6    0  503 -0.11030891150E+03 -0.10076530949E+03 -0.31544825238E+03  0.34904054705E+03  0.00000000000E+00 0.  1.
<mgrwt>
<rscale>  0 0.11030450E+04</rscale>
<asrwt>0</asrwt>
<pdfrwt beam="1">  1        2 0.15443553E+00 0.11030450E+04</pdfrwt>
<pdfrwt beam="2">  1       -2 0.22494124E+00 0.11030450E+04</pdfrwt>
<totfact> 0.22638560E+00</totfact>
</mgrwt>
</event>
<event>
12    1  0.1432447E-007  0.1230960E+04  0.7818608E-02  0.9086181E-01
         -2   -1    0    0    0  501 -0.00000000000E+00  0.00000000000E+00  0.49243443138E+03  0.49243443138E+03  0.00000000000E+00 0.  1.
          2   -1    0    0  501    0  0.00000000000E+00 -0.00000000000E+00 -0.33794657486E+04  0.33794657486E+04  0.00000000000E+00 0. -1.
         23    2    1    2    0    0  0.33572081140E+02  0.11943553424E+04 -0.17248887901E+04  0.21003765191E+04  0.93425986143E+02 0.  0.
    5000000    2    1    2    0    0 -0.33572081140E+02 -0.11943553424E+04 -0.11621425271E+04  0.17715236609E+04  0.60009087594E+03 0.  0.
         23    2    4    4    0    0  0.18783824345E+03 -0.56166381688E+03 -0.81148055452E+03  0.10087136626E+04  0.90846650097E+02 0.  0.
         23    2    4    4    0    0 -0.22141032459E+03 -0.63269152552E+03 -0.35066197256E+03  0.76280999833E+03  0.97949866026E+02 0.  0.
          4    1    3    3  502    0  0.50023440013E+02  0.90013574627E+03 -0.12425992861E+04  0.15351871847E+04  0.00000000000E+00 0.  1.
         -4    1    3    3    0  502 -0.16451358873E+02  0.29421959613E+03 -0.48228950402E+03  0.56518933433E+03  0.00000000000E+00 0. -1.
         13    1    5    5    0    0  0.93917208623E+02 -0.35592409753E+03 -0.56360019628E+03  0.67316237754E+03  0.00000000000E+00 0. -1.
        -13    1    5    5    0    0  0.93921034824E+02 -0.20573971936E+03 -0.24788035823E+03  0.33555128505E+03  0.00000000000E+00 0.  1.
          2    1    6    6  503    0 -0.47322920930E+02 -0.92607502375E+02 -0.93344231104E+02  0.13974531771E+03  0.00000000000E+00 0. -1.
         -2    1    6    6    0  503 -0.17408740366E+03 -0.54008402315E+03 -0.25731774146E+03  0.62306468062E+03  0.00000000000E+00 0.  1.
<mgrwt>
<rscale>  0 0.12309600E+04</rscale>
<asrwt>0</asrwt>
<pdfrwt beam="1">  1        2 0.51991783E+00 0.12309600E+04</pdfrwt>
<pdfrwt beam="2">  1       -2 0.75759141E-01 0.12309600E+04</pdfrwt>
<totfact> 0.15332788E+00</totfact>
</mgrwt>
</event>
<event>
12    1  0.1432447E-007  0.1943074E+04  0.7818608E-02  0.8633708E-01
         -1   -1    0    0    0  501 -0.00000000000E+00  0.00000000000E+00  0.99468374030E+03  0.99468374030E+03  0.00000000000E+00 0.  1.
          1   -1    0    0  501    0  0.00000000000E+00 -0.00000000000E+00 -0.39314514577E+04  0.39314514577E+04  0.00000000000E+00 0. -1.
         23    2    1    2    0    0  0.52682749977E+03 -0.18537083370E+04 -0.15877576171E+04  0.24984478089E+04  0.86518147463E+02 0.  0.
    5000000    2    1    2    0    0 -0.52682749977E+03  0.18537083370E+04 -0.13490101002E+04  0.24276873891E+04  0.60004666125E+03 0.  0.
         23    2    4    4    0    0 -0.41610336002E+03  0.17195093157E+04 -0.10177184685E+04  0.20430438347E+04  0.91776558303E+02 0.  0.
         23    2    4    4    0    0 -0.11072413975E+03  0.13419902130E+03 -0.33129163176E+03  0.38464355439E+03  0.89035421143E+02 0.  0.
          1    1    3    3  502    0  0.22264433497E+03 -0.63357121915E+03 -0.55863256769E+03  0.87352924124E+03  0.00000000000E+00 0. -1.
         -1    1    3    3    0  502  0.30418316480E+03 -0.12201371178E+04 -0.10291250494E+04  0.16249185676E+04  0.00000000000E+00 0.  1.
         11    1    5    5    0    0 -0.35833184108E+03  0.13242091708E+04 -0.77582748966E+03  0.15760202823E+04  0.00000000000E+00 0. -1.
        -11    1    5    5    0    0 -0.57771518941E+02  0.39530014483E+03 -0.24189097883E+03  0.46702355245E+03  0.00000000000E+00 0.  1.
          2    1    6    6  503    0 -0.90727397456E+02  0.59616566405E+02 -0.13195244103E+03  0.17087142047E+03  0.00000000000E+00 0. -1.
         -2    1    6    6    0  503 -0.19996742291E+02  0.74582454896E+02 -0.19933919073E+03  0.21377213392E+03  0.00000000000E+00 0.  1.
<mgrwt>
<rscale>  0 0.19430739E+04</rscale>
<asrwt>0</asrwt>
<pdfrwt beam="1">  1        1 0.60483869E+00 0.19430739E+04</pdfrwt>
<pdfrwt beam="2">  1       -1 0.15302827E+00 0.19430739E+04</pdfrwt>
<totfact> 0.33070367E-02</totfact>
</mgrwt>
</event>
<event>
12    1  0.1432447E-007  0.1341761E+04  0.7818608E-02  0.8997088E-01
         -2   -1    0    0    0  501 -0.00000000000E+00  0.00000000000E+00  0.12061990551E+04  0.12061990551E+04  0.00000000000E+00 0.  1.
          2   -1    0    0  501    0  0.00000000000E+00 -0.00000000000E+00 -0.21812506474E+04  0.21812506474E+04  0.00000000000E+00 0. -1.
         23    2    1    2    0    0  0.35827286146E+03  0.12516991250E+04  0.43579740818E+03  0.13760481133E+04  0.92080869484E+02 0.  0.
    5000000    2    1    2    0    0 -0.35827286146E+03 -0.12516991250E+04 -0.14108490004E+04  0.20114015892E+04  0.60010941352E+03 0.  0.
         23    2    4    4    0    0 -0.38646461045E+03 -0.57165534238E+03 -0.97685548000E+03  0.11991574726E+04  0.87105049938E+02 0.  0.
         23    2    4    4    0    0  0.28191748992E+02 -0.68004378260E+03 -0.43399352042E+03  0.81224411656E+03  0.90198714776E+02 0.  0.
          3    1    3    3  502    0  0.12194041724E+03  0.28655384240E+03  0.11250417781E+03  0.33111895140E+03  0.00000000000E+00 0. -1.
         -3    1    3    3    0  502  0.23633244422E+03  0.96514528259E+03  0.32329323036E+03  0.10449291619E+04  0.00000000000E+00 0.  1.
         13    1    5    5    0    0 -0.27515297681E+03 -0.44620141819E+03 -0.78961666819E+03  0.94778655241E+03  0.00000000000E+00 0.  1.
        -13    1    5    5    0    0 -0.11131163364E+03 -0.12545392419E+03 -0.18723881180E+03  0.25137092020E+03  0.00000000000E+00 0. -1.
          2    1    6    6  503    0  0.28183570306E+02 -0.58214275342E+02 -0.44343934439E+02  0.78419385424E+02  0.00000000000E+00 0. -1.
         -2    1    6    6    0  503  0.81786854367E-02 -0.62182950726E+03 -0.38964958598E+03  0.73382473113E+03  0.00000000000E+00 0.  1.
<mgrwt>
<rscale>  0 0.13417610E+04</rscale>
<asrwt>0</asrwt>
<pdfrwt beam="1">  1        2 0.33557702E+00 0.13417610E+04</pdfrwt>
<pdfrwt beam="2">  1       -2 0.18556909E+00 0.13417610E+04</pdfrwt>
<totfact> 0.84027855E-01</totfact>
</mgrwt>
</event>
<event>
12    1  0.1432447E-007  0.2692874E+03  0.7818608E-02  0.1101688E+00
         -1   -1    0    0    0  501 -0.00000000000E+00  0.00000000000E+00  0.39284952091E+03  0.39284952091E+03  0.00000000000E+00 0.  1.
          1   -1    0    0  501    0  0.00000000000E+00 -0.00000000000E+00 -0.45565917995E+03  0.45565917995E+03  0.00000000000E+00 0. -1.
         23    2    1    2    0    0  0.95231410568E+00  0.13487033388E+03  0.12553793549E+03  0.20517017825E+03  0.90244750179E+02 0.  0.
    5000000    2    1    2    0    0 -0.95231410568E+00 -0.13487033388E+03 -0.18834759452E+03  0.64333852261E+03  0.60018224269E+03 0.  0.
         23    2    4    4    0    0  0.12516591068E+03  0.36150446923E+02 -0.33349795517E+03  0.37015932491E+03  0.93934443642E+02 0.  0.
         23    2    4    4    0    0 -0.12611822479E+03 -0.17102078080E+03  0.14515036065E+03  0.27317919770E+03  0.91675148035E+02 0.  0.
          2    1    3    3  502    0  0.20239524608E+02  0.12276781268E+03  0.64764547873E+02  0.14027124028E+03  0.00000000000E+00 0. -1.
         -2    1    3    3    0  502 -0.19287210503E+02  0.12102521195E+02  0.60773387614E+02  0.64898937976E+02  0.00000000000E+00 0.  1.
         11    1    5    5    0    0 -0.99596281308E+01  0.22010633452E+02 -0.39797011267E+02  0.46556033800E+02  0.00000000000E+00 0. -1.
        -11    1    5    5    0    0  0.13512553881E+03  0.14139813472E+02 -0.29370094391E+03  0.32360329111E+03  0.00000000000E+00 0.  1.
          2    1    6    6  503    0 -0.15756204042E+02  0.10490031667E+02  0.10081418455E+02  0.21446065566E+02  0.00000000000E+00 0. -1.
         -2    1    6    6    0  503 -0.11036202075E+03 -0.18151081247E+03  0.13506894220E+03  0.25173313213E+03  0.00000000000E+00 0.  1.
<mgrwt>
<rscale>  0 0.26928738E+03</rscale>
<asrwt>0</asrwt>
<pdfrwt beam="1">  1        1 0.70101412E-01 0.26928738E+03</pdfrwt>
<pdfrwt beam="2">  1       -1 0.60438388E-01 0.26928738E+03</pdfrwt>
<totfact> 0.14803716E+02</totfact>
</mgrwt>
</event>
<event>
12    1  0.1432447E-007  0.9912036E+03  0.7818608E-02  0.9318245E-01
          1   -1    0    0  501    0  0.00000000000E+00  0.00000000000E+00  0.97492284761E+03  0.97492284761E+03  0.00000000000E+00 0. -1.
         -1   -1    0    0    0  501 -0.00000000000E+00 -0.00000000000E+00 -0.16395976878E+04  0.16395976878E+04  0.00000000000E+00 0.  1.
         23    2    1    2    0    0  0.90625705078E+03  0.13065069847E+03  0.47499173594E+03  0.10344061617E+04  0.77508135045E+02 0.  0.
    5000000    2    1    2    0    0 -0.90625705078E+03 -0.13065069847E+03 -0.11396665762E+04  0.15801143738E+04  0.59962495132E+03 0.  0.
         23    2    4    4    0    0 -0.77268466428E+02 -0.21523151247E+03 -0.35737505712E+03  0.43365320345E+03  0.89683608002E+02 0.  0.
         23    2    4    4    0    0 -0.82898858436E+03  0.84580814003E+02 -0.78229151905E+03  0.11464611703E+04  0.89538858523E+02 0.  0.
          2    1    3    3  502    0  0.58845039875E+03  0.58296759573E+02  0.27647695635E+03  0.65277246522E+03  0.00000000000E+00 0. -1.
         -2    1    3    3    0  502  0.31780665204E+03  0.72353938899E+02  0.19851477959E+03  0.38163369646E+03  0.00000000000E+00 0.  1.
         11    1    5    5    0    0 -0.43709817111E+02 -0.10823896507E+03 -0.26054363851E+03  0.28549817730E+03  0.00000000000E+00 0.  1.
        -11    1    5    5    0    0 -0.33558649317E+02 -0.10699254740E+03 -0.96831418603E+02  0.14815502615E+03  0.00000000000E+00 0. -1.
          4    1    6    6  503    0 -0.26131612166E+03 -0.61936050249E+01 -0.28012051251E+03  0.38313441207E+03  0.00000000000E+00 0.  1.
         -4    1    6    6    0  503 -0.56767246270E+03  0.90774419028E+02 -0.50217100654E+03  0.76332675825E+03  0.00000000000E+00 0. -1.
<mgrwt>
<rscale>  0 0.99120360E+03</rscale>
<asrwt>0</asrwt>
<pdfrwt beam="1">  1        1 0.14998813E+00 0.99120360E+03</pdfrwt>
<pdfrwt beam="2">  1       -1 0.25224580E+00 0.99120360E+03</pdfrwt>
<totfact> 0.10776627E+00</totfact>
</mgrwt>
</event>
<event>
12    1  0.1432447E-007  0.5261975E+03  0.7818608E-02  0.1007158E+00
         -2   -1    0    0    0  501 -0.00000000000E+00  0.00000000000E+00  0.47122169093E+03  0.47122169093E+03  0.00000000000E+00 0.  1.
          2   -1    0    0  501    0  0.00000000000E+00 -0.00000000000E+00 -0.12880980529E+04  0.12880980529E+04  0.00000000000E+00 0. -1.
         23    2    1    2    0    0 -0.57175906571E+02 -0.39214718805E+03 -0.94508163128E+03  0.10289244886E+04  0.91966363807E+02 0.  0.
    5000000    2    1    2    0    0  0.57175906571E+02  0.39214718805E+03  0.12820526933E+03  0.73039525521E+03  0.59999344693E+03 0.  0.
         23    2    4    4    0    0 -0.68693746138E+02 -0.90694600247E+02 -0.96213712294E+02  0.17573621018E+03  0.93176155008E+02 0.  0.
         23    2    4    4    0    0  0.12586965271E+03  0.48284178829E+03  0.22441898162E+03  0.55465904503E+03  0.91123075694E+02 0.  0.
          1    1    3    3  502    0 -0.70713097959E+02 -0.17173609692E+03 -0.45059245124E+03  0.48736760903E+03  0.00000000000E+00 0. -1.
         -1    1    3    3    0  502  0.13537191388E+02 -0.22041109113E+03 -0.49448918003E+03  0.54155687957E+03  0.00000000000E+00 0.  1.
         13    1    5    5    0    0  0.47707330727E+01 -0.62770728394E+02 -0.19481689330E+02  0.65897347870E+02  0.00000000000E+00 0.  1.
        -13    1    5    5    0    0 -0.73464479211E+02 -0.27923871852E+02 -0.76732022963E+02  0.10983886231E+03  0.00000000000E+00 0. -1.
          3    1    6    6  503    0  0.37841935448E+00  0.12661012963E+03  0.82853146043E+02  0.15131064713E+03  0.00000000000E+00 0. -1.
         -3    1    6    6    0  503  0.12549123335E+03  0.35623165866E+03  0.14156583558E+03  0.40334839789E+03  0.00000000000E+00 0.  1.
<mgrwt>
<rscale>  0 0.52619750E+03</rscale>
<asrwt>0</asrwt>
<pdfrwt beam="1">  1        2 0.19816893E+00 0.52619750E+03</pdfrwt>
<pdfrwt beam="2">  1       -2 0.72495644E-01 0.52619750E+03</pdfrwt>
<totfact> 0.30351240E+01</totfact>
</mgrwt>
</event>
<event>
12    1  0.1432447E-007  0.9068594E+03  0.7818608E-02  0.9417047E-01
         -2   -1    0    0    0  501 -0.00000000000E+00  0.00000000000E+00  0.12264021176E+04  0.12264021176E+04  0.00000000000E+00 0.  1.
          2   -1    0    0  501    0  0.00000000000E+00 -0.00000000000E+00 -0.72725801052E+03  0.72725801052E+03  0.00000000000E+00 0. -1.
         23    2    1    2    0    0 -0.71270281282E+03  0.41475492472E+03  0.26556056507E+02  0.83044597071E+03  0.94701315498E+02 0.  0.
    5000000    2    1    2    0    0  0.71270281282E+03 -0.41475492472E+03  0.47258805060E+03  0.11232141574E+04  0.59858468985E+03 0.  0.
         23    2    4    4    0    0  0.64790398132E+03 -0.11278389319E+03  0.18202142618E+03  0.68953343258E+03  0.99120025632E+02 0.  0.
         23    2    4    4    0    0  0.64798831494E+02 -0.30197103154E+03  0.29056662442E+03  0.43368072486E+03  0.90909930356E+02 0.  0.
          1    1    3    3  502    0 -0.32025512110E+03  0.13364615995E+03  0.21346526873E+02  0.34767846190E+03  0.00000000000E+00 0. -1.
         -1    1    3    3    0  502 -0.39244769172E+03  0.28110876477E+03  0.52095296344E+01  0.48276750881E+03  0.00000000000E+00 0.  1.
         13    1    5    5    0    0  0.48512256368E+03 -0.11760863899E+03  0.10838468502E+03  0.51080616059E+03  0.00000000000E+00 0.  1.
        -13    1    5    5    0    0  0.16278141765E+03  0.48247458081E+01  0.73636741159E+02  0.17872727199E+03  0.00000000000E+00 0. -1.
          3    1    6    6  503    0 -0.16813982919E+02 -0.13538926986E+03  0.12541861905E+03  0.18531808983E+03  0.00000000000E+00 0. -1.
         -3    1    6    6    0  503  0.81612814413E+02 -0.16658176168E+03  0.16514800537E+03  0.24836263503E+03  0.00000000000E+00 0.  1.
<mgrwt>
<rscale>  0 0.90685944E+03</rscale>
<asrwt>0</asrwt>
<pdfrwt beam="1">  1        2 0.11188585E+00 0.90685944E+03</pdfrwt>
<pdfrwt beam="2">  1       -2 0.18867725E+00 0.90685944E+03</pdfrwt>
<totfact> 0.61845608E+00</totfact>
</mgrwt>
</event>
<event>
12    1  0.1432447E-007  0.4718620E+03  0.7818608E-02  0.1021396E+00
         -1   -1    0    0    0  501 -0.00000000000E+00  0.00000000000E+00  0.63273991496E+03  0.63273991496E+03  0.00000000000E+00 0.  1.
          1   -1    0    0  501    0  0.00000000000E+00 -0.00000000000E+00 -0.36688926743E+03  0.36688926743E+03  0.00000000000E+00 0. -1.
         23    2    1    2    0    0  0.26969330119E+03  0.53662108609E+02  0.72830307799E+01  0.29039870970E+03  0.93082057616E+02 0.  0.
    5000000    2    1    2    0    0 -0.26969330119E+03 -0.53662108609E+02  0.25856761675E+03  0.70923047269E+03  0.60044696048E+03 0.  0.
         23    2    4    4    0    0 -0.21470397169E+03  0.24769806676E+03  0.12939336922E+03  0.36464946165E+03  0.93672077754E+02 0.  0.
         23    2    4    4    0    0 -0.54989329494E+02 -0.30136017537E+03  0.12917424753E+03  0.34458101103E+03  0.90599698037E+02 0.  0.
          1    1    3    3  502    0  0.73123413565E+02 -0.17735306595E+02 -0.23909006028E+02  0.78950714251E+02  0.00000000000E+00 0. -1.
         -1    1    3    3    0  502  0.19656988762E+03  0.71397415204E+02  0.31192036807E+02  0.21144799545E+03  0.00000000000E+00 0.  1.
         11    1    5    5    0    0 -0.53243928581E+02  0.13131500942E+03  0.59787656872E+02  0.15379568116E+03  0.00000000000E+00 0.  1.
        -11    1    5    5    0    0 -0.16146004311E+03  0.11638305734E+03  0.69605712346E+02  0.21085378050E+03  0.00000000000E+00 0. -1.
          2    1    6    6  503    0 -0.30406663935E+01 -0.23167912079E+03  0.10490839763E+03  0.25434274622E+03  0.00000000000E+00 0. -1.
         -2    1    6    6    0  503 -0.51948663101E+02 -0.69681054578E+02  0.24265849899E+02  0.90238264812E+02  0.00000000000E+00 0.  1.
<mgrwt>
<rscale>  0 0.47186197E+03</rscale>
<asrwt>0</asrwt>
<pdfrwt beam="1">  1        1 0.56444503E-01 0.47186197E+03</pdfrwt>
<pdfrwt beam="2">  1       -1 0.97344602E-01 0.47186197E+03</pdfrwt>
<totfact> 0.71236429E+01</totfact>
</mgrwt>
</event>
<event>
12    1  0.1432447E-007  0.8686183E+03  0.7818608E-02  0.9465683E-01
         -2   -1    0    0    0  501 -0.00000000000E+00  0.00000000000E+00  0.91266388917E+03  0.91266388917E+03  0.00000000000E+00 0.  1.
          2   -1    0    0  501    0  0.00000000000E+00 -0.00000000000E+00 -0.20227881672E+04  0.20227881672E+04  0.00000000000E+00 0. -1.
         23    2    1    2    0    0 -0.62220247375E+03 -0.50362682757E+03 -0.16210628467E+04  0.18120422241E+04  0.12196872111E+03 0.  0.
    5000000    2    1    2    0    0  0.62220247375E+03  0.50362682757E+03  0.51093856874E+03  0.11234098323E+04  0.60017958184E+03 0.  0.
         23    2    4    4    0    0  0.25536435465E+02 -0.87791919993E+02 -0.11620602027E+02  0.12974538794E+03  0.91319748944E+02 0.  0.
         23    2    4    4    0    0  0.59666603828E+03  0.59141874756E+03  0.52255917076E+03  0.99366444434E+03  0.92273749212E+02 0.  0.
          2    1    3    3  502    0 -0.40719996697E+03 -0.32775984023E+03 -0.11829735784E+04  0.12933154346E+04  0.00000000000E+00 0. -1.
         -2    1    3    3    0  502 -0.21500250677E+03 -0.17586698734E+03 -0.43808926829E+03  0.51872678950E+03  0.00000000000E+00 0.  1.
         13    1    5    5    0    0  0.24146219116E+02 -0.33016328996E+02 -0.48689687969E+02  0.63590908096E+02  0.00000000000E+00 0.  1.
        -13    1    5    5    0    0  0.13902163490E+01 -0.54775590997E+02  0.37069085941E+02  0.66154479841E+02  0.00000000000E+00 0. -1.
          2    1    6    6  503    0  0.41104532053E+03  0.38106909168E+03  0.39360820543E+03  0.68490826213E+03  0.00000000000E+00 0. -1.
         -2    1    6    6    0  503  0.18562071775E+03  0.21034965589E+03  0.12895096534E+03  0.30875618221E+03  0.00000000000E+00 0.  1.
<mgrwt>
<rscale>  0 0.86861832E+03</rscale>
<asrwt>0</asrwt>
<pdfrwt beam="1">  1        2 0.31119818E+00 0.86861832E+03</pdfrwt>
<pdfrwt beam="2">  1       -2 0.14040983E+00 0.86861832E+03</pdfrwt>
<totfact> 0.23530712E+00</totfact>
</mgrwt>
</event>
<event>
12    1  0.1432447E-007  0.1535245E+04  0.7818608E-02  0.8861348E-01
          1   -1    0    0  501    0  0.00000000000E+00  0.00000000000E+00  0.20961054250E+04  0.20961054250E+04  0.00000000000E+00 0. -1.
         -1   -1    0    0    0  501 -0.00000000000E+00 -0.00000000000E+00 -0.16221413635E+04  0.16221413635E+04  0.00000000000E+00 0.  1.
         23    2    1    2    0    0 -0.12404813138E+04 -0.81923398476E+03  0.12434424927E+04  0.19401082452E+04  0.89064913055E+02 0.  0.
    5000000    2    1    2    0    0  0.12404813138E+04  0.81923398476E+03 -0.76947843129E+03  0.17781385433E+04  0.59978447090E+03 0.  0.
         23    2    4    4    0    0  0.84155039791E+03  0.82225241618E+03 -0.67263053164E+03  0.13578334839E+04  0.83509458900E+02 0.  0.
         23    2    4    4    0    0  0.39893091584E+03 -0.30184314214E+01 -0.96847899657E+02  0.42030505946E+03  0.90121256063E+02 0.  0.
          4    1    3    3  502    0 -0.82705876676E+03 -0.55434618146E+03  0.77817280830E+03  0.12636767040E+04  0.00000000000E+00 0.  1.
         -4    1    3    3    0  502 -0.41342254699E+03 -0.26488780330E+03  0.46526968442E+03  0.67643154121E+03  0.00000000000E+00 0. -1.
         11    1    5    5    0    0  0.44429332436E+03  0.40998971249E+03 -0.38918630291E+03  0.71899520220E+03  0.00000000000E+00 0. -1.
        -11    1    5    5    0    0  0.39725707355E+03  0.41226270369E+03 -0.28344422872E+03  0.63883828168E+03  0.00000000000E+00 0.  1.
          1    1    6    6  503    0  0.49318822901E+02 -0.27185448308E+02 -0.29029169484E+02  0.63356827359E+02  0.00000000000E+00 0. -1.
         -1    1    6    6    0  503  0.34961209294E+03  0.24167016886E+02 -0.67818730173E+02  0.35694823210E+03  0.00000000000E+00 0.  1.
<mgrwt>
<rscale>  0 0.15352446E+04</rscale>
<asrwt>0</asrwt>
<pdfrwt beam="1">  1        1 0.32247776E+00 0.15352446E+04</pdfrwt>
<pdfrwt beam="2">  1       -1 0.24956021E+00 0.15352446E+04</pdfrwt>
<totfact> 0.16901373E-01</totfact>
</mgrwt>
</event>
<event>
12    1  0.1432447E-007  0.1339038E+04  0.7818608E-02  0.8999168E-01
         -2   -1    0    0    0  501 -0.00000000000E+00  0.00000000000E+00  0.64615261108E+03  0.64615261108E+03  0.00000000000E+00 0.  1.
          2   -1    0    0  501    0  0.00000000000E+00 -0.00000000000E+00 -0.29696616271E+04  0.29696616271E+04  0.00000000000E+00 0. -1.
         23    2    1    2    0    0 -0.12156152591E+04  0.45150932618E+03 -0.14186276974E+04  0.19245525031E+04  0.99079077288E+02 0.  0.
    5000000    2    1    2    0    0  0.12156152591E+04 -0.45150932618E+03 -0.90488131858E+03  0.16912617350E+04  0.59997910445E+03 0.  0.
         23    2    4    4    0    0  0.22069770508E+03 -0.30144676865E+03 -0.90174410942E+02  0.39383674550E+03  0.86013524287E+02 0.  0.
         23    2    4    4    0    0  0.99491755405E+03 -0.15006255753E+03 -0.81470690764E+03  0.12974249895E+04  0.84761710452E+02 0.  0.
          1    1    3    3  502    0 -0.50543790038E+03  0.21022867601E+03 -0.53371757617E+03  0.76453778093E+03  0.00000000000E+00 0. -1.
         -1    1    3    3    0  502 -0.71017735875E+03  0.24128065017E+03 -0.88491012123E+03  0.11600147222E+04  0.00000000000E+00 0.  1.
         11    1    5    5    0    0  0.14601727939E+03 -0.21279706131E+03 -0.10161246458E+03  0.27736028581E+03  0.00000000000E+00 0.  1.
        -11    1    5    5    0    0  0.74680425688E+02 -0.88649707333E+02  0.11438053637E+02  0.11647645969E+03  0.00000000000E+00 0. -1.
          2    1    6    6  503    0  0.48733469687E+03 -0.88800569452E+02 -0.45181832746E+03  0.67046286171E+03  0.00000000000E+00 0.  1.
         -2    1    6    6    0  503  0.50758285717E+03 -0.61261988080E+02 -0.36288858019E+03  0.62696212781E+03  0.00000000000E+00 0. -1.
<mgrwt>
<rscale>  0 0.13390383E+04</rscale>
<asrwt>0</asrwt>
<pdfrwt beam="1">  1        2 0.45687102E+00 0.13390383E+04</pdfrwt>
<pdfrwt beam="2">  1       -2 0.99408094E-01 0.13390383E+04</pdfrwt>
<totfact> 0.14831961E+00</totfact>
</mgrwt>
</event>
<event>
12    1  0.1432447E-007  0.4942468E+03  0.7818608E-02  0.1015292E+00
         -1   -1    0    0    0  501 -0.00000000000E+00  0.00000000000E+00  0.37678484504E+04  0.37678484504E+04  0.00000000000E+00 0.  1.
          1   -1    0    0  501    0  0.00000000000E+00 -0.00000000000E+00 -0.70613660287E+02  0.70613660287E+02  0.00000000000E+00 0. -1.
         23    2    1    2    0    0 -0.23963744349E+03 -0.20958354448E+03  0.15975739848E+04  0.16316432174E+04  0.93089126418E+02 0.  0.
    5000000    2    1    2    0    0  0.23963744349E+03  0.20958354448E+03  0.20996608053E+04  0.22068188933E+04  0.60010229468E+03 0.  0.
         23    2    4    4    0    0  0.42609796244E+03  0.10641925375E+03  0.12996120900E+04  0.13747991861E+04  0.90535554308E+02 0.  0.
         23    2    4    4    0    0 -0.18646051896E+03  0.10316429073E+03  0.80004871536E+03  0.83201970721E+03  0.82270591497E+02 0.  0.
          3    1    3    3  502    0 -0.80220362191E+02 -0.99779045078E+02  0.45001758474E+03  0.46787497360E+03  0.00000000000E+00 0. -1.
         -3    1    3    3    0  502 -0.15941708130E+03 -0.10980449940E+03  0.11475564001E+04  0.11637682438E+04  0.00000000000E+00 0.  1.
         13    1    5    5    0    0  0.40696695982E+03  0.96157585722E+02  0.11510017664E+04  0.12246115522E+04  0.00000000000E+00 0.  1.
        -13    1    5    5    0    0  0.19131002625E+02  0.10261668032E+02  0.14861032360E+03  0.15018763389E+03  0.00000000000E+00 0. -1.
          3    1    6    6  503    0  0.14991803200E+01  0.22371340568E+02  0.55075523478E+02  0.59464592043E+02  0.00000000000E+00 0. -1.
         -3    1    6    6    0  503 -0.18795969928E+03  0.80792950159E+02  0.74497319188E+03  0.77255511517E+03  0.00000000000E+00 0.  1.
<mgrwt>
<rscale>  0 0.49424682E+03</rscale>
<asrwt>0</asrwt>
<pdfrwt beam="1">  1        1 0.10863643E-01 0.49424682E+03</pdfrwt>
<pdfrwt beam="2">  1       -1 0.57966884E+00 0.49424682E+03</pdfrwt>
<totfact> 0.34235030E-01</totfact>
</mgrwt>
</event>
<event>
12    1  0.1432447E-007  0.1556379E+03  0.7818608E-02  0.1193711E+00
          1   -1    0    0  501    0  0.00000000000E+00  0.00000000000E+00  0.89848905399E+03  0.89848905399E+03  0.00000000000E+00 0. -1.
         -1   -1    0    0    0  501 -0.00000000000E+00 -0.00000000000E+00 -0.21787422272E+03  0.21787422272E+03  0.00000000000E+00 0.  1.
         23    2    1    2    0    0 -0.49872257928E+01  0.12500626949E+02  0.47232572048E+03  0.48104693022E+03  0.90185501895E+02 0.  0.
    5000000    2    1    2    0    0  0.49872257928E+01 -0.12500626949E+02  0.20828911079E+03  0.63531634649E+03  0.60005113811E+03 0.  0.
         23    2    4    4    0    0  0.10693928983E+03 -0.76690329812E+02 -0.16618743615E+03  0.23070782845E+03  0.91051742312E+02 0.  0.
         23    2    4    4    0    0 -0.10195206404E+03  0.64189702864E+02  0.37447654694E+03  0.40460851803E+03  0.94661646621E+02 0.  0.
          3    1    3    3  502    0 -0.91941784028E+01  0.51290466830E+01  0.47244129403E+03  0.47255858509E+03  0.00000000000E+00 0. -1.
         -3    1    3    3    0  502  0.42069526100E+01  0.73715802658E+01 -0.11557354679E+00  0.84883451345E+01  0.00000000000E+00 0.  1.
         11    1    5    5    0    0 -0.11449120265E+02 -0.31135268325E+02 -0.34276084435E+02  0.47700495309E+02  0.00000000000E+00 0. -1.
        -11    1    5    5    0    0  0.11838841010E+03 -0.45555061488E+02 -0.13191135172E+03  0.18300733314E+03  0.00000000000E+00 0.  1.
          1    1    6    6  503    0 -0.72709627235E+02  0.13846793442E+02  0.10226134815E+03  0.12623710591E+03  0.00000000000E+00 0. -1.
         -1    1    6    6    0  503 -0.29242436805E+02  0.50342909422E+02  0.27221519879E+03  0.27837141213E+03  0.00000000000E+00 0.  1.
<mgrwt>
<rscale>  0 0.15563793E+03</rscale>
<asrwt>0</asrwt>
<pdfrwt beam="1">  1        1 0.13822908E+00 0.15563793E+03</pdfrwt>
<pdfrwt beam="2">  1       -1 0.33519112E-01 0.15563793E+03</pdfrwt>
<totfact> 0.16759925E+02</totfact>
</mgrwt>
</event>
<event>
12    1  0.1432447E-007  0.6069169E+03  0.7818608E-02  0.9891159E-01
         -1   -1    0    0    0  501 -0.00000000000E+00  0.00000000000E+00  0.37143132967E+03  0.37143132967E+03  0.00000000000E+00 0.  1.
          1   -1    0    0  501    0  0.00000000000E+00 -0.00000000000E+00 -0.17949592726E+04  0.17949592726E+04  0.00000000000E+00 0. -1.
         23    2    1    2    0    0  0.97618448344E+02  0.48885600138E+03  0.39618779061E+02  0.50831244940E+03  0.91117215801E+02 0.  0.
    5000000    2    1    2    0    0 -0.97618448344E+02 -0.48885600138E+03 -0.14631467220E+04  0.16580781529E+04  0.59992939533E+03 0.  0.
         23    2    4    4    0    0 -0.26181510040E+03 -0.13259238216E+03 -0.31064529468E+03  0.43719090446E+03  0.92236116763E+02 0.  0.
         23    2    4    4    0    0  0.16419665205E+03 -0.35626361922E+03 -0.11525014273E+04  0.12208872484E+04  0.91770509512E+02 0.  0.
          2    1    3    3  502    0 -0.12545402172E+02  0.12596023556E+03  0.23322158308E+02  0.12871398963E+03  0.00000000000E+00 0. -1.
         -2    1    3    3    0  502  0.11016385052E+03  0.36289576583E+03  0.16296620754E+02  0.37959845977E+03  0.00000000000E+00 0.  1.
         11    1    5    5    0    0 -0.23917168157E+03 -0.83379459014E+02 -0.25030374514E+03  0.35609997512E+03  0.00000000000E+00 0. -1.
        -11    1    5    5    0    0 -0.22643418831E+02 -0.49212923147E+02 -0.60341549538E+02  0.81090929343E+02  0.00000000000E+00 0.  1.
          3    1    6    6  503    0  0.15615862068E+03 -0.25539764204E+03 -0.91515999328E+03  0.96287656721E+03  0.00000000000E+00 0. -1.
         -3    1    6    6    0  503  0.80380313757E+01 -0.10086597718E+03 -0.23734143405E+03  0.25801068121E+03  0.00000000000E+00 0.  1.
<mgrwt>
<rscale>  0 0.60691693E+03</rscale>
<asrwt>0</asrwt>
<pdfrwt beam="1">  1        1 0.27614758E+00 0.60691693E+03</pdfrwt>
<pdfrwt beam="2">  1       -1 0.57143282E-01 0.60691693E+03</pdfrwt>
<totfact> 0.13571287E+01</totfact>
</mgrwt>
</event>
<event>
12    1  0.1432447E-007  0.1219139E+04  0.7818608E-02  0.9096268E-01
         -1   -1    0    0    0  501 -0.00000000000E+00  0.00000000000E+00  0.98153851476E+03  0.98153851476E+03  0.00000000000E+00 0.  1.
          1   -1    0    0  501    0  0.00000000000E+00 -0.00000000000E+00 -0.16921436708E+04  0.16921436708E+04  0.00000000000E+00 0. -1.
         23    2    1    2    0    0  0.32749592811E+03 -0.11237888024E+04  0.94840941115E+01  0.11733260921E+04  0.80307627682E+02 0.  0.
    5000000    2    1    2    0    0 -0.32749592811E+03  0.11237888024E+04 -0.72008925011E+03  0.15003560934E+04  0.60198423880E+03 0.  0.
         23    2    4    4    0    0  0.10732642768E+03  0.86379844223E+02 -0.18610056689E+03  0.25157834398E+03  0.98375823225E+02 0.  0.
         23    2    4    4    0    0 -0.43482235579E+03  0.10374089581E+04 -0.53398868321E+03  0.12487777495E+04  0.94942752362E+02 0.  0.
          1    1    3    3  502    0  0.19989740423E+03 -0.67678379551E+03  0.44929653183E+02  0.70711664654E+03  0.00000000000E+00 0. -1.
         -1    1    3    3    0  502  0.12759852388E+03 -0.44700500686E+03 -0.35445559071E+02  0.46620944554E+03  0.00000000000E+00 0.  1.
         11    1    5    5    0    0  0.37373909558E+02  0.19533882166E+02 -0.38840616302E+00  0.42172651416E+02  0.00000000000E+00 0.  1.
        -11    1    5    5    0    0  0.69952518120E+02  0.66845962057E+02 -0.18571216073E+03  0.20940569256E+03  0.00000000000E+00 0. -1.
          3    1    6    6  503    0 -0.18988281029E+03  0.33718852010E+03 -0.17763005787E+03  0.42579809439E+03  0.00000000000E+00 0. -1.
         -3    1    6    6    0  503 -0.24493954551E+03  0.70022043805E+03 -0.35635862534E+03  0.82297965507E+03  0.00000000000E+00 0.  1.
<mgrwt>
<rscale>  0 0.12191385E+04</rscale>
<asrwt>0</asrwt>
<pdfrwt beam="1">  1        1 0.26032979E+00 0.12191385E+04</pdfrwt>
<pdfrwt beam="2">  1       -1 0.15100593E+00 0.12191385E+04</pdfrwt>
<totfact> 0.16189428E+00</totfact>
</mgrwt>
</event>
<event>
12    1  0.1432447E-007  0.2872530E+03  0.7818608E-02  0.1091792E+00
          1   -1    0    0  501    0  0.00000000000E+00  0.00000000000E+00  0.43386544490E+03  0.43386544490E+03  0.00000000000E+00 0. -1.
         -1   -1    0    0    0  501 -0.00000000000E+00 -0.00000000000E+00 -0.58672338470E+03  0.58672338470E+03  0.00000000000E+00 0.  1.
         23    2    1    2    0    0 -0.21993203652E+03  0.70346759374E+02  0.17170889237E+03  0.30031025365E+03  0.85927512970E+02 0.  0.
    5000000    2    1    2    0    0  0.21993203652E+03 -0.70346759374E+02 -0.32456683217E+03  0.72027857595E+03  0.60011568150E+03 0.  0.
         23    2    4    4    0    0  0.24086430926E+03 -0.85834391609E+02  0.95853731159E+02  0.28906343166E+03  0.94797528917E+02 0.  0.
         23    2    4    4    0    0 -0.20932272731E+02  0.15487632235E+02 -0.42042056333E+03  0.43121514429E+03  0.92276886615E+02 0.  0.
          1    1    3    3  502    0 -0.46046399219E+02 -0.27751566777E+01  0.13733192786E+01  0.46150388747E+02  0.00000000000E+00 0. -1.
         -1    1    3    3    0  502 -0.17388563730E+03  0.73121916052E+02  0.17033557309E+03  0.25415986490E+03  0.00000000000E+00 0.  1.
         11    1    5    5    0    0  0.79091034904E+02 -0.25000277987E+02  0.80435978022E+02  0.11554372446E+03  0.00000000000E+00 0. -1.
        -11    1    5    5    0    0  0.16177327435E+03 -0.60834113622E+02  0.15417753138E+02  0.17351970720E+03  0.00000000000E+00 0.  1.
          3    1    6    6  503    0 -0.51316542737E+02  0.39847808296E+01 -0.14459585247E+03  0.15348363623E+03  0.00000000000E+00 0. -1.
         -3    1    6    6    0  503  0.30384270006E+02  0.11502851405E+02 -0.27582471086E+03  0.27773150807E+03  0.00000000000E+00 0.  1.
<mgrwt>
<rscale>  0 0.28725299E+03</rscale>
<asrwt>0</asrwt>
<pdfrwt beam="1">  1        1 0.66748530E-01 0.28725299E+03</pdfrwt>
<pdfrwt beam="2">  1       -1 0.90265136E-01 0.28725299E+03</pdfrwt>
<totfact> 0.69460578E+01</totfact>
</mgrwt>
</event>
<event>
12    1  0.1432447E-007  0.4923644E+03  0.7818608E-02  0.1015791E+00
         -2   -1    0    0    0  501 -0.00000000000E+00  0.00000000000E+00  0.67369623463E+03  0.67369623463E+03  0.00000000000E+00 0.  1.
          2   -1    0    0  501    0  0.00000000000E+00 -0.00000000000E+00 -0.57205786309E+03  0.57205786309E+03  0.00000000000E+00 0. -1.
         23    2    1    2    0    0 -0.45399352045E+03 -0.97731658944E+02  0.11429740745E+03  0.48677875901E+03  0.90708704673E+02 0.  0.
    5000000    2    1    2    0    0  0.45399352045E+03  0.97731658944E+02 -0.12659035911E+02  0.75897533872E+03  0.60018473808E+03 0.  0.
         23    2    4    4    0    0  0.25878699928E+03  0.14633904944E+03 -0.27564174961E+03  0.41552479185E+03  0.91085949120E+02 0.  0.
         23    2    4    4    0    0  0.19520652116E+03 -0.48607390494E+02  0.26298271370E+03  0.34345054687E+03  0.91269415044E+02 0.  0.
          1    1    3    3  502    0 -0.56201575532E+02 -0.43623458265E+02  0.25851658465E+02  0.75696310667E+02  0.00000000000E+00 0. -1.
         -1    1    3    3    0  502 -0.39779194491E+03 -0.54108200679E+02  0.88445748986E+02  0.41108244834E+03  0.00000000000E+00 0.  1.
         13    1    5    5    0    0  0.14908265580E+03  0.44015148846E+02 -0.10136908576E+03  0.18557656947E+03  0.00000000000E+00 0.  1.
        -13    1    5    5    0    0  0.10970434348E+03  0.10232390059E+03 -0.17427266385E+03  0.22994822238E+03  0.00000000000E+00 0. -1.
          1    1    6    6  503    0  0.35962495949E+02  0.94268856934E+01  0.92410058171E+01  0.38308791123E+02  0.00000000000E+00 0.  1.
         -1    1    6    6    0  503  0.15924402521E+03 -0.58034276188E+02  0.25374170788E+03  0.30514175574E+03  0.00000000000E+00 0. -1.
<mgrwt>
<rscale>  0 0.49236440E+03</rscale>
<asrwt>0</asrwt>
<pdfrwt beam="1">  1        2 0.88008902E-01 0.49236440E+03</pdfrwt>
<pdfrwt beam="2">  1       -2 0.10364557E+00 0.49236440E+03</pdfrwt>
<totfact> 0.41275468E+01</totfact>
</mgrwt>
</event>
<event>
12    1  0.1432447E-007  0.1248041E+04  0.7818608E-02  0.9071815E-01
         -2   -1    0    0    0  501 -0.00000000000E+00  0.00000000000E+00  0.10869508927E+04  0.10869508927E+04  0.00000000000E+00 0.  1.
          2   -1    0    0  501    0  0.00000000000E+00 -0.00000000000E+00 -0.16109842340E+04  0.16109842340E+04  0.00000000000E+00 0. -1.
         23    2    1    2    0    0  0.16217567644E+03  0.12182732176E+04 -0.49862477052E+03  0.13300801219E+04  0.99979429382E+02 0.  0.
    5000000    2    1    2    0    0 -0.16217567644E+03 -0.12182732176E+04 -0.25408570763E+02  0.13678550048E+04  0.59990927327E+03 0.  0.
         23    2    4    4    0    0 -0.18882160403E+03 -0.43746729710E+03  0.23552797581E+03  0.53927737651E+03  0.91188964493E+02 0.  0.
         23    2    4    4    0    0  0.26645927591E+02 -0.78080592046E+03 -0.26093654658E+03  0.82857762834E+03  0.89917261715E+02 0.  0.
          1    1    3    3  502    0 -0.11420174164E+01  0.17324697519E+03 -0.43642833026E+02  0.17866313411E+03  0.00000000000E+00 0. -1.
         -1    1    3    3    0  502  0.16331769385E+03  0.10450262424E+04 -0.45498193749E+03  0.11514169878E+04  0.00000000000E+00 0.  1.
         11    1    5    5    0    0 -0.15893186756E+03 -0.30676380887E+03  0.13186612452E+03  0.36980001049E+03  0.00000000000E+00 0. -1.
        -11    1    5    5    0    0 -0.29889736467E+02 -0.13070348823E+03  0.10366185129E+03  0.16947736602E+03  0.00000000000E+00 0.  1.
          1    1    6    6  503    0  0.50361471069E+02 -0.30283815197E+03 -0.83080072664E+02  0.31804012723E+03  0.00000000000E+00 0.  1.
         -1    1    6    6    0  503 -0.23715543478E+02 -0.47796776850E+03 -0.17785647391E+03  0.51053750111E+03  0.00000000000E+00 0. -1.
<mgrwt>
<rscale>  0 0.12480411E+04</rscale>
<asrwt>0</asrwt>
<pdfrwt beam="1">  1        2 0.24784373E+00 0.12480411E+04</pdfrwt>
<pdfrwt beam="2">  1       -2 0.16722321E+00 0.12480411E+04</pdfrwt>
<totfact> 0.23701229E+00</totfact>
</mgrwt>
</event>
<event>
12    1  0.1432447E-007  0.6858842E+03  0.7818608E-02  0.9741681E-01
          2   -1    0    0  501    0  0.00000000000E+00  0.00000000000E+00  0.28589132392E+04  0.28589132392E+04  0.00000000000E+00 0. -1.
         -2   -1    0    0    0  501 -0.00000000000E+00 -0.00000000000E+00 -0.22940984052E+03  0.22940984052E+03  0.00000000000E+00 0.  1.
         23    2    1    2    0    0  0.35310488285E+03  0.44353218254E+03  0.19066287373E+04  0.19909786794E+04  0.85785224309E+02 0.  0.
    5000000    2    1    2    0    0 -0.35310488285E+03 -0.44353218254E+03  0.72287466130E+03  0.10973444002E+04  0.60017755833E+03 0.  0.
         23    2    4    4    0    0  0.13290426982E+03 -0.19312736540E+02  0.22731837478E+03  0.27900914313E+03  0.90199399735E+02 0.  0.
         23    2    4    4    0    0 -0.48600915266E+03 -0.42421944600E+03  0.49555628652E+03  0.81833525709E+03  0.89047880700E+02 0.  0.
          1    1    3    3  502    0  0.56294670093E+02  0.12672512765E+03  0.50124345662E+03  0.52007052470E+03  0.00000000000E+00 0. -1.
         -1    1    3    3    0  502  0.29681021275E+03  0.31680705488E+03  0.14053852807E+04  0.14709081547E+04  0.00000000000E+00 0.  1.
         13    1    5    5    0    0  0.10387908954E+03  0.12572111380E+02  0.10058648854E+03  0.14514325649E+03  0.00000000000E+00 0.  1.
        -13    1    5    5    0    0  0.29025180276E+02 -0.31884847920E+02  0.12673188624E+03  0.13386588664E+03  0.00000000000E+00 0. -1.
          1    1    6    6  503    0 -0.10677614335E+03 -0.14600566416E+03  0.13659895851E+03  0.22666732058E+03  0.00000000000E+00 0. -1.
         -1    1    6    6    0  503 -0.37923300932E+03 -0.27821378183E+03  0.35895732801E+03  0.59166793651E+03  0.00000000000E+00 0.  1.
<mgrwt>
<rscale>  0 0.68588417E+03</rscale>
<asrwt>0</asrwt>
<pdfrwt beam="1">  1        2 0.43983278E+00 0.68588417E+03</pdfrwt>
<pdfrwt beam="2">  1       -2 0.35293824E-01 0.68588417E+03</pdfrwt>
<totfact> 0.17141346E+01</totfact>
</mgrwt>
</event>
<event>
12    1  0.1432447E-007  0.3780511E+03  0.7818608E-02  0.1051656E+00
         -1   -1    0    0    0  501 -0.00000000000E+00  0.00000000000E+00  0.42700618094E+03  0.42700618094E+03  0.00000000000E+00 0.  1.
          1   -1    0    0  501    0  0.00000000000E+00 -0.00000000000E+00 -0.14224569117E+04  0.14224569117E+04  0.00000000000E+00 0. -1.
         23    2    1    2    0    0 -0.11350090789E+03  0.23226799368E+03  0.29489346244E+03  0.40310446000E+03  0.93274725981E+02 0.  0.
    5000000    2    1    2    0    0  0.11350090789E+03 -0.23226799368E+03 -0.12903441932E+04  0.14463586326E+04  0.60011188983E+03 0.  0.
         23    2    4    4    0    0  0.24014702669E+03 -0.23888627415E+03 -0.12305733791E+04  0.12789032188E+04  0.80903368986E+02 0.  0.
         23    2    4    4    0    0 -0.12664611881E+03  0.66182804769E+01 -0.59770814052E+02  0.16745541387E+03  0.91573600872E+02 0.  0.
          1    1    3    3  502    0 -0.78219062733E+02  0.11669949326E+03  0.95224706962E+02  0.16971958732E+03  0.00000000000E+00 0. -1.
         -1    1    3    3    0  502 -0.35281845153E+02  0.11556850041E+03  0.19966875547E+03  0.23338487268E+03  0.00000000000E+00 0.  1.
         13    1    5    5    0    0  0.86794945982E+02 -0.92538799792E+02 -0.32585200599E+03  0.34968031389E+03  0.00000000000E+00 0. -1.
        -13    1    5    5    0    0  0.15335208071E+03 -0.14634747436E+03 -0.90472137314E+03  0.92922290487E+03  0.00000000000E+00 0.  1.
          1    1    6    6  503    0 -0.12515341083E+03 -0.22170139274E+02 -0.53784715426E+02  0.13801335780E+03  0.00000000000E+00 0. -1.
         -1    1    6    6    0  503 -0.14927079773E+01  0.28788419751E+02 -0.59860986264E+01  0.29442056070E+02  0.00000000000E+00 0.  1.
<mgrwt>
<rscale>  0 0.37805106E+03</rscale>
<asrwt>0</asrwt>
<pdfrwt beam="1">  1        1 0.21883953E+00 0.37805106E+03</pdfrwt>
<pdfrwt beam="2">  1       -1 0.65693258E-01 0.37805106E+03</pdfrwt>
<totfact> 0.19293023E+01</totfact>
</mgrwt>
</event>
<event>
12    1  0.1432447E-007  0.9521136E+03  0.7818608E-02  0.9362683E-01
          2   -1    0    0  501    0  0.00000000000E+00  0.00000000000E+00  0.10964957167E+04  0.10964957167E+04  0.00000000000E+00 0. -1.
         -2   -1    0    0    0  501 -0.00000000000E+00 -0.00000000000E+00 -0.12264614598E+04  0.12264614598E+04  0.00000000000E+00 0.  1.
         23    2    1    2    0    0 -0.24671401900E+03 -0.86404372992E+03 -0.66123186907E+03  0.11184686606E+04  0.79405198775E+02 0.  0.
    5000000    2    1    2    0    0  0.24671401900E+03  0.86404372992E+03  0.53126612601E+03  0.12044885160E+04  0.60092388376E+03 0.  0.
         23    2    4    4    0    0  0.93962030353E+02  0.83450316289E+03  0.57038780605E+03  0.10195231331E+04  0.94131703798E+02 0.  0.
         23    2    4    4    0    0  0.15275198865E+03  0.29540567024E+02 -0.39121680037E+02  0.18496538284E+03  0.92064498400E+02 0.  0.
          4    1    3    3  502    0 -0.27284129051E+02 -0.65350859163E+02 -0.29278929044E+02  0.76631678680E+02  0.00000000000E+00 0. -1.
         -4    1    3    3    0  502 -0.21942988995E+03 -0.79869287075E+03 -0.63195294003E+03  0.10418369819E+04  0.00000000000E+00 0.  1.
         13    1    5    5    0    0  0.94709567854E+01  0.29435148193E+03  0.24661683999E+03  0.38412544787E+03  0.00000000000E+00 0. -1.
        -13    1    5    5    0    0  0.84491073568E+02  0.54015168097E+03  0.32377096606E+03  0.63539768526E+03  0.00000000000E+00 0.  1.
          3    1    6    6  503    0  0.63267995233E+02 -0.13358578373E+02 -0.54472923616E+02  0.84549336155E+02  0.00000000000E+00 0. -1.
         -3    1    6    6    0  503  0.89483993413E+02  0.42899145397E+02  0.15351243579E+02  0.10041604669E+03  0.00000000000E+00 0.  1.
<mgrwt>
<rscale>  0 0.95211364E+03</rscale>
<asrwt>0</asrwt>
<pdfrwt beam="1">  1        2 0.16869165E+00 0.95211364E+03</pdfrwt>
<pdfrwt beam="2">  1       -2 0.18868638E+00 0.95211364E+03</pdfrwt>
<totfact> 0.34531535E+00</totfact>
</mgrwt>
</event>
<event>
12    1  0.1432447E-007  0.3137762E+03  0.7818608E-02  0.1078550E+00
          1   -1    0    0  501    0  0.00000000000E+00  0.00000000000E+00  0.76280522687E+03  0.76280522687E+03  0.00000000000E+00 0. -1.
         -1   -1    0    0    0  501 -0.00000000000E+00 -0.00000000000E+00 -0.41756163353E+03  0.41756163353E+03  0.00000000000E+00 0.  1.
         23    2    1    2    0    0  0.25480030265E+03 -0.20939620769E+02 -0.19396200111E+03  0.33405731465E+03  0.92797465763E+02 0.  0.
    5000000    2    1    2    0    0 -0.25480030265E+03  0.20939620769E+02  0.53920559446E+03  0.84630954575E+03  0.60011291619E+03 0.  0.
         23    2    4    4    0    0 -0.16451894480E+03 -0.10712928436E+03  0.61296533914E+03  0.65060446084E+03  0.94955203749E+02 0.  0.
         23    2    4    4    0    0 -0.90281357850E+02  0.12806890513E+03 -0.73759744683E+02  0.19570508490E+03  0.91146104054E+02 0.  0.
          4    1    3    3  502    0  0.37238728071E+02 -0.39255155820E+01  0.61784847082E+01  0.37951366434E+02  0.00000000000E+00 0. -1.
         -4    1    3    3    0  502  0.21756157458E+03 -0.17014105187E+02 -0.20014048582E+03  0.29610594822E+03  0.00000000000E+00 0.  1.
         13    1    5    5    0    0 -0.11718831981E+02  0.14839714028E+02  0.27631164871E+02  0.33481777246E+02  0.00000000000E+00 0. -1.
        -13    1    5    5    0    0 -0.15280011282E+03 -0.12196899839E+03  0.58533417427E+03  0.61712268360E+03  0.00000000000E+00 0.  1.
          1    1    6    6  503    0 -0.31792851407E+02  0.58433671972E+02  0.15472868996E+02  0.68298529235E+02  0.00000000000E+00 0. -1.
         -1    1    6    6    0  503 -0.58488506443E+02  0.69635233158E+02 -0.89232613678E+02  0.12740655567E+03  0.00000000000E+00 0.  1.
<mgrwt>
<rscale>  0 0.31377619E+03</rscale>
<asrwt>0</asrwt>
<pdfrwt beam="1">  1        1 0.11735465E+00 0.31377619E+03</pdfrwt>
<pdfrwt beam="2">  1       -1 0.64240251E-01 0.31377619E+03</pdfrwt>
<totfact> 0.63392242E+01</totfact>
</mgrwt>
</event>
<event>
12    1  0.1432447E-007  0.1020397E+04  0.7818608E-02  0.9286452E-01
         -3   -1    0    0    0  501 -0.00000000000E+00  0.00000000000E+00  0.64388141428E+03  0.64388141428E+03  0.00000000000E+00 0.  1.
          3   -1    0    0  501    0  0.00000000000E+00 -0.00000000000E+00 -0.19053613398E+04  0.19053613398E+04  0.00000000000E+00 0. -1.
         23    2    1    2    0    0 -0.62167332831E+03  0.75546662115E+03 -0.93400463387E+03  0.13557849945E+04  0.92632351413E+02 0.  0.
    5000000    2    1    2    0    0  0.62167332831E+03 -0.75546662115E+03 -0.32747529163E+03  0.11934577595E+04  0.59991150544E+03 0.  0.
         23    2    4    4    0    0  0.44897196766E+03 -0.23397288692E+03  0.55484515980E+02  0.51734942809E+03  0.90844700830E+02 0.  0.
         23    2    4    4    0    0  0.17270136065E+03 -0.52149373423E+03 -0.38295980761E+03  0.67610833144E+03  0.93181472364E+02 0.  0.
          3    1    3    3  502    0 -0.60547648637E+03  0.70314720428E+03 -0.88549050551E+03  0.12826188841E+04  0.00000000000E+00 0. -1.
         -3    1    3    3    0  502 -0.16196841937E+02  0.52319416865E+02 -0.48514128363E+02  0.73166110466E+02  0.00000000000E+00 0.  1.
         13    1    5    5    0    0  0.32183137122E+03 -0.16248452704E+03 -0.21119254550E+01  0.36052893540E+03  0.00000000000E+00 0.  1.
        -13    1    5    5    0    0  0.12714059644E+03 -0.71488359879E+02  0.57596441435E+02  0.15682049269E+03  0.00000000000E+00 0. -1.
          4    1    6    6  503    0  0.86427662751E+02 -0.18249315092E+03 -0.18668412881E+03  0.27499900904E+03  0.00000000000E+00 0. -1.
         -4    1    6    6    0  503  0.86273697895E+02 -0.33900058331E+03 -0.19627567879E+03  0.40110932240E+03  0.00000000000E+00 0.  1.
<mgrwt>
<rscale>  0 0.10203969E+04</rscale>
<asrwt>0</asrwt>
<pdfrwt beam="1">  1        3 0.29313251E+00 0.10203969E+04</pdfrwt>
<pdfrwt beam="2">  1       -3 0.99058681E-01 0.10203969E+04</pdfrwt>
<totfact> 0.96507859E-02</totfact>
</mgrwt>
</event>
<event>
12    1  0.1432447E-007  0.2866328E+03  0.7818608E-02  0.1092120E+00
          2   -1    0    0  501    0  0.00000000000E+00  0.00000000000E+00  0.32586250376E+04  0.32586250376E+04  0.00000000000E+00 0. -1.
         -2   -1    0    0    0  501 -0.00000000000E+00 -0.00000000000E+00 -0.87302426317E+02  0.87302426317E+02  0.00000000000E+00 0.  1.
         23    2    1    2    0    0 -0.19594932746E+03  0.15778452133E+03  0.30138162903E+03  0.40313862149E+03  0.91639335011E+02 0.  0.
    5000000    2    1    2    0    0  0.19594932746E+03 -0.15778452133E+03  0.28699409823E+04  0.29427888424E+04  0.60012734928E+03 0.  0.
         23    2    4    4    0    0 -0.18229677428E+02 -0.67209441066E+02  0.76092125344E+02  0.13804940664E+03  0.91750733106E+02 0.  0.
         23    2    4    4    0    0  0.21417900489E+03 -0.90575080266E+02  0.27938488569E+04  0.28047394358E+04  0.83038401294E+02 0.  0.
          2    1    3    3  502    0 -0.72632515750E+02  0.11690880750E+03  0.16283157968E+03  0.21320711751E+03  0.00000000000E+00 0.  1.
         -2    1    3    3    0  502 -0.12331681171E+03  0.40875713828E+02  0.13855004934E+03  0.18993150398E+03  0.00000000000E+00 0. -1.
         13    1    5    5    0    0 -0.22745637335E+02 -0.58413230552E+02  0.13953118313E+01  0.62701008097E+02  0.00000000000E+00 0. -1.
        -13    1    5    5    0    0  0.45159599073E+01 -0.87962105136E+01  0.74696813512E+02  0.75348398538E+02  0.00000000000E+00 0.  1.
          3    1    6    6  503    0  0.17360373930E+03 -0.80367679995E+02  0.25630050639E+04  0.25701346619E+04  0.00000000000E+00 0. -1.
         -3    1    6    6    0  503  0.40575265592E+02 -0.10207400270E+02  0.23084379300E+03  0.23460477396E+03  0.00000000000E+00 0.  1.
<mgrwt>
<rscale>  0 0.28663283E+03</rscale>
<asrwt>0</asrwt>
<pdfrwt beam="1">  1        2 0.50132684E+00 0.28663283E+03</pdfrwt>
<pdfrwt beam="2">  1       -2 0.13431145E-01 0.28663283E+03</pdfrwt>
<totfact> 0.59481945E+01</totfact>
</mgrwt>
</event>
<event>
12    1  0.1432447E-007  0.7235854E+03  0.7818608E-02  0.9677727E-01
         -1   -1    0    0    0  501 -0.00000000000E+00  0.00000000000E+00  0.38238103031E+03  0.38238103031E+03  0.00000000000E+00 0.  1.
          1   -1    0    0  501    0  0.00000000000E+00 -0.00000000000E+00 -0.16863478497E+04  0.16863478497E+04  0.00000000000E+00 0. -1.
         23    2    1    2    0    0  0.20779104495E+03 -0.61583163558E+03 -0.27416920891E+03  0.71105050992E+03  0.89433499300E+02 0.  0.
    5000000    2    1    2    0    0 -0.20779104495E+03  0.61583163558E+03 -0.10297976104E+04  0.13576783701E+04  0.60031801266E+03 0.  0.
         23    2    4    4    0    0 -0.34743999542E+03  0.42091594952E+03 -0.41332885414E+03  0.69035417888E+03  0.88675609106E+02 0.  0.
         23    2    4    4    0    0  0.13964895047E+03  0.19491568605E+03 -0.61646875631E+03  0.66732419119E+03  0.88283036897E+02 0.  0.
          1    1    3    3  502    0 -0.30424713556E+01 -0.47395321793E+02 -0.36316169154E+02  0.59786598012E+02  0.00000000000E+00 0. -1.
         -1    1    3    3    0  502  0.21083351631E+03 -0.56843631378E+03 -0.23785303976E+03  0.65126391191E+03  0.00000000000E+00 0.  1.
         13    1    5    5    0    0 -0.74902611678E+02  0.41294198359E+02 -0.68553344009E+02  0.10961374471E+03  0.00000000000E+00 0.  1.
        -13    1    5    5    0    0 -0.27253738374E+03  0.37962175117E+03 -0.34477551013E+03  0.58074043417E+03  0.00000000000E+00 0. -1.
          2    1    6    6  503    0  0.88778984779E+02  0.13922657050E+03 -0.30474750798E+03  0.34660754420E+03  0.00000000000E+00 0. -1.
         -2    1    6    6    0  503  0.50869965693E+02  0.55689115551E+02 -0.31172124832E+03  0.32071664699E+03  0.00000000000E+00 0.  1.
<mgrwt>
<rscale>  0 0.72358537E+03</rscale>
<asrwt>0</asrwt>
<pdfrwt beam="1">  1        1 0.25943813E+00 0.72358537E+03</pdfrwt>
<pdfrwt beam="2">  1       -1 0.58827850E-01 0.72358537E+03</pdfrwt>
<totfact> 0.14871171E+01</totfact>
</mgrwt>
</event>
<event>
12    1  0.1432447E-007  0.6324240E+03  0.7818608E-02  0.9840330E-01
          2   -1    0    0  501    0  0.00000000000E+00  0.00000000000E+00  0.77350238577E+03  0.77350238577E+03  0.00000000000E+00 0. -1.
         -2   -1    0    0    0  501 -0.00000000000E+00 -0.00000000000E+00 -0.79345565204E+03  0.79345565204E+03  0.00000000000E+00 0.  1.
         23    2    1    2    0    0 -0.50262362974E+03  0.32396455343E+02 -0.44260333609E+03  0.67678045037E+03  0.91945752442E+02 0.  0.
    5000000    2    1    2    0    0  0.50262362974E+03 -0.32396455343E+02  0.42265006982E+03  0.89017758744E+03  0.60008583734E+03 0.  0.
         23    2    4    4    0    0  0.89934224957E+02 -0.26044201395E+03  0.72405866510E+02  0.29606125082E+03  0.80569518320E+02 0.  0.
         23    2    4    4    0    0  0.41268940478E+03  0.22804555860E+03  0.35024420331E+03  0.59411633663E+03  0.89363851035E+02 0.  0.
          4    1    3    3  502    0 -0.37327470206E+03  0.49624183522E+02 -0.36775923182E+03  0.52634913829E+03  0.00000000000E+00 0. -1.
         -4    1    3    3    0  502 -0.12934892768E+03 -0.17227728180E+02 -0.74844104266E+02  0.15043131208E+03  0.00000000000E+00 0.  1.
         13    1    5    5    0    0 -0.10441194232E+02 -0.64939539798E+02  0.29779230255E+02  0.72200865097E+02  0.00000000000E+00 0. -1.
        -13    1    5    5    0    0  0.10037541919E+03 -0.19550247415E+03  0.42626636255E+02  0.22386038572E+03  0.00000000000E+00 0.  1.
          3    1    6    6  503    0  0.24561103124E+03  0.15058946224E+03  0.26398748457E+03  0.39075741428E+03  0.00000000000E+00 0. -1.
         -3    1    6    6    0  503  0.16707837354E+03  0.77456096363E+02  0.86256718746E+02  0.20335892235E+03  0.00000000000E+00 0.  1.
<mgrwt>
<rscale>  0 0.63242397E+03</rscale>
<asrwt>0</asrwt>
<pdfrwt beam="1">  1        2 0.11900037E+00 0.63242397E+03</pdfrwt>
<pdfrwt beam="2">  1       -2 0.12207010E+00 0.63242397E+03</pdfrwt>
<totfact> 0.18826937E+01</totfact>
</mgrwt>
</event>
<event>
12    1  0.1458320E-007  0.1028509E+04  0.7818608E-02  0.9277818E-01
          1   -1    0    0  501    0  0.00000000000E+00  0.00000000000E+00  0.27878256224E+04  0.27878256224E+04  0.00000000000E+00 0. -1.
         -1   -1    0    0    0  501 -0.00000000000E+00 -0.00000000000E+00 -0.85843888841E+03  0.85843888841E+03  0.00000000000E+00 0.  1.
         23    2    1    2    0    0 -0.88565372596E+03  0.50907777357E+03 -0.34521869653E+03  0.10815881222E+04  0.84345810923E+02 0.  0.
    5000000    2    1    2    0    0  0.88565372596E+03 -0.50907777357E+03  0.22746054305E+04  0.25646763886E+04  0.60016032184E+03 0.  0.
         23    2    4    4    0    0  0.62987978835E+03 -0.39655377928E+03  0.20825150217E+04  0.22134107454E+04  0.91185879721E+02 0.  0.
         23    2    4    4    0    0  0.25577393761E+03 -0.11252399429E+03  0.19209040882E+03  0.35126564321E+03  0.91688987797E+02 0.  0.
          1    1    3    3  502    0 -0.60793175485E+03  0.38252023898E+03 -0.26929806269E+03  0.76708812945E+03  0.00000000000E+00 0. -1.
         -1    1    3    3    0  502 -0.27772197111E+03  0.12655753459E+03 -0.75920633843E+02  0.31449999275E+03  0.00000000000E+00 0.  1.
         13    1    5    5    0    0  0.21232241888E+03 -0.85600696448E+02  0.60617865390E+03  0.64796670380E+03  0.00000000000E+00 0. -1.
        -13    1    5    5    0    0  0.41755736947E+03 -0.31095308283E+03  0.14763363678E+04  0.15654440416E+04  0.00000000000E+00 0.  1.
          1    1    6    6  503    0  0.52148294024E+02 -0.46709203548E+02  0.10875150009E+02  0.70848169725E+02  0.00000000000E+00 0.  1.
         -1    1    6    6    0  503  0.20362564359E+03 -0.65814790744E+02  0.18121525881E+03  0.28041747348E+03  0.00000000000E+00 0. -1.
<mgrwt>
<rscale>  0 0.10285090E+04</rscale>
<asrwt>0</asrwt>
<pdfrwt beam="1">  1        1 0.42889625E+00 0.10285090E+04</pdfrwt>
<pdfrwt beam="2">  1       -1 0.13206752E+00 0.10285090E+04</pdfrwt>
<totfact> 0.42187381E-01</totfact>
</mgrwt>
</event>
<event>
12    1  0.1432447E-007  0.6034691E+03  0.7818608E-02  0.9898235E-01
          1   -1    0    0  501    0  0.00000000000E+00  0.00000000000E+00  0.44439156677E+03  0.44439156677E+03  0.00000000000E+00 0. -1.
         -1   -1    0    0    0  501 -0.00000000000E+00 -0.00000000000E+00 -0.90646001080E+03  0.90646001080E+03  0.00000000000E+00 0.  1.
         23    2    1    2    0    0 -0.42030917116E+03  0.20411374631E+03 -0.29769166455E+02  0.47602868235E+03  0.85993501833E+02 0.  0.
    5000000    2    1    2    0    0  0.42030917116E+03 -0.20411374631E+03 -0.43229927757E+03  0.87482289522E+03  0.60009183616E+03 0.  0.
         23    2    4    4    0    0 -0.12303908162E+03  0.49039280674E+01 -0.19152282897E+02  0.15436155297E+03  0.91093440909E+02 0.  0.
         23    2    4    4    0    0  0.54334825278E+03 -0.20901767437E+03 -0.41314699467E+03  0.72046134225E+03  0.97254277408E+02 0.  0.
          4    1    3    3  502    0 -0.28567062449E+03  0.10112400348E+03  0.45599689022E+01  0.30307517730E+03  0.00000000000E+00 0. -1.
         -4    1    3    3    0  502 -0.13463854667E+03  0.10298974282E+03 -0.34329135357E+02  0.17295350505E+03  0.00000000000E+00 0.  1.
         11    1    5    5    0    0 -0.13161577365E+03 -0.13013806606E+02 -0.10435865703E+02  0.13266867878E+03  0.00000000000E+00 0.  1.
        -11    1    5    5    0    0  0.85766920242E+01  0.17917734673E+02 -0.87164171944E+01  0.21692874190E+02  0.00000000000E+00 0. -1.
          1    1    6    6  503    0  0.21035152030E+03 -0.75353267242E+02 -0.10240756616E+03  0.24579094081E+03  0.00000000000E+00 0. -1.
         -1    1    6    6    0  503  0.33299673248E+03 -0.13366440713E+03 -0.31073942851E+03  0.47467040144E+03  0.00000000000E+00 0.  1.
<mgrwt>
<rscale>  0 0.60346906E+03</rscale>
<asrwt>0</asrwt>
<pdfrwt beam="1">  1        1 0.68367934E-01 0.60346906E+03</pdfrwt>
<pdfrwt beam="2">  1       -1 0.13945538E+00 0.60346906E+03</pdfrwt>
<totfact> 0.22990232E+01</totfact>
</mgrwt>
</event>
<event>
12    1  0.1432447E-007  0.4746933E+03  0.7818608E-02  0.1020604E+00
         -2   -1    0    0    0  501 -0.00000000000E+00  0.00000000000E+00  0.12732679273E+04  0.12732679273E+04  0.00000000000E+00 0.  1.
          2   -1    0    0  501    0  0.00000000000E+00 -0.00000000000E+00 -0.38791831672E+03  0.38791831672E+03  0.00000000000E+00 0. -1.
         23    2    1    2    0    0 -0.40414494950E+03  0.19019037363E+03 -0.55407089282E+02  0.45927323772E+03  0.91413581688E+02 0.  0.
    5000000    2    1    2    0    0  0.40414494950E+03 -0.19019037363E+03  0.94075669984E+03  0.12019130063E+04  0.60005515406E+03 0.  0.
         23    2    4    4    0    0  0.15662703196E+03 -0.15344523449E+03  0.14533969543E+02  0.23824893537E+03  0.92053526844E+02 0.  0.
         23    2    4    4    0    0  0.24751791754E+03 -0.36745139133E+02  0.92622273030E+03  0.96366407090E+03  0.90247275130E+02 0.  0.
          3    1    3    3  502    0 -0.51558824334E+02 -0.57124715375E+01 -0.14421834397E+02  0.53841749647E+02  0.00000000000E+00 0. -1.
         -3    1    3    3    0  502 -0.35258612517E+03  0.19590284516E+03 -0.40985254885E+02  0.40543148807E+03  0.00000000000E+00 0.  1.
         11    1    5    5    0    0  0.10380716015E+02 -0.52866247048E+02 -0.19922641556E+02  0.57441370009E+02  0.00000000000E+00 0.  1.
        -11    1    5    5    0    0  0.14624631594E+03 -0.10057898744E+03  0.34456611099E+02  0.18080756536E+03  0.00000000000E+00 0. -1.
          4    1    6    6  503    0  0.18949773831E+03 -0.62178447808E+02  0.63295370056E+03  0.66363087575E+03  0.00000000000E+00 0. -1.
         -4    1    6    6    0  503  0.58020179233E+02  0.25433308676E+02  0.29326902973E+03  0.30003319514E+03  0.00000000000E+00 0.  1.
<mgrwt>
<rscale>  0 0.47469326E+03</rscale>
<asrwt>0</asrwt>
<pdfrwt beam="1">  1        2 0.59679742E-01 0.47469326E+03</pdfrwt>
<pdfrwt beam="2">  1       -2 0.19588737E+00 0.47469326E+03</pdfrwt>
<totfact> 0.12269152E+01</totfact>
</mgrwt>
</event>
<event>
12    1  0.1432447E-007  0.7611393E+03  0.7818608E-02  0.9618035E-01
          2   -1    0    0  501    0  0.00000000000E+00  0.00000000000E+00  0.74722517276E+03  0.74722517276E+03  0.00000000000E+00 0.  1.
         -2   -1    0    0    0  501 -0.00000000000E+00 -0.00000000000E+00 -0.99531343788E+03  0.99531343788E+03  0.00000000000E+00 0. -1.
         23    2    1    2    0    0  0.55228760311E+03 -0.48229875585E+03 -0.29133687536E+03  0.79412626214E+03  0.90142436320E+02 0.  0.
    5000000    2    1    2    0    0 -0.55228760311E+03  0.48229875585E+03  0.43248610240E+02  0.94841234851E+03  0.59998487820E+03 0.  0.
         23    2    4    4    0    0 -0.15575971584E+03  0.30384829289E+03  0.27414452449E+03  0.44718815143E+03  0.90758736798E+02 0.  0.
         23    2    4    4    0    0 -0.39652788728E+03  0.17845046296E+03 -0.23089591425E+03  0.50122419707E+03  0.93988506747E+02 0.  0.
          2    1    3    3  502    0  0.16081884902E+03 -0.13806315563E+03 -0.12908269617E+03  0.24816623379E+03  0.00000000000E+00 0. -1.
         -2    1    3    3    0  502  0.39146875409E+03 -0.34423560022E+03 -0.16225417919E+03  0.54596002835E+03  0.00000000000E+00 0.  1.
         13    1    5    5    0    0 -0.72212216762E+02  0.81703691964E+02  0.12931493222E+03  0.16915214815E+03  0.00000000000E+00 0. -1.
        -13    1    5    5    0    0 -0.83547499073E+02  0.22214460093E+03  0.14482959227E+03  0.27803600328E+03  0.00000000000E+00 0.  1.
          2    1    6    6  503    0 -0.17336569245E+02  0.31557214436E+02 -0.33568648721E+02  0.49226706096E+02  0.00000000000E+00 0. -1.
         -2    1    6    6    0  503 -0.37919131803E+03  0.14689324852E+03 -0.19732726552E+03  0.45199749098E+03  0.00000000000E+00 0.  1.
<mgrwt>
<rscale>  0 0.76113930E+03</rscale>
<asrwt>0</asrwt>
<pdfrwt beam="1">  1        2 0.11495772E+00 0.76113930E+03</pdfrwt>
<pdfrwt beam="2">  1       -2 0.15312514E+00 0.76113930E+03</pdfrwt>
<totfact> 0.10843631E+01</totfact>
</mgrwt>
</event>
<event>
12    1  0.1466284E-007  0.1305759E+04  0.7818608E-02  0.9025011E-01
         -1   -1    0    0    0  501 -0.00000000000E+00  0.00000000000E+00  0.15538392768E+04  0.15538392768E+04  0.00000000000E+00 0.  1.
          1   -1    0    0  501    0  0.00000000000E+00 -0.00000000000E+00 -0.12831047048E+04  0.12831047048E+04  0.00000000000E+00 0. -1.
         23    2    1    2    0    0  0.12423956226E+04 -0.29569472566E+03  0.55858013477E+03  0.13967722740E+04  0.89323929989E+02 0.  0.
    5000000    2    1    2    0    0 -0.12423956226E+04  0.29569472566E+03 -0.28784556280E+03  0.14401717077E+04  0.60021431650E+03 0.  0.
         23    2    4    4    0    0 -0.12051732149E+04  0.23638564700E+03 -0.12171169060E+03  0.12374932759E+04  0.90858242238E+02 0.  0.
         23    2    4    4    0    0 -0.37222407717E+02  0.59309078662E+02 -0.16613387219E+03  0.20267843182E+03  0.92601343333E+02 0.  0.
          1    1    3    3  502    0  0.67731980652E+03 -0.19276640683E+03  0.34261924632E+03  0.78314044453E+03  0.00000000000E+00 0. -1.
         -1    1    3    3    0  502  0.56507581609E+03 -0.10292831883E+03  0.21596088845E+03  0.61363182942E+03  0.00000000000E+00 0.  1.
         13    1    5    5    0    0 -0.60402677047E+03  0.15292740589E+03 -0.31166975868E+02  0.62386417697E+03  0.00000000000E+00 0.  1.
        -13    1    5    5    0    0 -0.60114644442E+03  0.83458241111E+02 -0.90544714735E+02  0.61362909889E+03  0.00000000000E+00 0. -1.
          2    1    6    6  503    0 -0.59453769963E+02  0.31359639415E+02 -0.14816636206E+03  0.16270048737E+03  0.00000000000E+00 0. -1.
         -2    1    6    6    0  503  0.22231362246E+02  0.27949439248E+02 -0.17967510137E+02  0.39977944445E+02  0.00000000000E+00 0.  1.
<mgrwt>
<rscale>  0 0.13057588E+04</rscale>
<asrwt>0</asrwt>
<pdfrwt beam="1">  1        1 0.19740072E+00 0.13057588E+04</pdfrwt>
<pdfrwt beam="2">  1       -1 0.23905220E+00 0.13057588E+04</pdfrwt>
<totfact> 0.74063819E-01</totfact>
</mgrwt>
</event>
<event>
12    1  0.1432447E-007  0.6339276E+03  0.7818608E-02  0.9837414E-01
         -1   -1    0    0    0  501 -0.00000000000E+00  0.00000000000E+00  0.15813225455E+04  0.15813225455E+04  0.00000000000E+00 0.  1.
          1   -1    0    0  501    0  0.00000000000E+00 -0.00000000000E+00 -0.35558707754E+03  0.35558707754E+03  0.00000000000E+00 0. -1.
         23    2    1    2    0    0  0.12630621603E+03  0.59145354293E+03  0.72682583681E+03  0.94962804144E+03  0.88017420905E+02 0.  0.
    5000000    2    1    2    0    0 -0.12630621603E+03 -0.59145354293E+03  0.49890963113E+03  0.98728158158E+03  0.60003628860E+03 0.  0.
         23    2    4    4    0    0 -0.12456888229E+03 -0.53919819957E+03  0.61341937045E+03  0.83125222201E+03  0.91895743591E+02 0.  0.
         23    2    4    4    0    0 -0.17373337392E+01 -0.52255343359E+02 -0.11450973932E+03  0.15602935957E+03  0.92190245755E+02 0.  0.
          4    1    3    3  502    0  0.57457783847E+02  0.37429052089E+03  0.39565804128E+03  0.54766785243E+03  0.00000000000E+00 0. -1.
         -4    1    3    3    0  502  0.68848432181E+02  0.21716302204E+03  0.33116779553E+03  0.40196018901E+03  0.00000000000E+00 0.  1.
         11    1    5    5    0    0 -0.89101994620E+02 -0.46098019165E+03  0.55704349144E+03  0.72851860230E+03  0.00000000000E+00 0.  1.
        -11    1    5    5    0    0 -0.35466887668E+02 -0.78218007921E+02  0.56375879011E+02  0.10273361971E+03  0.00000000000E+00 0. -1.
          2    1    6    6  503    0 -0.10245660986E+02  0.25639461245E+02 -0.31013659130E+02  0.41523518572E+02  0.00000000000E+00 0. -1.
         -2    1    6    6    0  503  0.85083272466E+01 -0.77894804604E+02 -0.83496080187E+02  0.11450584100E+03  0.00000000000E+00 0.  1.
<mgrwt>
<rscale>  0 0.63392760E+03</rscale>
<asrwt>0</asrwt>
<pdfrwt beam="1">  1        1 0.54705705E-01 0.63392760E+03</pdfrwt>
<pdfrwt beam="2">  1       -1 0.24328039E+00 0.63392760E+03</pdfrwt>
<totfact> 0.57163453E+00</totfact>
</mgrwt>
</event>
<event>
12    1  0.1432447E-007  0.7077217E+03  0.7818608E-02  0.9704117E-01
          2   -1    0    0  501    0  0.00000000000E+00  0.00000000000E+00  0.18430319105E+04  0.18430319105E+04  0.00000000000E+00 0.  1.
         -2   -1    0    0    0  501 -0.00000000000E+00 -0.00000000000E+00 -0.29663001117E+03  0.29663001117E+03  0.00000000000E+00 0. -1.
         23    2    1    2    0    0 -0.35765708519E+03 -0.49260547812E+03  0.53514634137E+03  0.81561088480E+03  0.90888729049E+02 0.  0.
    5000000    2    1    2    0    0  0.35765708519E+03  0.49260547812E+03  0.10112555580E+04  0.13240510369E+04  0.59991215781E+03 0.  0.
         23    2    4    4    0    0  0.47365469958E+03  0.47870813725E+03  0.68100705811E+03  0.96184923137E+03  0.88730353260E+02 0.  0.
         23    2    4    4    0    0 -0.11599761439E+03  0.13897340862E+02  0.33024849988E+03  0.36220180552E+03  0.92073305709E+02 0.  0.
          1    1    3    3  502    0 -0.34730778271E+03 -0.44209478868E+03  0.50603241793E+03  0.75639890673E+03  0.00000000000E+00 0. -1.
         -1    1    3    3    0  502 -0.10349302480E+02 -0.50510689431E+02  0.29113923447E+02  0.59211978071E+02  0.00000000000E+00 0.  1.
         13    1    5    5    0    0  0.76562166522E+02  0.10946118474E+03  0.17524126585E+03  0.22034749275E+03  0.00000000000E+00 0. -1.
        -13    1    5    5    0    0  0.39709253306E+03  0.36924695252E+03  0.50576579226E+03  0.74150173862E+03  0.00000000000E+00 0.  1.
          3    1    6    6  503    0 -0.16769870680E+02  0.20414504454E+02  0.18062632101E+03  0.18254820842E+03  0.00000000000E+00 0. -1.
         -3    1    6    6    0  503 -0.99227743714E+02 -0.65171635920E+01  0.14962217887E+03  0.17965359711E+03  0.00000000000E+00 0.  1.
<mgrwt>
<rscale>  0 0.70772172E+03</rscale>
<asrwt>0</asrwt>
<pdfrwt beam="1">  1        2 0.28354337E+00 0.70772172E+03</pdfrwt>
<pdfrwt beam="2">  1       -2 0.45635387E-01 0.70772172E+03</pdfrwt>
<totfact> 0.38446070E+01</totfact>
</mgrwt>
</event>
<event>
12    1  0.1432447E-007  0.9524450E+03  0.7818608E-02  0.9362297E-01
          2   -1    0    0  501    0  0.00000000000E+00  0.00000000000E+00  0.14134409418E+04  0.14134409418E+04  0.00000000000E+00 0. -1.
         -2   -1    0    0    0  501 -0.00000000000E+00 -0.00000000000E+00 -0.68804426041E+03  0.68804426041E+03  0.00000000000E+00 0.  1.
         23    2    1    2    0    0  0.24277892805E+03 -0.85302277868E+03  0.22324412221E+03  0.91885362742E+03  0.88682476702E+02 0.  0.
    5000000    2    1    2    0    0 -0.24277892805E+03  0.85302277868E+03  0.50215255919E+03  0.11826315748E+04  0.59989230712E+03 0.  0.
         23    2    4    4    0    0  0.12023387647E+03  0.48318653824E+03  0.89868443316E+02  0.51404727413E+03  0.90790126930E+02 0.  0.
         23    2    4    4    0    0 -0.36301280452E+03  0.36983624044E+03  0.41228411588E+03  0.66858430066E+03  0.92030613917E+02 0.  0.
          2    1    3    3  502    0  0.13724864354E+03 -0.44795604773E+03  0.73242074965E+02  0.47420060354E+03  0.00000000000E+00 0. -1.
         -2    1    3    3    0  502  0.10553028451E+03 -0.40506673095E+03  0.15000204724E+03  0.44465302388E+03  0.00000000000E+00 0.  1.
         11    1    5    5    0    0  0.56544069173E+02  0.27473657554E+03  0.61586082238E+01  0.28056255302E+03  0.00000000000E+00 0.  1.
        -11    1    5    5    0    0  0.63689807297E+02  0.20844996270E+03  0.83709835092E+02  0.23348472111E+03  0.00000000000E+00 0. -1.
          4    1    6    6  503    0 -0.12378958028E+03  0.10370653234E+03  0.18067358677E+03  0.24232591688E+03  0.00000000000E+00 0. -1.
         -4    1    6    6    0  503 -0.23922322424E+03  0.26612970810E+03  0.23161052911E+03  0.42625838378E+03  0.00000000000E+00 0.  1.
<mgrwt>
<rscale>  0 0.95244498E+03</rscale>
<asrwt>0</asrwt>
<pdfrwt beam="1">  1        2 0.21745245E+00 0.95244498E+03</pdfrwt>
<pdfrwt beam="2">  1       -2 0.10585296E+00 0.95244498E+03</pdfrwt>
<totfact> 0.10241666E+01</totfact>
</mgrwt>
</event>
<event>
12    1  0.1432447E-007  0.1594955E+04  0.7818608E-02  0.8823654E-01
          1   -1    0    0  501    0  0.00000000000E+00  0.00000000000E+00  0.13578096246E+04  0.13578096246E+04  0.00000000000E+00 0. -1.
         -1   -1    0    0    0  501 -0.00000000000E+00 -0.00000000000E+00 -0.20466767601E+04  0.20466767601E+04  0.00000000000E+00 0.  1.
         23    2    1    2    0    0  0.15593897346E+04  0.44352634362E+02  0.80249501578E+02  0.15646140879E+04  0.88959321771E+02 0.  0.
    5000000    2    1    2    0    0 -0.15593897346E+04 -0.44352634362E+02 -0.76911663714E+03  0.18398722968E+04  0.59993846899E+03 0.  0.
         23    2    4    4    0    0 -0.90719620313E+03  0.20491490697E+03 -0.25775792017E+03  0.96951753371E+03  0.92358176008E+02 0.  0.
         23    2    4    4    0    0 -0.65219353145E+03 -0.24926754133E+03 -0.51135871696E+03  0.87035476311E+03  0.92406529142E+02 0.  0.
          3    1    3    3  502    0  0.51138945630E+03  0.18243435694E+00 -0.12929186822E+02  0.51155290359E+03  0.00000000000E+00 0. -1.
         -3    1    3    3    0  502  0.10480002783E+04  0.44170200005E+02  0.93178688401E+02  0.10530611843E+04  0.00000000000E+00 0.  1.
         11    1    5    5    0    0 -0.20651693788E+03  0.66870117667E+02 -0.95589338203E+02  0.23718806852E+03  0.00000000000E+00 0. -1.
        -11    1    5    5    0    0 -0.70067926525E+03  0.13804478930E+03 -0.16216858197E+03  0.73232946519E+03  0.00000000000E+00 0.  1.
          4    1    6    6  503    0 -0.48134465367E+03 -0.19102381345E+03 -0.32766915916E+03  0.61282122253E+03  0.00000000000E+00 0.  1.
         -4    1    6    6    0  503 -0.17084887778E+03 -0.58243727882E+02 -0.18368955781E+03  0.25753354058E+03  0.00000000000E+00 0. -1.
<mgrwt>
<rscale>  0 0.15949547E+04</rscale>
<asrwt>0</asrwt>
<pdfrwt beam="1">  1        1 0.20889379E+00 0.15949547E+04</pdfrwt>
<pdfrwt beam="2">  1       -1 0.31487334E+00 0.15949547E+04</pdfrwt>
<totfact> 0.20381010E-01</totfact>
</mgrwt>
</event>
<event>
12    1  0.1432447E-007  0.4362894E+03  0.7818608E-02  0.1031891E+00
         -1   -1    0    0    0  501 -0.00000000000E+00  0.00000000000E+00  0.84367961471E+03  0.84367961471E+03  0.00000000000E+00 0.  1.
          1   -1    0    0  501    0  0.00000000000E+00 -0.00000000000E+00 -0.46239444105E+03  0.46239444105E+03  0.00000000000E+00 0. -1.
         23    2    1    2    0    0  0.48911095099E+02  0.37111156861E+03  0.45508705244E+03  0.59511050158E+03  0.83283805223E+02 0.  0.
    5000000    2    1    2    0    0 -0.48911095099E+02 -0.37111156861E+03 -0.73801878775E+02  0.71096355417E+03  0.59992196698E+03 0.  0.
         23    2    4    4    0    0 -0.14717440699E+03 -0.33006279266E+03 -0.27687137075E+03  0.46410464409E+03  0.90186537560E+02 0.  0.
         23    2    4    4    0    0  0.98263311894E+02 -0.41048775953E+02  0.20306949197E+03  0.24685891008E+03  0.91440813884E+02 0.  0.
          2    1    3    3  502    0  0.14775942097E+01  0.15195590412E+03  0.24214978264E+03  0.28588336313E+03  0.00000000000E+00 0. -1.
         -2    1    3    3    0  502  0.47433500890E+02  0.21915566449E+03  0.21293726980E+03  0.30922713845E+03  0.00000000000E+00 0.  1.
         11    1    5    5    0    0 -0.93047315615E+02 -0.11362163357E+03 -0.13659185433E+03  0.20056174417E+03  0.00000000000E+00 0.  1.
        -11    1    5    5    0    0 -0.54127091378E+02 -0.21644115910E+03 -0.14027951642E+03  0.26354289992E+03  0.00000000000E+00 0. -1.
          2    1    6    6  503    0  0.19559094674E+02 -0.43481333180E+02  0.28992087884E+02  0.55800767732E+02  0.00000000000E+00 0. -1.
         -2    1    6    6    0  503  0.78704217220E+02  0.24325572272E+01  0.17407740409E+03  0.19105814235E+03  0.00000000000E+00 0.  1.
<mgrwt>
<rscale>  0 0.43628941E+03</rscale>
<asrwt>0</asrwt>
<pdfrwt beam="1">  1        1 0.71137606E-01 0.43628941E+03</pdfrwt>
<pdfrwt beam="2">  1       -1 0.12979686E+00 0.43628941E+03</pdfrwt>
<totfact> 0.26807694E+01</totfact>
</mgrwt>
</event>
<event>
12    1  0.1432447E-007  0.9776545E+03  0.7818608E-02  0.9333398E-01
         -2   -1    0    0    0  501 -0.00000000000E+00  0.00000000000E+00  0.17341985861E+04  0.17341985861E+04  0.00000000000E+00 0. -1.
          2   -1    0    0  501    0  0.00000000000E+00 -0.00000000000E+00 -0.71384245694E+03  0.71384245694E+03  0.00000000000E+00 0.  1.
         23    2    1    2    0    0 -0.93243891376E+03  0.21115769907E+03  0.54704549441E+02  0.96261881145E+03  0.98043289703E+02 0.  0.
    5000000    2    1    2    0    0  0.93243891376E+03 -0.21115769907E+03  0.96565157972E+03  0.14854222316E+04  0.59997194180E+03 0.  0.
         23    2    4    4    0    0  0.10856970562E+03 -0.73809110295E+02 -0.49701916502E+02  0.16750878055E+03  0.91398825578E+02 0.  0.
         23    2    4    4    0    0  0.82386920813E+03 -0.13734858878E+03  0.10153534962E+04  0.13179134510E+04  0.91258069281E+02 0.  0.
          4    1    3    3  502    0 -0.64682923884E+03  0.18618699025E+03  0.15674182308E+02  0.67327508460E+03  0.00000000000E+00 0. -1.
         -4    1    3    3    0  502 -0.28560967492E+03  0.24970708825E+02  0.39030367133E+02  0.28934372684E+03  0.00000000000E+00 0.  1.
         11    1    5    5    0    0 -0.25218678109E+00 -0.47788221212E+02 -0.10317477076E+02  0.48889958253E+02  0.00000000000E+00 0. -1.
        -11    1    5    5    0    0  0.10882189240E+03 -0.26020889082E+02 -0.39384439426E+02  0.11861882230E+03  0.00000000000E+00 0.  1.
          2    1    6    6  503    0  0.59391754060E+03 -0.84577709065E+02  0.66595283958E+03  0.89631725324E+03  0.00000000000E+00 0. -1.
         -2    1    6    6    0  503  0.22995166753E+03 -0.52770879714E+02  0.34940065664E+03  0.42159619781E+03  0.00000000000E+00 0.  1.
<mgrwt>
<rscale>  0 0.97765446E+03</rscale>
<asrwt>0</asrwt>
<pdfrwt beam="1">  1        2 0.10982192E+00 0.97765446E+03</pdfrwt>
<pdfrwt beam="2">  1       -2 0.26679978E+00 0.97765446E+03</pdfrwt>
<totfact> 0.20320761E+00</totfact>
</mgrwt>
</event>
<event>
12    1  0.1432447E-007  0.1528964E+04  0.7818608E-02  0.8865417E-01
          3   -1    0    0  501    0  0.00000000000E+00  0.00000000000E+00  0.30591132216E+04  0.30591132216E+04  0.00000000000E+00 0. -1.
         -3   -1    0    0    0  501 -0.00000000000E+00 -0.00000000000E+00 -0.10264694308E+04  0.10264694308E+04  0.00000000000E+00 0.  1.
         23    2    1    2    0    0  0.10634204624E+04 -0.10403458081E+04  0.19833353864E+04  0.24807696326E+04  0.86117562232E+02 0.  0.
    5000000    2    1    2    0    0 -0.10634204624E+04  0.10403458081E+04  0.49308404362E+02  0.16048130198E+04  0.59984250401E+03 0.  0.
         23    2    4    4    0    0 -0.55629345969E+03  0.86756473371E+03  0.16829203061E+03  0.10487985872E+04  0.97597584066E+02 0.  0.
         23    2    4    4    0    0 -0.50712700269E+03  0.17278107443E+03 -0.11898362624E+03  0.55601443268E+03  0.89240402820E+02 0.  0.
          1    1    3    3  502    0  0.21466346653E+03 -0.20449219782E+03  0.34026577971E+03  0.45130728298E+03  0.00000000000E+00 0. -1.
         -1    1    3    3    0  502  0.84875699585E+03 -0.83585361031E+03  0.16430696067E+04  0.20294623496E+04  0.00000000000E+00 0.  1.
         13    1    5    5    0    0 -0.11783043154E+03  0.16680765236E+03  0.72164470849E+02  0.21660220298E+03  0.00000000000E+00 0.  1.
        -13    1    5    5    0    0 -0.43846302815E+03  0.70075708134E+03  0.96127559757E+02  0.83219638418E+03  0.00000000000E+00 0. -1.
          2    1    6    6  503    0 -0.34638803697E+03  0.14819056319E+03 -0.52738403762E+02  0.38042930277E+03  0.00000000000E+00 0. -1.
         -2    1    6    6    0  503 -0.16073896572E+03  0.24590511240E+02 -0.66245222483E+02  0.17558512991E+03  0.00000000000E+00 0.  1.
<mgrwt>
<rscale>  0 0.15289639E+04</rscale>
<asrwt>0</asrwt>
<pdfrwt beam="1">  1        3 0.47063280E+00 0.15289639E+04</pdfrwt>
<pdfrwt beam="2">  1       -3 0.15791838E+00 0.15289639E+04</pdfrwt>
<totfact> 0.32445692E-03</totfact>
</mgrwt>
</event>
<event>
12    1  0.1432447E-007  0.6816312E+03  0.7818608E-02  0.9749171E-01
          1   -1    0    0  501    0  0.00000000000E+00  0.00000000000E+00  0.44510243899E+03  0.44510243899E+03  0.00000000000E+00 0. -1.
         -1   -1    0    0    0  501 -0.00000000000E+00 -0.00000000000E+00 -0.13739387132E+04  0.13739387132E+04  0.00000000000E+00 0.  1.
         23    2    1    2    0    0  0.53771277076E+03  0.38712348960E+03 -0.35803941830E+03  0.75852340239E+03  0.90365407480E+02 0.  0.
    5000000    2    1    2    0    0 -0.53771277076E+03 -0.38712348960E+03 -0.57079685592E+03  0.10605177498E+04  0.59990768198E+03 0.  0.
         23    2    4    4    0    0 -0.34531779556E+03 -0.14822236188E+03  0.21926051862E+02  0.38702532699E+03  0.89964456826E+02 0.  0.
         23    2    4    4    0    0 -0.19239497521E+03 -0.23890112772E+03 -0.59272290778E+03  0.67349242283E+03  0.90454534886E+02 0.  0.
          4    1    3    3  502    0  0.35436050470E+03  0.30509143371E+03 -0.24117549607E+03  0.52613474522E+03  0.00000000000E+00 0. -1.
         -4    1    3    3    0  502  0.18335226606E+03  0.82032055885E+02 -0.11686392223E+03  0.23238865717E+03  0.00000000000E+00 0.  1.
         13    1    5    5    0    0 -0.25189238861E+03 -0.14846127808E+03  0.25766104341E+02  0.29352072953E+03  0.00000000000E+00 0.  1.
        -13    1    5    5    0    0 -0.93425406941E+02  0.23891619858E+00 -0.38400524797E+01  0.93504597460E+02  0.00000000000E+00 0. -1.
          1    1    6    6  503    0 -0.50765831008E+02 -0.39122464198E+02 -0.20612273850E+03  0.21585717531E+03  0.00000000000E+00 0. -1.
         -1    1    6    6    0  503 -0.14162914420E+03 -0.19977866352E+03 -0.38660016928E+03  0.45763524752E+03  0.00000000000E+00 0.  1.
<mgrwt>
<rscale>  0 0.68163117E+03</rscale>
<asrwt>0</asrwt>
<pdfrwt beam="1">  1        1 0.68477298E-01 0.68163117E+03</pdfrwt>
<pdfrwt beam="2">  1       -1 0.21137519E+00 0.68163117E+03</pdfrwt>
<totfact> 0.68309843E+00</totfact>
</mgrwt>
</event>
<event>
12    1  0.1432447E-007  0.4637497E+03  0.7818608E-02  0.1023699E+00
          1   -1    0    0  501    0  0.00000000000E+00  0.00000000000E+00  0.15885700814E+04  0.15885700814E+04  0.00000000000E+00 0. -1.
         -1   -1    0    0    0  501 -0.00000000000E+00 -0.00000000000E+00 -0.28710340336E+03  0.28710340336E+03  0.00000000000E+00 0.  1.
         23    2    1    2    0    0 -0.36747987665E+03  0.14839265761E+03  0.10298897055E+04  0.11070417361E+04  0.88355868464E+02 0.  0.
    5000000    2    1    2    0    0  0.36747987665E+03 -0.14839265761E+03  0.27157697255E+03  0.76863174863E+03  0.59998239341E+03 0.  0.
         23    2    4    4    0    0  0.64235821443E+02  0.89149310579E+02  0.33835351431E+03  0.36738275860E+03  0.91723226844E+02 0.  0.
         23    2    4    4    0    0  0.30324405521E+03 -0.23754196819E+03 -0.66776541753E+02  0.40124899002E+03  0.90324425248E+02 0.  0.
          3    1    3    3  502    0 -0.11605324992E+03  0.13996800375E+02  0.37477405815E+03  0.39258102590E+03  0.00000000000E+00 0. -1.
         -3    1    3    3    0  502 -0.25142662673E+03  0.13439585724E+03  0.65511564730E+03  0.71446071020E+03  0.00000000000E+00 0.  1.
         13    1    5    5    0    0  0.59540827674E+02  0.23302638170E+02  0.89962332778E+02  0.11036912804E+03  0.00000000000E+00 0.  1.
        -13    1    5    5    0    0  0.46949937694E+01  0.65846672409E+02  0.24839118153E+03  0.25701363056E+03  0.00000000000E+00 0. -1.
          4    1    6    6  503    0  0.20202022949E+02 -0.55421441261E+02 -0.68718782555E+01  0.59387545777E+02  0.00000000000E+00 0. -1.
         -4    1    6    6    0  503  0.28304203226E+03 -0.18212052693E+03 -0.59904663498E+02  0.34186144425E+03  0.00000000000E+00 0.  1.
<mgrwt>
<rscale>  0 0.46374968E+03</rscale>
<asrwt>0</asrwt>
<pdfrwt beam="1">  1        1 0.24439539E+00 0.46374968E+03</pdfrwt>
<pdfrwt beam="2">  1       -1 0.44169755E-01 0.46374968E+03</pdfrwt>
<totfact> 0.31129687E+01</totfact>
</mgrwt>
</event>
<event>
12    1  0.1432447E-007  0.2069403E+04  0.7818608E-02  0.8574843E-01
         -1   -1    0    0    0  501 -0.00000000000E+00  0.00000000000E+00  0.21211410767E+04  0.21211410767E+04  0.00000000000E+00 0.  1.
          1   -1    0    0  501    0  0.00000000000E+00 -0.00000000000E+00 -0.20657002245E+04  0.20657002245E+04  0.00000000000E+00 0. -1.
         23    2    1    2    0    0 -0.15180144742E+04 -0.13749907403E+04 -0.42796453071E+02  0.20503371369E+04  0.84162691234E+02 0.  0.
    5000000    2    1    2    0    0  0.15180144742E+04  0.13749907403E+04  0.98237305214E+02  0.21365041643E+04  0.60002666275E+03 0.  0.
         23    2    4    4    0    0  0.31241419184E+03  0.10339751814E+03  0.16611898559E+03  0.38056592004E+03  0.94558067362E+02 0.  0.
         23    2    4    4    0    0  0.12056002824E+04  0.12715932222E+04 -0.67881680371E+02  0.17559382443E+04  0.91048512061E+02 0.  0.
          3    1    3    3  502    0 -0.10880660879E+04 -0.10342684188E+04 -0.22171027195E+02  0.15013628902E+04  0.00000000000E+00 0. -1.
         -3    1    3    3    0  502 -0.42994838636E+03 -0.34072232155E+03 -0.20625425876E+02  0.54897424669E+03  0.00000000000E+00 0.  1.
         11    1    5    5    0    0  0.18944047301E+03  0.30914119665E+02  0.13444648154E+03  0.23434852678E+03  0.00000000000E+00 0.  1.
        -11    1    5    5    0    0  0.12297371883E+03  0.72483398476E+02  0.31672504049E+02  0.14621739325E+03  0.00000000000E+00 0. -1.
          1    1    6    6  503    0  0.82502068752E+03  0.81156653529E+03 -0.29457555608E+02  0.11576558744E+04  0.00000000000E+00 0. -1.
         -1    1    6    6    0  503  0.38057959489E+03  0.46002668690E+03 -0.38424124764E+02  0.59828236985E+03  0.00000000000E+00 0.  1.
<mgrwt>
<rscale>  0 0.20694031E+04</rscale>
<asrwt>0</asrwt>
<pdfrwt beam="1">  1        1 0.31780003E+00 0.20694031E+04</pdfrwt>
<pdfrwt beam="2">  1       -1 0.32632940E+00 0.20694031E+04</pdfrwt>
<totfact> 0.52897769E-02</totfact>
</mgrwt>
</event>
<event>
12    1  0.1432447E-007  0.5643731E+03  0.7818608E-02  0.9982208E-01
          1   -1    0    0  501    0  0.00000000000E+00  0.00000000000E+00  0.11325705541E+04  0.11325705541E+04  0.00000000000E+00 0. -1.
         -1   -1    0    0    0  501 -0.00000000000E+00 -0.00000000000E+00 -0.44853724255E+03  0.44853724255E+03  0.00000000000E+00 0.  1.
         23    2    1    2    0    0 -0.44643531142E+03 -0.31155181511E+03  0.51215724031E+03  0.75289087520E+03  0.90391428660E+02 0.  0.
    5000000    2    1    2    0    0  0.44643531142E+03  0.31155181511E+03  0.17187607129E+03  0.82821692149E+03  0.60002738636E+03 0.  0.
         23    2    4    4    0    0  0.86467143447E+02  0.10816923412E+01  0.30176551656E+03  0.32710127180E+03  0.91951498484E+02 0.  0.
         23    2    4    4    0    0  0.35996816797E+03  0.31047012277E+03 -0.12988944527E+03  0.50111564969E+03  0.90977180028E+02 0.  0.
          1    1    3    3  502    0 -0.30760855787E+03 -0.17567280876E+03  0.36953896198E+03  0.51190136260E+03  0.00000000000E+00 0. -1.
         -1    1    3    3    0  502 -0.13882675354E+03 -0.13587900635E+03  0.14261827833E+03  0.24098951259E+03  0.00000000000E+00 0.  1.
         13    1    5    5    0    0  0.80722699799E+02  0.21612869643E+02  0.13354971224E+03  0.15753982365E+03  0.00000000000E+00 0. -1.
        -13    1    5    5    0    0  0.57444436480E+01 -0.20531177302E+02  0.16821580432E+03  0.16956144815E+03  0.00000000000E+00 0.  1.
          2    1    6    6  503    0  0.48382403489E+02  0.40826376318E+02  0.13667972849E+02  0.64764677506E+02  0.00000000000E+00 0. -1.
         -2    1    6    6    0  503  0.31158576448E+03  0.26964374645E+03 -0.14355741812E+03  0.43635097218E+03  0.00000000000E+00 0.  1.
<mgrwt>
<rscale>  0 0.56437313E+03</rscale>
<asrwt>0</asrwt>
<pdfrwt beam="1">  1        1 0.17424162E+00 0.56437313E+03</pdfrwt>
<pdfrwt beam="2">  1       -1 0.69005730E-01 0.56437313E+03</pdfrwt>
<totfact> 0.26870701E+01</totfact>
</mgrwt>
</event>
<event>
12    1  0.1432447E-007  0.5042896E+03  0.7818608E-02  0.1012665E+00
         -2   -1    0    0    0  501 -0.00000000000E+00  0.00000000000E+00  0.12267451463E+03  0.12267451463E+03  0.00000000000E+00 0.  1.
          2   -1    0    0  501    0  0.00000000000E+00 -0.00000000000E+00 -0.42105715780E+04  0.42105715780E+04  0.00000000000E+00 0. -1.
         23    2    1    2    0    0  0.15820137680E+03  0.45701147362E+03 -0.68003102289E+03  0.83930601003E+03  0.90029016064E+02 0.  0.
    5000000    2    1    2    0    0 -0.15820137680E+03 -0.45701147362E+03 -0.34078660405E+04  0.34939400826E+04  0.60014930501E+03 0.  0.
         23    2    4    4    0    0 -0.12855794224E+03 -0.22944973188E+03 -0.47418769113E+03  0.54993289980E+03  0.91640077927E+02 0.  0.
         23    2    4    4    0    0 -0.29643434561E+02 -0.22756174174E+03 -0.29336783493E+04  0.29440071828E+04  0.89702594514E+02 0.  0.
          1    1    3    3  502    0  0.12186608885E+03  0.22009182866E+03 -0.32651452487E+03  0.41219351233E+03  0.00000000000E+00 0. -1.
         -1    1    3    3    0  502  0.36335287952E+02  0.23691964496E+03 -0.35351649802E+03  0.42711249770E+03  0.00000000000E+00 0.  1.
         13    1    5    5    0    0 -0.46992944405E+02 -0.15434962243E+03 -0.22189774054E+03  0.27435515309E+03  0.00000000000E+00 0.  1.
        -13    1    5    5    0    0 -0.81564997836E+02 -0.75100109450E+02 -0.25228995059E+03  0.27557774671E+03  0.00000000000E+00 0. -1.
          3    1    6    6  503    0 -0.44411873230E+02 -0.22590790272E+03 -0.28155966248E+04  0.28249940086E+04  0.00000000000E+00 0. -1.
         -3    1    6    6    0  503  0.14768438670E+02 -0.16538390205E+01 -0.11808172455E+03  0.11901317421E+03  0.00000000000E+00 0.  1.
<mgrwt>
<rscale>  0 0.50428955E+03</rscale>
<asrwt>0</asrwt>
<pdfrwt beam="1">  1        2 0.64778034E+00 0.50428955E+03</pdfrwt>
<pdfrwt beam="2">  1       -2 0.18872999E-01 0.50428955E+03</pdfrwt>
<totfact> 0.63976490E+00</totfact>
</mgrwt>
</event>
<event>
12    1  0.1432447E-007  0.8779837E+03  0.7818608E-02  0.9453529E-01
          2   -1    0    0  501    0  0.00000000000E+00  0.00000000000E+00  0.15423550411E+04  0.15423550411E+04  0.00000000000E+00 0.  1.
         -2   -1    0    0    0  501 -0.00000000000E+00 -0.00000000000E+00 -0.65605506347E+03  0.65605506347E+03  0.00000000000E+00 0. -1.
         23    2    1    2    0    0 -0.85269115320E+03  0.92714715652E+02  0.74959649912E+03  0.11427243280E+04  0.90806150819E+02 0.  0.
    5000000    2    1    2    0    0  0.85269115320E+03 -0.92714715652E+02  0.13670347850E+03  0.10556857766E+04  0.60008865727E+03 0.  0.
         23    2    4    4    0    0  0.39007961257E+03 -0.12926100935E+03 -0.20897653018E+03  0.46982810145E+03  0.90535860679E+02 0.  0.
         23    2    4    4    0    0  0.46261154064E+03  0.36546293699E+02  0.34568000869E+03  0.58585767512E+03  0.91594093608E+02 0.  0.
          3    1    3    3  502    0 -0.46032394239E+03  0.95160972597E+02  0.40088557606E+03  0.61778878893E+03  0.00000000000E+00 0. -1.
         -3    1    3    3    0  502 -0.39236721082E+03 -0.24462569457E+01  0.34871092306E+03  0.52493553905E+03  0.00000000000E+00 0.  1.
         11    1    5    5    0    0  0.20370331609E+03 -0.11467874669E+03 -0.11149416327E+03  0.25899267242E+03  0.00000000000E+00 0. -1.
        -11    1    5    5    0    0  0.18637629648E+03 -0.14582262661E+02 -0.97482366919E+02  0.21083542903E+03  0.00000000000E+00 0.  1.
          4    1    6    6  503    0  0.33466752932E+03 -0.14720158401E+02  0.25223761461E+03  0.41933620458E+03  0.00000000000E+00 0. -1.
         -4    1    6    6    0  503  0.12794401132E+03  0.51266452101E+02  0.93442394072E+02  0.16652147055E+03  0.00000000000E+00 0.  1.
<mgrwt>
<rscale>  0 0.87798366E+03</rscale>
<asrwt>0</asrwt>
<pdfrwt beam="1">  1        2 0.23728539E+00 0.87798366E+03</pdfrwt>
<pdfrwt beam="2">  1       -2 0.10093155E+00 0.87798366E+03</pdfrwt>
<totfact> 0.97948436E+00</totfact>
</mgrwt>
</event>
<event>
12    1  0.1432447E-007  0.9802900E+03  0.7818608E-02  0.9330430E-01
          1   -1    0    0  501    0  0.00000000000E+00  0.00000000000E+00  0.20485689438E+04  0.20485689438E+04  0.00000000000E+00 0. -1.
         -1   -1    0    0    0  501 -0.00000000000E+00 -0.00000000000E+00 -0.65441614301E+03  0.65441614301E+03  0.00000000000E+00 0.  1.
         23    2    1    2    0    0 -0.44744178075E+03  0.78738526943E+03 -0.31424012011E+02  0.91062106083E+03  0.89797206028E+02 0.  0.
    5000000    2    1    2    0    0  0.44744178075E+03 -0.78738526943E+03  0.14255768128E+04  0.17923640260E+04  0.60009986065E+03 0.  0.
         23    2    4    4    0    0  0.46985315392E+03 -0.29738159959E+03  0.56469824061E+03  0.79737614827E+03  0.87902314298E+02 0.  0.
         23    2    4    4    0    0 -0.22411373165E+02 -0.49000366984E+03  0.86087857219E+03  0.99498787771E+03  0.91011508232E+02 0.  0.
          2    1    3    3  502    0 -0.11868702283E+03  0.28367890105E+03  0.10286578318E+02  0.30767863427E+03  0.00000000000E+00 0. -1.
         -2    1    3    3    0  502 -0.32875475792E+03  0.50370636838E+03 -0.41710590330E+02  0.60294242656E+03  0.00000000000E+00 0.  1.
         13    1    5    5    0    0  0.70958470193E+02 -0.37540863292E+02  0.12954194275E+03  0.15239926457E+03  0.00000000000E+00 0. -1.
        -13    1    5    5    0    0  0.39889468372E+03 -0.25984073629E+03  0.43515629786E+03  0.64497688370E+03  0.00000000000E+00 0.  1.
          4    1    6    6  503    0 -0.73806148576E+01 -0.47076581652E+03  0.83960234566E+03  0.96260429373E+03  0.00000000000E+00 0. -1.
         -4    1    6    6    0  503 -0.15030758307E+02 -0.19237853325E+02  0.21276226527E+02  0.32383583975E+02  0.00000000000E+00 0.  1.
<mgrwt>
<rscale>  0 0.98029001E+03</rscale>
<asrwt>0</asrwt>
<pdfrwt beam="1">  1        1 0.31516445E+00 0.98029001E+03</pdfrwt>
<pdfrwt beam="2">  1       -1 0.10067941E+00 0.98029001E+03</pdfrwt>
<totfact> 0.26298819E+00</totfact>
</mgrwt>
</event>
<event>
12    1  0.1432447E-007  0.5517448E+03  0.7818608E-02  0.1001091E+00
          2   -1    0    0  501    0  0.00000000000E+00  0.00000000000E+00  0.20477542526E+04  0.20477542526E+04  0.00000000000E+00 0. -1.
         -2   -1    0    0    0  501 -0.00000000000E+00 -0.00000000000E+00 -0.29027587803E+03  0.29027587803E+03  0.00000000000E+00 0.  1.
         23    2    1    2    0    0 -0.42380667943E+03 -0.13081620033E+02  0.38757728221E+00  0.43348301203E+03  0.90134017944E+02 0.  0.
    5000000    2    1    2    0    0  0.42380667943E+03  0.13081620033E+02  0.17570907973E+04  0.19045471186E+04  0.60012367620E+03 0.  0.
         23    2    4    4    0    0  0.40525535153E+03  0.22601726537E+03  0.90272821279E+03  0.10191904169E+04  0.92277708780E+02 0.  0.
         23    2    4    4    0    0  0.18551327899E+02 -0.21293564534E+03  0.85436258446E+03  0.88535670167E+03  0.90748678461E+02 0.  0.
          4    1    3    3  502    0 -0.20127460230E+03 -0.40203161696E+01 -0.44774257086E+02  0.20623375711E+03  0.00000000000E+00 0. -1.
         -4    1    3    3    0  502 -0.22253207713E+03 -0.90613038637E+01  0.45161834368E+02  0.22724925492E+03  0.00000000000E+00 0.  1.
         13    1    5    5    0    0  0.12758466957E+03  0.60815398713E+02  0.19146917816E+03  0.23798488779E+03  0.00000000000E+00 0.  1.
        -13    1    5    5    0    0  0.27767068196E+03  0.16520186666E+03  0.71125903463E+03  0.78120552911E+03  0.00000000000E+00 0. -1.
          1    1    6    6  503    0 -0.14546940288E+01 -0.11763977332E+03  0.29522013216E+03  0.31779892831E+03  0.00000000000E+00 0. -1.
         -1    1    6    6    0  503  0.20006021928E+02 -0.95295872013E+02  0.55914245230E+03  0.56755777336E+03  0.00000000000E+00 0.  1.
<mgrwt>
<rscale>  0 0.55174476E+03</rscale>
<asrwt>0</asrwt>
<pdfrwt beam="1">  1        2 0.31503911E+00 0.55174476E+03</pdfrwt>
<pdfrwt beam="2">  1       -2 0.44657829E-01 0.55174476E+03</pdfrwt>
<totfact> 0.31832808E+01</totfact>
</mgrwt>
</event>
<event>
12    1  0.1432447E-007  0.4943862E+03  0.7818608E-02  0.1015255E+00
         -1   -1    0    0    0  501 -0.00000000000E+00  0.00000000000E+00  0.12475026932E+04  0.12475026932E+04  0.00000000000E+00 0. -1.
          1   -1    0    0  501    0  0.00000000000E+00 -0.00000000000E+00 -0.22465057263E+03  0.22465057263E+03  0.00000000000E+00 0.  1.
         23    2    1    2    0    0  0.32710337519E+03  0.12967626438E+03  0.34688967015E+03  0.50235707017E+03  0.90651150511E+02 0.  0.
    5000000    2    1    2    0    0 -0.32710337519E+03 -0.12967626438E+03  0.67596245046E+03  0.96979619571E+03  0.59980569785E+03 0.  0.
         23    2    4    4    0    0 -0.31621463576E+03  0.13761704616E+03  0.56142600384E+03  0.66543256193E+03  0.93119221548E+02 0.  0.
         23    2    4    4    0    0 -0.10888739426E+02 -0.26729331054E+03  0.11453644662E+03  0.30436363378E+03  0.89187137279E+02 0.  0.
          1    1    3    3  502    0  0.12186356623E+03  0.71992104154E+02  0.19339633639E+03  0.23965753643E+03  0.00000000000E+00 0. -1.
         -1    1    3    3    0  502  0.20523980896E+03  0.57684160226E+02  0.15349333376E+03  0.26269953374E+03  0.00000000000E+00 0.  1.
         13    1    5    5    0    0 -0.13050754074E+03  0.81686736386E+01  0.19885617545E+03  0.23799731917E+03  0.00000000000E+00 0.  1.
        -13    1    5    5    0    0 -0.18570709503E+03  0.12944837252E+03  0.36256982840E+03  0.42743524276E+03  0.00000000000E+00 0. -1.
          1    1    6    6  503    0  0.27950173784E+02 -0.62538510286E+02  0.43896894370E+01  0.68640708451E+02  0.00000000000E+00 0. -1.
         -1    1    6    6    0  503 -0.38838913209E+02 -0.20475480026E+03  0.11014675718E+03  0.23572292533E+03  0.00000000000E+00 0.  1.
<mgrwt>
<rscale>  0 0.49438623E+03</rscale>
<asrwt>0</asrwt>
<pdfrwt beam="1">  1        1 0.34561627E-01 0.49438623E+03</pdfrwt>
<pdfrwt beam="2">  1       -1 0.19192349E+00 0.49438623E+03</pdfrwt>
<totfact> 0.23143090E+01</totfact>
</mgrwt>
</event>
<event>
12    1  0.1432447E-007  0.7890361E+03  0.7818608E-02  0.9576024E-01
          2   -1    0    0  501    0  0.00000000000E+00  0.00000000000E+00  0.12730265148E+04  0.12730265148E+04  0.00000000000E+00 0. -1.
         -2   -1    0    0    0  501 -0.00000000000E+00 -0.00000000000E+00 -0.83735443151E+03  0.83735443151E+03  0.00000000000E+00 0.  1.
         23    2    1    2    0    0  0.47248179525E+03 -0.50917431701E+03 -0.45188451560E+03  0.83360452938E+03  0.90550339685E+02 0.  0.
    5000000    2    1    2    0    0 -0.47248179525E+03  0.50917431701E+03  0.88755659894E+03  0.12767764170E+04  0.59991980356E+03 0.  0.
         23    2    4    4    0    0 -0.50586612177E+03  0.17219158061E+03  0.38264836931E+03  0.66343613798E+03  0.90428209386E+02 0.  0.
         23    2    4    4    0    0  0.33384326523E+02  0.33698273639E+03  0.50490822963E+03  0.61334027901E+03  0.81130140003E+02 0.  0.
          1    1    3    3  502    0  0.30852387319E+03 -0.37984630009E+03 -0.28509954236E+03  0.56634966326E+03  0.00000000000E+00 0. -1.
         -1    1    3    3    0  502  0.16395792206E+03 -0.12932801692E+03 -0.16678497323E+03  0.26725486612E+03  0.00000000000E+00 0.  1.
         13    1    5    5    0    0 -0.29475998361E+03  0.55558503332E+02  0.23032065833E+03  0.37817694388E+03  0.00000000000E+00 0. -1.
        -13    1    5    5    0    0 -0.21110613816E+03  0.11663307728E+03  0.15232771098E+03  0.28525919410E+03  0.00000000000E+00 0.  1.
          4    1    6    6  503    0  0.48161235642E+01  0.89801294852E+02  0.77215907998E+02  0.11853170062E+03  0.00000000000E+00 0. -1.
         -4    1    6    6    0  503  0.28568202959E+02  0.24718144154E+03  0.42769232163E+03  0.49480857839E+03  0.00000000000E+00 0.  1.
<mgrwt>
<rscale>  0 0.78903612E+03</rscale>
<asrwt>0</asrwt>
<pdfrwt beam="1">  1        2 0.19585023E+00 0.78903612E+03</pdfrwt>
<pdfrwt beam="2">  1       -2 0.12882376E+00 0.78903612E+03</pdfrwt>
<totfact> 0.77418250E+00</totfact>
</mgrwt>
</event>
<event>
12    1  0.1432447E-007  0.2076092E+04  0.7818608E-02  0.8571849E-01
          2   -1    0    0  501    0  0.00000000000E+00  0.00000000000E+00  0.35043391856E+04  0.35043391856E+04  0.00000000000E+00 0. -1.
         -2   -1    0    0    0  501 -0.00000000000E+00 -0.00000000000E+00 -0.17235974075E+04  0.17235974075E+04  0.00000000000E+00 0.  1.
         23    2    1    2    0    0  0.17436552325E+04 -0.10714200455E+04 -0.49681978841E+03  0.21078881577E+04  0.89933863041E+02 0.  0.
    5000000    2    1    2    0    0 -0.17436552325E+04  0.10714200455E+04  0.22775615665E+04  0.31200484353E+04  0.59928379445E+03 0.  0.
         23    2    4    4    0    0 -0.30645317619E+03  0.72893938137E-01  0.50207438385E+03  0.59531994043E+03  0.91725623686E+02 0.  0.
         23    2    4    4    0    0 -0.14372020563E+04  0.10713471515E+04  0.17754871826E+04  0.25247284949E+04  0.92546030372E+02 0.  0.
          1    1    3    3  502    0  0.32007769892E+03 -0.23845861478E+03 -0.96340082726E+02  0.41060157799E+03  0.00000000000E+00 0. -1.
         -1    1    3    3    0  502  0.14235775336E+04 -0.83296143069E+03 -0.40047970569E+03  0.16972865797E+04  0.00000000000E+00 0.  1.
         13    1    5    5    0    0 -0.27876040203E+03  0.15837695346E+02  0.48379476835E+03  0.55858354094E+03  0.00000000000E+00 0.  1.
        -13    1    5    5    0    0 -0.27692774159E+02 -0.15764801408E+02  0.18279615507E+02  0.36736399485E+02  0.00000000000E+00 0. -1.
          4    1    6    6  503    0 -0.41128263459E+03  0.31238658299E+03  0.45391767216E+03  0.68759002017E+03  0.00000000000E+00 0. -1.
         -4    1    6    6    0  503 -0.10259194217E+04  0.75896056854E+03  0.13215695105E+04  0.18371384747E+04  0.00000000000E+00 0.  1.
<mgrwt>
<rscale>  0 0.20760924E+04</rscale>
<asrwt>0</asrwt>
<pdfrwt beam="1">  1        2 0.53912910E+00 0.20760924E+04</pdfrwt>
<pdfrwt beam="2">  1       -2 0.26516883E+00 0.20760924E+04</pdfrwt>
<totfact> 0.36844980E-02</totfact>
</mgrwt>
</event>
<event>
12    1  0.1432447E-007  0.7858161E+03  0.7818608E-02  0.9580778E-01
         -2   -1    0    0    0  501 -0.00000000000E+00  0.00000000000E+00  0.27318988425E+04  0.27318988425E+04  0.00000000000E+00 0.  1.
          2   -1    0    0  501    0  0.00000000000E+00 -0.00000000000E+00 -0.26016051563E+03  0.26016051563E+03  0.00000000000E+00 0. -1.
         23    2    1    2    0    0  0.13010523985E+02 -0.68150400115E+03  0.60395273350E+03  0.91521317004E+03  0.90770397079E+02 0.  0.
    5000000    2    1    2    0    0 -0.13010523985E+02  0.68150400115E+03  0.18677855934E+04  0.20768461881E+04  0.60004173926E+03 0.  0.
         23    2    4    4    0    0 -0.26960478624E+03  0.18576516664E+03  0.62298038997E+03  0.70975582882E+03  0.91942005442E+02 0.  0.
         23    2    4    4    0    0  0.25659426225E+03  0.49573883452E+03  0.12448052035E+04  0.13670903593E+04  0.88308824659E+02 0.  0.
          2    1    3    3  502    0 -0.13720828549E+02 -0.25433674247E+03  0.27938474819E+03  0.37806253084E+03  0.00000000000E+00 0. -1.
         -2    1    3    3    0  502  0.26731352534E+02 -0.42716725868E+03  0.32456798531E+03  0.53715063920E+03  0.00000000000E+00 0.  1.
         13    1    5    5    0    0 -0.21290173264E+03  0.16259034058E+03  0.42378639174E+03  0.50135583415E+03  0.00000000000E+00 0. -1.
        -13    1    5    5    0    0 -0.56703053598E+02  0.23174826056E+02  0.19919399822E+03  0.20839999467E+03  0.00000000000E+00 0.  1.
          1    1    6    6  503    0  0.19657858317E+03  0.33796151037E+03  0.77831110372E+03  0.87099328127E+03  0.00000000000E+00 0. -1.
         -1    1    6    6    0  503  0.60015679077E+02  0.15777732414E+03  0.46649409973E+03  0.49609707804E+03  0.00000000000E+00 0.  1.
<mgrwt>
<rscale>  0 0.78581606E+03</rscale>
<asrwt>0</asrwt>
<pdfrwt beam="1">  1        2 0.40024697E-01 0.78581606E+03</pdfrwt>
<pdfrwt beam="2">  1       -2 0.42029211E+00 0.78581606E+03</pdfrwt>
<totfact> 0.74270104E-01</totfact>
</mgrwt>
</event>
<event>
12    1  0.1432447E-007  0.6832267E+03  0.7818608E-02  0.9746355E-01
          1   -1    0    0  501    0  0.00000000000E+00  0.00000000000E+00  0.15906780911E+04  0.15906780911E+04  0.00000000000E+00 0. -1.
         -1   -1    0    0    0  501 -0.00000000000E+00 -0.00000000000E+00 -0.44609305502E+03  0.44609305502E+03  0.00000000000E+00 0.  1.
         23    2    1    2    0    0  0.15390376775E+03 -0.64422628614E+03  0.87926429076E+03  0.11044825936E+04  0.89789915964E+02 0.  0.
    5000000    2    1    2    0    0 -0.15390376775E+03  0.64422628614E+03  0.26532074536E+03  0.93228855260E+03  0.60004413996E+03 0.  0.
         23    2    4    4    0    0 -0.16089682324E+03  0.23913171739E+03 -0.15774795047E+03  0.34015260866E+03  0.88020539141E+02 0.  0.
         23    2    4    4    0    0  0.69930554852E+01  0.40509456874E+03  0.42306869583E+03  0.59213594393E+03  0.86529429975E+02 0.  0.
          2    1    3    3  502    0  0.42871492970E+02 -0.25613599434E+03  0.27947555654E+03  0.38151041822E+03  0.00000000000E+00 0. -1.
         -2    1    3    3    0  502  0.11103227478E+03 -0.38809029180E+03  0.59978873422E+03  0.72297217535E+03  0.00000000000E+00 0.  1.
         13    1    5    5    0    0 -0.11823028407E+03  0.15593818907E+03 -0.59522566410E+02  0.20454352787E+03  0.00000000000E+00 0. -1.
        -13    1    5    5    0    0 -0.42666539165E+02  0.83193528329E+02 -0.98225384060E+02  0.13560908079E+03  0.00000000000E+00 0.  1.
          1    1    6    6  503    0 -0.32572654608E+02  0.79476655361E+02  0.98401329417E+02  0.13061522961E+03  0.00000000000E+00 0. -1.
         -1    1    6    6    0  503  0.39565710093E+02  0.32561791338E+03  0.32466736642E+03  0.46152071432E+03  0.00000000000E+00 0.  1.
<mgrwt>
<rscale>  0 0.68322670E+03</rscale>
<asrwt>0</asrwt>
<pdfrwt beam="1">  1        1 0.24471970E+00 0.68322670E+03</pdfrwt>
<pdfrwt beam="2">  1       -1 0.68629702E-01 0.68322670E+03</pdfrwt>
<totfact> 0.12765309E+01</totfact>
</mgrwt>
</event>
<event>
12    1  0.1432447E-007  0.8974055E+03  0.7818608E-02  0.9428830E-01
          2   -1    0    0  501    0  0.00000000000E+00  0.00000000000E+00  0.25996086892E+04  0.25996086892E+04  0.00000000000E+00 0. -1.
         -2   -1    0    0    0  501 -0.00000000000E+00 -0.00000000000E+00 -0.38797273857E+03  0.38797273857E+03  0.00000000000E+00 0.  1.
         23    2    1    2    0    0  0.48243563889E+02  0.87632597370E+03  0.63900582703E+03  0.10893196284E+04  0.89521797645E+02 0.  0.
    5000000    2    1    2    0    0 -0.48243563889E+02 -0.87632597370E+03  0.15726301236E+04  0.18982617994E+04  0.59996474860E+03 0.  0.
         23    2    4    4    0    0  0.82445786518E+02 -0.58584425231E+03  0.51523558918E+03  0.78983936469E+03  0.91475209632E+02 0.  0.
         23    2    4    4    0    0 -0.13068935041E+03 -0.29048172139E+03  0.10573945344E+04  0.11084224347E+04  0.95172241005E+02 0.  0.
          4    1    3    3  502    0  0.36461634805E+02  0.52122784275E+03  0.43317229837E+03  0.67870918289E+03  0.00000000000E+00 0. -1.
         -4    1    3    3    0  502  0.11781929085E+02  0.35509813095E+03  0.20583352866E+03  0.41061044553E+03  0.00000000000E+00 0.  1.
         13    1    5    5    0    0  0.97558928461E+02 -0.40005784680E+03  0.34010451186E+03  0.53407406256E+03  0.00000000000E+00 0.  1.
        -13    1    5    5    0    0 -0.15113141944E+02 -0.18578640551E+03  0.17513107733E+03  0.25576530213E+03  0.00000000000E+00 0. -1.
          2    1    6    6  503    0 -0.11351908755E+02 -0.16913906433E+02  0.18542493347E+02  0.27545782304E+02  0.00000000000E+00 0. -1.
         -2    1    6    6    0  503 -0.11933744165E+03 -0.27356781496E+03  0.10388520411E+04  0.10808766524E+04  0.00000000000E+00 0.  1.
<mgrwt>
<rscale>  0 0.89740550E+03</rscale>
<asrwt>0</asrwt>
<pdfrwt beam="1">  1        2 0.39993979E+00 0.89740550E+03</pdfrwt>
<pdfrwt beam="2">  1       -2 0.59688115E-01 0.89740550E+03</pdfrwt>
<totfact> 0.81954450E+00</totfact>
</mgrwt>
</event>
<event>
12    1  0.1432447E-007  0.5715059E+03  0.7818608E-02  0.9966352E-01
          2   -1    0    0  501    0  0.00000000000E+00  0.00000000000E+00  0.36330554874E+04  0.36330554874E+04  0.00000000000E+00 0.  1.
         -2   -1    0    0    0  501 -0.00000000000E+00 -0.00000000000E+00 -0.10158889200E+03  0.10158889200E+03  0.00000000000E+00 0. -1.
         23    2    1    2    0    0  0.40788394680E+03  0.19359192868E+03  0.14715920403E+04  0.15421453967E+04  0.93713085203E+02 0.  0.
    5000000    2    1    2    0    0 -0.40788394680E+03 -0.19359192868E+03  0.20598745551E+04  0.21924989827E+04  0.60010120634E+03 0.  0.
         23    2    4    4    0    0 -0.37619787856E+03 -0.34319015754E+03  0.18293708221E+04  0.19012511364E+04  0.94095434006E+02 0.  0.
         23    2    4    4    0    0 -0.31686068238E+02  0.14959822886E+03  0.23050373293E+03  0.29124784636E+03  0.91157556533E+02 0.  0.
          2    1    3    3  502    0  0.20153301135E+03  0.11240257353E+03  0.89818302479E+03  0.92735248920E+03  0.00000000000E+00 0. -1.
         -2    1    3    3    0  502  0.20635093545E+03  0.81189355151E+02  0.57340901555E+03  0.61479290746E+03  0.00000000000E+00 0.  1.
         13    1    5    5    0    0 -0.19214071158E+03 -0.12173454027E+03  0.89956341862E+03  0.92787482747E+03  0.00000000000E+00 0. -1.
        -13    1    5    5    0    0 -0.18405716698E+03 -0.22145561727E+03  0.92980740350E+03  0.97337630891E+03  0.00000000000E+00 0.  1.
          3    1    6    6  503    0 -0.45734363609E+02  0.30064383007E+02  0.97961985790E+02  0.11221430301E+03  0.00000000000E+00 0. -1.
         -3    1    6    6    0  503  0.14048295370E+02  0.11953384586E+03  0.13254174714E+03  0.17903354335E+03  0.00000000000E+00 0.  1.
<mgrwt>
<rscale>  0 0.57150589E+03</rscale>
<asrwt>0</asrwt>
<pdfrwt beam="1">  1        2 0.55893151E+00 0.57150589E+03</pdfrwt>
<pdfrwt beam="2">  1       -2 0.15629063E-01 0.57150589E+03</pdfrwt>
<totfact> 0.23955253E+01</totfact>
</mgrwt>
</event>
<event>
12    1  0.1432447E-007  0.5492647E+03  0.7818608E-02  0.1001664E+00
          1   -1    0    0  501    0  0.00000000000E+00  0.00000000000E+00  0.71087524367E+03  0.71087524367E+03  0.00000000000E+00 0. -1.
         -1   -1    0    0    0  501 -0.00000000000E+00 -0.00000000000E+00 -0.54185703005E+03  0.54185703005E+03  0.00000000000E+00 0.  1.
         23    2    1    2    0    0  0.35579541905E+03 -0.16784861749E+03 -0.19519482616E+03  0.44807973145E+03  0.88943167082E+02 0.  0.
    5000000    2    1    2    0    0 -0.35579541905E+03  0.16784861749E+03  0.36421303978E+03  0.80465254226E+03  0.60004252917E+03 0.  0.
         23    2    4    4    0    0  0.14018173228E+03 -0.39104184282E+02  0.74419577233E+02  0.18757495247E+03  0.92011053822E+02 0.  0.
         23    2    4    4    0    0 -0.49597715133E+03  0.20695280177E+03  0.28979346255E+03  0.61707758979E+03  0.89340383315E+02 0.  0.
          3    1    3    3  502    0  0.13876807209E+03 -0.31056565681E+02 -0.37930352053E+02  0.14717268670E+03  0.00000000000E+00 0. -1.
         -3    1    3    3    0  502  0.21702734696E+03 -0.13679205181E+03 -0.15726447411E+03  0.30090704475E+03  0.00000000000E+00 0.  1.
         13    1    5    5    0    0  0.88927607102E+02 -0.51842261765E+02  0.87553096151E+01  0.10330728366E+03  0.00000000000E+00 0. -1.
        -13    1    5    5    0    0  0.51254125177E+02  0.12738077483E+02  0.65664267618E+02  0.84267668814E+02  0.00000000000E+00 0.  1.
          1    1    6    6  503    0 -0.28830191477E+03  0.16496583774E+03  0.16097127462E+03  0.36911173503E+03  0.00000000000E+00 0. -1.
         -1    1    6    6    0  503 -0.20767523656E+03  0.41986964028E+02  0.12882218793E+03  0.24796585477E+03  0.00000000000E+00 0.  1.
<mgrwt>
<rscale>  0 0.54926470E+03</rscale>
<asrwt>0</asrwt>
<pdfrwt beam="1">  1        1 0.10936542E+00 0.54926470E+03</pdfrwt>
<pdfrwt beam="2">  1       -1 0.83362619E-01 0.54926470E+03</pdfrwt>
<totfact> 0.39787549E+01</totfact>
</mgrwt>
</event>
<event>
12    1  0.1432447E-007  0.6660312E+03  0.7818608E-02  0.9777154E-01
          1   -1    0    0  501    0  0.00000000000E+00  0.00000000000E+00  0.85944512332E+03  0.85944512332E+03  0.00000000000E+00 0. -1.
         -1   -1    0    0    0  501 -0.00000000000E+00 -0.00000000000E+00 -0.11751879913E+04  0.11751879913E+04  0.00000000000E+00 0.  1.
         23    2    1    2    0    0 -0.28368379349E+03  0.46899804723E+03  0.59603247774E+03  0.81323828277E+03  0.75273680980E+02 0.  0.
    5000000    2    1    2    0    0  0.28368379349E+03 -0.46899804723E+03 -0.91177534568E+03  0.12213948318E+04  0.60002949193E+03 0.  0.
         23    2    4    4    0    0 -0.76450405780E+02 -0.38220478522E+03 -0.63125253469E+03  0.74749210270E+03  0.91320965017E+02 0.  0.
         23    2    4    4    0    0  0.36013419927E+03 -0.86793262014E+02 -0.28052281099E+03  0.47390272911E+03  0.93064694502E+02 0.  0.
          2    1    3    3  502    0  0.12947722507E+01  0.10219024544E+02  0.26075977820E+02  0.28036788637E+02  0.00000000000E+00 0. -1.
         -2    1    3    3    0  502 -0.28497856574E+03  0.45877902269E+03  0.56995649992E+03  0.78520149413E+03  0.00000000000E+00 0.  1.
         11    1    5    5    0    0  0.31542257653E+01 -0.21161734409E+03 -0.35159279827E+03  0.41037707691E+03  0.00000000000E+00 0. -1.
        -11    1    5    5    0    0 -0.79604631545E+02 -0.17058744113E+03 -0.27965973642E+03  0.33711502578E+03  0.00000000000E+00 0.  1.
          1    1    6    6  503    0  0.13784209632E+03 -0.80039266306E+02 -0.11022849058E+03  0.19379640813E+03  0.00000000000E+00 0. -1.
         -1    1    6    6    0  503  0.22229210295E+03 -0.67539957082E+01 -0.17029432041E+03  0.28010632099E+03  0.00000000000E+00 0.  1.
<mgrwt>
<rscale>  0 0.66603124E+03</rscale>
<asrwt>0</asrwt>
<pdfrwt beam="1">  1        1 0.13222233E+00 0.66603124E+03</pdfrwt>
<pdfrwt beam="2">  1       -1 0.18079815E+00 0.66603124E+03</pdfrwt>
<totfact> 0.42486680E+00</totfact>
</mgrwt>
</event>
<event>
12    1  0.1432447E-007  0.6287846E+03  0.7818608E-02  0.9847423E-01
          1   -1    0    0  501    0  0.00000000000E+00  0.00000000000E+00  0.17751335002E+04  0.17751335002E+04  0.00000000000E+00 0. -1.
         -1   -1    0    0    0  501 -0.00000000000E+00 -0.00000000000E+00 -0.44661616160E+03  0.44661616160E+03  0.00000000000E+00 0.  1.
         23    2    1    2    0    0 -0.26123123633E+03  0.44771195883E+03 -0.14738503095E+03  0.54641417936E+03  0.90323591254E+02 0.  0.
    5000000    2    1    2    0    0  0.26123123633E+03 -0.44771195883E+03  0.14759023696E+04  0.16753354825E+04  0.59981115140E+03 0.  0.
         23    2    4    4    0    0 -0.14528537693E+03 -0.64992220298E+02  0.64094389344E+03  0.66650086802E+03  0.89902742388E+02 0.  0.
         23    2    4    4    0    0  0.40651661327E+03 -0.38271973853E+03  0.83495847614E+03  0.10088346144E+04  0.94135366821E+02 0.  0.
          3    1    3    3  502    0 -0.11659210851E+03  0.11912255526E+03 -0.36124179612E+02  0.17055456397E+03  0.00000000000E+00 0. -1.
         -3    1    3    3    0  502 -0.14463912782E+03  0.32858940357E+03 -0.11126085134E+03  0.37585961539E+03  0.00000000000E+00 0.  1.
         13    1    5    5    0    0 -0.63248505959E+01 -0.20235511642E+02  0.21922305125E+02  0.30497001959E+02  0.00000000000E+00 0. -1.
        -13    1    5    5    0    0 -0.13896052634E+03 -0.44756708655E+02  0.61902158832E+03  0.63600386607E+03  0.00000000000E+00 0.  1.
          1    1    6    6  503    0  0.17983074356E+03 -0.22727496316E+03  0.39143242611E+03  0.48704450455E+03  0.00000000000E+00 0. -1.
         -1    1    6    6    0  503  0.22668586971E+03 -0.15544477538E+03  0.44352605004E+03  0.52179010989E+03  0.00000000000E+00 0.  1.
<mgrwt>
<rscale>  0 0.62878461E+03</rscale>
<asrwt>0</asrwt>
<pdfrwt beam="1">  1        1 0.27309746E+00 0.62878461E+03</pdfrwt>
<pdfrwt beam="2">  1       -1 0.68710179E-01 0.62878461E+03</pdfrwt>
<totfact> 0.96655704E+00</totfact>
</mgrwt>
</event>
<event>
12    1  0.1432447E-007  0.7085438E+03  0.7818608E-02  0.9702732E-01
         -1   -1    0    0    0  501 -0.00000000000E+00  0.00000000000E+00  0.74200376827E+03  0.74200376827E+03  0.00000000000E+00 0.  1.
          1   -1    0    0  501    0  0.00000000000E+00 -0.00000000000E+00 -0.14746465727E+04  0.14746465727E+04  0.00000000000E+00 0. -1.
         23    2    1    2    0    0  0.40250807497E+03 -0.43259790941E+03 -0.11352969923E+04  0.12831758315E+04  0.92126283444E+02 0.  0.
    5000000    2    1    2    0    0 -0.40250807497E+03  0.43259790941E+03  0.40265418795E+03  0.93347450944E+03  0.60007546447E+03 0.  0.
         23    2    4    4    0    0 -0.10482223151E+03 -0.12417876842E+03  0.21114554876E+02  0.19003946335E+03  0.96234642706E+02 0.  0.
         23    2    4    4    0    0 -0.29768584346E+03  0.55677667783E+03  0.38153963307E+03  0.74343504608E+03  0.92228226544E+02 0.  0.
          3    1    3    3  502    0  0.23812712539E+03 -0.18950300219E+03 -0.59638462992E+03  0.66954502649E+03  0.00000000000E+00 0. -1.
         -3    1    3    3    0  502  0.16438094958E+03 -0.24309490722E+03 -0.53891236241E+03  0.61363080501E+03  0.00000000000E+00 0.  1.
         13    1    5    5    0    0 -0.69433463700E+02 -0.20622334810E+02 -0.16559247342E+02  0.74300035309E+02  0.00000000000E+00 0. -1.
        -13    1    5    5    0    0 -0.35388767814E+02 -0.10355643361E+03  0.37673802219E+02  0.11573942804E+03  0.00000000000E+00 0.  1.
          4    1    6    6  503    0 -0.12660276523E+03  0.15089597595E+03  0.10282149410E+03  0.22219386889E+03  0.00000000000E+00 0. -1.
         -4    1    6    6    0  503 -0.17108307823E+03  0.40588070188E+03  0.27871813896E+03  0.52124117719E+03  0.00000000000E+00 0.  1.
<mgrwt>
<rscale>  0 0.70854379E+03</rscale>
<asrwt>0</asrwt>
<pdfrwt beam="1">  1        1 0.22686870E+00 0.70854379E+03</pdfrwt>
<pdfrwt beam="2">  1       -1 0.11415443E+00 0.70854379E+03</pdfrwt>
<totfact> 0.49930312E+00</totfact>
</mgrwt>
</event>
<event>
12    1  0.1432447E-007  0.3823711E+03  0.7818608E-02  0.1050061E+00
          2   -1    0    0  501    0  0.00000000000E+00  0.00000000000E+00  0.45815204144E+03  0.45815204144E+03  0.00000000000E+00 0.  1.
         -2   -1    0    0    0  501 -0.00000000000E+00 -0.00000000000E+00 -0.46503220407E+03  0.46503220407E+03  0.00000000000E+00 0. -1.
         23    2    1    2    0    0  0.11746358613E+03 -0.21034775946E+03 -0.87752430059E+02  0.27161101718E+03  0.89600121073E+02 0.  0.
    5000000    2    1    2    0    0 -0.11746358613E+03  0.21034775946E+03  0.80872267436E+02  0.65157322833E+03  0.59996956112E+03 0.  0.
         23    2    4    4    0    0  0.16574795816E+03  0.61355763529E+02  0.21531494339E+03  0.29266736151E+03  0.89759368834E+02 0.  0.
         23    2    4    4    0    0 -0.28321154429E+03  0.14899199593E+03 -0.13444267595E+03  0.35890586682E+03  0.91275377022E+02 0.  0.
          1    1    3    3  502    0  0.65891728380E+02 -0.68387260988E+02 -0.73142638790E+02  0.11986818987E+03  0.00000000000E+00 0. -1.
         -1    1    3    3    0  502  0.51571857746E+02 -0.14196049847E+03 -0.14609791269E+02  0.15174282730E+03  0.00000000000E+00 0.  1.
         13    1    5    5    0    0  0.54321531701E+02  0.67440728787E+02  0.96874405339E+02  0.12993741230E+03  0.00000000000E+00 0. -1.
        -13    1    5    5    0    0  0.11142642646E+03 -0.60849652578E+01  0.11844053805E+03  0.16272994921E+03  0.00000000000E+00 0.  1.
          4    1    6    6  503    0 -0.23679520226E+03  0.13212761565E+03 -0.14630663291E+03  0.30811573388E+03  0.00000000000E+00 0.  1.
         -4    1    6    6    0  503 -0.46416342028E+02  0.16864380281E+02  0.11863956955E+02  0.50790132941E+02  0.00000000000E+00 0. -1.
<mgrwt>
<rscale>  0 0.38237108E+03</rscale>
<asrwt>0</asrwt>
<pdfrwt beam="1">  1        2 0.70484930E-01 0.38237108E+03</pdfrwt>
<pdfrwt beam="2">  1       -2 0.71543416E-01 0.38237108E+03</pdfrwt>
<totfact> 0.12487178E+02</totfact>
</mgrwt>
</event>
<event>
12    1  0.1432447E-007  0.1391945E+04  0.7818608E-02  0.8959670E-01
          2   -1    0    0  501    0  0.00000000000E+00  0.00000000000E+00  0.16712223383E+04  0.16712223383E+04  0.00000000000E+00 0.  1.
         -2   -1    0    0    0  501 -0.00000000000E+00 -0.00000000000E+00 -0.17599159847E+04  0.17599159847E+04  0.00000000000E+00 0. -1.
         23    2    1    2    0    0 -0.99078811440E+03 -0.92909544676E+03  0.91355253144E+03  0.16396609303E+04  0.95027900945E+02 0.  0.
    5000000    2    1    2    0    0  0.99078811440E+03  0.92909544676E+03 -0.10022461779E+04  0.17914773927E+04  0.60001200872E+03 0.  0.
         23    2    4    4    0    0  0.44940921634E+03  0.70024964910E+03 -0.34611104466E+03  0.90579863844E+03  0.91433600896E+02 0.  0.
         23    2    4    4    0    0  0.54137889806E+03  0.22884579766E+03 -0.65613513323E+03  0.88567875425E+03  0.91934935145E+02 0.  0.
          4    1    3    3  502    0 -0.80554493820E+02 -0.73275761274E+02  0.43910393139E+02  0.11741586899E+03  0.00000000000E+00 0.  1.
         -4    1    3    3    0  502 -0.91023362058E+03 -0.85581968549E+03  0.86964213830E+03  0.15222450614E+04  0.00000000000E+00 0. -1.
         13    1    5    5    0    0  0.31886434520E+03  0.56545556641E+03 -0.27774538534E+03  0.70608566570E+03  0.00000000000E+00 0. -1.
        -13    1    5    5    0    0  0.13054487114E+03  0.13479408269E+03 -0.68365659315E+02  0.19971297274E+03  0.00000000000E+00 0.  1.
          2    1    6    6  503    0  0.80794490290E+02  0.48050244751E+02 -0.15607747495E+03  0.18219976363E+03  0.00000000000E+00 0. -1.
         -2    1    6    6    0  503  0.46058440777E+03  0.18079555291E+03 -0.50005765828E+03  0.70347899061E+03  0.00000000000E+00 0.  1.
<mgrwt>
<rscale>  0 0.13919447E+04</rscale>
<asrwt>0</asrwt>
<pdfrwt beam="1">  1        2 0.25711113E+00 0.13919447E+04</pdfrwt>
<pdfrwt beam="2">  1       -2 0.27075631E+00 0.13919447E+04</pdfrwt>
<totfact> 0.46373558E-01</totfact>
</mgrwt>
</event>
<event>
12    1  0.1432447E-007  0.7226006E+03  0.7818608E-02  0.9679344E-01
          1   -1    0    0  501    0  0.00000000000E+00  0.00000000000E+00  0.23253106363E+04  0.23253106363E+04  0.00000000000E+00 0. -1.
         -1   -1    0    0    0  501 -0.00000000000E+00 -0.00000000000E+00 -0.26615537213E+03  0.26615537213E+03  0.00000000000E+00 0.  1.
         23    2    1    2    0    0 -0.16085503432E+03 -0.64841647123E+03  0.84248396770E+03  0.10793057948E+04  0.93826972145E+02 0.  0.
    5000000    2    1    2    0    0  0.16085503432E+03  0.64841647123E+03  0.12166712965E+04  0.15121602136E+04  0.60001767115E+03 0.  0.
         23    2    4    4    0    0 -0.10699672629E+03  0.33592382462E+03  0.93704183506E+03  0.10057392307E+04  0.95764733093E+02 0.  0.
         23    2    4    4    0    0  0.26785176061E+03  0.31249264662E+03  0.27962946142E+03  0.50642098292E+03  0.94198494646E+02 0.  0.
          1    1    3    3  502    0 -0.27236393273E+02 -0.10980307884E+03  0.20477467889E+03  0.23394701613E+03  0.00000000000E+00 0. -1.
         -1    1    3    3    0  502 -0.13361864105E+03 -0.53861339239E+03  0.63770928880E+03  0.84535877870E+03  0.00000000000E+00 0.  1.
         13    1    5    5    0    0 -0.44324231970E+01  0.16372238554E+03  0.46069564012E+03  0.48894287880E+03  0.00000000000E+00 0. -1.
        -13    1    5    5    0    0 -0.10256430310E+03  0.17220143907E+03  0.47634619494E+03  0.51679635189E+03  0.00000000000E+00 0.  1.
          2    1    6    6  503    0  0.16957542758E+03  0.17269332365E+03  0.11074951713E+03  0.26616586035E+03  0.00000000000E+00 0. -1.
         -2    1    6    6    0  503  0.98276333033E+02  0.13979932296E+03  0.16887994429E+03  0.24025512257E+03  0.00000000000E+00 0.  1.
<mgrwt>
<rscale>  0 0.72260059E+03</rscale>
<asrwt>0</asrwt>
<pdfrwt beam="1">  1        1 0.35774009E+00 0.72260059E+03</pdfrwt>
<pdfrwt beam="2">  1       -1 0.40946982E-01 0.72260059E+03</pdfrwt>
<totfact> 0.11004937E+01</totfact>
</mgrwt>
</event>
<event>
12    1  0.1432447E-007  0.7246341E+03  0.7818608E-02  0.9676008E-01
          2   -1    0    0  501    0  0.00000000000E+00  0.00000000000E+00  0.93825030591E+03  0.93825030591E+03  0.00000000000E+00 0. -1.
         -2   -1    0    0    0  501 -0.00000000000E+00 -0.00000000000E+00 -0.58602428088E+03  0.58602428088E+03  0.00000000000E+00 0.  1.
         23    2    1    2    0    0 -0.24383127630E+03 -0.55210749842E+03  0.27253671921E+03  0.66951703630E+03  0.98490697333E+02 0.  0.
    5000000    2    1    2    0    0  0.24383127630E+03  0.55210749842E+03  0.79689305829E+02  0.85475755049E+03  0.59998641946E+03 0.  0.
         23    2    4    4    0    0  0.38409691453E+03  0.16484101945E+03  0.64062417972E+02  0.43269016239E+03  0.91726668895E+02 0.  0.
         23    2    4    4    0    0 -0.14026563823E+03  0.38726647897E+03  0.15626887858E+02  0.42206738810E+03  0.90812474212E+02 0.  0.
          3    1    3    3  502    0 -0.27984200129E+02 -0.12851811784E+03  0.94081266740E+02  0.16171365688E+03  0.00000000000E+00 0. -1.
         -3    1    3    3    0  502 -0.21584707617E+03 -0.42358938058E+03  0.17845545247E+03  0.50780337942E+03  0.00000000000E+00 0.  1.
         13    1    5    5    0    0  0.34821890423E+03  0.17365712664E+03  0.46838980756E+02  0.39192740784E+03  0.00000000000E+00 0. -1.
        -13    1    5    5    0    0  0.35878010302E+02 -0.88161071892E+01  0.17223437216E+02  0.40762754553E+02  0.00000000000E+00 0.  1.
          1    1    6    6  503    0 -0.11878751916E+03  0.37031217296E+03 -0.30984397170E+01  0.38891024733E+03  0.00000000000E+00 0. -1.
         -1    1    6    6    0  503 -0.21478119072E+02  0.16954306004E+02  0.18725327575E+02  0.33157140765E+02  0.00000000000E+00 0.  1.
<mgrwt>
<rscale>  0 0.72463406E+03</rscale>
<asrwt>0</asrwt>
<pdfrwt beam="1">  1        2 0.14434620E+00 0.72463406E+03</pdfrwt>
<pdfrwt beam="2">  1       -2 0.90157582E-01 0.72463406E+03</pdfrwt>
<totfact> 0.29615065E+01</totfact>
</mgrwt>
</event>
<event>
12    1  0.1432447E-007  0.3777615E+03  0.7818608E-02  0.1051764E+00
          2   -1    0    0  501    0  0.00000000000E+00  0.00000000000E+00  0.48193268847E+03  0.48193268847E+03  0.00000000000E+00 0. -1.
         -2   -1    0    0    0  501 -0.00000000000E+00 -0.00000000000E+00 -0.75411929538E+03  0.75411929538E+03  0.00000000000E+00 0.  1.
         23    2    1    2    0    0  0.90494574685E+02  0.98670140819E+02 -0.54141758322E+03  0.56499010612E+03  0.90309223566E+02 0.  0.
    5000000    2    1    2    0    0 -0.90494574685E+02 -0.98670140819E+02  0.26923097631E+03  0.67106187772E+03  0.59992804601E+03 0.  0.
         23    2    4    4    0    0 -0.24343536376E+03  0.14367041270E+03  0.21241917107E+03  0.36456698766E+03  0.88798763708E+02 0.  0.
         23    2    4    4    0    0  0.15294078908E+03 -0.24234055352E+03  0.56811805241E+02  0.30649489006E+03  0.92691464420E+02 0.  0.
          1    1    3    3  502    0  0.19281485872E+02  0.83043342286E+02 -0.34792701792E+03  0.35821946094E+03  0.00000000000E+00 0. -1.
         -1    1    3    3    0  502  0.71213088813E+02  0.15626798534E+02 -0.19349056530E+03  0.20677064518E+03  0.00000000000E+00 0.  1.
         11    1    5    5    0    0 -0.13965860737E+03  0.30923566410E+02  0.10097417759E+03  0.17509019993E+03  0.00000000000E+00 0.  1.
        -11    1    5    5    0    0 -0.10377675640E+03  0.11274684629E+03  0.11144499348E+03  0.18947678773E+03  0.00000000000E+00 0. -1.
          1    1    6    6  503    0  0.80911576091E+02 -0.48593400142E+02  0.14184056106E+02  0.95442072120E+02  0.00000000000E+00 0. -1.
         -1    1    6    6    0  503  0.72029212986E+02 -0.19374715338E+03  0.42627749135E+02  0.21105281794E+03  0.00000000000E+00 0.  1.
<mgrwt>
<rscale>  0 0.37776153E+03</rscale>
<asrwt>0</asrwt>
<pdfrwt beam="1">  1        2 0.74143491E-01 0.37776153E+03</pdfrwt>
<pdfrwt beam="2">  1       -2 0.11601835E+00 0.37776153E+03</pdfrwt>
<totfact> 0.38925697E+01</totfact>
</mgrwt>
</event>
<event>
12    1  0.1432447E-007  0.4873953E+03  0.7818608E-02  0.1017122E+00
         -2   -1    0    0    0  501 -0.00000000000E+00  0.00000000000E+00  0.14793961218E+03  0.14793961218E+03  0.00000000000E+00 0.  1.
          2   -1    0    0  501    0  0.00000000000E+00 -0.00000000000E+00 -0.17691012765E+04  0.17691012765E+04  0.00000000000E+00 0. -1.
         23    2    1    2    0    0  0.26401956215E+02 -0.32578760329E+03 -0.49675755229E+03  0.60142196133E+03  0.90031572625E+02 0.  0.
    5000000    2    1    2    0    0 -0.26401956215E+02  0.32578760329E+03 -0.11244041120E+04  0.13156189274E+04  0.59977823328E+03 0.  0.
         23    2    4    4    0    0  0.10691587626E+03  0.43584465203E+03 -0.59051224648E+03  0.74729691414E+03  0.91413343348E+02 0.  0.
         23    2    4    4    0    0 -0.13331783247E+03 -0.11005704874E+03 -0.53389186557E+03  0.56832201323E+03  0.89795256944E+02 0.  0.
          2    1    3    3  502    0  0.36473872040E+01 -0.13858222233E+03 -0.13522154793E+03  0.19365743674E+03  0.00000000000E+00 0. -1.
         -2    1    3    3    0  502  0.22754569011E+02 -0.18720538096E+03 -0.36153600436E+03  0.40776452459E+03  0.00000000000E+00 0.  1.
         11    1    5    5    0    0  0.94556084555E+02  0.19936720980E+03 -0.30279098667E+03  0.37466053846E+03  0.00000000000E+00 0. -1.
        -11    1    5    5    0    0  0.12359791701E+02  0.23647744223E+03 -0.28772125982E+03  0.37263637569E+03  0.00000000000E+00 0.  1.
          1    1    6    6  503    0 -0.11066756417E+02 -0.54901303816E+02 -0.10574582003E+03  0.11966120805E+03  0.00000000000E+00 0. -1.
         -1    1    6    6    0  503 -0.12225107605E+03 -0.55155744925E+02 -0.42814604553E+03  0.44866080518E+03  0.00000000000E+00 0.  1.
<mgrwt>
<rscale>  0 0.48739527E+03</rscale>
<asrwt>0</asrwt>
<pdfrwt beam="1">  1        2 0.27216943E+00 0.48739527E+03</pdfrwt>
<pdfrwt beam="2">  1       -2 0.22759941E-01 0.48739527E+03</pdfrwt>
<totfact> 0.15991843E+02</totfact>
</mgrwt>
</event>
<event>
12    1  0.1432447E-007  0.7489134E+03  0.7818608E-02  0.9637057E-01
         -1   -1    0    0    0  501 -0.00000000000E+00  0.00000000000E+00  0.28071638419E+03  0.28071638419E+03  0.00000000000E+00 0.  1.
          1   -1    0    0  501    0  0.00000000000E+00 -0.00000000000E+00 -0.23807504136E+04  0.23807504136E+04  0.00000000000E+00 0. -1.
         23    2    1    2    0    0 -0.62179451716E+03 -0.27751317360E+03 -0.62143406434E+03  0.92631133252E+03  0.90721581471E+02 0.  0.
    5000000    2    1    2    0    0  0.62179451716E+03  0.27751317360E+03 -0.14785999651E+04  0.17351554653E+04  0.60072010859E+03 0.  0.
         23    2    4    4    0    0  0.66979702911E+03  0.27738135927E+03 -0.96189251959E+03  0.12080223998E+04  0.92262779069E+02 0.  0.
         23    2    4    4    0    0 -0.48002511944E+02  0.13181433062E+00 -0.51670744549E+03  0.52713306552E+03  0.92619792789E+02 0.  0.
          2    1    3    3  502    0 -0.34384845740E+03 -0.18549353932E+03 -0.40070757596E+03  0.55964826116E+03  0.00000000000E+00 0. -1.
         -2    1    3    3    0  502 -0.27794605976E+03 -0.92019634277E+02 -0.22072648838E+03  0.36666307136E+03  0.00000000000E+00 0.  1.
         13    1    5    5    0    0  0.32615876361E+03  0.13148618805E+03 -0.54282869537E+03  0.64678524198E+03  0.00000000000E+00 0.  1.
        -13    1    5    5    0    0  0.34363826549E+03  0.14589517122E+03 -0.41906382422E+03  0.56123715777E+03  0.00000000000E+00 0. -1.
          1    1    6    6  503    0 -0.64869224518E+02  0.15331925110E+02 -0.22826136281E+03  0.23779473074E+03  0.00000000000E+00 0. -1.
         -1    1    6    6    0  503  0.16866712574E+02 -0.15200110779E+02 -0.28844608268E+03  0.28933833478E+03  0.00000000000E+00 0.  1.
<mgrwt>
<rscale>  0 0.74891340E+03</rscale>
<asrwt>0</asrwt>
<pdfrwt beam="1">  1        1 0.36626931E+00 0.74891340E+03</pdfrwt>
<pdfrwt beam="2">  1       -1 0.43187134E-01 0.74891340E+03</pdfrwt>
<totfact> 0.91161980E+00</totfact>
</mgrwt>
</event>
<event>
12    1  0.1432447E-007  0.7230720E+03  0.7818608E-02  0.9678570E-01
          2   -1    0    0  501    0  0.00000000000E+00  0.00000000000E+00  0.86562943729E+03  0.86562943729E+03  0.00000000000E+00 0. -1.
         -2   -1    0    0    0  501 -0.00000000000E+00 -0.00000000000E+00 -0.62656326016E+03  0.62656326016E+03  0.00000000000E+00 0.  1.
         23    2    1    2    0    0  0.53164909834E+03  0.29846992949E+03  0.69448264579E+02  0.62007478686E+03  0.89076468707E+02 0.  0.
    5000000    2    1    2    0    0 -0.53164909834E+03 -0.29846992949E+03  0.16961791256E+03  0.87211791059E+03  0.60007028849E+03 0.  0.
         23    2    4    4    0    0 -0.55184283085E+03 -0.35295919491E+02  0.31427536206E+02  0.56035966517E+03  0.85082033553E+02 0.  0.
         23    2    4    4    0    0  0.20193732505E+02 -0.26317401000E+03  0.13819037635E+03  0.31175824541E+03  0.91805648499E+02 0.  0.
          3    1    3    3  502    0  0.14222697444E+03  0.44203773711E+02  0.39202381583E+02  0.15401075479E+03  0.00000000000E+00 0. -1.
         -3    1    3    3    0  502  0.38942212390E+03  0.25426615578E+03  0.30245882996E+02  0.46606403207E+03  0.00000000000E+00 0.  1.
         13    1    5    5    0    0 -0.24704097104E+03 -0.30410215967E+02 -0.25640839738E+02  0.25022285121E+03  0.00000000000E+00 0. -1.
        -13    1    5    5    0    0 -0.30480185981E+03 -0.48857035234E+01  0.57068375944E+02  0.31013681396E+03  0.00000000000E+00 0.  1.
          1    1    6    6  503    0  0.40674295641E+02 -0.51073763354E+02  0.44313274822E+02  0.78908769820E+02  0.00000000000E+00 0. -1.
         -1    1    6    6    0  503 -0.20480563136E+02 -0.21210024664E+03  0.93877101531E+02  0.23284947559E+03  0.00000000000E+00 0.  1.
<mgrwt>
<rscale>  0 0.72307198E+03</rscale>
<asrwt>0</asrwt>
<pdfrwt beam="1">  1        2 0.13317376E+00 0.72307198E+03</pdfrwt>
<pdfrwt beam="2">  1       -2 0.96394347E-01 0.72307198E+03</pdfrwt>
<totfact> 0.28365730E+01</totfact>
</mgrwt>
</event>
<event>
12    1  0.1432447E-007  0.1134355E+04  0.7818608E-02  0.9172339E-01
          2   -1    0    0  501    0  0.00000000000E+00  0.00000000000E+00  0.89394506057E+03  0.89394506057E+03  0.00000000000E+00 0. -1.
         -2   -1    0    0    0  501 -0.00000000000E+00 -0.00000000000E+00 -0.15172808770E+04  0.15172808770E+04  0.00000000000E+00 0.  1.
         23    2    1    2    0    0  0.10609154369E+04  0.21720937772E+03 -0.36455817059E+03  0.11464343547E+04  0.93207251653E+02 0.  0.
    5000000    2    1    2    0    0 -0.10609154369E+04 -0.21720937772E+03 -0.25877764581E+03  0.12647915829E+04  0.60000866675E+03 0.  0.
         23    2    4    4    0    0 -0.10760406373E+04 -0.15399539152E+03 -0.13586880210E+03  0.10992539219E+04  0.91218526749E+02 0.  0.
         23    2    4    4    0    0  0.15125200410E+02 -0.63213986202E+02 -0.12290884371E+03  0.16553766102E+03  0.89840712465E+02 0.  0.
          1    1    3    3  502    0  0.62976669378E+02  0.40014065528E+01 -0.89311269804E+00  0.63109981704E+02  0.00000000000E+00 0. -1.
         -1    1    3    3    0  502  0.99793876752E+03  0.21320797117E+03 -0.36366505790E+03  0.10833243729E+04  0.00000000000E+00 0.  1.
         11    1    5    5    0    0 -0.64908670105E+03 -0.48453960716E+02 -0.89303386119E+02  0.65699043111E+03  0.00000000000E+00 0. -1.
        -11    1    5    5    0    0 -0.42695393625E+03 -0.10554143081E+03 -0.46565415978E+02  0.44226349076E+03  0.00000000000E+00 0.  1.
          4    1    6    6  503    0  0.29497929349E+02  0.12561125741E+00 -0.36284318047E+01  0.29720517012E+02  0.00000000000E+00 0. -1.
         -4    1    6    6    0  503 -0.14372728939E+02 -0.63339597460E+02 -0.11928041190E+03  0.13581714401E+03  0.00000000000E+00 0.  1.
<mgrwt>
<rscale>  0 0.11343550E+04</rscale>
<asrwt>0</asrwt>
<pdfrwt beam="1">  1        2 0.13753001E+00 0.11343550E+04</pdfrwt>
<pdfrwt beam="2">  1       -2 0.23342783E+00 0.11343550E+04</pdfrwt>
<totfact> 0.23628371E+00</totfact>
</mgrwt>
</event>
<event>
12    1  0.1432447E-007  0.2243359E+04  0.7818608E-02  0.8500595E-01
          2   -1    0    0  501    0  0.00000000000E+00  0.00000000000E+00  0.19556424139E+04  0.19556424139E+04  0.00000000000E+00 0. -1.
         -2   -1    0    0    0  501 -0.00000000000E+00 -0.00000000000E+00 -0.26764368866E+04  0.26764368866E+04  0.00000000000E+00 0.  1.
         23    2    1    2    0    0 -0.82789664013E+03 -0.20454389284E+04 -0.78627866731E+03  0.23443292066E+04  0.91717119283E+02 0.  0.
    5000000    2    1    2    0    0  0.82789664013E+03  0.20454389284E+04  0.65484194617E+02  0.22877500940E+04  0.60023250188E+03 0.  0.
         23    2    4    4    0    0  0.37392275750E+03  0.15890020063E+04  0.85292472165E+02  0.16371692677E+04  0.91119705185E+02 0.  0.
         23    2    4    4    0    0  0.45397388263E+03  0.45643692208E+03 -0.19808277547E+02  0.65058082629E+03  0.91848210281E+02 0.  0.
          2    1    3    3  502    0 -0.47165538931E+03 -0.10674625438E+04 -0.38654496359E+03  0.12293706103E+04  0.00000000000E+00 0. -1.
         -2    1    3    3    0  502 -0.35624125082E+03 -0.97797638459E+03 -0.39973370373E+03  0.11149585963E+04  0.00000000000E+00 0.  1.
         11    1    5    5    0    0  0.22696341119E+03  0.97050489649E+03  0.75727530672E+01  0.99671936407E+03  0.00000000000E+00 0. -1.
        -11    1    5    5    0    0  0.14695934632E+03  0.61849710979E+03  0.77719719097E+02  0.64044990360E+03  0.00000000000E+00 0.  1.
          4    1    6    6  503    0  0.28482571175E+03  0.24514229636E+03  0.23278299659E+02  0.37651336068E+03  0.00000000000E+00 0. -1.
         -4    1    6    6    0  503  0.16914817089E+03  0.21129462572E+03 -0.43086577206E+02  0.27406746561E+03  0.00000000000E+00 0.  1.
<mgrwt>
<rscale>  0 0.22433592E+04</rscale>
<asrwt>0</asrwt>
<pdfrwt beam="1">  1        2 0.30086806E+00 0.22433592E+04</pdfrwt>
<pdfrwt beam="2">  1       -2 0.41175952E+00 0.22433592E+04</pdfrwt>
<totfact> 0.38041344E-02</totfact>
</mgrwt>
</event>
<event>
12    1  0.1432447E-007  0.6732682E+03  0.7818608E-02  0.9764072E-01
          1   -1    0    0  501    0  0.00000000000E+00  0.00000000000E+00  0.13029271009E+04  0.13029271009E+04  0.00000000000E+00 0. -1.
         -1   -1    0    0    0  501 -0.00000000000E+00 -0.00000000000E+00 -0.36157850475E+03  0.36157850475E+03  0.00000000000E+00 0.  1.
         23    2    1    2    0    0 -0.14879284694E+03 -0.52910850556E+03  0.33536455255E+03  0.65010238516E+03  0.89825420350E+02 0.  0.
    5000000    2    1    2    0    0  0.14879284694E+03  0.52910850556E+03  0.60598404360E+03  0.10144032205E+04  0.59975170754E+03 0.  0.
         23    2    4    4    0    0 -0.14182323309E+03 -0.34440455176E+02  0.14527714493E+03  0.22544948475E+03  0.91771711012E+02 0.  0.
         23    2    4    4    0    0  0.29061608002E+03  0.56354896073E+03  0.46070689868E+03  0.78895373574E+03  0.90288501696E+02 0.  0.
          1    1    3    3  502    0 -0.38858501516E+02 -0.12064830989E+03  0.12368031437E+03  0.17709550526E+03  0.00000000000E+00 0. -1.
         -1    1    3    3    0  502 -0.10993434542E+03 -0.40846019567E+03  0.21168423817E+03  0.47300687991E+03  0.00000000000E+00 0.  1.
         11    1    5    5    0    0 -0.14738274919E+02 -0.27385340143E+02  0.72364229674E+02  0.78763921554E+02  0.00000000000E+00 0. -1.
        -11    1    5    5    0    0 -0.12708495817E+03 -0.70551150331E+01  0.72912915254E+02  0.14668556320E+03  0.00000000000E+00 0.  1.
          2    1    6    6  503    0  0.20571199162E+03  0.46409228982E+03  0.39101082343E+03  0.64077183225E+03  0.00000000000E+00 0. -1.
         -2    1    6    6    0  503  0.84904088408E+02  0.99456670913E+02  0.69696075250E+02  0.14818190349E+03  0.00000000000E+00 0.  1.
<mgrwt>
<rscale>  0 0.67326816E+03</rscale>
<asrwt>0</asrwt>
<pdfrwt beam="1">  1        1 0.20045032E+00 0.67326816E+03</pdfrwt>
<pdfrwt beam="2">  1       -1 0.55627463E-01 0.67326816E+03</pdfrwt>
<totfact> 0.30587123E+01</totfact>
</mgrwt>
</event>
<event>
12    1  0.1432447E-007  0.6242198E+03  0.7818608E-02  0.9856394E-01
         -1   -1    0    0    0  501 -0.00000000000E+00  0.00000000000E+00  0.19530440230E+03  0.19530440230E+03  0.00000000000E+00 0.  1.
          1   -1    0    0  501    0  0.00000000000E+00 -0.00000000000E+00 -0.21257919903E+04  0.21257919903E+04  0.00000000000E+00 0. -1.
         23    2    1    2    0    0  0.49884012023E+03 -0.18074665335E+02 -0.70839090246E+03  0.87105419466E+03  0.88031700408E+02 0.  0.
    5000000    2    1    2    0    0 -0.49884012023E+03  0.18074665335E+02 -0.12220966856E+04  0.14500421979E+04  0.59994492070E+03 0.  0.
         23    2    4    4    0    0  0.13369131963E+02 -0.16758770402E+03 -0.14724808867E+03  0.24150498406E+03  0.91532974814E+02 0.  0.
         23    2    4    4    0    0 -0.51220925220E+03  0.18566236936E+03 -0.10748485969E+04  0.12085372139E+04  0.91836036970E+02 0.  0.
          1    1    3    3  502    0  0.27139120374E+03  0.33892346329E+02 -0.38902047714E+03  0.47554054321E+03  0.00000000000E+00 0. -1.
         -1    1    3    3    0  502  0.22744891649E+03 -0.51967011664E+02 -0.31937042532E+03  0.39551365145E+03  0.00000000000E+00 0.  1.
         11    1    5    5    0    0 -0.22911830753E+02 -0.14738498117E+03 -0.12363660272E+03  0.19373511348E+03  0.00000000000E+00 0.  1.
        -11    1    5    5    0    0  0.36280962715E+02 -0.20202722854E+02 -0.23611485949E+02  0.47769870578E+02  0.00000000000E+00 0. -1.
          3    1    6    6  503    0 -0.18229330789E+03  0.10846387960E+03 -0.37039360907E+03  0.42683332686E+03  0.00000000000E+00 0. -1.
         -3    1    6    6    0  503 -0.32991594430E+03  0.77198489752E+02 -0.70445498782E+03  0.78170388702E+03  0.00000000000E+00 0.  1.
<mgrwt>
<rscale>  0 0.62421983E+03</rscale>
<asrwt>0</asrwt>
<pdfrwt beam="1">  1        1 0.32704493E+00 0.62421983E+03</pdfrwt>
<pdfrwt beam="2">  1       -1 0.30046830E-01 0.62421983E+03</pdfrwt>
<totfact> 0.26398536E+01</totfact>
</mgrwt>
</event>
<event>
12    1  0.1432447E-007  0.1829947E+04  0.7818608E-02  0.8690534E-01
         -2   -1    0    0    0  501 -0.00000000000E+00  0.00000000000E+00  0.18981017634E+04  0.18981017634E+04  0.00000000000E+00 0.  1.
          2   -1    0    0  501    0  0.00000000000E+00 -0.00000000000E+00 -0.22622226674E+04  0.22622226674E+04  0.00000000000E+00 0. -1.
         23    2    1    2    0    0 -0.28267395673E+03 -0.17816644828E+04  0.75125506332E+03  0.19561826030E+04  0.89628739233E+02 0.  0.
    5000000    2    1    2    0    0  0.28267395673E+03  0.17816644828E+04 -0.11153759673E+04  0.22041418278E+04  0.59995395957E+03 0.  0.
         23    2    4    4    0    0  0.28797358843E+03  0.17631569539E+04 -0.11175833848E+04  0.21091548079E+04  0.88826515851E+02 0.  0.
         23    2    4    4    0    0 -0.52996317011E+01  0.18507528860E+02  0.22074175396E+01  0.94987019877E+02  0.92989496892E+02 0.  0.
          2    1    3    3  502    0 -0.18263071675E+03 -0.89890116512E+03  0.40450000753E+03  0.10024956556E+04  0.00000000000E+00 0. -1.
         -2    1    3    3    0  502 -0.10004323998E+03 -0.88276331767E+03  0.34675505579E+03  0.95368694738E+03  0.00000000000E+00 0.  1.
         11    1    5    5    0    0  0.23389947520E+03  0.13131794571E+04 -0.79406117722E+03  0.15523151756E+04  0.00000000000E+00 0.  1.
        -11    1    5    5    0    0  0.54074113230E+02  0.44997749680E+03 -0.32352220760E+03  0.55683963236E+03  0.00000000000E+00 0. -1.
          1    1    6    6  503    0  0.14774707224E+02 -0.19322723769E+02 -0.31986388698E+02  0.40184433421E+02  0.00000000000E+00 0. -1.
         -1    1    6    6    0  503 -0.20074338925E+02  0.37830252629E+02  0.34193806237E+02  0.54802586456E+02  0.00000000000E+00 0.  1.
<mgrwt>
<rscale>  0 0.18299467E+04</rscale>
<asrwt>0</asrwt>
<pdfrwt beam="1">  1        2 0.34803426E+00 0.18299467E+04</pdfrwt>
<pdfrwt beam="2">  1       -2 0.29201566E+00 0.18299467E+04</pdfrwt>
<totfact> 0.15303360E-01</totfact>
</mgrwt>
</event>
<event>
12    1  0.1432447E-007  0.4137242E+03  0.7818608E-02  0.1039128E+00
          2   -1    0    0  501    0  0.00000000000E+00  0.00000000000E+00  0.82305693529E+03  0.82305693529E+03  0.00000000000E+00 0. -1.
         -2   -1    0    0    0  501 -0.00000000000E+00 -0.00000000000E+00 -0.39422830916E+03  0.39422830916E+03  0.00000000000E+00 0.  1.
         23    2    1    2    0    0  0.17892838622E+03  0.32271011177E+03  0.33490786507E+03  0.50666777899E+03  0.91606640263E+02 0.  0.
    5000000    2    1    2    0    0 -0.17892838622E+03 -0.32271011177E+03  0.93920761059E+02  0.71061746546E+03  0.59999907435E+03 0.  0.
         23    2    4    4    0    0 -0.14797998739E+03 -0.35959328673E+03  0.28534345060E+03  0.49082616749E+03  0.91016665339E+02 0.  0.
         23    2    4    4    0    0 -0.30948398832E+02  0.36883174956E+02 -0.19142268954E+03  0.21979129797E+03  0.96681935262E+02 0.  0.
          1    1    3    3  502    0  0.10636483662E+03  0.15219656803E+03  0.22301723308E+03  0.29019641632E+03  0.00000000000E+00 0. -1.
         -1    1    3    3    0  502  0.72563549596E+02  0.17051354374E+03  0.11189063199E+03  0.21647136267E+03  0.00000000000E+00 0.  1.
         13    1    5    5    0    0 -0.12978807245E+02 -0.13888345135E+03  0.11794884496E+03  0.18267181644E+03  0.00000000000E+00 0.  1.
        -13    1    5    5    0    0 -0.13500118014E+03 -0.22070983538E+03  0.16739460564E+03  0.30815435105E+03  0.00000000000E+00 0. -1.
          3    1    6    6  503    0 -0.12395057794E+01  0.26861477805E+02 -0.11097796397E+01  0.26912951813E+02  0.00000000000E+00 0. -1.
         -3    1    6    6    0  503 -0.29708893053E+02  0.10021697151E+02 -0.19031290990E+03  0.19287834615E+03  0.00000000000E+00 0.  1.
<mgrwt>
<rscale>  0 0.41372421E+03</rscale>
<asrwt>0</asrwt>
<pdfrwt beam="1">  1        2 0.12662414E+00 0.41372421E+03</pdfrwt>
<pdfrwt beam="2">  1       -2 0.60650509E-01 0.41372421E+03</pdfrwt>
<totfact> 0.87682912E+01</totfact>
</mgrwt>
</event>
<event>
12    1  0.1432447E-007  0.6314390E+03  0.7818608E-02  0.9842245E-01
          1   -1    0    0  501    0  0.00000000000E+00  0.00000000000E+00  0.11394332505E+04  0.11394332505E+04  0.00000000000E+00 0. -1.
         -1   -1    0    0    0  501 -0.00000000000E+00 -0.00000000000E+00 -0.58268885636E+03  0.58268885636E+03  0.00000000000E+00 0.  1.
         23    2    1    2    0    0  0.20222492925E+03  0.57681751565E+03 -0.12116274129E+03  0.62977036342E+03  0.91197217018E+02 0.  0.
    5000000    2    1    2    0    0 -0.20222492925E+03 -0.57681751565E+03  0.67790713545E+03  0.10923517434E+04  0.60005073014E+03 0.  0.
         23    2    4    4    0    0 -0.25508074180E+02 -0.10259102802E+03  0.54286711574E+03  0.56046972932E+03  0.90807660765E+02 0.  0.
         23    2    4    4    0    0 -0.17671685507E+03 -0.47422648763E+03  0.13504001971E+03  0.53188201413E+03  0.92428683819E+02 0.  0.
          2    1    3    3  502    0  0.38996526184E+02  0.22563570214E+03 -0.68077485003E+02  0.23888646487E+03  0.00000000000E+00 0. -1.
         -2    1    3    3    0  502  0.16322840307E+03  0.35118181352E+03 -0.53085256290E+02  0.39088389855E+03  0.00000000000E+00 0.  1.
         11    1    5    5    0    0 -0.43525104303E+02 -0.20355856291E+02  0.29008755033E+03  0.29404010346E+03  0.00000000000E+00 0.  1.
        -11    1    5    5    0    0  0.18017030123E+02 -0.82235171730E+02  0.25277956541E+03  0.26642962585E+03  0.00000000000E+00 0. -1.
          1    1    6    6  503    0 -0.55291910307E+02 -0.27949754170E+03  0.70942861971E+02  0.29361362507E+03  0.00000000000E+00 0. -1.
         -1    1    6    6    0  503 -0.12142494477E+03 -0.19472894593E+03  0.64097157739E+02  0.23826838906E+03  0.00000000000E+00 0.  1.
<mgrwt>
<rscale>  0 0.63143902E+03</rscale>
<asrwt>0</asrwt>
<pdfrwt beam="1">  1        1 0.17529742E+00 0.63143902E+03</pdfrwt>
<pdfrwt beam="2">  1       -1 0.89644440E-01 0.63143902E+03</pdfrwt>
<totfact> 0.15151193E+01</totfact>
</mgrwt>
</event>
<event>
12    1  0.1432447E-007  0.2089931E+04  0.7818608E-02  0.8565692E-01
          2   -1    0    0  501    0  0.00000000000E+00  0.00000000000E+00  0.28329593643E+04  0.28329593643E+04  0.00000000000E+00 0.  1.
         -2   -1    0    0    0  501 -0.00000000000E+00 -0.00000000000E+00 -0.16093475889E+04  0.16093475889E+04  0.00000000000E+00 0. -1.
         23    2    1    2    0    0  0.49232312552E+03  0.19936348012E+04  0.18396847395E+03  0.20637696281E+04  0.91317567376E+02 0.  0.
    5000000    2    1    2    0    0 -0.49232312552E+03 -0.19936348012E+04  0.10396433014E+04  0.23785373251E+04  0.59968311013E+03 0.  0.
         23    2    4    4    0    0 -0.24679606981E+03 -0.21243257078E+03  0.19304001882E+03  0.38917523291E+03  0.90316199208E+02 0.  0.
         23    2    4    4    0    0 -0.24552705571E+03 -0.17812022304E+04  0.84660328259E+03  0.19893620922E+04  0.88653794656E+02 0.  0.
          4    1    3    3  502    0  0.66181565729E+02  0.18251802945E+03  0.34628857315E+02  0.19721051817E+03  0.00000000000E+00 0. -1.
         -4    1    3    3    0  502  0.42614155979E+03  0.18111167717E+04  0.14933961663E+03  0.18665591099E+04  0.00000000000E+00 0.  1.
         13    1    5    5    0    0 -0.18219970891E+03 -0.14108399425E+03  0.17925227383E+03  0.29194657908E+03  0.00000000000E+00 0. -1.
        -13    1    5    5    0    0 -0.64596360897E+02 -0.71348576527E+02  0.13787744995E+02  0.97228653830E+02  0.00000000000E+00 0.  1.
          3    1    6    6  503    0 -0.54039256058E+02 -0.51992142790E+03  0.28650206495E+03  0.59608889069E+03  0.00000000000E+00 0. -1.
         -3    1    6    6    0  503 -0.19148779966E+03 -0.12612808025E+04  0.56010121765E+03  0.13932732015E+04  0.00000000000E+00 0.  1.
<mgrwt>
<rscale>  0 0.20899307E+04</rscale>
<asrwt>0</asrwt>
<pdfrwt beam="1">  1        2 0.43583990E+00 0.20899307E+04</pdfrwt>
<pdfrwt beam="2">  1       -2 0.24759194E+00 0.20899307E+04</pdfrwt>
<totfact> 0.12941289E-01</totfact>
</mgrwt>
</event>
<event>
12    1  0.1432447E-007  0.3659482E+03  0.7818608E-02  0.1056253E+00
         -2   -1    0    0    0  501 -0.00000000000E+00  0.00000000000E+00  0.15252125253E+03  0.15252125253E+03  0.00000000000E+00 0. -1.
          2   -1    0    0  501    0  0.00000000000E+00 -0.00000000000E+00 -0.19655637730E+04  0.19655637730E+04  0.00000000000E+00 0.  1.
         23    2    1    2    0    0 -0.77077803028E+02  0.11305455284E+03 -0.13186742353E+04  0.13289343157E+04  0.91882298170E+02 0.  0.
    5000000    2    1    2    0    0  0.77077803028E+02 -0.11305455284E+03 -0.49436828508E+03  0.78915070985E+03  0.59969702510E+03 0.  0.
         23    2    4    4    0    0  0.19582363133E+03  0.17092740485E+03 -0.13195179114E+03  0.30517933160E+03  0.90333144179E+02 0.  0.
         23    2    4    4    0    0 -0.11874582830E+03 -0.28398195768E+03 -0.36241649394E+03  0.48397137824E+03  0.90201196499E+02 0.  0.
          4    1    3    3  502    0  0.25038115148E+01  0.49733887613E+02 -0.22010546007E+03  0.22566821266E+03  0.00000000000E+00 0. -1.
         -4    1    3    3    0  502 -0.79581614543E+02  0.63320665225E+02 -0.10985687753E+04  0.11032661030E+04  0.00000000000E+00 0.  1.
         11    1    5    5    0    0  0.64008023240E+02  0.12026825400E+02 -0.53620995957E+02  0.84361619092E+02  0.00000000000E+00 0. -1.
        -11    1    5    5    0    0  0.13181560809E+03  0.15890057945E+03 -0.78330795186E+02  0.22081771251E+03  0.00000000000E+00 0.  1.
          4    1    6    6  503    0 -0.19282360346E+01 -0.20584193447E+02 -0.71830509961E+02  0.74746566980E+02  0.00000000000E+00 0. -1.
         -4    1    6    6    0  503 -0.11681759227E+03 -0.26339776424E+03 -0.29058598398E+03  0.40922481126E+03  0.00000000000E+00 0.  1.
<mgrwt>
<rscale>  0 0.36594815E+03</rscale>
<asrwt>0</asrwt>
<pdfrwt beam="1">  1        2 0.30239443E+00 0.36594815E+03</pdfrwt>
<pdfrwt beam="2">  1       -2 0.23464808E-01 0.36594815E+03</pdfrwt>
<totfact> 0.12143979E+02</totfact>
</mgrwt>
</event>
<event>
12    1  0.1432447E-007  0.6659042E+03  0.7818608E-02  0.9777385E-01
         -2   -1    0    0    0  501 -0.00000000000E+00  0.00000000000E+00  0.11216424882E+04  0.11216424882E+04  0.00000000000E+00 0.  1.
          2   -1    0    0  501    0  0.00000000000E+00 -0.00000000000E+00 -0.45119195801E+03  0.45119195801E+03  0.00000000000E+00 0. -1.
         23    2    1    2    0    0 -0.48395381470E+03  0.26377895396E+03  0.47976670780E+03  0.73610045872E+03  0.88753366697E+02 0.  0.
    5000000    2    1    2    0    0  0.48395381470E+03 -0.26377895396E+03  0.19068382234E+03  0.83673398744E+03  0.59997734484E+03 0.  0.
         23    2    4    4    0    0  0.32325032501E+03  0.12759669561E+03 -0.10896739344E+02  0.35955720702E+03  0.91602166112E+02 0.  0.
         23    2    4    4    0    0  0.16070348968E+03 -0.39137564957E+03  0.20158056169E+03  0.47717678043E+03  0.89791125702E+02 0.  0.
          4    1    3    3  502    0 -0.11072384429E+03  0.21887398086E+02  0.83215143060E+02  0.14022691584E+03  0.00000000000E+00 0. -1.
         -4    1    3    3    0  502 -0.37322997040E+03  0.24189155587E+03  0.39655156474E+03  0.59587354289E+03  0.00000000000E+00 0.  1.
         11    1    5    5    0    0  0.11388983160E+03  0.25425826291E+02  0.35597248576E+02  0.12200217413E+03  0.00000000000E+00 0.  1.
        -11    1    5    5    0    0  0.20936049341E+03  0.10217086932E+03 -0.46493987920E+02  0.23755503289E+03  0.00000000000E+00 0. -1.
          1    1    6    6  503    0  0.21777381193E+02 -0.91158323958E+02  0.84719021219E+02  0.12633846174E+03  0.00000000000E+00 0. -1.
         -1    1    6    6    0  503  0.13892610849E+03 -0.30021732561E+03  0.11686154047E+03  0.35083831869E+03  0.00000000000E+00 0.  1.
<mgrwt>
<rscale>  0 0.66590415E+03</rscale>
<asrwt>0</asrwt>
<pdfrwt beam="1">  1        2 0.69414148E-01 0.66590415E+03</pdfrwt>
<pdfrwt beam="2">  1       -2 0.17256038E+00 0.66590415E+03</pdfrwt>
<totfact> 0.14511748E+01</totfact>
</mgrwt>
</event>
<event>
12    1  0.1432447E-007  0.7438867E+03  0.7818608E-02  0.9644990E-01
         -2   -1    0    0    0  501 -0.00000000000E+00  0.00000000000E+00  0.61003903736E+03  0.61003903736E+03  0.00000000000E+00 0.  1.
          2   -1    0    0  501    0  0.00000000000E+00 -0.00000000000E+00 -0.12547546883E+04  0.12547546883E+04  0.00000000000E+00 0. -1.
         23    2    1    2    0    0 -0.40923734557E+01 -0.68810059259E+03  0.80530889379E+02  0.69880165514E+03  0.91320074675E+02 0.  0.
    5000000    2    1    2    0    0  0.40923734557E+01  0.68810059259E+03 -0.72524654031E+03  0.11659920705E+04  0.60004649088E+03 0.  0.
         23    2    4    4    0    0  0.56589537783E+02 -0.88688008639E+01  0.48612375521E+02  0.11902701909E+03  0.92321377829E+02 0.  0.
         23    2    4    4    0    0 -0.52497164327E+02  0.69696939346E+03 -0.77385891583E+03  0.10469650514E+04  0.93573017531E+02 0.  0.
          2    1    3    3  502    0 -0.20775231182E+02 -0.15755932366E+03  0.52069299029E+02  0.16723564992E+03  0.00000000000E+00 0. -1.
         -2    1    3    3    0  502  0.16682857726E+02 -0.53054126893E+03  0.28461590350E+02  0.53156600522E+03  0.00000000000E+00 0.  1.
         11    1    5    5    0    0  0.19599224443E+02 -0.40023454047E+02 -0.72369825009E+01  0.45148426199E+02  0.00000000000E+00 0.  1.
        -11    1    5    5    0    0  0.36990313340E+02  0.31154653183E+02  0.55849358022E+02  0.73878592890E+02  0.00000000000E+00 0. -1.
          1    1    6    6  503    0  0.19635991104E+02  0.35909967062E+03 -0.40149260604E+03  0.53901248435E+03  0.00000000000E+00 0. -1.
         -1    1    6    6    0  503 -0.72133155431E+02  0.33786972284E+03 -0.37236630979E+03  0.50795256707E+03  0.00000000000E+00 0.  1.
<mgrwt>
<rscale>  0 0.74388671E+03</rscale>
<asrwt>0</asrwt>
<pdfrwt beam="1">  1        2 0.19303918E+00 0.74388671E+03</pdfrwt>
<pdfrwt beam="2">  1       -2 0.93852160E-01 0.74388671E+03</pdfrwt>
<totfact> 0.17200858E+01</totfact>
</mgrwt>
</event>
<event>
12    1  0.1432447E-007  0.8057610E+03  0.7818608E-02  0.9551716E-01
          2   -1    0    0  501    0  0.00000000000E+00  0.00000000000E+00  0.13337546496E+04  0.13337546496E+04  0.00000000000E+00 0. -1.
         -2   -1    0    0    0  501 -0.00000000000E+00 -0.00000000000E+00 -0.64027973440E+03  0.64027973440E+03  0.00000000000E+00 0.  1.
         23    2    1    2    0    0  0.56557240226E+03 -0.42391512474E+03  0.76336913566E+03  0.10442761966E+04  0.90576830835E+02 0.  0.
    5000000    2    1    2    0    0 -0.56557240226E+03  0.42391512474E+03 -0.69894220438E+02  0.92975818743E+03  0.59999075815E+03 0.  0.
         23    2    4    4    0    0 -0.53139794404E+03  0.69892305600E+02 -0.12433039340E+03  0.55778257844E+03  0.91622315907E+02 0.  0.
         23    2    4    4    0    0 -0.34174458219E+02  0.35402281914E+03  0.54436172964E+02  0.37197560900E+03  0.94353095824E+02 0.  0.
          3    1    3    3  502    0  0.37976722804E+03 -0.23932649122E+03  0.44589663826E+03  0.63271172654E+03  0.00000000000E+00 0. -1.
         -3    1    3    3    0  502  0.18580517422E+03 -0.18458863353E+03  0.31747249739E+03  0.41156447004E+03  0.00000000000E+00 0.  1.
         11    1    5    5    0    0 -0.25757856407E+03  0.57116622217E+02 -0.10160998534E+03  0.28272533372E+03  0.00000000000E+00 0. -1.
        -11    1    5    5    0    0 -0.27381937997E+03  0.12775683383E+02 -0.22720408061E+02  0.27505724472E+03  0.00000000000E+00 0.  1.
          3    1    6    6  503    0 -0.37874286756E+02  0.77844963917E+02 -0.13307866114E+02  0.87586524677E+02  0.00000000000E+00 0. -1.
         -3    1    6    6    0  503  0.36998285374E+01  0.27617785523E+03  0.67744039078E+02  0.28438908432E+03  0.00000000000E+00 0.  1.
<mgrwt>
<rscale>  0 0.80576100E+03</rscale>
<asrwt>0</asrwt>
<pdfrwt beam="1">  1        2 0.20519302E+00 0.80576100E+03</pdfrwt>
<pdfrwt beam="2">  1       -2 0.98504575E-01 0.80576100E+03</pdfrwt>
<totfact> 0.13723876E+01</totfact>
</mgrwt>
</event>
<event>
12    1  0.1432447E-007  0.1750610E+04  0.7818608E-02  0.8733014E-01
          1   -1    0    0  501    0  0.00000000000E+00  0.00000000000E+00  0.20438544799E+04  0.20438544799E+04  0.00000000000E+00 0. -1.
         -1   -1    0    0    0  501 -0.00000000000E+00 -0.00000000000E+00 -0.15939970438E+04  0.15939970438E+04  0.00000000000E+00 0.  1.
         23    2    1    2    0    0 -0.41518980188E+03  0.16882574865E+04  0.45202788661E+03  0.17986891948E+04  0.91420439494E+02 0.  0.
    5000000    2    1    2    0    0  0.41518980188E+03 -0.16882574865E+04 -0.21704504784E+01  0.18391623289E+04  0.59993120320E+03 0.  0.
         23    2    4    4    0    0  0.26857605884E+03 -0.58006392197E+03  0.24479490973E+03  0.69046513167E+03  0.90610690672E+02 0.  0.
         23    2    4    4    0    0  0.14661374304E+03 -0.11081935646E+04 -0.24696536020E+03  0.11486971972E+04  0.94471135728E+02 0.  0.
          1    1    3    3  502    0 -0.30718792112E+03  0.13786926204E+04  0.34832420600E+03  0.14548152848E+04  0.00000000000E+00 0. -1.
         -1    1    3    3    0  502 -0.10800188076E+03  0.30956486610E+03  0.10370368061E+03  0.34387390995E+03  0.00000000000E+00 0.  1.
         13    1    5    5    0    0  0.17053083956E+03 -0.37460134870E+03  0.11056586912E+03  0.42618276490E+03  0.00000000000E+00 0. -1.
        -13    1    5    5    0    0  0.98045219283E+02 -0.20546257328E+03  0.13422904060E+03  0.26428236676E+03  0.00000000000E+00 0.  1.
          1    1    6    6  503    0  0.35338212967E+02 -0.61512378295E+03 -0.14715054349E+03  0.63346613176E+03  0.00000000000E+00 0. -1.
         -1    1    6    6    0  503  0.11127553007E+03 -0.49306978162E+03 -0.99814816714E+02  0.51523106542E+03  0.00000000000E+00 0.  1.
<mgrwt>
<rscale>  0 0.17506102E+04</rscale>
<asrwt>0</asrwt>
<pdfrwt beam="1">  1        1 0.31443915E+00 0.17506102E+04</pdfrwt>
<pdfrwt beam="2">  1       -1 0.24523031E+00 0.17506102E+04</pdfrwt>
<totfact> 0.19125836E-01</totfact>
</mgrwt>
</event>
<event>
12    1  0.1432447E-007  0.5925275E+03  0.7818608E-02  0.9921032E-01
         -2   -1    0    0    0  501 -0.00000000000E+00  0.00000000000E+00  0.27626584859E+03  0.27626584859E+03  0.00000000000E+00 0.  1.
          2   -1    0    0  501    0  0.00000000000E+00 -0.00000000000E+00 -0.21110501336E+04  0.21110501336E+04  0.00000000000E+00 0. -1.
         23    2    1    2    0    0  0.47891406072E+03 -0.29943347519E+03 -0.30013911200E+03  0.64541695105E+03  0.86374015376E+02 0.  0.
    5000000    2    1    2    0    0 -0.47891406072E+03  0.29943347519E+03 -0.15346451730E+04  0.17418990311E+04  0.60004778480E+03 0.  0.
         23    2    4    4    0    0 -0.38219989261E+02  0.46917720744E+02  0.13186590797E+02  0.11037981486E+03  0.91366171271E+02 0.  0.
         23    2    4    4    0    0 -0.44069407146E+03  0.25251575445E+03 -0.15478317638E+04  0.16315192163E+04  0.89979515459E+02 0.  0.
          1    1    3    3  502    0  0.25424025383E+03 -0.17774342059E+03 -0.20939553220E+03  0.37426904645E+03  0.00000000000E+00 0. -1.
         -1    1    3    3    0  502  0.22467380689E+03 -0.12169005461E+03 -0.90743579803E+02  0.27114790460E+03  0.00000000000E+00 0.  1.
         13    1    5    5    0    0 -0.39786773759E+02  0.71939557493E+02  0.19576331398E+02  0.84507514751E+02  0.00000000000E+00 0. -1.
        -13    1    5    5    0    0  0.15667844974E+01 -0.25021836749E+02 -0.63897406009E+01  0.25872300108E+02  0.00000000000E+00 0.  1.
          3    1    6    6  503    0 -0.25348920309E+03  0.18177095274E+03 -0.10365340847E+04  0.10824510908E+04  0.00000000000E+00 0. -1.
         -3    1    6    6    0  503 -0.18720486837E+03  0.70744801706E+02 -0.51129767915E+03  0.54906812548E+03  0.00000000000E+00 0.  1.
<mgrwt>
<rscale>  0 0.59252749E+03</rscale>
<asrwt>0</asrwt>
<pdfrwt beam="1">  1        2 0.32477694E+00 0.59252749E+03</pdfrwt>
<pdfrwt beam="2">  1       -2 0.42502439E-01 0.59252749E+03</pdfrwt>
<totfact> 0.32196831E+01</totfact>
</mgrwt>
</event>
<event>
12    1  0.1432447E-007  0.5698341E+03  0.7818608E-02  0.9970046E-01
         -2   -1    0    0    0  501 -0.00000000000E+00  0.00000000000E+00  0.77865675993E+03  0.77865675993E+03  0.00000000000E+00 0.  1.
          2   -1    0    0  501    0  0.00000000000E+00 -0.00000000000E+00 -0.81045873480E+03  0.81045873480E+03  0.00000000000E+00 0. -1.
         23    2    1    2    0    0 -0.11950200996E+03 -0.45117466692E+03  0.47883834360E+03  0.67332558802E+03  0.79005555061E+02 0.  0.
    5000000    2    1    2    0    0  0.11950200996E+03  0.45117466692E+03 -0.51064031847E+03  0.91578990671E+03  0.60006525306E+03 0.  0.
         23    2    4    4    0    0 -0.15029583534E+03  0.31833768466E+03 -0.62675024249E+02  0.36851999759E+03  0.89168998905E+02 0.  0.
         23    2    4    4    0    0  0.26979784529E+03  0.13283698226E+03 -0.44796529422E+03  0.54726990912E+03  0.91623727384E+02 0.  0.
          3    1    3    3  502    0 -0.20403359451E+02 -0.18998213410E+03  0.23183361500E+03  0.30042691856E+03  0.00000000000E+00 0. -1.
         -3    1    3    3    0  502 -0.99098650506E+02 -0.26119253282E+03  0.24700472860E+03  0.37289866946E+03  0.00000000000E+00 0.  1.
         11    1    5    5    0    0 -0.54977018280E+02  0.18523286866E+03 -0.67676842422E+02  0.20472870627E+03  0.00000000000E+00 0.  1.
        -11    1    5    5    0    0 -0.95318817055E+02  0.13310481600E+03  0.50018181736E+01  0.16379129132E+03  0.00000000000E+00 0. -1.
          3    1    6    6  503    0  0.39401715102E+01 -0.98231490925E+01 -0.60840103339E+01  0.12207964260E+02  0.00000000000E+00 0. -1.
         -3    1    6    6    0  503  0.26585767378E+03  0.14266013135E+03 -0.44188128389E+03  0.53506194486E+03  0.00000000000E+00 0.  1.
<mgrwt>
<rscale>  0 0.56983414E+03</rscale>
<asrwt>0</asrwt>
<pdfrwt beam="1">  1        2 0.12468596E+00 0.56983414E+03</pdfrwt>
<pdfrwt beam="2">  1       -2 0.11979335E+00 0.56983414E+03</pdfrwt>
<totfact> 0.18700247E+01</totfact>
</mgrwt>
</event>
<event>
12    1  0.1432447E-007  0.6218665E+03  0.7818608E-02  0.9861051E-01
          2   -1    0    0  501    0  0.00000000000E+00  0.00000000000E+00  0.52560250740E+03  0.52560250740E+03  0.00000000000E+00 0. -1.
         -2   -1    0    0    0  501 -0.00000000000E+00 -0.00000000000E+00 -0.78524404498E+03  0.78524404498E+03  0.00000000000E+00 0.  1.
         23    2    1    2    0    0 -0.16844739896E+03  0.45830768803E+03 -0.67567217994E+01  0.49702226460E+03  0.92547366730E+02 0.  0.
    5000000    2    1    2    0    0  0.16844739896E+03 -0.45830768803E+03 -0.25288481577E+03  0.81382428778E+03  0.59994897967E+03 0.  0.
         23    2    4    4    0    0  0.17112346685E+03  0.93069030875E+02 -0.72623955809E+02  0.22676801680E+03  0.90578193127E+02 0.  0.
         23    2    4    4    0    0 -0.26760678893E+01 -0.55137671891E+03 -0.18026085996E+03  0.58705627098E+03  0.90097947671E+02 0.  0.
          2    1    3    3  502    0 -0.34016875478E+02  0.12929433038E+03 -0.41305996676E+02  0.13992982901E+03  0.00000000000E+00 0. -1.
         -2    1    3    3    0  502 -0.13443052349E+03  0.32901335765E+03  0.34549274876E+02  0.35709243559E+03  0.00000000000E+00 0.  1.
         11    1    5    5    0    0  0.10541601701E+03  0.25630995306E+02 -0.10432718486E+01  0.10849227152E+03  0.00000000000E+00 0. -1.
        -11    1    5    5    0    0  0.65707449844E+02  0.67438035568E+02 -0.71580683961E+02  0.11827574528E+03  0.00000000000E+00 0.  1.
          1    1    6    6  503    0 -0.11815722010E+02 -0.45863322840E+03 -0.11408333154E+03  0.47275686776E+03  0.00000000000E+00 0. -1.
         -1    1    6    6    0  503  0.91396541207E+01 -0.92743490504E+02 -0.66177528424E+02  0.11429940322E+03  0.00000000000E+00 0.  1.
<mgrwt>
<rscale>  0 0.62186646E+03</rscale>
<asrwt>0</asrwt>
<pdfrwt beam="1">  1        2 0.80861924E-01 0.62186646E+03</pdfrwt>
<pdfrwt beam="2">  1       -2 0.12080678E+00 0.62186646E+03</pdfrwt>
<totfact> 0.31045049E+01</totfact>
</mgrwt>
</event>
<event>
12    1  0.1432447E-007  0.6249745E+03  0.7818608E-02  0.9854905E-01
          2   -1    0    0  501    0  0.00000000000E+00  0.00000000000E+00  0.29955329855E+04  0.29955329855E+04  0.00000000000E+00 0. -1.
         -2   -1    0    0    0  501 -0.00000000000E+00 -0.00000000000E+00 -0.17871496619E+03  0.17871496619E+03  0.00000000000E+00 0.  1.
         23    2    1    2    0    0 -0.54677118191E+03 -0.29333803751E+02  0.62141591245E+03  0.83339278898E+03  0.92555967203E+02 0.  0.
    5000000    2    1    2    0    0  0.54677118191E+03  0.29333803751E+02  0.21954021069E+04  0.23408551627E+04  0.59999440382E+03 0.  0.
         23    2    4    4    0    0  0.40879418040E+02 -0.14286117524E+03  0.16695840426E+03  0.24067522026E+03  0.89269315476E+02 0.  0.
         23    2    4    4    0    0  0.50589176387E+03  0.17219497899E+03  0.20284437026E+04  0.21001799425E+04  0.10292885187E+03 0.  0.
          4    1    3    3  502    0 -0.34128684524E+03  0.22729966312E+02  0.41106096733E+03  0.53475646884E+03  0.00000000000E+00 0. -1.
         -4    1    3    3    0  502 -0.20548433667E+03 -0.52063770063E+02  0.21035494511E+03  0.29863632014E+03  0.00000000000E+00 0.  1.
         11    1    5    5    0    0  0.45419228373E+02 -0.14609334860E+03  0.12283269511E+03  0.19619899031E+03  0.00000000000E+00 0.  1.
        -11    1    5    5    0    0 -0.45398103328E+01  0.32321733630E+01  0.44125709154E+02  0.44476229953E+02  0.00000000000E+00 0. -1.
          1    1    6    6  503    0  0.82276305933E+01  0.12007045906E+02  0.19566179205E+02  0.24386439372E+02  0.00000000000E+00 0. -1.
         -1    1    6    6    0  503  0.49766413328E+03  0.16018793308E+03  0.20088775234E+04  0.20757935031E+04  0.00000000000E+00 0.  1.
<mgrwt>
<rscale>  0 0.62497451E+03</rscale>
<asrwt>0</asrwt>
<pdfrwt beam="1">  1        2 0.46085119E+00 0.62497451E+03</pdfrwt>
<pdfrwt beam="2">  1       -2 0.27494612E-01 0.62497451E+03</pdfrwt>
<totfact> 0.22856714E+01</totfact>
</mgrwt>
</event>
<event>
12    1  0.1432447E-007  0.1719982E+04  0.7818608E-02  0.8750049E-01
          2   -1    0    0  501    0  0.00000000000E+00  0.00000000000E+00  0.24575096370E+04  0.24575096370E+04  0.00000000000E+00 0. -1.
         -2   -1    0    0    0  501 -0.00000000000E+00 -0.00000000000E+00 -0.19045769657E+04  0.19045769657E+04  0.00000000000E+00 0.  1.
         23    2    1    2    0    0 -0.16115608386E+04  0.44350998522E+03 -0.10448173078E+04  0.19732165066E+04  0.90059602047E+02 0.  0.
    5000000    2    1    2    0    0  0.16115608386E+04 -0.44350998522E+03  0.15977499791E+04  0.23888700961E+04  0.60005491145E+03 0.  0.
         23    2    4    4    0    0  0.22336216915E+03  0.12535084012E+03  0.28561458669E+03  0.39413056665E+03  0.90331166892E+02 0.  0.
         23    2    4    4    0    0  0.13881986694E+04 -0.56886082534E+03  0.13121353924E+04  0.19947395294E+04  0.81168453330E+02 0.  0.
          1    1    3    3  502    0 -0.44827050962E+03  0.12421374429E+03 -0.24385141807E+03  0.52520378727E+03  0.00000000000E+00 0. -1.
         -1    1    3    3    0  502 -0.11632903289E+04  0.31929624094E+03 -0.80096588969E+03  0.14480127193E+04  0.00000000000E+00 0.  1.
         13    1    5    5    0    0  0.47564285560E+02  0.65394950431E+02  0.53989528632E+02  0.97230293657E+02  0.00000000000E+00 0. -1.
        -13    1    5    5    0    0  0.17579788359E+03  0.59955889686E+02  0.23162505806E+03  0.29690027299E+03  0.00000000000E+00 0.  1.
          3    1    6    6  503    0  0.11021712084E+04 -0.48200758855E+03  0.10721176746E+04  0.16113810834E+04  0.00000000000E+00 0. -1.
         -3    1    6    6    0  503  0.28602746106E+03 -0.86853236784E+02  0.24001771788E+03  0.38335844600E+03  0.00000000000E+00 0.  1.
<mgrwt>
<rscale>  0 0.17199817E+04</rscale>
<asrwt>0</asrwt>
<pdfrwt beam="1">  1        2 0.37807840E+00 0.17199817E+04</pdfrwt>
<pdfrwt beam="2">  1       -2 0.29301184E+00 0.17199817E+04</pdfrwt>
<totfact> 0.11801079E-01</totfact>
</mgrwt>
</event>
<event>
12    1  0.1432447E-007  0.1349402E+04  0.7818608E-02  0.8991281E-01
          1   -1    0    0  501    0  0.00000000000E+00  0.00000000000E+00  0.14380056116E+04  0.14380056116E+04  0.00000000000E+00 0. -1.
         -1   -1    0    0    0  501 -0.00000000000E+00 -0.00000000000E+00 -0.15732349057E+04  0.15732349057E+04  0.00000000000E+00 0.  1.
         23    2    1    2    0    0  0.95857849064E+03  0.89211955022E+03  0.54110842006E+03  0.14199604188E+04  0.93483977090E+02 0.  0.
    5000000    2    1    2    0    0 -0.95857849064E+03 -0.89211955022E+03 -0.67633771417E+03  0.15912800986E+04  0.59999136164E+03 0.  0.
         23    2    4    4    0    0 -0.34655431306E+01  0.26479729977E+02 -0.11624266429E+03  0.14970029254E+03  0.90468969787E+02 0.  0.
         23    2    4    4    0    0 -0.95511294751E+03 -0.91859928019E+03 -0.56009504988E+03  0.14415798061E+04  0.91545028928E+02 0.  0.
          3    1    3    3  502    0  0.51089567490E+03  0.45959790325E+03  0.33276373033E+03  0.76352886227E+03  0.00000000000E+00 0. -1.
         -3    1    3    3    0  502  0.44768281574E+03  0.43252164697E+03  0.20834468973E+03  0.65643155648E+03  0.00000000000E+00 0.  1.
         11    1    5    5    0    0 -0.28545015864E+02  0.24479228882E+02 -0.78349548996E+01  0.38411418818E+02  0.00000000000E+00 0. -1.
        -11    1    5    5    0    0  0.25079472734E+02  0.20005010951E+01 -0.10840770940E+03  0.11128887372E+03  0.00000000000E+00 0.  1.
          4    1    6    6  503    0 -0.52725512732E+03 -0.46831415500E+03 -0.25853451970E+03  0.75110333172E+03  0.00000000000E+00 0. -1.
         -4    1    6    6    0  503 -0.42785782020E+03 -0.45028512520E+03 -0.30156053018E+03  0.69047647436E+03  0.00000000000E+00 0.  1.
<mgrwt>
<rscale>  0 0.13494021E+04</rscale>
<asrwt>0</asrwt>
<pdfrwt beam="1">  1        1 0.22123163E+00 0.13494021E+04</pdfrwt>
<pdfrwt beam="2">  1       -1 0.24203614E+00 0.13494021E+04</pdfrwt>
<totfact> 0.54673351E-01</totfact>
</mgrwt>
</event>
<event>
12    1  0.1432447E-007  0.6512178E+03  0.7818608E-02  0.9804497E-01
          2   -1    0    0  501    0  0.00000000000E+00  0.00000000000E+00  0.12440170015E+04  0.12440170015E+04  0.00000000000E+00 0. -1.
         -2   -1    0    0    0  501 -0.00000000000E+00 -0.00000000000E+00 -0.45795096980E+03  0.45795096980E+03  0.00000000000E+00 0.  1.
         23    2    1    2    0    0 -0.50656303827E+03 -0.35126117934E+03  0.48744942617E+03  0.79139267668E+03  0.93300041692E+02 0.  0.
    5000000    2    1    2    0    0  0.50656303827E+03  0.35126117934E+03  0.29861660556E+03  0.91057529465E+03  0.59998746842E+03 0.  0.
         23    2    4    4    0    0  0.38797933264E+03  0.11756429975E+03 -0.97397691192E+02  0.42704152859E+03  0.92351663556E+02 0.  0.
         23    2    4    4    0    0  0.11858370562E+03  0.23369687959E+03  0.39601429675E+03  0.48353376605E+03  0.91111211790E+02 0.  0.
          1    1    3    3  502    0 -0.13095253354E+03 -0.11463584678E+03  0.18634897151E+03  0.25498212210E+03  0.00000000000E+00 0. -1.
         -1    1    3    3    0  502 -0.37561050472E+03 -0.23662533256E+03  0.30110045466E+03  0.53641055458E+03  0.00000000000E+00 0.  1.
         13    1    5    5    0    0  0.18576085683E+03  0.18231761304E+02 -0.73021032427E+02  0.20042845164E+03  0.00000000000E+00 0. -1.
        -13    1    5    5    0    0  0.20221847581E+03  0.99332538443E+02 -0.24376658765E+02  0.22661307695E+03  0.00000000000E+00 0.  1.
          3    1    6    6  503    0  0.10740928276E+02  0.10077328082E+03  0.19299940355E+03  0.21798942965E+03  0.00000000000E+00 0. -1.
         -3    1    6    6    0  503  0.10784277735E+03  0.13292359877E+03  0.20301489319E+03  0.26554433640E+03  0.00000000000E+00 0.  1.
<mgrwt>
<rscale>  0 0.65121778E+03</rscale>
<asrwt>0</asrwt>
<pdfrwt beam="1">  1        2 0.19138723E+00 0.65121778E+03</pdfrwt>
<pdfrwt beam="2">  1       -2 0.70453996E-01 0.65121778E+03</pdfrwt>
<totfact> 0.33676842E+01</totfact>
</mgrwt>
</event>
<event>
12    1  0.1432447E-007  0.8624300E+03  0.7818608E-02  0.9473804E-01
          2   -1    0    0  501    0  0.00000000000E+00  0.00000000000E+00  0.35908946248E+04  0.35908946248E+04  0.00000000000E+00 0.  1.
         -2   -1    0    0    0  501 -0.00000000000E+00 -0.00000000000E+00 -0.21630364942E+03  0.21630364942E+03  0.00000000000E+00 0. -1.
         23    2    1    2    0    0  0.39760909254E+03  0.66047035955E+03  0.16933432248E+04  0.18628041609E+04  0.91181021192E+02 0.  0.
    5000000    2    1    2    0    0 -0.39760909254E+03 -0.66047035955E+03  0.16812477506E+04  0.19443941133E+04  0.59980028568E+03 0.  0.
         23    2    4    4    0    0  0.77134135643E+02  0.21744990493E+02  0.37505654083E+03  0.39398305933E+03  0.90181609710E+02 0.  0.
         23    2    4    4    0    0 -0.47474322819E+03 -0.68221535005E+03  0.13061912098E+04  0.15504110540E+04  0.82704554280E+02 0.  0.
          4    1    3    3  502    0  0.22184808500E+03  0.38382437629E+03  0.10783796284E+04  0.11659504053E+04  0.00000000000E+00 0.  1.
         -4    1    3    3    0  502  0.17576100755E+03  0.27664598326E+03  0.61496359640E+03  0.69685375562E+03  0.00000000000E+00 0. -1.
         13    1    5    5    0    0 -0.78869617642E+01 -0.23175053908E+02  0.74465601992E+02  0.78386307283E+02  0.00000000000E+00 0.  1.
        -13    1    5    5    0    0  0.85021097407E+02  0.44920044401E+02  0.30059093883E+03  0.31559675205E+03  0.00000000000E+00 0. -1.
          4    1    6    6  503    0 -0.34591972254E+03 -0.45010421567E+03  0.83747248338E+03  0.10117383159E+04  0.00000000000E+00 0. -1.
         -4    1    6    6    0  503 -0.12882350564E+03 -0.23211113438E+03  0.46871872639E+03  0.53867273811E+03  0.00000000000E+00 0.  1.
<mgrwt>
<rscale>  0 0.86243002E+03</rscale>
<asrwt>0</asrwt>
<pdfrwt beam="1">  1        2 0.55244528E+00 0.86243002E+03</pdfrwt>
<pdfrwt beam="2">  1       -2 0.33277487E-01 0.86243002E+03</pdfrwt>
<totfact> 0.62831356E+00</totfact>
</mgrwt>
</event>
<event>
12    1  0.1432447E-007  0.6290187E+03  0.7818608E-02  0.9846966E-01
         -1   -1    0    0    0  501 -0.00000000000E+00  0.00000000000E+00  0.37051633426E+03  0.37051633426E+03  0.00000000000E+00 0.  1.
          1   -1    0    0  501    0  0.00000000000E+00 -0.00000000000E+00 -0.18067414894E+04  0.18067414894E+04  0.00000000000E+00 0. -1.
         23    2    1    2    0    0 -0.42817278539E+03  0.25587457827E+03  0.37887880819E+02  0.50939572662E+03  0.96149783315E+02 0.  0.
    5000000    2    1    2    0    0  0.42817278539E+03 -0.25587457827E+03 -0.14741130359E+04  0.16678620970E+04  0.59995916358E+03 0.  0.
         23    2    4    4    0    0 -0.65059266797E+02  0.82330675186E+02 -0.49846411849E+03  0.51978079998E+03  0.10341447836E+03 0.  0.
         23    2    4    4    0    0  0.49323205219E+03 -0.33820525345E+03 -0.97564891742E+03  0.11480812970E+04  0.92407811899E+02 0.  0.
          4    1    3    3  502    0 -0.17791290813E+03  0.56892332337E+02  0.32701197253E+02  0.18962887085E+03  0.00000000000E+00 0. -1.
         -4    1    3    3    0  502 -0.25025987727E+03  0.19898224593E+03  0.51866835658E+01  0.31976685577E+03  0.00000000000E+00 0.  1.
         11    1    5    5    0    0  0.14448778320E+02  0.63138584656E+02 -0.19429976252E+03  0.20481124428E+03  0.00000000000E+00 0. -1.
        -11    1    5    5    0    0 -0.79508045116E+02  0.19192090530E+02 -0.30416435597E+03  0.31496955570E+03  0.00000000000E+00 0.  1.
          1    1    6    6  503    0  0.23613605725E+03 -0.10720094983E+03 -0.43221859944E+03  0.50404880605E+03  0.00000000000E+00 0. -1.
         -1    1    6    6    0  503  0.25709599494E+03 -0.23100430363E+03 -0.54343031799E+03  0.64403249096E+03  0.00000000000E+00 0.  1.
<mgrwt>
<rscale>  0 0.62901866E+03</rscale>
<asrwt>0</asrwt>
<pdfrwt beam="1">  1        1 0.27796022E+00 0.62901866E+03</pdfrwt>
<pdfrwt beam="2">  1       -1 0.57002514E-01 0.62901866E+03</pdfrwt>
<totfact> 0.13338915E+01</totfact>
</mgrwt>
</event>
<event>
12    1  0.1432447E-007  0.6683293E+03  0.7818608E-02  0.9772981E-01
         -1   -1    0    0    0  501 -0.00000000000E+00  0.00000000000E+00  0.15655621871E+04  0.15655621871E+04  0.00000000000E+00 0.  1.
          1   -1    0    0  501    0  0.00000000000E+00 -0.00000000000E+00 -0.36779086112E+03  0.36779086112E+03  0.00000000000E+00 0. -1.
         23    2    1    2    0    0  0.44991062595E+02  0.56771979275E+03  0.86919806136E+03  0.10431823640E+04  0.91619954075E+02 0.  0.
    5000000    2    1    2    0    0 -0.44991062595E+02 -0.56771979275E+03  0.32857326460E+03  0.89017068415E+03  0.60009457414E+03 0.  0.
         23    2    4    4    0    0  0.22656008019E+03 -0.26260172562E+03  0.30349772697E+03  0.46994856654E+03  0.91932848746E+02 0.  0.
         23    2    4    4    0    0 -0.27155114279E+03 -0.30511806714E+03  0.25075537627E+02  0.42022211761E+03  0.95502814104E+02 0.  0.
          4    1    3    3  502    0  0.46180467586E+01  0.25540629845E+03  0.46774029533E+03  0.53294904777E+03  0.00000000000E+00 0. -1.
         -4    1    3    3    0  502  0.40373015836E+02  0.31231349430E+03  0.40145776603E+03  0.51023331627E+03  0.00000000000E+00 0.  1.
         11    1    5    5    0    0  0.21085335819E+03 -0.25103217942E+03  0.30811553495E+03  0.44990162996E+03  0.00000000000E+00 0.  1.
        -11    1    5    5    0    0  0.15706722009E+02 -0.11569546194E+02 -0.46178079830E+01  0.20046936573E+02  0.00000000000E+00 0. -1.
          3    1    6    6  503    0  0.74880344177E+01 -0.12840974044E+02 -0.29754230254E+01  0.15159631131E+02  0.00000000000E+00 0. -1.
         -3    1    6    6    0  503 -0.27903917721E+03 -0.29227709309E+03  0.28050960652E+02  0.40506248648E+03  0.00000000000E+00 0.  1.
<mgrwt>
<rscale>  0 0.66832933E+03</rscale>
<asrwt>0</asrwt>
<pdfrwt beam="1">  1        1 0.56583210E-01 0.66832933E+03</pdfrwt>
<pdfrwt beam="2">  1       -1 0.24085572E+00 0.66832933E+03</pdfrwt>
<totfact> 0.56395351E+00</totfact>
</mgrwt>
</event>
<event>
12    1  0.1432447E-007  0.7856913E+03  0.7818608E-02  0.9580962E-01
          2   -1    0    0  501    0  0.00000000000E+00  0.00000000000E+00  0.21570139639E+04  0.21570139639E+04  0.00000000000E+00 0. -1.
         -2   -1    0    0    0  501 -0.00000000000E+00 -0.00000000000E+00 -0.33476435216E+03  0.33476435216E+03  0.00000000000E+00 0.  1.
         23    2    1    2    0    0  0.67643283857E+03  0.16785572661E+03  0.11682414485E+04  0.13634381861E+04  0.91862262731E+02 0.  0.
    5000000    2    1    2    0    0 -0.67643283857E+03 -0.16785572661E+03  0.65400816323E+03  0.11283401299E+04  0.59973981124E+03 0.  0.
         23    2    4    4    0    0 -0.21553538040E+03 -0.31769419775E+03  0.43792726595E+03  0.59019300956E+03  0.95720398996E+02 0.  0.
         23    2    4    4    0    0 -0.46089745817E+03  0.14983847114E+03  0.21608089728E+03  0.53814712037E+03  0.89628871515E+02 0.  0.
          4    1    3    3  502    0  0.35234332776E+03  0.10283565492E+03  0.69832093258E+03  0.78890627924E+03  0.00000000000E+00 0. -1.
         -4    1    3    3    0  502  0.32408951081E+03  0.65020071689E+02  0.46992051591E+03  0.57453190687E+03  0.00000000000E+00 0.  1.
         13    1    5    5    0    0 -0.12296748957E+03 -0.15485622180E+03  0.15672466746E+03  0.25231740786E+03  0.00000000000E+00 0.  1.
        -13    1    5    5    0    0 -0.92567890834E+02 -0.16283797596E+03  0.28120259849E+03  0.33787560170E+03  0.00000000000E+00 0. -1.
          4    1    6    6  503    0 -0.17171956548E+03  0.88281917955E+02  0.51785891121E+02  0.19990769051E+03  0.00000000000E+00 0. -1.
         -4    1    6    6    0  503 -0.28917789269E+03  0.61556553187E+02  0.16429500616E+03  0.33823942986E+03  0.00000000000E+00 0.  1.
<mgrwt>
<rscale>  0 0.78569128E+03</rscale>
<asrwt>0</asrwt>
<pdfrwt beam="1">  1        2 0.33184829E+00 0.78569128E+03</pdfrwt>
<pdfrwt beam="2">  1       -2 0.51502209E-01 0.78569128E+03</pdfrwt>
<totfact> 0.20073009E+01</totfact>
</mgrwt>
</event>
<event>
12    1  0.1432447E-007  0.5131476E+03  0.7818608E-02  0.1010403E+00
         -1   -1    0    0    0  501 -0.00000000000E+00  0.00000000000E+00  0.22945896847E+03  0.22945896847E+03  0.00000000000E+00 0.  1.
          1   -1    0    0  501    0  0.00000000000E+00 -0.00000000000E+00 -0.14557134212E+04  0.14557134212E+04  0.00000000000E+00 0. -1.
         23    2    1    2    0    0 -0.24207208251E+03  0.29122597351E+03 -0.70120357336E+03  0.80252560264E+03  0.94601431426E+02 0.  0.
    5000000    2    1    2    0    0  0.24207208251E+03 -0.29122597351E+03 -0.52505087937E+03  0.88264678703E+03  0.59997955294E+03 0.  0.
         23    2    4    4    0    0  0.39207115501E+03 -0.25198430206E+03 -0.51834871704E+03  0.70238484415E+03  0.86273969191E+02 0.  0.
         23    2    4    4    0    0 -0.14999907250E+03 -0.39241671442E+02 -0.67021623339E+01  0.18026194288E+03  0.91705062788E+02 0.  0.
          2    1    3    3  502    0 -0.17262577861E+03  0.18898836147E+03 -0.37811213318E+03  0.45660162666E+03  0.00000000000E+00 0. -1.
         -2    1    3    3    0  502 -0.69446303895E+02  0.10223761203E+03 -0.32309144018E+03  0.34592397598E+03  0.00000000000E+00 0.  1.
         13    1    5    5    0    0  0.12519278610E+03 -0.10419637852E+03 -0.12912449076E+03  0.20785392251E+03  0.00000000000E+00 0. -1.
        -13    1    5    5    0    0  0.26687836891E+03 -0.14778792354E+03 -0.38922422628E+03  0.49453092164E+03  0.00000000000E+00 0.  1.
          2    1    6    6  503    0 -0.31917060985E+02 -0.50961530974E+02  0.81219607887E+01  0.60677365370E+02  0.00000000000E+00 0. -1.
         -2    1    6    6    0  503 -0.11808201152E+03  0.11719859532E+02 -0.14824123123E+02  0.11958457751E+03  0.00000000000E+00 0.  1.
<mgrwt>
<rscale>  0 0.51314756E+03</rscale>
<asrwt>0</asrwt>
<pdfrwt beam="1">  1        1 0.22395591E+00 0.51314756E+03</pdfrwt>
<pdfrwt beam="2">  1       -1 0.35301380E-01 0.51314756E+03</pdfrwt>
<totfact> 0.56788536E+01</totfact>
</mgrwt>
</event>
<event>
12    1  0.1432447E-007  0.3833095E+03  0.7818608E-02  0.1049717E+00
         -2   -1    0    0    0  501 -0.00000000000E+00  0.00000000000E+00  0.31439971583E+03  0.31439971583E+03  0.00000000000E+00 0. -1.
          2   -1    0    0  501    0  0.00000000000E+00 -0.00000000000E+00 -0.98364316930E+03  0.98364316930E+03  0.00000000000E+00 0.  1.
         23    2    1    2    0    0 -0.50325643105E+02 -0.28640404652E+03  0.56982628115E+02  0.31212446458E+03  0.98054644280E+02 0.  0.
    5000000    2    1    2    0    0  0.50325643105E+02  0.28640404652E+03 -0.72622608159E+03  0.98591842054E+03  0.60005904890E+03 0.  0.
         23    2    4    4    0    0  0.18059225296E+03  0.20891966498E+03 -0.59981370367E+02  0.29701960008E+03  0.91443369333E+02 0.  0.
         23    2    4    4    0    0 -0.13026660986E+03  0.77484381544E+02 -0.66624471122E+03  0.68889882046E+03  0.87899661985E+02 0.  0.
          3    1    3    3  502    0 -0.61646353254E+02 -0.87789237270E+02  0.10163087055E+02  0.10775208299E+03  0.00000000000E+00 0. -1.
         -3    1    3    3    0  502  0.11320710149E+02 -0.19861480925E+03  0.46819541060E+02  0.20437238159E+03  0.00000000000E+00 0.  1.
         13    1    5    5    0    0  0.68657904754E+02  0.30749444508E+02  0.85815326330E+01  0.75717097970E+02  0.00000000000E+00 0. -1.
        -13    1    5    5    0    0  0.11193434821E+03  0.17817022047E+03 -0.68562903000E+02  0.22130250211E+03  0.00000000000E+00 0.  1.
          4    1    6    6  503    0 -0.48605155373E+02  0.79385687008E+02 -0.37924450810E+03  0.39050089034E+03  0.00000000000E+00 0. -1.
         -4    1    6    6    0  503 -0.81661454483E+02 -0.19013054648E+01 -0.28700020313E+03  0.29839793013E+03  0.00000000000E+00 0.  1.
<mgrwt>
<rscale>  0 0.38330949E+03</rscale>
<asrwt>0</asrwt>
<pdfrwt beam="1">  1        2 0.15132972E+00 0.38330949E+03</pdfrwt>
<pdfrwt beam="2">  1       -2 0.48369187E-01 0.38330949E+03</pdfrwt>
<totfact> 0.10971463E+02</totfact>
</mgrwt>
</event>
<event>
12    1  0.1432447E-007  0.6844745E+03  0.7818608E-02  0.9744157E-01
          2   -1    0    0  501    0  0.00000000000E+00  0.00000000000E+00  0.74008692126E+03  0.74008692126E+03  0.00000000000E+00 0. -1.
         -2   -1    0    0    0  501 -0.00000000000E+00 -0.00000000000E+00 -0.66126130354E+03  0.66126130354E+03  0.00000000000E+00 0.  1.
         23    2    1    2    0    0 -0.20405706004E+03  0.52802883693E+03  0.42641532954E+02  0.57551412552E+03  0.94575218516E+02 0.  0.
    5000000    2    1    2    0    0  0.20405706004E+03 -0.52802883693E+03  0.36184084765E+02  0.82583409929E+03  0.60019907963E+03 0.  0.
         23    2    4    4    0    0 -0.14984689937E+03 -0.15251385931E+02  0.82829710152E+02  0.19436476792E+03  0.90720472334E+02 0.  0.
         23    2    4    4    0    0  0.35390395941E+03 -0.51277745100E+03 -0.46645625387E+02  0.63146933137E+03  0.91591349782E+02 0.  0.
          3    1    3    3  502    0 -0.12835263877E+03  0.42934626715E+03  0.50108845308E+02  0.45091408647E+03  0.00000000000E+00 0. -1.
         -3    1    3    3    0  502 -0.75704421268E+02  0.98682569773E+02 -0.74673123547E+01  0.12460003905E+03  0.00000000000E+00 0.  1.
         11    1    5    5    0    0 -0.16447281287E+02 -0.28237753528E+02  0.44029534883E+02  0.54831411873E+02  0.00000000000E+00 0.  1.
        -11    1    5    5    0    0 -0.13339961809E+03  0.12986367597E+02  0.38800175270E+02  0.13953335605E+03  0.00000000000E+00 0. -1.
          4    1    6    6  503    0  0.12549593760E+03 -0.11081869248E+03 -0.11878835640E+02  0.16784254435E+03  0.00000000000E+00 0. -1.
         -4    1    6    6    0  503  0.22840802181E+03 -0.40195875851E+03 -0.34766789747E+02  0.46362678702E+03  0.00000000000E+00 0.  1.
<mgrwt>
<rscale>  0 0.68447453E+03</rscale>
<asrwt>0</asrwt>
<pdfrwt beam="1">  1        2 0.11385953E+00 0.68447453E+03</pdfrwt>
<pdfrwt beam="2">  1       -2 0.10173251E+00 0.68447453E+03</pdfrwt>
<totfact> 0.30846622E+01</totfact>
</mgrwt>
</event>
<event>
12    1  0.1432447E-007  0.7870478E+03  0.7818608E-02  0.9578956E-01
         -1   -1    0    0    0  501 -0.00000000000E+00  0.00000000000E+00  0.70363610406E+03  0.70363610406E+03  0.00000000000E+00 0.  1.
          1   -1    0    0  501    0  0.00000000000E+00 -0.00000000000E+00 -0.12173499236E+04  0.12173499236E+04  0.00000000000E+00 0. -1.
         23    2    1    2    0    0  0.11270971881E+03  0.67859288353E+03 -0.70355774076E+03  0.98848509249E+03  0.94432521911E+02 0.  0.
    5000000    2    1    2    0    0 -0.11270971881E+03 -0.67859288353E+03  0.18984392128E+03  0.93250093512E+03  0.60027118644E+03 0.  0.
         23    2    4    4    0    0  0.17030792624E+03 -0.43306906299E+02  0.10837725048E+03  0.22638756255E+03  0.92873151026E+02 0.  0.
         23    2    4    4    0    0 -0.28301764505E+03 -0.63528597723E+03  0.81466670798E+02  0.70611337258E+03  0.90950625113E+02 0.  0.
          4    1    3    3  502    0  0.50253383292E+02  0.34862829846E+03 -0.42635160210E+03  0.55303054313E+03  0.00000000000E+00 0. -1.
         -4    1    3    3    0  502  0.62456335516E+02  0.32996458507E+03 -0.27720613866E+03  0.43545454936E+03  0.00000000000E+00 0.  1.
         13    1    5    5    0    0  0.56603499070E+02  0.18285428551E+02  0.69234847693E+02  0.91278568894E+02  0.00000000000E+00 0.  1.
        -13    1    5    5    0    0  0.11370442717E+03 -0.61592334850E+02  0.39142402787E+02  0.13510899365E+03  0.00000000000E+00 0. -1.
          1    1    6    6  503    0 -0.43384935644E+02 -0.14789369686E+03 -0.13657896928E+02  0.15472988192E+03  0.00000000000E+00 0. -1.
         -1    1    6    6    0  503 -0.23963270940E+03 -0.48739228038E+03  0.95124567726E+02  0.55138349066E+03  0.00000000000E+00 0.  1.
<mgrwt>
<rscale>  0 0.78704779E+03</rscale>
<asrwt>0</asrwt>
<pdfrwt beam="1">  1        1 0.18728460E+00 0.78704779E+03</pdfrwt>
<pdfrwt beam="2">  1       -1 0.10825171E+00 0.78704779E+03</pdfrwt>
<totfact> 0.84741560E+00</totfact>
</mgrwt>
</event>
<event>
12    1  0.1432447E-007  0.8407672E+03  0.7818608E-02  0.9502813E-01
         -2   -1    0    0    0  501 -0.00000000000E+00  0.00000000000E+00  0.23567095112E+03  0.23567095112E+03  0.00000000000E+00 0. -1.
          2   -1    0    0  501    0  0.00000000000E+00 -0.00000000000E+00 -0.31036448904E+04  0.31036448904E+04  0.00000000000E+00 0.  1.
         23    2    1    2    0    0  0.11755514702E+03  0.72508303283E+03 -0.15280160420E+04  0.16977066079E+04  0.88374683461E+02 0.  0.
    5000000    2    1    2    0    0 -0.11755514702E+03 -0.72508303283E+03 -0.13399578972E+04  0.16416092336E+04  0.59985756011E+03 0.  0.
         23    2    4    4    0    0 -0.27336831709E+03 -0.11060300554E+03 -0.42904898825E+03  0.52845229538E+03  0.90639574999E+02 0.  0.
         23    2    4    4    0    0  0.15581317006E+03 -0.61448002730E+03 -0.91090890897E+03  0.11131569382E+04  0.86601851838E+02 0.  0.
          2    1    3    3  502    0  0.88797346177E+02  0.28956906714E+03 -0.65706401784E+03  0.72351111731E+03  0.00000000000E+00 0. -1.
         -2    1    3    3    0  502  0.28757800844E+02  0.43551396569E+03 -0.87095202419E+03  0.97419549058E+03  0.00000000000E+00 0.  1.
         11    1    5    5    0    0 -0.27844320889E+03 -0.11190103467E+03 -0.42857701320E+03  0.52319281186E+03  0.00000000000E+00 0. -1.
        -11    1    5    5    0    0  0.50748918019E+01  0.12980291383E+01 -0.47197504478E+00  0.52594835191E+01  0.00000000000E+00 0.  1.
          3    1    6    6  503    0  0.12808431870E+03 -0.57181092134E+03 -0.80535544863E+03  0.99597726937E+03  0.00000000000E+00 0. -1.
         -3    1    6    6    0  503  0.27728851366E+02 -0.42669105958E+02 -0.10555346034E+03  0.11717966885E+03  0.00000000000E+00 0.  1.
<mgrwt>
<rscale>  0 0.84076725E+03</rscale>
<asrwt>0</asrwt>
<pdfrwt beam="1">  1        2 0.47748380E+00 0.84076725E+03</pdfrwt>
<pdfrwt beam="2">  1       -2 0.36257072E-01 0.84076725E+03</pdfrwt>
<totfact> 0.11244245E+01</totfact>
</mgrwt>
</event>
<event>
12    1  0.1432447E-007  0.4835484E+03  0.7818608E-02  0.1018164E+00
          2   -1    0    0  501    0  0.00000000000E+00  0.00000000000E+00  0.50746153623E+03  0.50746153623E+03  0.00000000000E+00 0.  1.
         -2   -1    0    0    0  501 -0.00000000000E+00 -0.00000000000E+00 -0.48924904886E+03  0.48924904886E+03  0.00000000000E+00 0. -1.
         23    2    1    2    0    0 -0.30462415848E+03 -0.97147766539E+01 -0.20500648759E+02  0.32296672041E+03  0.10486644399E+03 0.  0.
    5000000    2    1    2    0    0  0.30462415848E+03  0.97147766539E+01  0.38713136131E+02  0.67374386468E+03  0.59961807300E+03 0.  0.
         23    2    4    4    0    0  0.19860471211E+03  0.28493025348E+03  0.61346783651E+02  0.36422786880E+03  0.90936414745E+02 0.  0.
         23    2    4    4    0    0  0.10601944637E+03 -0.27521547683E+03 -0.22633647520E+02  0.30951599588E+03  0.91127317584E+02 0.  0.
          1    1    3    3  502    0 -0.75385919963E+02 -0.17270035746E+02 -0.49431635178E+02  0.91786587363E+02  0.00000000000E+00 0. -1.
         -1    1    3    3    0  502 -0.22923823852E+03  0.75552590922E+01  0.28930986419E+02  0.23118013304E+03  0.00000000000E+00 0.  1.
         11    1    5    5    0    0  0.58427100250E+01  0.48268833562E+02  0.30608087960E+02  0.57453220992E+02  0.00000000000E+00 0.  1.
        -11    1    5    5    0    0  0.19276200208E+03  0.23666141992E+03  0.30738695691E+02  0.30677464781E+03  0.00000000000E+00 0. -1.
          4    1    6    6  503    0  0.55774321302E+00 -0.11335913219E+03  0.91776398115E+01  0.11373140728E+03  0.00000000000E+00 0. -1.
         -4    1    6    6    0  503  0.10546170316E+03 -0.16185634464E+03 -0.31811287331E+02  0.19578458861E+03  0.00000000000E+00 0.  1.
<mgrwt>
<rscale>  0 0.48354844E+03</rscale>
<asrwt>0</asrwt>
<pdfrwt beam="1">  1        2 0.78071006E-01 0.48354844E+03</pdfrwt>
<pdfrwt beam="2">  1       -2 0.75269084E-01 0.48354844E+03</pdfrwt>
<totfact> 0.98659683E+01</totfact>
</mgrwt>
</event>
<event>
12    1  0.1432447E-007  0.7024167E+03  0.7818608E-02  0.9713108E-01
         -1   -1    0    0    0  501 -0.00000000000E+00  0.00000000000E+00  0.50095251473E+03  0.50095251473E+03  0.00000000000E+00 0.  1.
          1   -1    0    0  501    0  0.00000000000E+00 -0.00000000000E+00 -0.12638405808E+04  0.12638405808E+04  0.00000000000E+00 0. -1.
         23    2    1    2    0    0 -0.26831026770E+03 -0.50890337169E+03  0.72278839323E+02  0.58646089122E+03  0.87972182215E+02 0.  0.
    5000000    2    1    2    0    0  0.26831026770E+03  0.50890337169E+03 -0.83516690536E+03  0.11783322043E+04  0.59999165188E+03 0.  0.
         23    2    4    4    0    0  0.18265576682E+03 -0.86687538553E+02 -0.21314892572E+03  0.30823252333E+03  0.93257522003E+02 0.  0.
         23    2    4    4    0    0  0.85654500877E+02  0.59559091025E+03 -0.62201797964E+03  0.87009968093E+03  0.90010343165E+02 0.  0.
          2    1    3    3  502    0 -0.20775340744E+02 -0.50250904999E+02  0.33425028616E+02  0.63827899654E+02  0.00000000000E+00 0. -1.
         -2    1    3    3    0  502 -0.24753492696E+03 -0.45865246670E+03  0.38853810707E+02  0.52263299157E+03  0.00000000000E+00 0.  1.
         11    1    5    5    0    0  0.17468769429E+03 -0.10395917588E+03 -0.19949299379E+03  0.28481705595E+03  0.00000000000E+00 0. -1.
        -11    1    5    5    0    0  0.79680725301E+01  0.17271637330E+02 -0.13655931926E+02  0.23415467381E+02  0.00000000000E+00 0.  1.
          4    1    6    6  503    0  0.65963996256E+02  0.57387751601E+03 -0.60363119105E+03  0.83549821484E+03  0.00000000000E+00 0. -1.
         -4    1    6    6    0  503  0.19690504621E+02  0.21713394235E+02 -0.18386788588E+02  0.34601466096E+02  0.00000000000E+00 0.  1.
<mgrwt>
<rscale>  0 0.70241668E+03</rscale>
<asrwt>0</asrwt>
<pdfrwt beam="1">  1        1 0.19443701E+00 0.70241668E+03</pdfrwt>
<pdfrwt beam="2">  1       -1 0.77069619E-01 0.70241668E+03</pdfrwt>
<totfact> 0.16854377E+01</totfact>
</mgrwt>
</event>
<event>
12    1  0.1432447E-007  0.1932874E+04  0.7818608E-02  0.8638664E-01
          2   -1    0    0  501    0  0.00000000000E+00  0.00000000000E+00  0.26340184536E+04  0.26340184536E+04  0.00000000000E+00 0. -1.
         -2   -1    0    0    0  501 -0.00000000000E+00 -0.00000000000E+00 -0.15010001663E+04  0.15010001663E+04  0.00000000000E+00 0.  1.
         23    2    1    2    0    0 -0.79500692372E+03 -0.17585370783E+04  0.78017093681E+03  0.20834683747E+04  0.87664777797E+02 0.  0.
    5000000    2    1    2    0    0  0.79500692372E+03  0.17585370783E+04  0.35284735057E+03  0.20515502452E+04  0.59989039920E+03 0.  0.
         23    2    4    4    0    0  0.38621309306E+03  0.94268800930E+03  0.47294602845E+03  0.11270107649E+04  0.93027319946E+02 0.  0.
         23    2    4    4    0    0  0.40879383067E+03  0.81584906903E+03 -0.12009867788E+03  0.92453948027E+03  0.87335323467E+02 0.  0.
          4    1    3    3  502    0 -0.19846345766E+03 -0.40181580926E+03  0.21784645350E+03  0.49829786865E+03  0.00000000000E+00 0. -1.
         -4    1    3    3    0  502 -0.59654346606E+03 -0.13567212691E+04  0.56232448331E+03  0.15851705061E+04  0.00000000000E+00 0.  1.
         11    1    5    5    0    0  0.21678636135E+03  0.40705336452E+03  0.21290351518E+03  0.50795341796E+03  0.00000000000E+00 0. -1.
        -11    1    5    5    0    0  0.16942673170E+03  0.53563464477E+03  0.26004251327E+03  0.61905734694E+03  0.00000000000E+00 0.  1.
          3    1    6    6  503    0  0.17412170352E+03  0.34463863767E+03 -0.73987916584E+01  0.38619800663E+03  0.00000000000E+00 0. -1.
         -3    1    6    6    0  503  0.23467212715E+03  0.47121043136E+03 -0.11269988622E+03  0.53834147364E+03  0.00000000000E+00 0.  1.
<mgrwt>
<rscale>  0 0.19328739E+04</rscale>
<asrwt>0</asrwt>
<pdfrwt beam="1">  1        2 0.40523361E+00 0.19328739E+04</pdfrwt>
<pdfrwt beam="2">  1       -2 0.23092310E+00 0.19328739E+04</pdfrwt>
<totfact> 0.21984546E-01</totfact>
</mgrwt>
</event>
<event>
12    1  0.1432447E-007  0.7600005E+03  0.7818608E-02  0.9619790E-01
          1   -1    0    0  501    0  0.00000000000E+00  0.00000000000E+00  0.22198336738E+04  0.22198336738E+04  0.00000000000E+00 0. -1.
         -1   -1    0    0    0  501 -0.00000000000E+00 -0.00000000000E+00 -0.32333394917E+03  0.32333394917E+03  0.00000000000E+00 0.  1.
         23    2    1    2    0    0  0.15106246836E+03 -0.72004338494E+03  0.74728432650E+03  0.10525287609E+04  0.90003235510E+02 0.  0.
    5000000    2    1    2    0    0 -0.15106246836E+03  0.72004338494E+03  0.11492153981E+04  0.14906388620E+04  0.60002153308E+03 0.  0.
         23    2    4    4    0    0 -0.25903308305E+02  0.76851382459E+02 -0.41721958025E+02  0.12844585279E+03  0.90446110755E+02 0.  0.
         23    2    4    4    0    0 -0.12515916005E+03  0.64319200248E+03  0.11909373561E+04  0.13621930092E+04  0.88753821019E+02 0.  0.
          3    1    3    3  502    0  0.76849799534E+02 -0.54311525664E+03  0.53159486602E+03  0.76385415838E+03  0.00000000000E+00 0. -1.
         -3    1    3    3    0  502  0.74212668825E+02 -0.17692812830E+03  0.21568946047E+03  0.28867460255E+03  0.00000000000E+00 0.  1.
         11    1    5    5    0    0  0.14780499455E+02  0.78005044323E+02 -0.18253889969E+02  0.81464437658E+02  0.00000000000E+00 0. -1.
        -11    1    5    5    0    0 -0.40683807760E+02 -0.11536618635E+01 -0.23468068056E+02  0.46981415133E+02  0.00000000000E+00 0.  1.
          1    1    6    6  503    0 -0.13397746654E+02  0.26046147402E+03  0.51960593915E+03  0.58138628387E+03  0.00000000000E+00 0. -1.
         -1    1    6    6    0  503 -0.11176141340E+03  0.38273052846E+03  0.67133141699E+03  0.78080672537E+03  0.00000000000E+00 0.  1.
<mgrwt>
<rscale>  0 0.76000051E+03</rscale>
<asrwt>0</asrwt>
<pdfrwt beam="1">  1        1 0.34151286E+00 0.76000051E+03</pdfrwt>
<pdfrwt beam="2">  1       -1 0.49743686E-01 0.76000051E+03</pdfrwt>
<totfact> 0.89729734E+00</totfact>
</mgrwt>
</event>
<event>
12    1  0.1432447E-007  0.1001417E+04  0.7818608E-02  0.9306992E-01
         -2   -1    0    0    0  501 -0.00000000000E+00  0.00000000000E+00  0.55950375583E+03  0.55950375583E+03  0.00000000000E+00 0.  1.
          2   -1    0    0  501    0  0.00000000000E+00 -0.00000000000E+00 -0.18699715599E+04  0.18699715599E+04  0.00000000000E+00 0. -1.
         23    2    1    2    0    0  0.65833727070E+03 -0.65828566172E+03 -0.65974551163E+03  0.11448456430E+04  0.93056067862E+02 0.  0.
    5000000    2    1    2    0    0 -0.65833727070E+03  0.65828566172E+03 -0.65072229239E+03  0.12846296727E+04  0.60007159546E+03 0.  0.
         23    2    4    4    0    0 -0.68529815724E+03  0.70748691343E+03 -0.52550287793E+03  0.11202174243E+04  0.92533810323E+02 0.  0.
         23    2    4    4    0    0  0.26960886534E+02 -0.49201251701E+02 -0.12521941447E+03  0.16441224836E+03  0.90575013558E+02 0.  0.
          3    1    3    3  502    0  0.36850867477E+03 -0.37718846288E+03 -0.31729957896E+03  0.61542570853E+03  0.00000000000E+00 0. -1.
         -3    1    3    3    0  502  0.28982859593E+03 -0.28109719884E+03 -0.34244593267E+03  0.52941993448E+03  0.00000000000E+00 0.  1.
         11    1    5    5    0    0 -0.57274877698E+03  0.60551754807E+03 -0.47932256932E+03  0.96147947872E+03  0.00000000000E+00 0. -1.
        -11    1    5    5    0    0 -0.11254938026E+03  0.10196936536E+03 -0.46180308608E+02  0.15873794559E+03  0.00000000000E+00 0.  1.
          2    1    6    6  503    0  0.48987185790E+02 -0.33137755481E+02 -0.31910002793E+02  0.67201960449E+02  0.00000000000E+00 0. -1.
         -2    1    6    6    0  503 -0.22026299256E+02 -0.16063496220E+02 -0.93309411672E+02  0.97210287914E+02  0.00000000000E+00 0.  1.
<mgrwt>
<rscale>  0 0.10014172E+04</rscale>
<asrwt>0</asrwt>
<pdfrwt beam="1">  1        2 0.28768793E+00 0.10014172E+04</pdfrwt>
<pdfrwt beam="2">  1       -2 0.86077501E-01 0.10014172E+04</pdfrwt>
<totfact> 0.92367789E+00</totfact>
</mgrwt>
</event>
<event>
12    1  0.1432447E-007  0.8129506E+03  0.7818608E-02  0.9541459E-01
         -1   -1    0    0    0  501 -0.00000000000E+00  0.00000000000E+00  0.41912917411E+03  0.41912917411E+03  0.00000000000E+00 0.  1.
          1   -1    0    0  501    0  0.00000000000E+00 -0.00000000000E+00 -0.41687839305E+04  0.41687839305E+04  0.00000000000E+00 0. -1.
         23    2    1    2    0    0 -0.54697376582E+03 -0.50143559122E+03 -0.35314481555E+04  0.36097027810E+04  0.90609822498E+02 0.  0.
    5000000    2    1    2    0    0  0.54697376582E+03  0.50143559122E+03 -0.21820660090E+03  0.97821032356E+03  0.59888510068E+03 0.  0.
         23    2    4    4    0    0  0.34319376215E+03  0.54737914680E+03 -0.32090850738E+03  0.72745311379E+03  0.93807643212E+02 0.  0.
         23    2    4    4    0    0  0.20378000368E+03 -0.45943555585E+02  0.10270190649E+03  0.25075720977E+03  0.93243747553E+02 0.  0.
          3    1    3    3  502    0 -0.14344167522E+03 -0.17363050001E+03 -0.12056310376E+04  0.12264865525E+04  0.00000000000E+00 0. -1.
         -3    1    3    3    0  502 -0.40353209060E+03 -0.32780509121E+03 -0.23258171179E+04  0.23832162285E+04  0.00000000000E+00 0.  1.
         11    1    5    5    0    0  0.19586944325E+03  0.22723604343E+03 -0.16070654234E+03  0.34033461620E+03  0.00000000000E+00 0.  1.
        -11    1    5    5    0    0  0.14732431890E+03  0.32014310337E+03 -0.16020196505E+03  0.38711849759E+03  0.00000000000E+00 0. -1.
          3    1    6    6  503    0  0.10362107944E+03 -0.70391840912E+02  0.63622163066E+02  0.14049953383E+03  0.00000000000E+00 0. -1.
         -3    1    6    6    0  503  0.10015892423E+03  0.24448285327E+02  0.39079743420E+02  0.11025767594E+03  0.00000000000E+00 0.  1.
<mgrwt>
<rscale>  0 0.81295063E+03</rscale>
<asrwt>0</asrwt>
<pdfrwt beam="1">  1        1 0.64135137E+00 0.81295063E+03</pdfrwt>
<pdfrwt beam="2">  1       -1 0.64481412E-01 0.81295063E+03</pdfrwt>
<totfact> 0.18231355E-01</totfact>
</mgrwt>
</event>
<event>
12    1  0.1432447E-007  0.4328953E+03  0.7818608E-02  0.1032949E+00
         -1   -1    0    0    0  501 -0.00000000000E+00  0.00000000000E+00  0.14945708451E+03  0.14945708451E+03  0.00000000000E+00 0.  1.
          1   -1    0    0  501    0  0.00000000000E+00 -0.00000000000E+00 -0.18182396429E+04  0.18182396429E+04  0.00000000000E+00 0. -1.
         23    2    1    2    0    0  0.26707029113E+03  0.35710727785E+02 -0.95796526346E+03  0.99929309061E+03  0.91035369241E+02 0.  0.
    5000000    2    1    2    0    0 -0.26707029113E+03 -0.35710727785E+02 -0.71081729490E+03  0.96840363678E+03  0.59995214852E+03 0.  0.
         23    2    4    4    0    0  0.14777546764E+03 -0.48065215794E+02 -0.41121764780E+03  0.44876854651E+03  0.90251873469E+02 0.  0.
         23    2    4    4    0    0 -0.41484575877E+03  0.12354488009E+02 -0.29959964710E+03  0.51963509027E+03  0.89504422007E+02 0.  0.
          2    1    3    3  502    0  0.23098841896E+03  0.31317583762E+02 -0.67743735371E+03  0.71642013438E+03  0.00000000000E+00 0. -1.
         -2    1    3    3    0  502  0.36081872168E+02  0.43931440227E+01 -0.28052790975E+03  0.28287295622E+03  0.00000000000E+00 0.  1.
         11    1    5    5    0    0  0.17748965702E+02 -0.44114518172E+02 -0.14239424578E+03  0.15012407445E+03  0.00000000000E+00 0. -1.
        -11    1    5    5    0    0  0.13002650193E+03 -0.39506976219E+01 -0.26882340202E+03  0.29864447206E+03  0.00000000000E+00 0.  1.
          1    1    6    6  503    0 -0.13855837546E+03 -0.21977127399E+02 -0.14244782164E+03  0.19993198701E+03  0.00000000000E+00 0. -1.
         -1    1    6    6    0  503 -0.27628738331E+03  0.34331615408E+02 -0.15715182546E+03  0.31970310326E+03  0.00000000000E+00 0.  1.
<mgrwt>
<rscale>  0 0.43289527E+03</rscale>
<asrwt>0</asrwt>
<pdfrwt beam="1">  1        1 0.27972919E+00 0.43289527E+03</pdfrwt>
<pdfrwt beam="2">  1       -1 0.22993397E-01 0.43289527E+03</pdfrwt>
<totfact> 0.68847115E+01</totfact>
</mgrwt>
</event>
<event>
12    1  0.1432447E-007  0.6629671E+03  0.7818608E-02  0.9782747E-01
         -4   -1    0    0    0  501 -0.00000000000E+00  0.00000000000E+00  0.24842786124E+03  0.24842786124E+03  0.00000000000E+00 0.  1.
          4   -1    0    0  501    0  0.00000000000E+00 -0.00000000000E+00 -0.24134644786E+04  0.24134644786E+04  0.00000000000E+00 0. -1.
         23    2    1    2    0    0  0.30430601916E+03  0.50743129367E+03 -0.44332779610E+03  0.74501671875E+03  0.91769849823E+02 0.  0.
    5000000    2    1    2    0    0 -0.30430601916E+03 -0.50743129367E+03 -0.17217088212E+04  0.19168756210E+04  0.60003517429E+03 0.  0.
         23    2    4    4    0    0 -0.28827712303E+03 -0.94811168635E+02 -0.12203640512E+04  0.12608796427E+04  0.91848781221E+02 0.  0.
         23    2    4    4    0    0 -0.16028896130E+02 -0.41262012504E+03 -0.50134477002E+03  0.65599597832E+03  0.92042664291E+02 0.  0.
          3    1    3    3  502    0  0.89049366264E+02  0.80122993839E+02 -0.76755913265E+02  0.14227070674E+03  0.00000000000E+00 0. -1.
         -3    1    3    3    0  502  0.21525665290E+03  0.42730829983E+03 -0.36657188283E+03  0.60274601202E+03  0.00000000000E+00 0.  1.
         11    1    5    5    0    0 -0.62680466027E+02 -0.46925962824E+02 -0.44905307976E+03  0.45582842742E+03  0.00000000000E+00 0.  1.
        -11    1    5    5    0    0 -0.22559665701E+03 -0.47885205811E+02 -0.77131097144E+03  0.80505121530E+03  0.00000000000E+00 0. -1.
          4    1    6    6  503    0 -0.26825930769E+02 -0.40413938238E+03 -0.46241493064E+03  0.61471606375E+03  0.00000000000E+00 0. -1.
         -4    1    6    6    0  503  0.10797034640E+02 -0.84807426613E+01 -0.38929839382E+02  0.41279914576E+02  0.00000000000E+00 0.  1.
<mgrwt>
<rscale>  0 0.66296714E+03</rscale>
<asrwt>0</asrwt>
<pdfrwt beam="1">  1        4 0.37130223E+00 0.66296714E+03</pdfrwt>
<pdfrwt beam="2">  1       -4 0.38219670E-01 0.66296714E+03</pdfrwt>
<totfact> 0.14893632E-01</totfact>
</mgrwt>
</event>
<event>
12    1  0.1501836E-007  0.1804538E+04  0.7818608E-02  0.8703890E-01
          1   -1    0    0  501    0  0.00000000000E+00  0.00000000000E+00  0.21939228000E+04  0.21939228000E+04  0.00000000000E+00 0. -1.
         -1   -1    0    0    0  501 -0.00000000000E+00 -0.00000000000E+00 -0.15544649957E+04  0.15544649957E+04  0.00000000000E+00 0.  1.
         23    2    1    2    0    0 -0.17889460502E+04  0.30932793411E+02  0.14432779807E+03  0.17973631614E+04  0.91646127092E+02 0.  0.
    5000000    2    1    2    0    0  0.17889460502E+04 -0.30932793411E+02  0.49513000630E+03  0.19510246343E+04  0.60004882485E+03 0.  0.
         23    2    4    4    0    0  0.17611628289E+04 -0.75604841279E+02  0.52377424203E+03  0.18412638204E+04  0.92208448879E+02 0.  0.
         23    2    4    4    0    0  0.27783221309E+02  0.44672047868E+02 -0.28644235729E+02  0.10976081382E+03  0.91975239944E+02 0.  0.
          4    1    3    3  502    0 -0.44210125038E+03  0.61700898094E+01 -0.38873435973E+01  0.44216139252E+03  0.00000000000E+00 0. -1.
         -4    1    3    3    0  502 -0.13468447998E+04  0.24762703601E+02  0.14821514166E+03  0.13552017689E+04  0.00000000000E+00 0.  1.
         11    1    5    5    0    0  0.42395724148E+03  0.18734162929E+02  0.11160838429E+03  0.43880194041E+03  0.00000000000E+00 0. -1.
        -11    1    5    5    0    0  0.13372055874E+04 -0.94339004208E+02  0.41216585774E+03  0.14024618800E+04  0.00000000000E+00 0.  1.
          4    1    6    6  503    0  0.28399692725E+02  0.45672978296E+02 -0.58739685477E+02  0.79642414223E+02  0.00000000000E+00 0. -1.
         -4    1    6    6    0  503 -0.61647141576E+00 -0.10009304280E+01  0.30095449748E+02  0.30118399596E+02  0.00000000000E+00 0.  1.
<mgrwt>
<rscale>  0 0.18045375E+04</rscale>
<asrwt>0</asrwt>
<pdfrwt beam="1">  1        1 0.33752658E+00 0.18045375E+04</pdfrwt>
<pdfrwt beam="2">  1       -1 0.23914846E+00 0.18045375E+04</pdfrwt>
<totfact> 0.16472065E-01</totfact>
</mgrwt>
</event>
<event>
12    1  0.1432447E-007  0.4346831E+03  0.7818608E-02  0.1032391E+00
          1   -1    0    0  501    0  0.00000000000E+00  0.00000000000E+00  0.24001517106E+03  0.24001517106E+03  0.00000000000E+00 0. -1.
         -1   -1    0    0    0  501 -0.00000000000E+00 -0.00000000000E+00 -0.84119941600E+03  0.84119941600E+03  0.00000000000E+00 0.  1.
         23    2    1    2    0    0  0.11830625989E+03  0.19947178133E+03 -0.22694894064E+03  0.33705167655E+03  0.91173726120E+02 0.  0.
    5000000    2    1    2    0    0 -0.11830625989E+03 -0.19947178133E+03 -0.37423530429E+03  0.74416291051E+03  0.59995084109E+03 0.  0.
         23    2    4    4    0    0  0.23212206885E+03 -0.70185739009E+02 -0.16004492738E+03  0.30547739866E+03  0.94315266547E+02 0.  0.
         23    2    4    4    0    0 -0.35042832874E+03 -0.12928604232E+03 -0.21419037691E+03  0.43868551185E+03  0.83979559571E+02 0.  0.
          4    1    3    3  502    0  0.43125611657E+02  0.11700963897E+02 -0.59861948696E+02  0.74700628100E+02  0.00000000000E+00 0. -1.
         -4    1    3    3    0  502  0.75180648229E+02  0.18777081743E+03 -0.16708699195E+03  0.26235104845E+03  0.00000000000E+00 0.  1.
         13    1    5    5    0    0  0.12254225471E+03 -0.64511494613E+02 -0.42921182506E+02  0.14498470621E+03  0.00000000000E+00 0. -1.
        -13    1    5    5    0    0  0.10957981414E+03 -0.56742443958E+01 -0.11712374488E+03  0.16049269245E+03  0.00000000000E+00 0.  1.
          3    1    6    6  503    0 -0.11436073238E+03 -0.30935025102E+02 -0.26320954237E+02  0.12135957119E+03  0.00000000000E+00 0. -1.
         -3    1    6    6    0  503 -0.23606759636E+03 -0.98351017215E+02 -0.18786942267E+03  0.31732594065E+03  0.00000000000E+00 0.  1.
<mgrwt>
<rscale>  0 0.43468314E+03</rscale>
<asrwt>0</asrwt>
<pdfrwt beam="1">  1        1 0.36925412E-01 0.43468314E+03</pdfrwt>
<pdfrwt beam="2">  1       -1 0.12941529E+00 0.43468314E+03</pdfrwt>
<totfact> 0.63063106E+01</totfact>
</mgrwt>
</event>
<event>
12    1  0.1439519E-007  0.1121491E+04  0.7818608E-02  0.9184494E-01
          2   -1    0    0  501    0  0.00000000000E+00  0.00000000000E+00  0.19146531379E+04  0.19146531379E+04  0.00000000000E+00 0. -1.
         -2   -1    0    0    0  501 -0.00000000000E+00 -0.00000000000E+00 -0.72048701244E+03  0.72048701244E+03  0.00000000000E+00 0.  1.
         23    2    1    2    0    0  0.10469375758E+04  0.26371052069E+03  0.76984713743E+03  0.13290765922E+04  0.90324118732E+02 0.  0.
    5000000    2    1    2    0    0 -0.10469375758E+04 -0.26371052069E+03  0.42431898804E+03  0.13060635582E+04  0.60011156301E+03 0.  0.
         23    2    4    4    0    0 -0.74807839456E+02  0.62571984883E+02  0.21810683866E+03  0.25600691631E+03  0.91964569231E+02 0.  0.
         23    2    4    4    0    0 -0.97212973636E+03 -0.32628250558E+03  0.20621214938E+03  0.10500566419E+04  0.92730808565E+02 0.  0.
          2    1    3    3  502    0  0.49927198825E+03  0.13389619482E+03  0.42316185565E+03  0.66803193435E+03  0.00000000000E+00 0. -1.
         -2    1    3    3    0  502  0.54766558757E+03  0.12981432588E+03  0.34668528178E+03  0.66104465780E+03  0.00000000000E+00 0.  1.
         13    1    5    5    0    0 -0.79241831138E+02  0.86642983104E+01  0.13744654431E+03  0.15888955412E+03  0.00000000000E+00 0. -1.
        -13    1    5    5    0    0  0.44339916813E+01  0.53907686573E+02  0.80660294348E+02  0.97117362187E+02  0.00000000000E+00 0.  1.
          2    1    6    6  503    0 -0.68570339201E+03 -0.18595992959E+03  0.13309151375E+03  0.72283026241E+03  0.00000000000E+00 0. -1.
         -2    1    6    6    0  503 -0.28642634435E+03 -0.14032257598E+03  0.73120635631E+02  0.32722637947E+03  0.00000000000E+00 0.  1.
<mgrwt>
<rscale>  0 0.11214914E+04</rscale>
<asrwt>0</asrwt>
<pdfrwt beam="1">  1        2 0.29456202E+00 0.11214914E+04</pdfrwt>
<pdfrwt beam="2">  1       -2 0.11084416E+00 0.11214914E+04</pdfrwt>
<totfact> 0.47341869E+00</totfact>
</mgrwt>
</event>
<event>
12    1  0.1432447E-007  0.8229167E+03  0.7818608E-02  0.9527426E-01
          1   -1    0    0  501    0  0.00000000000E+00  0.00000000000E+00  0.66537596614E+03  0.66537596614E+03  0.00000000000E+00 0. -1.
         -1   -1    0    0    0  501 -0.00000000000E+00 -0.00000000000E+00 -0.12011464941E+04  0.12011464941E+04  0.00000000000E+00 0.  1.
         23    2    1    2    0    0 -0.60108787188E+03 -0.47498329229E+03 -0.34792834116E+02  0.77194002334E+03  0.88119808524E+02 0.  0.
    5000000    2    1    2    0    0  0.60108787188E+03  0.47498329229E+03 -0.50097769389E+03  0.10945824369E+04  0.60018022612E+03 0.  0.
         23    2    4    4    0    0  0.55756358925E+03  0.53413571389E+03 -0.56481770984E+03  0.96112964730E+03  0.92590694262E+02 0.  0.
         23    2    4    4    0    0  0.43524282631E+02 -0.59152421602E+02  0.63840015952E+02  0.13345278964E+03  0.91327582183E+02 0.  0.
          4    1    3    3  502    0 -0.30313395970E+03 -0.26008177208E+03  0.22891154228E+02  0.40007090701E+03  0.00000000000E+00 0. -1.
         -4    1    3    3    0  502 -0.29795391218E+03 -0.21490152021E+03 -0.57683988344E+02  0.37186911633E+03  0.00000000000E+00 0.  1.
         11    1    5    5    0    0  0.55588433658E+03  0.51374704877E+03 -0.54570614720E+03  0.93313376579E+03  0.00000000000E+00 0.  1.
        -11    1    5    5    0    0  0.16792526719E+01  0.20388665114E+02 -0.19111562645E+02  0.27995881508E+02  0.00000000000E+00 0. -1.
          3    1    6    6  503    0 -0.18668989843E+02 -0.53344814637E+01 -0.10946192534E+02  0.22289167891E+02  0.00000000000E+00 0. -1.
         -3    1    6    6    0  503  0.62193272475E+02 -0.53817940138E+02  0.74786208486E+02  0.11116362175E+03  0.00000000000E+00 0.  1.
<mgrwt>
<rscale>  0 0.82291668E+03</rscale>
<asrwt>0</asrwt>
<pdfrwt beam="1">  1        1 0.10236553E+00 0.82291668E+03</pdfrwt>
<pdfrwt beam="2">  1       -1 0.18479177E+00 0.82291668E+03</pdfrwt>
<totfact> 0.57950663E+00</totfact>
</mgrwt>
</event>
<event>
12    1  0.2539981E-007  0.1315741E+04  0.7818608E-02  0.9017175E-01
          2   -1    0    0  501    0  0.00000000000E+00  0.00000000000E+00  0.21754321772E+04  0.21754321772E+04  0.00000000000E+00 0.  1.
         -2   -1    0    0    0  501 -0.00000000000E+00 -0.00000000000E+00 -0.88337555979E+03  0.88337555979E+03  0.00000000000E+00 0. -1.
         23    2    1    2    0    0  0.67544554925E+03  0.10647448018E+04  0.10472021999E+04  0.16411012477E+04  0.81686440884E+02 0.  0.
    5000000    2    1    2    0    0 -0.67544554925E+03 -0.10647448018E+04  0.24485441758E+03  0.14177064894E+04  0.60002485040E+03 0.  0.
         23    2    4    4    0    0 -0.63504471208E+03 -0.11112757733E+04  0.22942127877E+03  0.13037115363E+04  0.93882991629E+02 0.  0.
         23    2    4    4    0    0 -0.40400837172E+02  0.46530971431E+02  0.15433138806E+02  0.11399495306E+03  0.94653624349E+02 0.  0.
          4    1    3    3  502    0  0.24971495704E+03  0.43300413460E+03  0.45929339733E+03  0.67882292624E+03  0.00000000000E+00 0. -1.
         -4    1    3    3    0  502  0.42573059221E+03  0.63174066724E+03  0.58790880252E+03  0.96227832142E+03  0.00000000000E+00 0.  1.
         13    1    5    5    0    0 -0.45938455385E+03 -0.71835273166E+03  0.16540932288E+03  0.86857645576E+03  0.00000000000E+00 0. -1.
        -13    1    5    5    0    0 -0.17566015823E+03 -0.39292304161E+03  0.64011955897E+02  0.43513508054E+03  0.00000000000E+00 0.  1.
          3    1    6    6  503    0 -0.55642649011E+02  0.26648953402E+02 -0.24887291119E+02  0.66525546714E+02  0.00000000000E+00 0. -1.
         -3    1    6    6    0  503  0.15241811839E+02  0.19882018029E+02  0.40320429926E+02  0.47469406342E+02  0.00000000000E+00 0.  1.
<mgrwt>
<rscale>  0 0.13157407E+04</rscale>
<asrwt>0</asrwt>
<pdfrwt beam="1">  1        2 0.33468187E+00 0.13157407E+04</pdfrwt>
<pdfrwt beam="2">  1       -2 0.13590393E+00 0.13157407E+04</pdfrwt>
<totfact> 0.19920779E+00</totfact>
</mgrwt>
</event>
<event>
12    1  0.1432447E-007  0.1252970E+04  0.7818608E-02  0.9067715E-01
          1   -1    0    0  501    0  0.00000000000E+00  0.00000000000E+00  0.14897650531E+04  0.14897650531E+04  0.00000000000E+00 0. -1.
         -1   -1    0    0    0  501 -0.00000000000E+00 -0.00000000000E+00 -0.10754510845E+04  0.10754510845E+04  0.00000000000E+00 0.  1.
         23    2    1    2    0    0 -0.10817894853E+04 -0.49483186669E+03  0.10716036597E+03  0.11979203594E+04  0.91666660521E+02 0.  0.
    5000000    2    1    2    0    0  0.10817894853E+04  0.49483186669E+03  0.30715360257E+03  0.13672957782E+04  0.60002278524E+03 0.  0.
         23    2    4    4    0    0  0.32180104743E+02 -0.77896318135E+02 -0.19023241982E+02  0.12451125792E+03  0.89653634027E+02 0.  0.
         23    2    4    4    0    0  0.10496093805E+04  0.57272818483E+03  0.32617684455E+03  0.12427845203E+04  0.91785644623E+02 0.  0.
          4    1    3    3  502    0 -0.71057393473E+03 -0.29369970755E+03  0.10258972533E+03  0.77569290745E+03  0.00000000000E+00 0. -1.
         -4    1    3    3    0  502 -0.37121555055E+03 -0.20113215915E+03  0.45706406344E+01  0.42222745193E+03  0.00000000000E+00 0.  1.
         13    1    5    5    0    0 -0.17579888104E+02  0.55932832386E+01  0.12556636086E+02  0.22316056841E+02  0.00000000000E+00 0. -1.
        -13    1    5    5    0    0  0.49759992847E+02 -0.83489601374E+02 -0.31579878069E+02  0.10219520108E+03  0.00000000000E+00 0.  1.
          4    1    6    6  503    0  0.54534483821E+03  0.34967079723E+03  0.17719126308E+03  0.67161551703E+03  0.00000000000E+00 0. -1.
         -4    1    6    6    0  503  0.50426454232E+03  0.22305738759E+03  0.14898558147E+03  0.57116900326E+03  0.00000000000E+00 0.  1.
<mgrwt>
<rscale>  0 0.12529695E+04</rscale>
<asrwt>0</asrwt>
<pdfrwt beam="1">  1        1 0.22919462E+00 0.12529695E+04</pdfrwt>
<pdfrwt beam="2">  1       -1 0.16545401E+00 0.12529695E+04</pdfrwt>
<totfact> 0.17230965E+00</totfact>
</mgrwt>
</event>
<event>
12    1  0.1468218E-007  0.1156056E+04  0.7818608E-02  0.9152214E-01
          1   -1    0    0  501    0  0.00000000000E+00  0.00000000000E+00  0.74727444125E+03  0.74727444125E+03  0.00000000000E+00 0. -1.
         -1   -1    0    0    0  501 -0.00000000000E+00 -0.00000000000E+00 -0.19796108747E+04  0.19796108747E+04  0.00000000000E+00 0.  1.
         23    2    1    2    0    0 -0.62044856602E+03  0.90327114380E+03 -0.93332356434E+03  0.14423213037E+04  0.91338300431E+02 0.  0.
    5000000    2    1    2    0    0  0.62044856602E+03 -0.90327114380E+03 -0.29901286914E+03  0.12845640122E+04  0.59986733812E+03 0.  0.
         23    2    4    4    0    0  0.44568125087E+03 -0.21394190331E+03  0.10734462450E+02  0.50372305995E+03  0.96014462851E+02 0.  0.
         23    2    4    4    0    0  0.17476731515E+03 -0.68932924049E+03 -0.30974733159E+03  0.78084095229E+03  0.89726067039E+02 0.  0.
          4    1    3    3  502    0 -0.36340068103E+03  0.56434764452E+03 -0.51854191468E+03  0.84819457445E+03  0.00000000000E+00 0. -1.
         -4    1    3    3    0  502 -0.25704788499E+03  0.33892349928E+03 -0.41478164966E+03  0.59412672928E+03  0.00000000000E+00 0.  1.
         13    1    5    5    0    0  0.18083258132E+03 -0.49830391756E+02 -0.28371049377E+02  0.18970610652E+03  0.00000000000E+00 0. -1.
        -13    1    5    5    0    0  0.26484866955E+03 -0.16411151155E+03  0.39105511826E+02  0.31401695343E+03  0.00000000000E+00 0.  1.
          1    1    6    6  503    0  0.29614261922E+02 -0.28935863020E+03 -0.11280295021E+03  0.31197744623E+03  0.00000000000E+00 0. -1.
         -1    1    6    6    0  503  0.14515305323E+03 -0.39997061030E+03 -0.19694438138E+03  0.46886350607E+03  0.00000000000E+00 0.  1.
<mgrwt>
<rscale>  0 0.11560564E+04</rscale>
<asrwt>0</asrwt>
<pdfrwt beam="1">  1        1 0.11496530E+00 0.11560564E+04</pdfrwt>
<pdfrwt beam="2">  1       -1 0.30455552E+00 0.11560564E+04</pdfrwt>
<totfact> 0.75478405E-01</totfact>
</mgrwt>
</event>
<event>
12    1  0.1432447E-007  0.4506474E+03  0.7818608E-02  0.1027529E+00
         -1   -1    0    0    0  501 -0.00000000000E+00  0.00000000000E+00  0.44600596053E+03  0.44600596053E+03  0.00000000000E+00 0.  1.
          1   -1    0    0  501    0  0.00000000000E+00 -0.00000000000E+00 -0.63980530234E+03  0.63980530234E+03  0.00000000000E+00 0. -1.
         23    2    1    2    0    0 -0.23915525627E+03 -0.10867477954E+03  0.17777470582E+03  0.33277988413E+03  0.10066360286E+03 0.  0.
    5000000    2    1    2    0    0  0.23915525627E+03  0.10867477954E+03 -0.37157404763E+03  0.75303137874E+03  0.59998628333E+03 0.  0.
         23    2    4    4    0    0 -0.17062003516E+03 -0.61479348798E+02 -0.12871979874E+03  0.24030150256E+03  0.91022628057E+02 0.  0.
         23    2    4    4    0    0  0.40977529143E+03  0.17015412834E+03 -0.24285424889E+03  0.51272987618E+03  0.83937612910E+02 0.  0.
          3    1    3    3  502    0 -0.58586175933E+02 -0.69641970547E+02  0.28796324303E+02  0.95454556546E+02  0.00000000000E+00 0. -1.
         -3    1    3    3    0  502 -0.18056908034E+03 -0.39032808992E+02  0.14897838152E+03  0.23732532759E+03  0.00000000000E+00 0.  1.
         13    1    5    5    0    0 -0.82408168770E+02 -0.34959371567E+02 -0.11719411657E+03  0.14747109852E+03  0.00000000000E+00 0. -1.
        -13    1    5    5    0    0 -0.88211866390E+02 -0.26519977231E+02 -0.11525682169E+02  0.92830404038E+02  0.00000000000E+00 0.  1.
          4    1    6    6  503    0  0.29558066664E+03  0.12948431834E+03 -0.21673746647E+03  0.38872773063E+03  0.00000000000E+00 0. -1.
         -4    1    6    6    0  503  0.11419462480E+03  0.40669809997E+02 -0.26116782424E+02  0.12400214555E+03  0.00000000000E+00 0.  1.
<mgrwt>
<rscale>  0 0.45064743E+03</rscale>
<asrwt>0</asrwt>
<pdfrwt beam="1">  1        1 0.98431585E-01 0.45064743E+03</pdfrwt>
<pdfrwt beam="2">  1       -1 0.68616302E-01 0.45064743E+03</pdfrwt>
<totfact> 0.70511514E+01</totfact>
</mgrwt>
</event>
<event>
12    1  0.1432447E-007  0.5081566E+03  0.7818608E-02  0.1011672E+00
          3   -1    0    0  501    0  0.00000000000E+00  0.00000000000E+00  0.19348082610E+03  0.19348082610E+03  0.00000000000E+00 0.  1.
         -3   -1    0    0    0  501 -0.00000000000E+00 -0.00000000000E+00 -0.15490108224E+04  0.15490108224E+04  0.00000000000E+00 0. -1.
         23    2    1    2    0    0  0.19335014910E+03 -0.31667626798E+03 -0.37972549181E+03  0.53857261292E+03  0.90558662755E+02 0.  0.
    5000000    2    1    2    0    0 -0.19335014910E+03  0.31667626798E+03 -0.97580450447E+03  0.12039190356E+04  0.59963194910E+03 0.  0.
         23    2    4    4    0    0  0.16651145887E+03  0.12456204472E+03 -0.13306462341E+03  0.26326356689E+03  0.91431628728E+02 0.  0.
         23    2    4    4    0    0 -0.35986160797E+03  0.19211422326E+03 -0.84273988106E+03  0.94065546866E+03  0.90630855313E+02 0.  0.
          1    1    3    3  502    0  0.50705832053E+01 -0.74327623991E+02 -0.63174988063E+02  0.97680016477E+02  0.00000000000E+00 0. -1.
         -1    1    3    3    0  502  0.18827956590E+03 -0.24234864399E+03 -0.31655050375E+03  0.44089259645E+03  0.00000000000E+00 0.  1.
         11    1    5    5    0    0  0.72164847387E+02  0.10922299373E+03 -0.86784977244E+02  0.15706387183E+03  0.00000000000E+00 0. -1.
        -11    1    5    5    0    0  0.94346611479E+02  0.15339050987E+02 -0.46279646166E+02  0.10619969507E+03  0.00000000000E+00 0.  1.
          3    1    6    6  503    0 -0.13242426768E+03  0.81759749498E+02 -0.22886859475E+03  0.27677007962E+03  0.00000000000E+00 0. -1.
         -3    1    6    6    0  503 -0.22743734028E+03  0.11035447376E+03 -0.61387128630E+03  0.66388538904E+03  0.00000000000E+00 0.  1.
<mgrwt>
<rscale>  0 0.50815664E+03</rscale>
<asrwt>0</asrwt>
<pdfrwt beam="1">  1        3 0.29766279E-01 0.50815664E+03</pdfrwt>
<pdfrwt beam="2">  1       -3 0.23830937E+00 0.50815664E+03</pdfrwt>
<totfact> 0.25200786E+00</totfact>
</mgrwt>
</event>
<event>
12    1  0.1432447E-007  0.6543189E+03  0.7818608E-02  0.9798709E-01
         -2   -1    0    0    0  501 -0.00000000000E+00  0.00000000000E+00  0.10948303048E+04  0.10948303048E+04  0.00000000000E+00 0.  1.
          2   -1    0    0  501    0  0.00000000000E+00 -0.00000000000E+00 -0.47450617281E+03  0.47450617281E+03  0.00000000000E+00 0. -1.
         23    2    1    2    0    0 -0.44889507864E+03  0.26495726986E+03  0.56369936660E+03  0.77253277067E+03  0.85678231647E+02 0.  0.
    5000000    2    1    2    0    0  0.44889507864E+03 -0.26495726986E+03  0.56624765375E+02  0.79680370693E+03  0.59998386382E+03 0.  0.
         23    2    4    4    0    0  0.34815296146E+03  0.12616387149E+03  0.49159044380E+01  0.38095212673E+03  0.89289135368E+02 0.  0.
         23    2    4    4    0    0  0.10074211717E+03 -0.39112114135E+03  0.51708860937E+02  0.41585158021E+03  0.84463063387E+02 0.  0.
          1    1    3    3  502    0 -0.31735846117E+03  0.21619843862E+03  0.36899594252E+03  0.53255625368E+03  0.00000000000E+00 0. -1.
         -1    1    3    3    0  502 -0.13153661747E+03  0.48758831248E+02  0.19470342408E+03  0.23997651700E+03  0.00000000000E+00 0.  1.
         13    1    5    5    0    0  0.25250208050E+03  0.50221074030E+02 -0.11592099416E+02  0.25770881573E+03  0.00000000000E+00 0. -1.
        -13    1    5    5    0    0  0.95650880964E+02  0.75942797458E+02  0.16508003854E+02  0.12324331100E+03  0.00000000000E+00 0.  1.
          3    1    6    6  503    0  0.41724288332E+02 -0.21540677286E+03  0.68181791105E+02  0.22976020253E+03  0.00000000000E+00 0. -1.
         -3    1    6    6    0  503  0.59017828840E+02 -0.17571436850E+03 -0.16472930168E+02  0.18609137768E+03  0.00000000000E+00 0.  1.
<mgrwt>
<rscale>  0 0.65431892E+03</rscale>
<asrwt>0</asrwt>
<pdfrwt beam="1">  1        2 0.73000950E-01 0.65431892E+03</pdfrwt>
<pdfrwt beam="2">  1       -2 0.16843543E+00 0.65431892E+03</pdfrwt>
<totfact> 0.14666140E+01</totfact>
</mgrwt>
</event>
<event>
12    1  0.1432447E-007  0.1185315E+04  0.7818608E-02  0.9125808E-01
         -2   -1    0    0    0  501 -0.00000000000E+00  0.00000000000E+00  0.23616769008E+04  0.23616769008E+04  0.00000000000E+00 0.  1.
          2   -1    0    0  501    0  0.00000000000E+00 -0.00000000000E+00 -0.62055807483E+03  0.62055807483E+03  0.00000000000E+00 0. -1.
         23    2    1    2    0    0 -0.44073702919E+03 -0.10340296775E+04  0.63122636609E+03  0.12923283274E+04  0.90549863736E+02 0.  0.
    5000000    2    1    2    0    0  0.44073702919E+03  0.10340296775E+04  0.11098924599E+04  0.16899066482E+04  0.60038046630E+03 0.  0.
         23    2    4    4    0    0  0.50118875162E+02  0.75011005933E+03  0.50226791538E+03  0.90854376631E+03  0.89452298592E+02 0.  0.
         23    2    4    4    0    0  0.39061815403E+03  0.28391961816E+03  0.60762454455E+03  0.78136288193E+03  0.90152505658E+02 0.  0.
          1    1    3    3  502    0 -0.26097174662E+03 -0.54690287958E+03  0.29725472170E+03  0.67495880008E+03  0.00000000000E+00 0. -1.
         -1    1    3    3    0  502 -0.17976528257E+03 -0.48712679791E+03  0.33397164439E+03  0.61736952736E+03  0.00000000000E+00 0.  1.
         13    1    5    5    0    0  0.64316989674E+02  0.47298291358E+03  0.28340276885E+03  0.55512758992E+03  0.00000000000E+00 0.  1.
        -13    1    5    5    0    0 -0.14198114512E+02  0.27712714575E+03  0.21886514653E+03  0.35341617639E+03  0.00000000000E+00 0. -1.
          1    1    6    6  503    0  0.19359038526E+03  0.19380730359E+03  0.31915156477E+03  0.42059033451E+03  0.00000000000E+00 0. -1.
         -1    1    6    6    0  503  0.19702776877E+03  0.90112314572E+02  0.28847297978E+03  0.36077254741E+03  0.00000000000E+00 0.  1.
<mgrwt>
<rscale>  0 0.11853153E+04</rscale>
<asrwt>0</asrwt>
<pdfrwt beam="1">  1        2 0.95470475E-01 0.11853153E+04</pdfrwt>
<pdfrwt beam="2">  1       -2 0.36333490E+00 0.11853153E+04</pdfrwt>
<totfact> 0.60414982E-01</totfact>
</mgrwt>
</event>
<event>
12    1  0.1432447E-007  0.2659841E+03  0.7818608E-02  0.1103600E+00
          2   -1    0    0  501    0  0.00000000000E+00  0.00000000000E+00  0.17154883973E+04  0.17154883973E+04  0.00000000000E+00 0. -1.
         -2   -1    0    0    0  501 -0.00000000000E+00 -0.00000000000E+00 -0.11666509807E+03  0.11666509807E+03  0.00000000000E+00 0.  1.
         23    2    1    2    0    0  0.22306410077E+03 -0.34484521256E+02  0.32380730546E+03  0.40504191948E+03  0.90890099584E+02 0.  0.
    5000000    2    1    2    0    0 -0.22306410077E+03  0.34484521256E+02  0.12750159937E+04  0.14271115759E+04  0.60002907466E+03 0.  0.
         23    2    4    4    0    0 -0.12118229835E+03  0.90717837963E+02  0.37094406969E+02  0.18047113528E+03  0.90988790981E+02 0.  0.
         23    2    4    4    0    0 -0.10188180242E+03 -0.56233316708E+02  0.12379215868E+04  0.12466404406E+04  0.90113514788E+02 0.  0.
          1    1    3    3  502    0  0.61635537789E+02 -0.46876378980E+02  0.14086276383E+03  0.16074405948E+03  0.00000000000E+00 0. -1.
         -1    1    3    3    0  502  0.16142856298E+03  0.12391857725E+02  0.18294454163E+03  0.24429785999E+03  0.00000000000E+00 0.  1.
         11    1    5    5    0    0 -0.57737251702E+02 -0.79488632219E+01  0.21562203735E+02  0.62142604472E+02  0.00000000000E+00 0. -1.
        -11    1    5    5    0    0 -0.63445046649E+02  0.98666701185E+02  0.15532203234E+02  0.11832853081E+03  0.00000000000E+00 0.  1.
          1    1    6    6  503    0 -0.31259528043E+02 -0.10822227737E+02  0.94169720146E+02  0.99810895693E+02  0.00000000000E+00 0. -1.
         -1    1    6    6    0  503 -0.70622274378E+02 -0.45411088971E+02  0.11437518666E+04  0.11468295449E+04  0.00000000000E+00 0.  1.
<mgrwt>
<rscale>  0 0.26598413E+03</rscale>
<asrwt>0</asrwt>
<pdfrwt beam="1">  1        2 0.26392127E+00 0.26598413E+03</pdfrwt>
<pdfrwt beam="2">  1       -2 0.17948478E-01 0.26598413E+03</pdfrwt>
<totfact> 0.26717678E+02</totfact>
</mgrwt>
</event>
<event>
12    1  0.1432447E-007  0.4152678E+03  0.7818608E-02  0.1038618E+00
          1   -1    0    0  501    0  0.00000000000E+00  0.00000000000E+00  0.19247081774E+04  0.19247081774E+04  0.00000000000E+00 0. -1.
         -1   -1    0    0    0  501 -0.00000000000E+00 -0.00000000000E+00 -0.24518809904E+03  0.24518809904E+03  0.00000000000E+00 0.  1.
         23    2    1    2    0    0 -0.39692677472E+03 -0.84477403383E+02  0.92972482500E+02  0.42571711544E+03  0.88903789027E+02 0.  0.
    5000000    2    1    2    0    0  0.39692677472E+03  0.84477403383E+02  0.15865475959E+04  0.17441791610E+04  0.60028357930E+03 0.  0.
         23    2    4    4    0    0  0.26910151616E+03  0.17647486836E+02  0.15421602483E+04  0.15682465767E+04  0.91717141722E+02 0.  0.
         23    2    4    4    0    0  0.12782525856E+03  0.66829916547E+02  0.44387347597E+02  0.17593258434E+03  0.90424018574E+02 0.  0.
          2    1    3    3  502    0 -0.88750732730E+01 -0.20068930506E+02  0.24948551788E+01  0.22085135264E+02  0.00000000000E+00 0. -1.
         -2    1    3    3    0  502 -0.38805170145E+03 -0.64408472877E+02  0.90477627321E+02  0.40363198017E+03  0.00000000000E+00 0.  1.
         11    1    5    5    0    0  0.21411352226E+03  0.38046228794E+01  0.13786622236E+04  0.13951948259E+04  0.00000000000E+00 0.  1.
        -11    1    5    5    0    0  0.54987993892E+02  0.13842863957E+02  0.16349802467E+03  0.17305175072E+03  0.00000000000E+00 0. -1.
          1    1    6    6  503    0  0.31918950523E+02  0.19822419185E+02  0.57119452514E+02  0.68369434401E+02  0.00000000000E+00 0. -1.
         -1    1    6    6    0  503  0.95906308040E+02  0.47007497362E+02 -0.12732104917E+02  0.10756314994E+03  0.00000000000E+00 0.  1.
<mgrwt>
<rscale>  0 0.41526777E+03</rscale>
<asrwt>0</asrwt>
<pdfrwt beam="1">  1        1 0.29610894E+00 0.41526777E+03</pdfrwt>
<pdfrwt beam="2">  1       -1 0.37721247E-01 0.41526777E+03</pdfrwt>
<totfact> 0.25074335E+01</totfact>
</mgrwt>
</event>
<event>
12    1  0.1432447E-007  0.7286875E+03  0.7818608E-02  0.9669393E-01
         -1   -1    0    0    0  501 -0.00000000000E+00  0.00000000000E+00  0.46680208907E+03  0.46680208907E+03  0.00000000000E+00 0.  1.
          1   -1    0    0  501    0  0.00000000000E+00 -0.00000000000E+00 -0.13298171793E+04  0.13298171793E+04  0.00000000000E+00 0. -1.
         23    2    1    2    0    0  0.60522453825E+03  0.14024401770E+03 -0.65536971919E+03  0.90757036081E+03  0.90605544943E+02 0.  0.
    5000000    2    1    2    0    0 -0.60522453825E+03 -0.14024401770E+03 -0.20764537099E+03  0.88904890751E+03  0.60110417870E+03 0.  0.
         23    2    4    4    0    0 -0.57890351237E+03  0.87579969329E+02 -0.24158119581E+03  0.63985280474E+03  0.90832867931E+02 0.  0.
         23    2    4    4    0    0 -0.26321025882E+02 -0.22782398703E+03  0.33935824817E+02  0.24919610277E+03  0.91381026282E+02 0.  0.
          2    1    3    3  502    0  0.21539271002E+03  0.74470350335E+02 -0.18815414879E+03  0.29553652281E+03  0.00000000000E+00 0.  1.
         -2    1    3    3    0  502  0.38983182823E+03  0.65773667363E+02 -0.46721557041E+03  0.61203383800E+03  0.00000000000E+00 0. -1.
         13    1    5    5    0    0 -0.16983990292E+03  0.46880126663E+02 -0.11222848034E+03  0.20889846984E+03  0.00000000000E+00 0. -1.
        -13    1    5    5    0    0 -0.40906360945E+03  0.40699842665E+02 -0.12935271547E+03  0.43095433490E+03  0.00000000000E+00 0.  1.
          3    1    6    6  503    0  0.33596803100E+02 -0.10408714254E+03  0.16567941728E+02  0.11062266998E+03  0.00000000000E+00 0. -1.
         -3    1    6    6    0  503 -0.59917828982E+02 -0.12373684449E+03  0.17367883089E+02  0.13857343279E+03  0.00000000000E+00 0.  1.
<mgrwt>
<rscale>  0 0.72868752E+03</rscale>
<asrwt>0</asrwt>
<pdfrwt beam="1">  1        1 0.20458726E+00 0.72868752E+03</pdfrwt>
<pdfrwt beam="2">  1       -1 0.71815707E-01 0.72868752E+03</pdfrwt>
<totfact> 0.17467221E+01</totfact>
</mgrwt>
</event>
<event>
12    1  0.1432447E-007  0.4513177E+03  0.7818608E-02  0.1027330E+00
         -1   -1    0    0    0  501 -0.00000000000E+00  0.00000000000E+00  0.18834101996E+03  0.18834101996E+03  0.00000000000E+00 0. -1.
          1   -1    0    0  501    0  0.00000000000E+00 -0.00000000000E+00 -0.15266269118E+04  0.15266269118E+04  0.00000000000E+00 0.  1.
         23    2    1    2    0    0  0.32935486719E+03 -0.20914912911E+02 -0.69937914779E+03  0.77868570727E+03  0.91149197552E+02 0.  0.
    5000000    2    1    2    0    0 -0.32935486719E+03  0.20914912911E+02 -0.63890674409E+03  0.93628222454E+03  0.59959195643E+03 0.  0.
         23    2    4    4    0    0 -0.20301502026E+02 -0.18992411837E+03 -0.46954600241E+03  0.51543866099E+03  0.93382242112E+02 0.  0.
         23    2    4    4    0    0 -0.30905336516E+03  0.21083903128E+03 -0.16936074168E+03  0.42084356355E+03  0.91973716496E+02 0.  0.
          4    1    3    3  502    0  0.14872608424E+03 -0.15389303956E+02 -0.42129579397E+03  0.44704186026E+03  0.00000000000E+00 0. -1.
         -4    1    3    3    0  502  0.18062878295E+03 -0.55256089549E+01 -0.27808335382E+03  0.33164384701E+03  0.00000000000E+00 0.  1.
         11    1    5    5    0    0  0.64397063077E+01 -0.26783952695E+02 -0.17938440111E+03  0.18148722628E+03  0.00000000000E+00 0. -1.
        -11    1    5    5    0    0 -0.26741208334E+02 -0.16314016568E+03 -0.29016160130E+03  0.33395143471E+03  0.00000000000E+00 0.  1.
          2    1    6    6  503    0 -0.15195052622E+02  0.32293731340E+02 -0.39642161148E+02  0.53341125302E+02  0.00000000000E+00 0. -1.
         -2    1    6    6    0  503 -0.29385831254E+03  0.17854529994E+03 -0.12971858054E+03  0.36750243825E+03  0.00000000000E+00 0.  1.
<mgrwt>
<rscale>  0 0.45131774E+03</rscale>
<asrwt>0</asrwt>
<pdfrwt beam="1">  1        1 0.23486568E+00 0.45131774E+03</pdfrwt>
<pdfrwt beam="2">  1       -1 0.28975541E-01 0.45131774E+03</pdfrwt>
<totfact> 0.72474111E+01</totfact>
</mgrwt>
</event>
<event>
12    1  0.1432447E-007  0.2007023E+04  0.7818608E-02  0.8603344E-01
         -2   -1    0    0    0  501 -0.00000000000E+00  0.00000000000E+00  0.15668607653E+04  0.15668607653E+04  0.00000000000E+00 0.  1.
          2   -1    0    0  501    0  0.00000000000E+00 -0.00000000000E+00 -0.26632803609E+04  0.26632803609E+04  0.00000000000E+00 0. -1.
         23    2    1    2    0    0  0.11232069835E+04  0.16501084834E+04 -0.62027913878E+03  0.20921241051E+04  0.88233361656E+02 0.  0.
    5000000    2    1    2    0    0 -0.11232069835E+04 -0.16501084834E+04 -0.47614045687E+03  0.21380170211E+04  0.59996259279E+03 0.  0.
         23    2    4    4    0    0 -0.10141656646E+04 -0.14913059070E+04 -0.24240571421E+03  0.18219812474E+04  0.91267914654E+02 0.  0.
         23    2    4    4    0    0 -0.10904131895E+03 -0.15880257645E+03 -0.23373474265E+03  0.31603577364E+03  0.90213151886E+02 0.  0.
          4    1    3    3  502    0  0.78977459673E+03  0.11750017644E+04 -0.48073211323E+03  0.14951509705E+04  0.00000000000E+00 0. -1.
         -4    1    3    3    0  502  0.33343238680E+03  0.47510671907E+03 -0.13954702555E+03  0.59697313458E+03  0.00000000000E+00 0.  1.
         13    1    5    5    0    0 -0.88434190048E+03 -0.12465214621E+04 -0.19231707400E+03  0.15404097537E+04  0.00000000000E+00 0. -1.
        -13    1    5    5    0    0 -0.12982376410E+03 -0.24478444489E+03 -0.50088640213E+02  0.28157149370E+03  0.00000000000E+00 0.  1.
          4    1    6    6  503    0 -0.10851948204E+03 -0.16974012994E+03 -0.22510886972E+03  0.30209633053E+03  0.00000000000E+00 0. -1.
         -4    1    6    6    0  503 -0.52183691206E+00  0.10937553498E+02 -0.86258729315E+01  0.13939443106E+02  0.00000000000E+00 0.  1.
<mgrwt>
<rscale>  0 0.20070229E+04</rscale>
<asrwt>0</asrwt>
<pdfrwt beam="1">  1        2 0.40973544E+00 0.20070229E+04</pdfrwt>
<pdfrwt beam="2">  1       -2 0.24105550E+00 0.20070229E+04</pdfrwt>
<totfact> 0.18124259E-01</totfact>
</mgrwt>
</event>
<event>
12    1  0.1432447E-007  0.7317889E+03  0.7818608E-02  0.9664362E-01
          2   -1    0    0  501    0  0.00000000000E+00  0.00000000000E+00  0.31718357073E+04  0.31718357073E+04  0.00000000000E+00 0. -1.
         -2   -1    0    0    0  501 -0.00000000000E+00 -0.00000000000E+00 -0.18355246930E+03  0.18355246930E+03  0.00000000000E+00 0.  1.
         23    2    1    2    0    0  0.63599433591E+02 -0.61274268782E+03  0.87588095646E+03  0.10746496102E+04  0.90586121384E+02 0.  0.
    5000000    2    1    2    0    0 -0.63599433591E+02  0.61274268782E+03  0.21124022815E+04  0.22807385664E+04  0.60002209944E+03 0.  0.
         23    2    4    4    0    0  0.20686134984E+03  0.65269957992E+02  0.73063189923E+03  0.76795026104E+03  0.94195784309E+02 0.  0.
         23    2    4    4    0    0 -0.27046078343E+03  0.54747272983E+03  0.13817703823E+04  0.15127883054E+04  0.79772439857E+02 0.  0.
          2    1    3    3  502    0  0.84051790286E+02 -0.50088982179E+03  0.69047006311E+03  0.85714889317E+03  0.00000000000E+00 0. -1.
         -2    1    3    3    0  502 -0.20452356695E+02 -0.11185286603E+03  0.18541089335E+03  0.21750071703E+03  0.00000000000E+00 0.  1.
         13    1    5    5    0    0  0.12136679192E+03 -0.26009529965E+01  0.46907556580E+03  0.48452920404E+03  0.00000000000E+00 0.  1.
        -13    1    5    5    0    0  0.85494557912E+02  0.67870910988E+02  0.26155633343E+03  0.28342105700E+03  0.00000000000E+00 0. -1.
          2    1    6    6  503    0 -0.91185549572E+02  0.15276262939E+03  0.32405107690E+03  0.36967597410E+03  0.00000000000E+00 0. -1.
         -2    1    6    6    0  503 -0.17927523386E+03  0.39471010044E+03  0.10577193054E+04  0.11431123313E+04  0.00000000000E+00 0.  1.
<mgrwt>
<rscale>  0 0.73178892E+03</rscale>
<asrwt>0</asrwt>
<pdfrwt beam="1">  1        2 0.48797468E+00 0.73178892E+03</pdfrwt>
<pdfrwt beam="2">  1       -2 0.28238844E-01 0.73178892E+03</pdfrwt>
<totfact> 0.16587356E+01</totfact>
</mgrwt>
</event>
<event>
12    1  0.1432447E-007  0.8214693E+03  0.7818608E-02  0.9529451E-01
         -1   -1    0    0    0  501 -0.00000000000E+00  0.00000000000E+00  0.53209719525E+03  0.53209719525E+03  0.00000000000E+00 0.  1.
          1   -1    0    0  501    0  0.00000000000E+00 -0.00000000000E+00 -0.15300773611E+04  0.15300773611E+04  0.00000000000E+00 0. -1.
         23    2    1    2    0    0  0.27014467356E+03 -0.73647743296E+03 -0.26627897140E+03  0.83289805668E+03  0.86241105608E+02 0.  0.
    5000000    2    1    2    0    0 -0.27014467356E+03  0.73647743296E+03 -0.73170119443E+03  0.12292764997E+04  0.60029736028E+03 0.  0.
         23    2    4    4    0    0 -0.23272734979E+03  0.20904593230E+03 -0.59107703496E+03  0.67465555154E+03  0.89027135280E+02 0.  0.
         23    2    4    4    0    0 -0.37417323777E+02  0.52743150066E+03 -0.14062415947E+03  0.55462094811E+03  0.90803071849E+02 0.  0.
          3    1    3    3  502    0  0.49080664366E+02 -0.13811079519E+03 -0.15167219847E+02  0.14735517609E+03  0.00000000000E+00 0. -1.
         -3    1    3    3    0  502  0.22106400920E+03 -0.59836663777E+03 -0.25111175156E+03  0.68554288059E+03  0.00000000000E+00 0.  1.
         11    1    5    5    0    0 -0.24952929718E+02  0.64787315230E+02 -0.93281820928E+02  0.11628216988E+03  0.00000000000E+00 0.  1.
        -11    1    5    5    0    0 -0.20777442007E+03  0.14425861707E+03 -0.49779521403E+03  0.55837338166E+03  0.00000000000E+00 0. -1.
          1    1    6    6  503    0 -0.29643024810E+02  0.46758914773E+02 -0.21116204908E+02  0.59253684614E+02  0.00000000000E+00 0. -1.
         -1    1    6    6    0  503 -0.77742989678E+01  0.48067258588E+03 -0.11950795456E+03  0.49536726350E+03  0.00000000000E+00 0.  1.
<mgrwt>
<rscale>  0 0.82146929E+03</rscale>
<asrwt>0</asrwt>
<pdfrwt beam="1">  1        1 0.23539651E+00 0.82146929E+03</pdfrwt>
<pdfrwt beam="2">  1       -1 0.81861108E-01 0.82146929E+03</pdfrwt>
<totfact> 0.95227772E+00</totfact>
</mgrwt>
</event>
<event>
12    1  0.1432447E-007  0.1329697E+04  0.7818608E-02  0.9006341E-01
          1   -1    0    0  501    0  0.00000000000E+00  0.00000000000E+00  0.83871844617E+03  0.83871844617E+03  0.00000000000E+00 0. -1.
         -1   -1    0    0    0  501 -0.00000000000E+00 -0.00000000000E+00 -0.23299897927E+04  0.23299897927E+04  0.00000000000E+00 0.  1.
         23    2    1    2    0    0  0.46369581815E+03 -0.12319885210E+04 -0.93871900705E+03  0.16194136528E+04  0.92182846360E+02 0.  0.
    5000000    2    1    2    0    0 -0.46369581815E+03  0.12319885210E+04 -0.55255233949E+03  0.15492945860E+04  0.60182231506E+03 0.  0.
         23    2    4    4    0    0 -0.92636047513E+02  0.49499971661E+03  0.63846839603E+02  0.51499262107E+03  0.86803364491E+02 0.  0.
         23    2    4    4    0    0 -0.37105977064E+03  0.73698880436E+03 -0.61639917909E+03  0.10343019650E+04  0.94840685493E+02 0.  0.
          1    1    3    3  502    0  0.32640410637E+02 -0.14408998279E+03 -0.80474567938E+02  0.16823636834E+03  0.00000000000E+00 0. -1.
         -1    1    3    3    0  502  0.43105540752E+03 -0.10878985382E+04 -0.85824443911E+03  0.14511772845E+04  0.00000000000E+00 0.  1.
         11    1    5    5    0    0  0.10578705613E+02  0.16306481273E+03  0.20373168641E+02  0.16467273048E+03  0.00000000000E+00 0. -1.
        -11    1    5    5    0    0 -0.10321475313E+03  0.33193490388E+03  0.43473670963E+02  0.35031989059E+03  0.00000000000E+00 0.  1.
          4    1    6    6  503    0 -0.16214656235E+03  0.42590465486E+03 -0.34668713090E+03  0.57260653982E+03  0.00000000000E+00 0. -1.
         -4    1    6    6    0  503 -0.20891320829E+03  0.31108414949E+03 -0.26971204819E+03  0.46169542515E+03  0.00000000000E+00 0.  1.
<mgrwt>
<rscale>  0 0.13296975E+04</rscale>
<asrwt>0</asrwt>
<pdfrwt beam="1">  1        1 0.12903361E+00 0.13296975E+04</pdfrwt>
<pdfrwt beam="2">  1       -1 0.35845996E+00 0.13296975E+04</pdfrwt>
<totfact> 0.27233786E-01</totfact>
</mgrwt>
</event>
<event>
12    1  0.1432447E-007  0.3817295E+03  0.7818608E-02  0.1050296E+00
         -2   -1    0    0    0  501 -0.00000000000E+00  0.00000000000E+00  0.26631263692E+03  0.26631263692E+03  0.00000000000E+00 0.  1.
          2   -1    0    0  501    0  0.00000000000E+00 -0.00000000000E+00 -0.10863502805E+04  0.10863502805E+04  0.00000000000E+00 0. -1.
         23    2    1    2    0    0  0.32920918940E+03  0.10534246662E+03 -0.14563380682E+03  0.38610231299E+03  0.91597296629E+02 0.  0.
    5000000    2    1    2    0    0 -0.32920918940E+03 -0.10534246662E+03 -0.67440383672E+03  0.96656060439E+03  0.59995261590E+03 0.  0.
         23    2    4    4    0    0 -0.86504018293E+01 -0.56815599297E+01 -0.60619204267E+03  0.61281052940E+03  0.89223555057E+02 0.  0.
         23    2    4    4    0    0 -0.32055878757E+03 -0.99660906693E+02 -0.68211794046E+02  0.35375007499E+03  0.88295153301E+02 0.  0.
          1    1    3    3  502    0  0.17367382500E+03  0.86553298145E+01 -0.60182945616E+02  0.18400950836E+03  0.00000000000E+00 0. -1.
         -1    1    3    3    0  502  0.15553536440E+03  0.96687136808E+02 -0.85450861205E+02  0.20209280463E+03  0.00000000000E+00 0.  1.
         13    1    5    5    0    0  0.18125501303E+02 -0.25806228094E+02 -0.87000422326E+02  0.92539552034E+02  0.00000000000E+00 0. -1.
        -13    1    5    5    0    0 -0.26775903132E+02  0.20124668164E+02 -0.51919162034E+03  0.52027097737E+03  0.00000000000E+00 0.  1.
          2    1    6    6  503    0 -0.16715512024E+03 -0.84357067860E+02 -0.69109699054E+02  0.19958231290E+03  0.00000000000E+00 0. -1.
         -2    1    6    6    0  503 -0.15340366733E+03 -0.15303838833E+02  0.89790500790E+00  0.15416776208E+03  0.00000000000E+00 0.  1.
<mgrwt>
<rscale>  0 0.38172951E+03</rscale>
<asrwt>0</asrwt>
<pdfrwt beam="1">  1        2 0.16713081E+00 0.38172951E+03</pdfrwt>
<pdfrwt beam="2">  1       -2 0.40971176E-01 0.38172951E+03</pdfrwt>
<totfact> 0.13160521E+02</totfact>
</mgrwt>
</event>
<event>
12    1  0.1432447E-007  0.6088191E+03  0.7818608E-02  0.9887276E-01
          1   -1    0    0  501    0  0.00000000000E+00  0.00000000000E+00  0.12547617541E+04  0.12547617541E+04  0.00000000000E+00 0. -1.
         -1   -1    0    0    0  501 -0.00000000000E+00 -0.00000000000E+00 -0.32736181048E+03  0.32736181048E+03  0.00000000000E+00 0.  1.
         23    2    1    2    0    0 -0.96908252735E+02  0.48580215282E+03  0.38448203504E+03  0.63328992223E+03  0.88514118667E+02 0.  0.
    5000000    2    1    2    0    0  0.96908252735E+02 -0.48580215282E+03  0.54291790856E+03  0.94883364233E+03  0.60010872702E+03 0.  0.
         23    2    4    4    0    0 -0.14481925101E+03  0.26045804048E+02  0.24963251505E+03  0.30422093187E+03  0.92644392407E+02 0.  0.
         23    2    4    4    0    0  0.24172750374E+03 -0.51184795687E+03  0.29328539351E+03  0.64461271046E+03  0.95334712615E+02 0.  0.
          1    1    3    3  502    0 -0.84927076325E+02  0.37366041697E+03  0.24889153795E+03  0.45692637609E+03  0.00000000000E+00 0. -1.
         -1    1    3    3    0  502 -0.11981176410E+02  0.11214173585E+03  0.13559049709E+03  0.17636354614E+03  0.00000000000E+00 0.  1.
         11    1    5    5    0    0 -0.59178450238E+02  0.33758056549E+02  0.43396533735E+02  0.80777190436E+02  0.00000000000E+00 0.  1.
        -11    1    5    5    0    0 -0.85640800769E+02 -0.77122525007E+01  0.20623598132E+03  0.22344374143E+03  0.00000000000E+00 0. -1.
          3    1    6    6  503    0  0.72225832115E+02 -0.19955096649E+03  0.63735070133E+02  0.22158365963E+03  0.00000000000E+00 0. -1.
         -3    1    6    6    0  503  0.16950167163E+03 -0.31229699038E+03  0.22955032338E+03  0.42302905083E+03  0.00000000000E+00 0.  1.
<mgrwt>
<rscale>  0 0.60881912E+03</rscale>
<asrwt>0</asrwt>
<pdfrwt beam="1">  1        1 0.19304027E+00 0.60881912E+03</pdfrwt>
<pdfrwt beam="2">  1       -1 0.50363356E-01 0.60881912E+03</pdfrwt>
<totfact> 0.40347552E+01</totfact>
</mgrwt>
</event>
<event>
12    1  0.1432447E-007  0.1888467E+04  0.7818608E-02  0.8660618E-01
          2   -1    0    0  501    0  0.00000000000E+00  0.00000000000E+00  0.19220102686E+04  0.19220102686E+04  0.00000000000E+00 0. -1.
         -2   -1    0    0    0  501 -0.00000000000E+00 -0.00000000000E+00 -0.19676107333E+04  0.19676107333E+04  0.00000000000E+00 0.  1.
         23    2    1    2    0    0  0.91517068128E+03 -0.16406490931E+04  0.24384928144E+03  0.18965542588E+04  0.90491779274E+02 0.  0.
    5000000    2    1    2    0    0 -0.91517068128E+03  0.16406490931E+04 -0.28944974612E+03  0.19930667431E+04  0.59938890919E+03 0.  0.
         23    2    4    4    0    0 -0.37780901886E+03  0.93070091511E+03  0.10519320035E+03  0.10139834611E+04  0.90293974324E+02 0.  0.
         23    2    4    4    0    0 -0.53736166242E+03  0.70994817795E+03 -0.39464294647E+03  0.97908328202E+03  0.10038449247E+03 0.  0.
          2    1    3    3  502    0  0.77651883662E+03 -0.13389537392E+04  0.22371003429E+03  0.15639132964E+04  0.00000000000E+00 0. -1.
         -2    1    3    3    0  502  0.13865184466E+03 -0.30169535389E+03  0.20139247151E+02  0.33264096240E+03  0.00000000000E+00 0.  1.
         11    1    5    5    0    0 -0.15748199903E+03  0.32668922534E+03  0.10847977810E+01  0.36266735000E+03  0.00000000000E+00 0. -1.
        -11    1    5    5    0    0 -0.22032701983E+03  0.60401168978E+03  0.10410840257E+03  0.65131611107E+03  0.00000000000E+00 0.  1.
          4    1    6    6  503    0 -0.43426274385E+03  0.54365088680E+03 -0.26597546096E+03  0.74490493572E+03  0.00000000000E+00 0. -1.
         -4    1    6    6    0  503 -0.10309891856E+03  0.16629729115E+03 -0.12866748551E+03  0.23417834631E+03  0.00000000000E+00 0.  1.
<mgrwt>
<rscale>  0 0.18884670E+04</rscale>
<asrwt>0</asrwt>
<pdfrwt beam="1">  1        2 0.29569389E+00 0.18884670E+04</pdfrwt>
<pdfrwt beam="2">  1       -2 0.30270934E+00 0.18884670E+04</pdfrwt>
<totfact> 0.20345142E-01</totfact>
</mgrwt>
</event>
<event>
12    1  0.1432447E-007  0.2951610E+03  0.7818608E-02  0.1087685E+00
         -1   -1    0    0    0  501 -0.00000000000E+00  0.00000000000E+00  0.13287352271E+03  0.13287352271E+03  0.00000000000E+00 0.  1.
          1   -1    0    0  501    0  0.00000000000E+00 -0.00000000000E+00 -0.12930910795E+04  0.12930910795E+04  0.00000000000E+00 0. -1.
         23    2    1    2    0    0 -0.14599341068E+03  0.49915354488E+02 -0.11138636383E+03  0.20782232161E+03  0.83531890527E+02 0.  0.
    5000000    2    1    2    0    0  0.14599341068E+03 -0.49915354488E+02 -0.10488311929E+04  0.12181422806E+04  0.60001510469E+03 0.  0.
         23    2    4    4    0    0 -0.11801753372E+03  0.37206961577E+02 -0.85359953911E+03  0.86744373860E+03  0.92271177643E+02 0.  0.
         23    2    4    4    0    0  0.26401094440E+03 -0.87122316064E+02 -0.19523165383E+03  0.35069854197E+03  0.87074634422E+02 0.  0.
          1    1    3    3  502    0 -0.53218577533E+02  0.17824134388E+02 -0.91985182599E+02  0.10775523458E+03  0.00000000000E+00 0. -1.
         -1    1    3    3    0  502 -0.92774833148E+02  0.32091220100E+02 -0.19401181230E+02  0.10006708703E+03  0.00000000000E+00 0.  1.
         11    1    5    5    0    0 -0.13339592450E+03  0.27812773582E+02 -0.74501511166E+03  0.75737410812E+03  0.00000000000E+00 0. -1.
        -11    1    5    5    0    0  0.15378390778E+02  0.93941879946E+01 -0.10858442745E+03  0.11006963049E+03  0.00000000000E+00 0.  1.
          4    1    6    6  503    0  0.23268079902E+03 -0.91667003745E+02 -0.13887436434E+03  0.28605818093E+03  0.00000000000E+00 0. -1.
         -4    1    6    6    0  503  0.31330145383E+02  0.45446876806E+01 -0.56357289492E+02  0.64640361035E+02  0.00000000000E+00 0.  1.
<mgrwt>
<rscale>  0 0.29516104E+03</rscale>
<asrwt>0</asrwt>
<pdfrwt beam="1">  1        1 0.19893708E+00 0.29516104E+03</pdfrwt>
<pdfrwt beam="2">  1       -1 0.20442081E-01 0.29516104E+03</pdfrwt>
<totfact> 0.19264229E+02</totfact>
</mgrwt>
</event>
<event>
12    1  0.1432447E-007  0.1554712E+04  0.7818608E-02  0.8848863E-01
         -1   -1    0    0    0  501 -0.00000000000E+00  0.00000000000E+00  0.22242674409E+04  0.22242674409E+04  0.00000000000E+00 0.  1.
          1   -1    0    0  501    0  0.00000000000E+00 -0.00000000000E+00 -0.11369947731E+04  0.11369947731E+04  0.00000000000E+00 0. -1.
         23    2    1    2    0    0  0.84446571346E+03 -0.12700213292E+04  0.36884925165E+03  0.15716892967E+04  0.89894144112E+02 0.  0.
    5000000    2    1    2    0    0 -0.84446571346E+03  0.12700213292E+04  0.71842341608E+03  0.17895729172E+04  0.60030201018E+03 0.  0.
         23    2    4    4    0    0 -0.86937184065E+03  0.11003700304E+04  0.74868659808E+03  0.15923435527E+04  0.91677513683E+02 0.  0.
         23    2    4    4    0    0  0.24906127188E+02  0.16965129885E+03 -0.30263182000E+02  0.19722936456E+03  0.92637377390E+02 0.  0.
          3    1    3    3  502    0  0.22808379359E+03 -0.40359278107E+03  0.87223191188E+02  0.47171732522E+03  0.00000000000E+00 0. -1.
         -3    1    3    3    0  502  0.61638191987E+03 -0.86642854816E+03  0.28162606046E+03  0.10999719715E+04  0.00000000000E+00 0.  1.
         11    1    5    5    0    0 -0.38832757513E+03  0.53161243220E+03  0.30780100351E+03  0.72674035352E+03  0.00000000000E+00 0. -1.
        -11    1    5    5    0    0 -0.48104426551E+03  0.56875759818E+03  0.44088559457E+03  0.86560319915E+03  0.00000000000E+00 0.  1.
          3    1    6    6  503    0 -0.11687650800E+02  0.99305847169E+02 -0.55059831779E+02  0.11414831378E+03  0.00000000000E+00 0. -1.
         -3    1    6    6    0  503  0.36593777988E+02  0.70345451677E+02  0.24796649779E+02  0.83081050784E+02  0.00000000000E+00 0.  1.
<mgrwt>
<rscale>  0 0.15547124E+04</rscale>
<asrwt>0</asrwt>
<pdfrwt beam="1">  1        1 0.17492227E+00 0.15547124E+04</pdfrwt>
<pdfrwt beam="2">  1       -1 0.34219499E+00 0.15547124E+04</pdfrwt>
<totfact> 0.19657382E-01</totfact>
</mgrwt>
</event>
<event>
12    1  0.1432447E-007  0.6679920E+03  0.7818608E-02  0.9773592E-01
         -2   -1    0    0    0  501 -0.00000000000E+00  0.00000000000E+00  0.29781187739E+03  0.29781187739E+03  0.00000000000E+00 0.  1.
          2   -1    0    0  501    0  0.00000000000E+00 -0.00000000000E+00 -0.21193436578E+04  0.21193436578E+04  0.00000000000E+00 0. -1.
         23    2    1    2    0    0 -0.59971513316E+03  0.10073618796E+03 -0.32752033872E+03  0.69609012583E+03  0.86405268944E+02 0.  0.
    5000000    2    1    2    0    0  0.59971513316E+03 -0.10073618796E+03 -0.14940114417E+04  0.17210654093E+04  0.60015825821E+03 0.  0.
         23    2    4    4    0    0  0.45640355057E+03 -0.23240146726E+03 -0.56896325524E+03  0.77125763856E+03  0.93832383916E+02 0.  0.
         23    2    4    4    0    0  0.14331158259E+03  0.13166527931E+03 -0.92504818644E+03  0.94980777079E+03  0.92448357146E+02 0.  0.
          1    1    3    3  502    0 -0.22431051722E+03  0.72115377846E+02 -0.98257203992E+02  0.25528477039E+03  0.00000000000E+00 0. -1.
         -1    1    3    3    0  502 -0.37540461594E+03  0.28620810112E+02 -0.22926313473E+03  0.44080535544E+03  0.00000000000E+00 0.  1.
         13    1    5    5    0    0  0.15014794149E+03 -0.12009548819E+03 -0.17721438928E+03  0.26148091782E+03  0.00000000000E+00 0. -1.
        -13    1    5    5    0    0  0.30625560908E+03 -0.11230597907E+03 -0.39174886596E+03  0.50977672073E+03  0.00000000000E+00 0.  1.
          1    1    6    6  503    0  0.58138525815E+02  0.13401732736E+02 -0.41776437374E+03  0.42200327794E+03  0.00000000000E+00 0. -1.
         -1    1    6    6    0  503  0.85173056778E+02  0.11826354657E+03 -0.50728381270E+03  0.52780449285E+03  0.00000000000E+00 0.  1.
<mgrwt>
<rscale>  0 0.66799203E+03</rscale>
<asrwt>0</asrwt>
<pdfrwt beam="1">  1        2 0.32605287E+00 0.66799203E+03</pdfrwt>
<pdfrwt beam="2">  1       -2 0.45817212E-01 0.66799203E+03</pdfrwt>
<totfact> 0.27127825E+01</totfact>
</mgrwt>
</event>
<event>
12    1  0.1432447E-007  0.1346361E+04  0.7818608E-02  0.8993588E-01
         -2   -1    0    0    0  501 -0.00000000000E+00  0.00000000000E+00  0.18999615446E+04  0.18999615446E+04  0.00000000000E+00 0.  1.
          2   -1    0    0  501    0  0.00000000000E+00 -0.00000000000E+00 -0.10439829837E+04  0.10439829837E+04  0.00000000000E+00 0. -1.
         23    2    1    2    0    0 -0.99993772118E+03 -0.88716071338E+03  0.27507895262E+03  0.13680978793E+04  0.95361415954E+02 0.  0.
    5000000    2    1    2    0    0  0.99993772118E+03  0.88716071338E+03  0.58089960824E+03  0.15758466489E+04  0.59909826281E+03 0.  0.
         23    2    4    4    0    0  0.72902666134E+03  0.67364380462E+03  0.67940305340E+03  0.12063298020E+04  0.91472585321E+02 0.  0.
         23    2    4    4    0    0  0.27091105984E+03  0.21351690876E+03 -0.98503445161E+02  0.36951684689E+03  0.88642533596E+02 0.  0.
          3    1    3    3  502    0 -0.46062513267E+03 -0.46955847805E+03  0.14942621366E+03  0.67452862837E+03  0.00000000000E+00 0. -1.
         -3    1    3    3    0  502 -0.53931258850E+03 -0.41760223533E+03  0.12565273896E+03  0.69356925096E+03  0.00000000000E+00 0.  1.
         11    1    5    5    0    0  0.24048433829E+03  0.16614534239E+03  0.20646262330E+03  0.35786003770E+03  0.00000000000E+00 0. -1.
        -11    1    5    5    0    0  0.48854232305E+03  0.50749846223E+03  0.47294043010E+03  0.84846976434E+03  0.00000000000E+00 0.  1.
          4    1    6    6  503    0  0.63007364940E+02  0.10282482017E+03 -0.31648760511E+02  0.12467764724E+03  0.00000000000E+00 0. -1.
         -4    1    6    6    0  503  0.20790369490E+03  0.11069208859E+03 -0.66854684650E+02  0.24483919966E+03  0.00000000000E+00 0.  1.
<mgrwt>
<rscale>  0 0.13463606E+04</rscale>
<asrwt>0</asrwt>
<pdfrwt beam="1">  1        2 0.16061277E+00 0.13463606E+04</pdfrwt>
<pdfrwt beam="2">  1       -2 0.29230178E+00 0.13463606E+04</pdfrwt>
<totfact> 0.80420543E-01</totfact>
</mgrwt>
</event>
<event>
12    1  0.1432447E-007  0.4283184E+03  0.7818608E-02  0.1034393E+00
          1   -1    0    0  501    0  0.00000000000E+00  0.00000000000E+00  0.24733311544E+04  0.24733311544E+04  0.00000000000E+00 0. -1.
         -1   -1    0    0    0  501 -0.00000000000E+00 -0.00000000000E+00 -0.11060359233E+03  0.11060359233E+03  0.00000000000E+00 0.  1.
         23    2    1    2    0    0 -0.23502705191E+03  0.22293940827E+03  0.51800126150E+03  0.61725546041E+03  0.87973300474E+02 0.  0.
    5000000    2    1    2    0    0  0.23502705191E+03 -0.22293940827E+03  0.18447263005E+04  0.19666792863E+04  0.59989382091E+03 0.  0.
         23    2    4    4    0    0 -0.71995505650E+02  0.37404280668E+02  0.11647717131E+04  0.11712527338E+04  0.92506160730E+02 0.  0.
         23    2    4    4    0    0  0.30702255756E+03 -0.26034368894E+03  0.67995458747E+03  0.79542655252E+03  0.91233065346E+02 0.  0.
          1    1    3    3  502    0 -0.17181020236E+03  0.18479440184E+03  0.45461845458E+03  0.51994774337E+03  0.00000000000E+00 0. -1.
         -1    1    3    3    0  502 -0.63216849547E+02  0.38145006436E+02  0.63382806918E+02  0.97307717040E+02  0.00000000000E+00 0.  1.
         11    1    5    5    0    0 -0.61779089946E+02 -0.19334201925E+02  0.67617012750E+03  0.67926173795E+03  0.00000000000E+00 0.  1.
        -11    1    5    5    0    0 -0.10216415704E+02  0.56738482593E+02  0.48860158555E+03  0.49199099581E+03  0.00000000000E+00 0. -1.
          4    1    6    6  503    0  0.82306038775E+02 -0.33721569296E+02  0.20196726447E+03  0.22068575888E+03  0.00000000000E+00 0. -1.
         -4    1    6    6    0  503  0.22471651878E+03 -0.22662211965E+03  0.47798732300E+03  0.57474079364E+03  0.00000000000E+00 0.  1.
<mgrwt>
<rscale>  0 0.42831836E+03</rscale>
<asrwt>0</asrwt>
<pdfrwt beam="1">  1        1 0.38051244E+00 0.42831836E+03</pdfrwt>
<pdfrwt beam="2">  1       -1 0.17015939E-01 0.42831836E+03</pdfrwt>
<totfact> 0.41668366E+01</totfact>
</mgrwt>
</event>
<event>
12    1  0.1432447E-007  0.1392915E+04  0.7818608E-02  0.8958963E-01
         -2   -1    0    0    0  501 -0.00000000000E+00  0.00000000000E+00  0.16528017942E+04  0.16528017942E+04  0.00000000000E+00 0.  1.
          2   -1    0    0  501    0  0.00000000000E+00 -0.00000000000E+00 -0.16811775455E+04  0.16811775455E+04  0.00000000000E+00 0. -1.
         23    2    1    2    0    0 -0.87968128256E+03 -0.10758195078E+04  0.80264919706E+03  0.16073218441E+04  0.89504216002E+02 0.  0.
    5000000    2    1    2    0    0  0.87968128256E+03  0.10758195078E+04 -0.83102494833E+03  0.17266574957E+04  0.59959725676E+03 0.  0.
         23    2    4    4    0    0  0.60721523470E+03  0.78619162184E+03 -0.86043571095E+03  0.13173704919E+04  0.91147093582E+02 0.  0.
         23    2    4    4    0    0  0.27246604786E+03  0.28962788597E+03  0.29410762614E+02  0.40928700380E+03  0.92351496747E+02 0.  0.
          2    1    3    3  502    0 -0.19294519117E+03 -0.21468183816E+03  0.12855622841E+03  0.31597918016E+03  0.00000000000E+00 0. -1.
         -2    1    3    3    0  502 -0.68673609139E+03 -0.86113766965E+03  0.67409296865E+03  0.12913426639E+04  0.00000000000E+00 0.  1.
         11    1    5    5    0    0  0.41670688474E+03  0.47342435146E+03 -0.52144335774E+03  0.81833881716E+03  0.00000000000E+00 0. -1.
        -11    1    5    5    0    0  0.19050834996E+03  0.31276727038E+03 -0.33899235321E+03  0.49903167471E+03  0.00000000000E+00 0.  1.
          3    1    6    6  503    0  0.22386673371E+03  0.21958980525E+03 -0.13443254780E+02  0.31387372960E+03  0.00000000000E+00 0. -1.
         -3    1    6    6    0  503  0.48599314150E+02  0.70038080719E+02  0.42854017394E+02  0.95413274200E+02  0.00000000000E+00 0.  1.
<mgrwt>
<rscale>  0 0.13929152E+04</rscale>
<asrwt>0</asrwt>
<pdfrwt beam="1">  1        2 0.25864270E+00 0.13929152E+04</pdfrwt>
<pdfrwt beam="2">  1       -2 0.25427720E+00 0.13929152E+04</pdfrwt>
<totfact> 0.57717798E-01</totfact>
</mgrwt>
</event>
<event>
12    1  0.1432447E-007  0.5234178E+03  0.7818608E-02  0.1007841E+00
          1   -1    0    0  501    0  0.00000000000E+00  0.00000000000E+00  0.25223123370E+04  0.25223123370E+04  0.00000000000E+00 0.  1.
         -1   -1    0    0    0  501 -0.00000000000E+00 -0.00000000000E+00 -0.14996572465E+03  0.14996572465E+03  0.00000000000E+00 0. -1.
         23    2    1    2    0    0 -0.35404628710E+03  0.97853467699E+02  0.15225774875E+04  0.15689650740E+04  0.92114730902E+02 0.  0.
    5000000    2    1    2    0    0  0.35404628710E+03 -0.97853467699E+02  0.84976912492E+03  0.11033129877E+04  0.60022321558E+03 0.  0.
         23    2    4    4    0    0  0.32899702555E+03  0.18513171632E+03  0.60715670808E+03  0.72124942521E+03  0.95124497302E+02 0.  0.
         23    2    4    4    0    0  0.25049261542E+02 -0.28298518402E+03  0.24261241684E+03  0.38206356245E+03  0.80023128322E+02 0.  0.
          3    1    3    3  502    0 -0.12993395323E+03 -0.24627350617E+01  0.62776504485E+03  0.64107554063E+03  0.00000000000E+00 0. -1.
         -3    1    3    3    0  502 -0.22411233387E+03  0.10031620276E+03  0.89481244263E+03  0.92788953341E+03  0.00000000000E+00 0.  1.
         13    1    5    5    0    0  0.21210052062E+03  0.11302000694E+03  0.29712917060E+03  0.38215951752E+03  0.00000000000E+00 0.  1.
        -13    1    5    5    0    0  0.11689650494E+03  0.72111709387E+02  0.31002753748E+03  0.33908990769E+03  0.00000000000E+00 0. -1.
          3    1    6    6  503    0 -0.26168225438E+02 -0.74162941941E+02  0.82551384558E+02  0.11401600358E+03  0.00000000000E+00 0. -1.
         -3    1    6    6    0  503  0.51217486980E+02 -0.20882224208E+03  0.16006103228E+03  0.26804755887E+03  0.00000000000E+00 0.  1.
<mgrwt>
<rscale>  0 0.52341779E+03</rscale>
<asrwt>0</asrwt>
<pdfrwt beam="1">  1        1 0.38804802E+00 0.52341779E+03</pdfrwt>
<pdfrwt beam="2">  1       -1 0.23071652E-01 0.52341779E+03</pdfrwt>
<totfact> 0.22876766E+01</totfact>
</mgrwt>
</event>
<event>
12    1  0.1432447E-007  0.8050691E+03  0.7818608E-02  0.9552709E-01
         -2   -1    0    0    0  501 -0.00000000000E+00  0.00000000000E+00  0.40162567821E+03  0.40162567821E+03  0.00000000000E+00 0. -1.
          2   -1    0    0  501    0  0.00000000000E+00 -0.00000000000E+00 -0.31902069636E+04  0.31902069636E+04  0.00000000000E+00 0.  1.
         23    2    1    2    0    0  0.49137412111E+03  0.49144312055E+03 -0.48585869200E+02  0.70206289934E+03  0.86987702142E+02 0.  0.
    5000000    2    1    2    0    0 -0.49137412111E+03 -0.49144312055E+03 -0.27399954162E+04  0.28897697424E+04  0.60019114966E+03 0.  0.
         23    2    4    4    0    0  0.12418884854E+03 -0.98284993824E+02 -0.59041215572E+03  0.61767427241E+03  0.88612544620E+02 0.  0.
         23    2    4    4    0    0 -0.61556296965E+03 -0.39315812672E+03 -0.21495832604E+04  0.22720954700E+04  0.90656214168E+02 0.  0.
          3    1    3    3  502    0  0.14105798978E+03  0.88866742471E+02 -0.12806729366E+02  0.16720845289E+03  0.00000000000E+00 0. -1.
         -3    1    3    3    0  502  0.35031613132E+03  0.40257637808E+03 -0.35779139834E+02  0.53485444646E+03  0.00000000000E+00 0.  1.
         11    1    5    5    0    0  0.53504834553E+02 -0.94338086391E+02 -0.30848689786E+03  0.32699634251E+03  0.00000000000E+00 0.  1.
        -11    1    5    5    0    0  0.70684013987E+02 -0.39469074339E+01 -0.28192525786E+03  0.29067792990E+03  0.00000000000E+00 0. -1.
          3    1    6    6  503    0 -0.33604593578E+03 -0.20710781249E+03 -0.12983573886E+04  0.13570381076E+04  0.00000000000E+00 0. -1.
         -3    1    6    6    0  503 -0.27951703387E+03 -0.18605031423E+03 -0.85122587179E+03  0.91505736238E+03  0.00000000000E+00 0.  1.
<mgrwt>
<rscale>  0 0.80506906E+03</rscale>
<asrwt>0</asrwt>
<pdfrwt beam="1">  1        2 0.49080109E+00 0.80506906E+03</pdfrwt>
<pdfrwt beam="2">  1       -2 0.61788564E-01 0.80506906E+03</pdfrwt>
<totfact> 0.34013163E+00</totfact>
</mgrwt>
</event>
<event>
12    1  0.1432447E-007  0.1267999E+04  0.7818608E-02  0.9055334E-01
          2   -1    0    0  501    0  0.00000000000E+00  0.00000000000E+00  0.34884240893E+04  0.34884240893E+04  0.00000000000E+00 0. -1.
         -2   -1    0    0    0  501 -0.00000000000E+00 -0.00000000000E+00 -0.61738322589E+03  0.61738322589E+03  0.00000000000E+00 0.  1.
         23    2    1    2    0    0 -0.19701024023E+03  0.11923003797E+04  0.23787466147E+04  0.26697007006E+04  0.92049680964E+02 0.  0.
    5000000    2    1    2    0    0  0.19701024023E+03 -0.11923003797E+04  0.49229424871E+03  0.14361066146E+04  0.59971272376E+03 0.  0.
         23    2    4    4    0    0  0.38161184033E+03 -0.73479015055E+03  0.20547491802E+03  0.85805772273E+03  0.92189758585E+02 0.  0.
         23    2    4    4    0    0 -0.18460160011E+03 -0.45751022912E+03  0.28681933069E+03  0.57804889185E+03  0.92096864216E+02 0.  0.
          4    1    3    3  502    0 -0.11731027800E+03  0.51660557291E+03  0.11145712153E+04  0.12340632129E+04  0.00000000000E+00 0.  1.
         -4    1    3    3    0  502 -0.79699962225E+02  0.67569480675E+03  0.12641753993E+04  0.14356374877E+04  0.00000000000E+00 0. -1.
         11    1    5    5    0    0  0.23421766095E+03 -0.38445102940E+03  0.76132921760E+02  0.45657061719E+03  0.00000000000E+00 0. -1.
        -11    1    5    5    0    0  0.14739417939E+03 -0.35033912114E+03  0.12934199626E+03  0.40148710554E+03  0.00000000000E+00 0.  1.
          3    1    6    6  503    0 -0.73287057950E+02 -0.12438751790E+03  0.43540747618E+02  0.15079470871E+03  0.00000000000E+00 0. -1.
         -3    1    6    6    0  503 -0.11131454216E+03 -0.33312271122E+03  0.24327858308E+03  0.42725418314E+03  0.00000000000E+00 0.  1.
<mgrwt>
<rscale>  0 0.12679989E+04</rscale>
<asrwt>0</asrwt>
<pdfrwt beam="1">  1        2 0.53668062E+00 0.12679989E+04</pdfrwt>
<pdfrwt beam="2">  1       -2 0.94982037E-01 0.12679989E+04</pdfrwt>
<totfact> 0.76555610E-01</totfact>
</mgrwt>
</event>
<event>
12    1  0.1432447E-007  0.4590654E+03  0.7818608E-02  0.1025053E+00
         -2   -1    0    0    0  501 -0.00000000000E+00  0.00000000000E+00  0.28766830045E+03  0.28766830045E+03  0.00000000000E+00 0.  1.
          2   -1    0    0  501    0  0.00000000000E+00 -0.00000000000E+00 -0.11922504780E+04  0.11922504780E+04  0.00000000000E+00 0. -1.
         23    2    1    2    0    0 -0.20064814634E+03  0.34273246402E+03 -0.53068129425E+03  0.66887548305E+03  0.89702593262E+02 0.  0.
    5000000    2    1    2    0    0  0.20064814634E+03 -0.34273246402E+03 -0.37390088330E+03  0.81104329539E+03  0.60022007293E+03 0.  0.
         23    2    4    4    0    0 -0.28014226682E+02 -0.26872050651E+03  0.73946967500E+02  0.29488581742E+03  0.92162811369E+02 0.  0.
         23    2    4    4    0    0  0.22866237302E+03 -0.74011957507E+02 -0.44784785080E+03  0.51615747797E+03  0.89925490890E+02 0.  0.
          3    1    3    3  502    0 -0.79445085584E+02  0.15939418330E+03 -0.16818704012E+03  0.24495899199E+03  0.00000000000E+00 0. -1.
         -3    1    3    3    0  502 -0.12120306075E+03  0.18333828071E+03 -0.36249425414E+03  0.42391649106E+03  0.00000000000E+00 0.  1.
         13    1    5    5    0    0 -0.42816744571E+02 -0.82099088015E+02 -0.26082648749E+01  0.92630108033E+02  0.00000000000E+00 0.  1.
        -13    1    5    5    0    0  0.14802517889E+02 -0.18662141849E+03  0.76555232375E+02  0.20225570939E+03  0.00000000000E+00 0. -1.
          1    1    6    6  503    0  0.86426655617E+02 -0.24233561284E+02 -0.26165745286E+03  0.27662511623E+03  0.00000000000E+00 0. -1.
         -1    1    6    6    0  503  0.14223571740E+03 -0.49778396223E+02 -0.18619039794E+03  0.23953236174E+03  0.00000000000E+00 0.  1.
<mgrwt>
<rscale>  0 0.45906536E+03</rscale>
<asrwt>0</asrwt>
<pdfrwt beam="1">  1        2 0.18342315E+00 0.45906536E+03</pdfrwt>
<pdfrwt beam="2">  1       -2 0.44256661E-01 0.45906536E+03</pdfrwt>
<totfact> 0.96971615E+01</totfact>
</mgrwt>
</event>
<event>
12    1  0.1432447E-007  0.7806336E+03  0.7818608E-02  0.9588480E-01
         -2   -1    0    0    0  501 -0.00000000000E+00  0.00000000000E+00  0.72377503504E+03  0.72377503504E+03  0.00000000000E+00 0.  1.
          2   -1    0    0  501    0  0.00000000000E+00 -0.00000000000E+00 -0.93610038119E+03  0.93610038119E+03  0.00000000000E+00 0. -1.
         23    2    1    2    0    0  0.40533427359E+03  0.58182202063E+03 -0.44550600601E+02  0.71588154200E+03  0.87686310883E+02 0.  0.
    5000000    2    1    2    0    0 -0.40533427359E+03 -0.58182202063E+03 -0.16777474555E+03  0.94399387424E+03  0.60013609483E+03 0.  0.
         23    2    4    4    0    0 -0.48775895928E+03 -0.52862340254E+03  0.56880635562E+01  0.72494697940E+03  0.90356321291E+02 0.  0.
         23    2    4    4    0    0  0.82424685688E+02 -0.53198618093E+02 -0.17346280911E+03  0.21904689485E+03  0.90930051252E+02 0.  0.
          4    1    3    3  502    0  0.19683763683E+03  0.34425117335E+03 -0.50388053132E+02  0.39974101807E+03  0.00000000000E+00 0. -1.
         -4    1    3    3    0  502  0.20849663676E+03  0.23757084728E+03  0.58374525307E+01  0.31614052393E+03  0.00000000000E+00 0.  1.
         11    1    5    5    0    0 -0.15620435671E+03 -0.22449271440E+03 -0.20595854010E+02  0.27426441453E+03  0.00000000000E+00 0. -1.
        -11    1    5    5    0    0 -0.33155460256E+03 -0.30413068814E+03  0.26283917566E+02  0.45068256486E+03  0.00000000000E+00 0.  1.
          1    1    6    6  503    0  0.43588132100E+02 -0.70356678876E+02 -0.74482579085E+02  0.11134469951E+03  0.00000000000E+00 0. -1.
         -1    1    6    6    0  503  0.38836553587E+02  0.17158060783E+02 -0.98980230021E+02  0.10770219533E+03  0.00000000000E+00 0.  1.
<mgrwt>
<rscale>  0 0.78063362E+03</rscale>
<asrwt>0</asrwt>
<pdfrwt beam="1">  1        2 0.14401544E+00 0.78063362E+03</pdfrwt>
<pdfrwt beam="2">  1       -2 0.11135001E+00 0.78063362E+03</pdfrwt>
<totfact> 0.17914365E+01</totfact>
</mgrwt>
</event>
<event>
12    1  0.1432447E-007  0.6313780E+03  0.7818608E-02  0.9842363E-01
          1   -1    0    0  501    0  0.00000000000E+00  0.00000000000E+00  0.69053038291E+03  0.69053038291E+03  0.00000000000E+00 0. -1.
         -1   -1    0    0    0  501 -0.00000000000E+00 -0.00000000000E+00 -0.72224583748E+03  0.72224583748E+03  0.00000000000E+00 0.  1.
         23    2    1    2    0    0 -0.23554617604E+02 -0.49808872503E+03  0.27228252484E+03  0.57545949817E+03  0.91480395131E+02 0.  0.
    5000000    2    1    2    0    0  0.23554617604E+02  0.49808872503E+03 -0.30399797940E+03  0.83731672221E+03  0.60003110236E+03 0.  0.
         23    2    4    4    0    0  0.24131950965E+03  0.46186063432E+03 -0.27755648989E+03  0.59732048994E+03  0.90574893581E+02 0.  0.
         23    2    4    4    0    0 -0.21776489204E+03  0.36228090706E+02 -0.26441489514E+02  0.23999623227E+03  0.90360480160E+02 0.  0.
          3    1    3    3  502    0 -0.23985013642E+02 -0.34899279823E+03  0.14227453260E+03  0.37764175712E+03  0.00000000000E+00 0. -1.
         -3    1    3    3    0  502  0.43039603809E+00 -0.14909592680E+03  0.13000799224E+03  0.19781774105E+03  0.00000000000E+00 0.  1.
         13    1    5    5    0    0  0.16236218187E+03  0.22658844827E+03 -0.17265240797E+03  0.32789122735E+03  0.00000000000E+00 0.  1.
        -13    1    5    5    0    0  0.78957327777E+02  0.23527218605E+03 -0.10490408192E+03  0.26942926259E+03  0.00000000000E+00 0. -1.
          2    1    6    6  503    0 -0.88984464049E+02  0.58134310195E+02 -0.25742183239E+02  0.10936403825E+03  0.00000000000E+00 0. -1.
         -2    1    6    6    0  503 -0.12878042799E+03 -0.21906219488E+02 -0.69930627481E+00  0.13063219403E+03  0.00000000000E+00 0.  1.
<mgrwt>
<rscale>  0 0.63137800E+03</rscale>
<asrwt>0</asrwt>
<pdfrwt beam="1">  1        1 0.10623544E+00 0.63137800E+03</pdfrwt>
<pdfrwt beam="2">  1       -1 0.11111474E+00 0.63137800E+03</pdfrwt>
<totfact> 0.21583624E+01</totfact>
</mgrwt>
</event>
<event>
12    1  0.1432447E-007  0.1383603E+04  0.7818608E-02  0.8965774E-01
          1   -1    0    0  501    0  0.00000000000E+00  0.00000000000E+00  0.85008703262E+03  0.85008703262E+03  0.00000000000E+00 0. -1.
         -1   -1    0    0    0  501 -0.00000000000E+00 -0.00000000000E+00 -0.22613629053E+04  0.22613629053E+04  0.00000000000E+00 0.  1.
         23    2    1    2    0    0  0.10678038214E+04 -0.77532423733E+03 -0.66065890421E+03  0.14790098616E+04  0.98322474877E+02 0.  0.
    5000000    2    1    2    0    0 -0.10678038214E+04  0.77532423733E+03 -0.75061696842E+03  0.16324400763E+04  0.60008507335E+03 0.  0.
         23    2    4    4    0    0 -0.29557878193E+03  0.56230502354E+03 -0.35402161580E+03  0.73392095733E+03  0.98766954696E+02 0.  0.
         23    2    4    4    0    0 -0.77222503949E+03  0.21301921380E+03 -0.39659535262E+03  0.89851911892E+03  0.91323799131E+02 0.  0.
          1    1    3    3  502    0  0.46034126054E+03 -0.27601895731E+03 -0.25630670451E+03  0.59480557136E+03  0.00000000000E+00 0. -1.
         -1    1    3    3    0  502  0.60746256088E+03 -0.49930528002E+03 -0.40435219970E+03  0.88420429027E+03  0.00000000000E+00 0.  1.
         13    1    5    5    0    0  0.64585657002E+01  0.25048237549E+02 -0.79025717332E+01  0.27047697040E+02  0.00000000000E+00 0.  1.
        -13    1    5    5    0    0 -0.30203734763E+03  0.53725678599E+03 -0.34611904407E+03  0.70687326029E+03  0.00000000000E+00 0. -1.
          2    1    6    6  503    0 -0.11208981272E+03  0.17560934550E+02 -0.90249140420E+02  0.14497385931E+03  0.00000000000E+00 0.  1.
         -2    1    6    6    0  503 -0.66013522677E+03  0.19545827925E+03 -0.30634621220E+03  0.75354525961E+03  0.00000000000E+00 0. -1.
<mgrwt>
<rscale>  0 0.13836033E+04</rscale>
<asrwt>0</asrwt>
<pdfrwt beam="1">  1        1 0.13078262E+00 0.13836033E+04</pdfrwt>
<pdfrwt beam="2">  1       -1 0.34790198E+00 0.13836033E+04</pdfrwt>
<totfact> 0.31086117E-01</totfact>
</mgrwt>
</event>
<event>
12    1  0.1432447E-007  0.4420724E+03  0.7818608E-02  0.1030113E+00
         -1   -1    0    0    0  501 -0.00000000000E+00  0.00000000000E+00  0.42126833303E+03  0.42126833303E+03  0.00000000000E+00 0.  1.
          1   -1    0    0  501    0  0.00000000000E+00 -0.00000000000E+00 -0.66149103896E+03  0.66149103896E+03  0.00000000000E+00 0. -1.
         23    2    1    2    0    0 -0.12925267461E+03  0.32486351076E+03 -0.83035442585E+02  0.37072339800E+03  0.91095546453E+02 0.  0.
    5000000    2    1    2    0    0  0.12925267461E+03 -0.32486351076E+03 -0.15718726334E+03  0.71203597400E+03  0.60003736384E+03 0.  0.
         23    2    4    4    0    0  0.25597453190E+03 -0.20798444767E+03 -0.31329269660E+03  0.46380744611E+03  0.90468457842E+02 0.  0.
         23    2    4    4    0    0 -0.12672185729E+03 -0.11687906308E+03  0.15610543326E+03  0.24822852789E+03  0.86771834509E+02 0.  0.
          1    1    3    3  502    0 -0.65815731234E+02  0.70951205008E+02 -0.21807904852E+01  0.96801548630E+02  0.00000000000E+00 0. -1.
         -1    1    3    3    0  502 -0.63436943372E+02  0.25391230575E+03 -0.80854652100E+02  0.27392184937E+03  0.00000000000E+00 0.  1.
         11    1    5    5    0    0  0.19208143637E+03 -0.10028349694E+03 -0.19339367788E+03  0.29043617647E+03  0.00000000000E+00 0. -1.
        -11    1    5    5    0    0  0.63893095526E+02 -0.10770095074E+03 -0.11989901872E+03  0.17337126964E+03  0.00000000000E+00 0.  1.
          4    1    6    6  503    0 -0.10628042057E+03 -0.12285127296E+03  0.10649363495E+03  0.19423917563E+03  0.00000000000E+00 0.  1.
         -4    1    6    6    0  503 -0.20441436727E+02  0.59722098803E+01  0.49611798312E+02  0.53989352266E+02  0.00000000000E+00 0. -1.
<mgrwt>
<rscale>  0 0.44207243E+03</rscale>
<asrwt>0</asrwt>
<pdfrwt beam="1">  1        1 0.10176785E+00 0.44207243E+03</pdfrwt>
<pdfrwt beam="2">  1       -1 0.64810513E-01 0.44207243E+03</pdfrwt>
<totfact> 0.75392242E+01</totfact>
</mgrwt>
</event>
<event>
12    1  0.1432447E-007  0.7011090E+03  0.7818608E-02  0.9715338E-01
          2   -1    0    0  501    0  0.00000000000E+00  0.00000000000E+00  0.21616342979E+04  0.21616342979E+04  0.00000000000E+00 0. -1.
         -2   -1    0    0    0  501 -0.00000000000E+00 -0.00000000000E+00 -0.27537800114E+03  0.27537800114E+03  0.00000000000E+00 0.  1.
         23    2    1    2    0    0  0.16213128980E+03 -0.58149565007E+03  0.41805082289E+03  0.73991445423E+03  0.91011883181E+02 0.  0.
    5000000    2    1    2    0    0 -0.16213128980E+03  0.58149565007E+03  0.14682054739E+04  0.16970978448E+04  0.60007502463E+03 0.  0.
         23    2    4    4    0    0 -0.67357360669E+02  0.66258605540E+03  0.13242145514E+04  0.14852119278E+04  0.93557454538E+02 0.  0.
         23    2    4    4    0    0 -0.94773929129E+02 -0.81090405327E+02  0.14399092248E+03  0.21188591709E+03  0.92760469082E+02 0.  0.
          1    1    3    3  502    0  0.12978055919E+03 -0.29823062517E+03  0.21470320854E+03  0.38972037038E+03  0.00000000000E+00 0. -1.
         -1    1    3    3    0  502  0.32350730612E+02 -0.28326502490E+03  0.20334761435E+03  0.35019408385E+03  0.00000000000E+00 0.  1.
         11    1    5    5    0    0 -0.31548938055E+02  0.34058633570E+03  0.57666881128E+03  0.67047841535E+03  0.00000000000E+00 0.  1.
        -11    1    5    5    0    0 -0.35808422614E+02  0.32199971970E+03  0.74754574015E+03  0.81473351240E+03  0.00000000000E+00 0. -1.
          1    1    6    6  503    0 -0.51637990732E+02 -0.54918689377E+02  0.14273210081E+03  0.16141560374E+03  0.00000000000E+00 0. -1.
         -1    1    6    6    0  503 -0.43135938397E+02 -0.26171715950E+02  0.12588216715E+01  0.50470313346E+02  0.00000000000E+00 0.  1.
<mgrwt>
<rscale>  0 0.70110901E+03</rscale>
<asrwt>0</asrwt>
<pdfrwt beam="1">  1        2 0.33255911E+00 0.70110901E+03</pdfrwt>
<pdfrwt beam="2">  1       -2 0.42365848E-01 0.70110901E+03</pdfrwt>
<totfact> 0.29891976E+01</totfact>
</mgrwt>
</event>
<event>
12    1  0.1432447E-007  0.6840431E+03  0.7818608E-02  0.9744917E-01
         -1   -1    0    0    0  501 -0.00000000000E+00  0.00000000000E+00  0.43546934188E+03  0.43546934188E+03  0.00000000000E+00 0.  1.
          1   -1    0    0  501    0  0.00000000000E+00 -0.00000000000E+00 -0.11111242663E+04  0.11111242663E+04  0.00000000000E+00 0. -1.
         23    2    1    2    0    0 -0.55434581522E+03  0.85025023553E+02 -0.23304530654E+03  0.61365007931E+03  0.87907721229E+02 0.  0.
    5000000    2    1    2    0    0  0.55434581522E+03 -0.85025023553E+02 -0.44260961790E+03  0.93294352890E+03  0.59995984597E+03 0.  0.
         23    2    4    4    0    0  0.64437858103E+03 -0.14006999875E+03 -0.28488224063E+03  0.72426874794E+03  0.92541709369E+02 0.  0.
         23    2    4    4    0    0 -0.90032765813E+02  0.55044975194E+02 -0.15772737727E+03  0.20867478096E+03  0.86783584008E+02 0.  0.
          4    1    3    3  502    0 -0.25411316280E+03  0.80573599474E+02 -0.93069511934E+02  0.28236065323E+03  0.00000000000E+00 0.  1.
         -4    1    3    3    0  502 -0.30023265242E+03  0.44514240785E+01 -0.13997579461E+03  0.33128942608E+03  0.00000000000E+00 0. -1.
         13    1    5    5    0    0  0.41811086429E+03 -0.47820016237E+02 -0.19617565946E+03  0.46431491270E+03  0.00000000000E+00 0. -1.
        -13    1    5    5    0    0  0.22626771674E+03 -0.92249982510E+02 -0.88706581164E+02  0.25995383524E+03  0.00000000000E+00 0.  1.
          3    1    6    6  503    0  0.29091979786E+01  0.42114675008E+02 -0.40331400378E+02  0.58384339856E+02  0.00000000000E+00 0. -1.
         -3    1    6    6    0  503 -0.92941963792E+02  0.12930300186E+02 -0.11739597689E+03  0.15029044110E+03  0.00000000000E+00 0.  1.
<mgrwt>
<rscale>  0 0.68404308E+03</rscale>
<asrwt>0</asrwt>
<pdfrwt beam="1">  1        1 0.17094219E+00 0.68404308E+03</pdfrwt>
<pdfrwt beam="2">  1       -1 0.66995284E-01 0.68404308E+03</pdfrwt>
<totfact> 0.29091447E+01</totfact>
</mgrwt>
</event>
<event>
12    1  0.1432447E-007  0.1116114E+04  0.7818608E-02  0.9189627E-01
          1   -1    0    0  501    0  0.00000000000E+00  0.00000000000E+00  0.20110705744E+04  0.20110705744E+04  0.00000000000E+00 0. -1.
         -1   -1    0    0    0  501 -0.00000000000E+00 -0.00000000000E+00 -0.84435378564E+03  0.84435378564E+03  0.00000000000E+00 0.  1.
         23    2    1    2    0    0 -0.44595333656E+03  0.10067831420E+04  0.11592912921E+04  0.16014146587E+04  0.89921831180E+02 0.  0.
    5000000    2    1    2    0    0  0.44595333656E+03 -0.10067831420E+04  0.74254966835E+01  0.12540097014E+04  0.59999876642E+03 0.  0.
         23    2    4    4    0    0  0.29502798867E+03 -0.41564671673E+03  0.27020717766E+03  0.58376037636E+03  0.89221919534E+02 0.  0.
         23    2    4    4    0    0  0.15092534789E+03 -0.59113642527E+03 -0.26278168098E+03  0.67024932500E+03  0.89214415247E+02 0.  0.
          3    1    3    3  502    0 -0.38923386716E+03  0.81156934377E+03  0.91319211802E+03  0.12822120135E+04  0.00000000000E+00 0. -1.
         -3    1    3    3    0  502 -0.56719469403E+02  0.19521379823E+03  0.24609917406E+03  0.31920264520E+03  0.00000000000E+00 0.  1.
         11    1    5    5    0    0  0.12195465561E+03 -0.10337876233E+03  0.96246786326E+02  0.18661069209E+03  0.00000000000E+00 0.  1.
        -11    1    5    5    0    0  0.17307333306E+03 -0.31226795440E+03  0.17396039134E+03  0.39714968427E+03  0.00000000000E+00 0. -1.
          3    1    6    6  503    0  0.14930065767E+03 -0.52535482928E+03 -0.20728934674E+03  0.58417228306E+03  0.00000000000E+00 0. -1.
         -3    1    6    6    0  503  0.16246902214E+01 -0.65781595996E+02 -0.55492334238E+02  0.86077041941E+02  0.00000000000E+00 0.  1.
<mgrwt>
<rscale>  0 0.11161135E+04</rscale>
<asrwt>0</asrwt>
<pdfrwt beam="1">  1        1 0.30939547E+00 0.11161135E+04</pdfrwt>
<pdfrwt beam="2">  1       -1 0.12990058E+00 0.11161135E+04</pdfrwt>
<totfact> 0.14803059E+00</totfact>
</mgrwt>
</event>
<event>
12    1  0.1432447E-007  0.1414034E+04  0.7818608E-02  0.8943722E-01
          1   -1    0    0  501    0  0.00000000000E+00  0.00000000000E+00  0.23701894886E+04  0.23701894886E+04  0.00000000000E+00 0. -1.
         -1   -1    0    0    0  501 -0.00000000000E+00 -0.00000000000E+00 -0.15681273024E+04  0.15681273024E+04  0.00000000000E+00 0.  1.
         23    2    1    2    0    0 -0.42149638117E+03 -0.13428713433E+04 -0.88160708683E+03  0.16633147972E+04  0.91773716282E+02 0.  0.
    5000000    2    1    2    0    0  0.42149638117E+03  0.13428713433E+04  0.16836692730E+04  0.22750019938E+04  0.59994100301E+03 0.  0.
         23    2    4    4    0    0  0.14595727546E+03  0.61349540509E+03  0.11847513174E+04  0.13452495590E+04  0.91545363593E+02 0.  0.
         23    2    4    4    0    0  0.27553910572E+03  0.72937593816E+03  0.49891795567E+03  0.92975243485E+03  0.87231907469E+02 0.  0.
          4    1    3    3  502    0 -0.38021149814E+03 -0.12001888167E+04 -0.82024925316E+03  0.15026053429E+04  0.00000000000E+00 0.  1.
         -4    1    3    3    0  502 -0.41284883030E+02 -0.14268252652E+03 -0.61357833676E+02  0.16070945428E+03  0.00000000000E+00 0. -1.
         11    1    5    5    0    0  0.62731191839E+02  0.10923778838E+03  0.22171171470E+03  0.25499839465E+03  0.00000000000E+00 0. -1.
        -11    1    5    5    0    0  0.83226083620E+02  0.50425761671E+03  0.96303960266E+03  0.10902511643E+04  0.00000000000E+00 0.  1.
          4    1    6    6  503    0  0.99979506123E+02  0.16987243907E+03  0.14662096387E+03  0.24566288740E+03  0.00000000000E+00 0. -1.
         -4    1    6    6    0  503  0.17555959959E+03  0.55950349909E+03  0.35229699180E+03  0.68408954745E+03  0.00000000000E+00 0.  1.
<mgrwt>
<rscale>  0 0.14140339E+04</rscale>
<asrwt>0</asrwt>
<pdfrwt beam="1">  1        1 0.36464453E+00 0.14140339E+04</pdfrwt>
<pdfrwt beam="2">  1       -1 0.24125036E+00 0.14140339E+04</pdfrwt>
<totfact> 0.12646047E-01</totfact>
</mgrwt>
</event>
<event>
12    1  0.1432447E-007  0.4141689E+03  0.7818608E-02  0.1038981E+00
         -2   -1    0    0    0  501 -0.00000000000E+00  0.00000000000E+00  0.70092938944E+02  0.70092938944E+02  0.00000000000E+00 0.  1.
          2   -1    0    0  501    0  0.00000000000E+00 -0.00000000000E+00 -0.38998111745E+04  0.38998111745E+04  0.00000000000E+00 0. -1.
         23    2    1    2    0    0 -0.26707196101E+02 -0.27119592648E+03 -0.51170943025E+03  0.58689713450E+03  0.91330173619E+02 0.  0.
    5000000    2    1    2    0    0  0.26707196101E+02  0.27119592648E+03 -0.33180088054E+04  0.33830069790E+04  0.60107676933E+03 0.  0.
         23    2    4    4    0    0  0.24653121234E+03  0.91417820638E+02 -0.79404837907E+03  0.84149295474E+03  0.91992977904E+02 0.  0.
         23    2    4    4    0    0 -0.21982401624E+03  0.17977810585E+03 -0.25239604263E+04  0.25415140243E+04  0.90964479717E+02 0.  0.
          3    1    3    3  502    0 -0.16553037186E+02 -0.13468549724E+03 -0.16184115468E+03  0.21120309078E+03  0.00000000000E+00 0. -1.
         -3    1    3    3    0  502 -0.10154158915E+02 -0.13651042924E+03 -0.34986827557E+03  0.37569404372E+03  0.00000000000E+00 0.  1.
         11    1    5    5    0    0  0.11231418621E+03  0.71754516663E+02 -0.50345893483E+03  0.52080138838E+03  0.00000000000E+00 0. -1.
        -11    1    5    5    0    0  0.13421702612E+03  0.19663303975E+02 -0.29058944425E+03  0.32069156636E+03  0.00000000000E+00 0.  1.
          1    1    6    6  503    0 -0.52271458922E+02  0.66440489630E+02 -0.46337733225E+03  0.47102568520E+03  0.00000000000E+00 0. -1.
         -1    1    6    6    0  503 -0.16755255731E+03  0.11333761621E+03 -0.20605830940E+04  0.20704883391E+04  0.00000000000E+00 0.  1.
<mgrwt>
<rscale>  0 0.41416888E+03</rscale>
<asrwt>0</asrwt>
<pdfrwt beam="1">  1        2 0.59997101E+00 0.41416888E+03</pdfrwt>
<pdfrwt beam="2">  1       -2 0.10783528E-01 0.41416888E+03</pdfrwt>
<totfact> 0.29607397E+01</totfact>
</mgrwt>
</event>
<event>
12    1  0.1432447E-007  0.7373814E+03  0.7818608E-02  0.9655358E-01
          2   -1    0    0  501    0  0.00000000000E+00  0.00000000000E+00  0.72022742974E+03  0.72022742974E+03  0.00000000000E+00 0. -1.
         -2   -1    0    0    0  501 -0.00000000000E+00 -0.00000000000E+00 -0.97048163672E+03  0.97048163672E+03  0.00000000000E+00 0.  1.
         23    2    1    2    0    0 -0.54924547901E+03  0.34385591139E+03 -0.43821963473E+03  0.78785604328E+03  0.93665429391E+02 0.  0.
    5000000    2    1    2    0    0  0.54924547901E+03 -0.34385591139E+03  0.18796542775E+03  0.90285302318E+03  0.59992090765E+03 0.  0.
         23    2    4    4    0    0  0.62536574349E+02  0.12517189488E+03  0.14194737789E+03  0.21932683896E+03  0.91522553502E+02 0.  0.
         23    2    4    4    0    0  0.48670890466E+03 -0.46902780628E+03  0.46018049863E+02  0.68352618422E+03  0.90651765936E+02 0.  0.
          4    1    3    3  502    0 -0.27285689152E+03  0.13173845060E+03 -0.16435112203E+03  0.34469870021E+03  0.00000000000E+00 0. -1.
         -4    1    3    3    0  502 -0.27638858749E+03  0.21211746080E+03 -0.27386851270E+03  0.44315734307E+03  0.00000000000E+00 0.  1.
         11    1    5    5    0    0  0.48258353312E+02  0.59213797204E+02  0.18436585697E+02  0.78581487234E+02  0.00000000000E+00 0. -1.
        -11    1    5    5    0    0  0.14278221036E+02  0.65958097680E+02  0.12351079219E+03  0.14074535173E+03  0.00000000000E+00 0.  1.
          1    1    6    6  503    0  0.30028316398E+03 -0.24152981980E+03 -0.28057453759E+01  0.38537579663E+03  0.00000000000E+00 0. -1.
         -1    1    6    6    0  503  0.18642574068E+03 -0.22749798647E+03  0.48823795239E+02  0.29815038759E+03  0.00000000000E+00 0.  1.
<mgrwt>
<rscale>  0 0.73738139E+03</rscale>
<asrwt>0</asrwt>
<pdfrwt beam="1">  1        2 0.11080422E+00 0.73738139E+03</pdfrwt>
<pdfrwt beam="2">  1       -2 0.14930487E+00 0.73738139E+03</pdfrwt>
<totfact> 0.12185937E+01</totfact>
</mgrwt>
</event>
<event>
12    1  0.1432447E-007  0.8077463E+03  0.7818608E-02  0.9548872E-01
         -1   -1    0    0    0  501 -0.00000000000E+00  0.00000000000E+00  0.16013734495E+04  0.16013734495E+04  0.00000000000E+00 0. -1.
          1   -1    0    0  501    0  0.00000000000E+00 -0.00000000000E+00 -0.54347308977E+03  0.54347308977E+03  0.00000000000E+00 0.  1.
         23    2    1    2    0    0  0.70527828730E+03  0.23027801806E+03  0.38222887485E+02  0.74831719477E+03  0.89845460287E+02 0.  0.
    5000000    2    1    2    0    0 -0.70527828730E+03 -0.23027801806E+03  0.10196774722E+04  0.13965293445E+04  0.60008885550E+03 0.  0.
         23    2    4    4    0    0 -0.29471052691E+02 -0.16469162383E+03  0.50410808217E+03  0.53907647844E+03  0.92122837494E+02 0.  0.
         23    2    4    4    0    0 -0.67580723460E+03 -0.65586394229E+02  0.51556939004E+03  0.85745286603E+03  0.91633116652E+02 0.  0.
          1    1    3    3  502    0  0.15417297697E+03  0.15773288829E+02  0.23543403163E+02  0.15675584614E+03  0.00000000000E+00 0. -1.
         -1    1    3    3    0  502  0.55110531033E+03  0.21450472923E+03  0.14679484322E+02  0.59156134863E+03  0.00000000000E+00 0.  1.
         13    1    5    5    0    0  0.47788480811E+01 -0.15220085094E+03  0.37021011595E+03  0.40030421728E+03  0.00000000000E+00 0. -1.
        -13    1    5    5    0    0 -0.34249900772E+02 -0.12490772889E+02  0.13389796622E+03  0.13877226116E+03  0.00000000000E+00 0.  1.
          1    1    6    6  503    0 -0.44217693459E+03 -0.63876106190E+02  0.38523823114E+03  0.58992295527E+03  0.00000000000E+00 0. -1.
         -1    1    6    6    0  503 -0.23363030002E+03 -0.17102880390E+01  0.13033115890E+03  0.26752991076E+03  0.00000000000E+00 0.  1.
<mgrwt>
<rscale>  0 0.80774633E+03</rscale>
<asrwt>0</asrwt>
<pdfrwt beam="1">  1        1 0.83611246E-01 0.80774633E+03</pdfrwt>
<pdfrwt beam="2">  1       -1 0.24636514E+00 0.80774633E+03</pdfrwt>
<totfact> 0.30030688E+00</totfact>
</mgrwt>
</event>
<event>
12    1  0.1432447E-007  0.1035545E+04  0.7818608E-02  0.9270396E-01
         -2   -1    0    0    0  501 -0.00000000000E+00  0.00000000000E+00  0.78573152888E+03  0.78573152888E+03  0.00000000000E+00 0.  1.
          2   -1    0    0  501    0  0.00000000000E+00 -0.00000000000E+00 -0.17517607989E+04  0.17517607989E+04  0.00000000000E+00 0. -1.
         23    2    1    2    0    0  0.55773672643E+03 -0.84653797405E+03 -0.89868332164E+03  0.13575511989E+04  0.87273979750E+02 0.  0.
    5000000    2    1    2    0    0 -0.55773672643E+03  0.84653797405E+03 -0.67345948399E+02  0.11799411289E+04  0.60002399399E+03 0.  0.
         23    2    4    4    0    0 -0.62968875185E+02  0.30985126331E+03  0.21405171533E+03  0.39258932806E+03  0.91298187605E+02 0.  0.
         23    2    4    4    0    0 -0.49476785125E+03  0.53668671074E+03 -0.28139766373E+03  0.78735180083E+03  0.88940210254E+02 0.  0.
          1    1    3    3  502    0  0.28767602093E+03 -0.46051241320E+03 -0.53634046628E+03  0.76321050274E+03  0.00000000000E+00 0. -1.
         -1    1    3    3    0  502  0.27006070550E+03 -0.38602556086E+03 -0.36234285536E+03  0.59434069617E+03  0.00000000000E+00 0.  1.
         11    1    5    5    0    0  0.56053349079E+01 -0.29333003052E+01  0.13090373655E+02  0.14538979075E+02  0.00000000000E+00 0.  1.
        -11    1    5    5    0    0 -0.68574210093E+02  0.31278456361E+03  0.20096134168E+03  0.37805034899E+03  0.00000000000E+00 0. -1.
          2    1    6    6  503    0 -0.61345906176E+02  0.53933455069E+02 -0.61781859810E+02  0.10241648296E+03  0.00000000000E+00 0. -1.
         -2    1    6    6    0  503 -0.43342194507E+03  0.48275325568E+03 -0.21961580392E+03  0.68493531787E+03  0.00000000000E+00 0.  1.
<mgrwt>
<rscale>  0 0.10355455E+04</rscale>
<asrwt>0</asrwt>
<pdfrwt beam="1">  1        2 0.26950166E+00 0.10355455E+04</pdfrwt>
<pdfrwt beam="2">  1       -2 0.12088177E+00 0.10355455E+04</pdfrwt>
<totfact> 0.47471278E+00</totfact>
</mgrwt>
</event>
<event>
12    1  0.1432447E-007  0.1040422E+04  0.7818608E-02  0.9265289E-01
         -2   -1    0    0    0  501 -0.00000000000E+00  0.00000000000E+00  0.68786971027E+03  0.68786971027E+03  0.00000000000E+00 0.  1.
          2   -1    0    0  501    0  0.00000000000E+00 -0.00000000000E+00 -0.24221675821E+04  0.24221675821E+04  0.00000000000E+00 0. -1.
         23    2    1    2    0    0 -0.97261168304E+03  0.15226711656E+02  0.64411943852E+02  0.97894096673E+03  0.89281460078E+02 0.  0.
    5000000    2    1    2    0    0  0.97261168304E+03 -0.15226711656E+02 -0.17987098157E+04  0.21310963257E+04  0.60000767447E+03 0.  0.
         23    2    4    4    0    0  0.31327400486E+03 -0.25113781851E+03 -0.45382486858E+03  0.61214068489E+03  0.86881532824E+02 0.  0.
         23    2    4    4    0    0  0.65933767818E+03  0.23591110685E+03 -0.13448849471E+04  0.15189556408E+04  0.90169248900E+02 0.  0.
          3    1    3    3  502    0 -0.29246836045E+03  0.45508572020E+02  0.17050284526E+02  0.29647847172E+03  0.00000000000E+00 0. -1.
         -3    1    3    3    0  502 -0.68014332258E+03 -0.30281860364E+02  0.47361659326E+02  0.68246249501E+03  0.00000000000E+00 0.  1.
         11    1    5    5    0    0  0.70201443189E+02 -0.78844374654E+02 -0.71807091936E+02  0.12767512088E+03  0.00000000000E+00 0.  1.
        -11    1    5    5    0    0  0.24307256167E+03 -0.17229344385E+03 -0.38201777665E+03  0.48446556401E+03  0.00000000000E+00 0. -1.
          3    1    6    6  503    0  0.20559503024E+03  0.82936268771E+02 -0.51776390133E+03  0.56322925941E+03  0.00000000000E+00 0. -1.
         -3    1    6    6    0  503  0.45374264793E+03  0.15297483808E+03 -0.82712104579E+03  0.95572638136E+03  0.00000000000E+00 0.  1.
<mgrwt>
<rscale>  0 0.10404218E+04</rscale>
<asrwt>0</asrwt>
<pdfrwt beam="1">  1        2 0.37264117E+00 0.10404218E+04</pdfrwt>
<pdfrwt beam="2">  1       -2 0.10582611E+00 0.10404218E+04</pdfrwt>
<totfact> 0.27881239E+00</totfact>
</mgrwt>
</event>
<event>
12    1  0.1804382E-007  0.7684366E+03  0.7818608E-02  0.9606862E-01
         -1   -1    0    0    0  501 -0.00000000000E+00  0.00000000000E+00  0.44531294912E+03  0.44531294912E+03  0.00000000000E+00 0.  1.
          1   -1    0    0  501    0  0.00000000000E+00 -0.00000000000E+00 -0.15154861212E+04  0.15154861212E+04  0.00000000000E+00 0. -1.
         23    2    1    2    0    0  0.15471693608E+03 -0.66036375890E+03 -0.71015792733E+03  0.98626699313E+03  0.91546030013E+02 0.  0.
    5000000    2    1    2    0    0 -0.15471693608E+03  0.66036375890E+03 -0.36001524480E+03  0.97453207723E+03  0.60007013647E+03 0.  0.
         23    2    4    4    0    0  0.13399684254E+03  0.50076874234E+03 -0.34957840717E+03  0.63187960553E+03  0.91336115542E+02 0.  0.
         23    2    4    4    0    0 -0.28871377862E+03  0.15959501656E+03 -0.10436837629E+02  0.34265247170E+03  0.92062878011E+02 0.  0.
          1    1    3    3  502    0  0.11299174146E+03 -0.31193896519E+03 -0.37999124290E+03  0.50444662386E+03  0.00000000000E+00 0. -1.
         -1    1    3    3    0  502  0.41725194621E+02 -0.34842479370E+03 -0.33016668442E+03  0.48182036926E+03  0.00000000000E+00 0.  1.
         13    1    5    5    0    0  0.11184853930E+03  0.29700312730E+03 -0.24999382411E+03  0.40400230873E+03  0.00000000000E+00 0. -1.
        -13    1    5    5    0    0  0.22148303245E+02  0.20376561504E+03 -0.99584583060E+02  0.22787729679E+03  0.00000000000E+00 0.  1.
          4    1    6    6  503    0 -0.13145588594E+03  0.52283184809E+02  0.37438967296E+02  0.14634157862E+03  0.00000000000E+00 0. -1.
         -4    1    6    6    0  503 -0.15725789269E+03  0.10731183175E+03 -0.47875804925E+02  0.19631089308E+03  0.00000000000E+00 0.  1.
<mgrwt>
<rscale>  0 0.76843664E+03</rscale>
<asrwt>0</asrwt>
<pdfrwt beam="1">  1        1 0.23315170E+00 0.76843664E+03</pdfrwt>
<pdfrwt beam="2">  1       -1 0.68509687E-01 0.76843664E+03</pdfrwt>
<totfact> 0.14231423E+01</totfact>
</mgrwt>
</event>
<event>
12    1  0.1432447E-007  0.2164307E+04  0.7818608E-02  0.8533433E-01
          1   -1    0    0  501    0  0.00000000000E+00  0.00000000000E+00  0.27506690415E+04  0.27506690415E+04  0.00000000000E+00 0. -1.
         -1   -1    0    0    0  501 -0.00000000000E+00 -0.00000000000E+00 -0.17602819500E+04  0.17602819500E+04  0.00000000000E+00 0.  1.
         23    2    1    2    0    0  0.21471347348E+04  0.10018599914E+03  0.28354568161E+03  0.21700473603E+04  0.92100968032E+02 0.  0.
    5000000    2    1    2    0    0 -0.21471347348E+04 -0.10018599914E+03  0.70684140989E+03  0.23409036313E+04  0.59998352327E+03 0.  0.
         23    2    4    4    0    0 -0.16486856347E+04  0.42137912158E+02  0.74732731918E+03  0.18129938612E+04  0.92242576776E+02 0.  0.
         23    2    4    4    0    0 -0.49844910014E+03 -0.14232391130E+03 -0.40485909289E+02  0.52790977009E+03  0.91334633931E+02 0.  0.
          2    1    3    3  502    0  0.24851277343E+03 -0.12934991773E+02  0.49334353625E+02  0.25369231564E+03  0.00000000000E+00 0. -1.
         -2    1    3    3    0  502  0.18986219614E+04  0.11312099091E+03  0.23421132798E+03  0.19163550446E+04  0.00000000000E+00 0.  1.
         11    1    5    5    0    0 -0.14052952908E+03  0.28912664499E+02  0.70973868318E+02  0.16006805020E+03  0.00000000000E+00 0. -1.
        -11    1    5    5    0    0 -0.15081561056E+04  0.13225247659E+02  0.67635345086E+03  0.16529258110E+04  0.00000000000E+00 0.  1.
          4    1    6    6  503    0 -0.22128920063E+03 -0.17088699581E+02 -0.87889635658E+01  0.22212199317E+03  0.00000000000E+00 0. -1.
         -4    1    6    6    0  503 -0.27715989951E+03 -0.12523521172E+03 -0.31696945723E+02  0.30578777693E+03  0.00000000000E+00 0.  1.
<mgrwt>
<rscale>  0 0.21643068E+04</rscale>
<asrwt>0</asrwt>
<pdfrwt beam="1">  1        1 0.42317985E+00 0.21643068E+04</pdfrwt>
<pdfrwt beam="2">  1       -1 0.27081261E+00 0.21643068E+04</pdfrwt>
<totfact> 0.40311864E-02</totfact>
</mgrwt>
</event>
<event>
12    1  0.1432447E-007  0.5464426E+03  0.7818608E-02  0.1002321E+00
         -2   -1    0    0    0  501 -0.00000000000E+00  0.00000000000E+00  0.52470414232E+03  0.52470414232E+03  0.00000000000E+00 0.  1.
          2   -1    0    0  501    0  0.00000000000E+00 -0.00000000000E+00 -0.63795075306E+03  0.63795075306E+03  0.00000000000E+00 0. -1.
         23    2    1    2    0    0  0.25191198127E+02 -0.38376825160E+03 -0.20548516679E+03  0.44399712186E+03  0.83645819115E+02 0.  0.
    5000000    2    1    2    0    0 -0.25191198127E+02  0.38376825160E+03  0.92238556053E+02  0.71865777352E+03  0.60004031266E+03 0.  0.
         23    2    4    4    0    0  0.23541993999E+02 -0.14608146587E+03  0.23080975050E+02  0.17481338426E+03  0.90182968202E+02 0.  0.
         23    2    4    4    0    0 -0.48733192126E+02  0.52984971747E+03  0.69157581003E+02  0.54384438926E+03  0.88703447519E+02 0.  0.
          1    1    3    3  502    0  0.16156668730E+02 -0.44661964761E+02 -0.20666455119E+00  0.47494965534E+02  0.00000000000E+00 0. -1.
         -1    1    3    3    0  502  0.90345293962E+01 -0.33910628683E+03 -0.20527850224E+03  0.39650215633E+03  0.00000000000E+00 0.  1.
         11    1    5    5    0    0 -0.53845546115E+01 -0.14401592681E+03  0.16338935322E+02  0.14503979251E+03  0.00000000000E+00 0. -1.
        -11    1    5    5    0    0  0.28926548611E+02 -0.20655390651E+01  0.67420397283E+01  0.29773591753E+02  0.00000000000E+00 0.  1.
          1    1    6    6  503    0 -0.70548244315E+00  0.17059084001E+03 -0.16551989721E+02  0.17139340934E+03  0.00000000000E+00 0. -1.
         -1    1    6    6    0  503 -0.48027709683E+02  0.35925887746E+03  0.85709570724E+02  0.37245097992E+03  0.00000000000E+00 0.  1.
<mgrwt>
<rscale>  0 0.54644257E+03</rscale>
<asrwt>0</asrwt>
<pdfrwt beam="1">  1        2 0.98146270E-01 0.54644257E+03</pdfrwt>
<pdfrwt beam="2">  1       -2 0.80723714E-01 0.54644257E+03</pdfrwt>
<totfact> 0.64114976E+01</totfact>
</mgrwt>
</event>
<event>
12    1  0.1432447E-007  0.7204111E+03  0.7818608E-02  0.9682949E-01
         -2   -1    0    0    0  501 -0.00000000000E+00  0.00000000000E+00  0.41169419219E+03  0.41169419219E+03  0.00000000000E+00 0.  1.
          2   -1    0    0  501    0  0.00000000000E+00 -0.00000000000E+00 -0.20879470446E+04  0.20879470446E+04  0.00000000000E+00 0. -1.
         23    2    1    2    0    0 -0.46623948330E+03 -0.42155043391E+03 -0.27097734179E+02  0.63550479004E+03  0.89710795576E+02 0.  0.
    5000000    2    1    2    0    0  0.46623948330E+03  0.42155043391E+03 -0.16491551183E+04  0.18641364468E+04  0.60017336166E+03 0.  0.
         23    2    4    4    0    0  0.25579740634E+03 -0.57184672438E+02 -0.28474514304E+03  0.39934595002E+03  0.98463147721E+02 0.  0.
         23    2    4    4    0    0  0.21044207696E+03  0.47873510635E+03 -0.13644099752E+04  0.14647904968E+04  0.10258386396E+03 0.  0.
          1    1    3    3  502    0 -0.69300462831E+02 -0.10521199348E+03 -0.22091813916E+02  0.12790686440E+03  0.00000000000E+00 0. -1.
         -1    1    3    3    0  502 -0.39693902047E+03 -0.31633844044E+03 -0.50059202632E+01  0.50759792563E+03  0.00000000000E+00 0.  1.
         13    1    5    5    0    0  0.83446498334E+02  0.25302962971E+02 -0.11042139806E+03  0.14069983358E+03  0.00000000000E+00 0. -1.
        -13    1    5    5    0    0  0.17235090800E+03 -0.82487635409E+02 -0.17432374498E+03  0.25864611644E+03  0.00000000000E+00 0.  1.
          2    1    6    6  503    0  0.17574863107E+03  0.30662938468E+03 -0.82461895779E+03  0.89716530608E+03  0.00000000000E+00 0. -1.
         -2    1    6    6    0  503  0.34693445899E+02  0.17210572167E+03 -0.53979101744E+03  0.56762519071E+03  0.00000000000E+00 0.  1.
<mgrwt>
<rscale>  0 0.72041111E+03</rscale>
<asrwt>0</asrwt>
<pdfrwt beam="1">  1        2 0.32122262E+00 0.72041111E+03</pdfrwt>
<pdfrwt beam="2">  1       -2 0.63337569E-01 0.72041111E+03</pdfrwt>
<totfact> 0.14345310E+01</totfact>
</mgrwt>
</event>
<event>
12    1  0.1432447E-007  0.1022003E+04  0.7818608E-02  0.9284736E-01
         -1   -1    0    0    0  501 -0.00000000000E+00  0.00000000000E+00  0.14585339022E+04  0.14585339022E+04  0.00000000000E+00 0.  1.
          1   -1    0    0  501    0  0.00000000000E+00 -0.00000000000E+00 -0.16938503108E+04  0.16938503108E+04  0.00000000000E+00 0. -1.
         23    2    1    2    0    0  0.96300952125E+03  0.25699801139E+03 -0.12550686052E+04  0.16052898578E+04  0.91230519939E+02 0.  0.
    5000000    2    1    2    0    0 -0.96300952125E+03 -0.25699801139E+03  0.10197521967E+04  0.15470943552E+04  0.60014255426E+03 0.  0.
         23    2    4    4    0    0 -0.70129265720E+03 -0.50418484687E+02  0.96784990258E+03  0.11998633653E+04  0.92656607359E+02 0.  0.
         23    2    4    4    0    0 -0.26171686405E+03 -0.20657952670E+03  0.51902294084E+02  0.34723098988E+03  0.81882198450E+02 0.  0.
          2    1    3    3  502    0  0.55903312617E+03  0.15393267833E+03 -0.80107345061E+03  0.98890443365E+03  0.00000000000E+00 0. -1.
         -2    1    3    3    0  502  0.40397639508E+03  0.10306533305E+03 -0.45399515460E+03  0.61638542411E+03  0.00000000000E+00 0.  1.
         13    1    5    5    0    0 -0.40139707023E+03 -0.74116914706E+02  0.57009692428E+03  0.70115863263E+03  0.00000000000E+00 0.  1.
        -13    1    5    5    0    0 -0.29989558697E+03  0.23698430020E+02  0.39775297830E+03  0.49870473270E+03  0.00000000000E+00 0. -1.
          1    1    6    6  503    0 -0.15448795986E+03 -0.85757141145E+02 -0.26850227192E+01  0.17671453349E+03  0.00000000000E+00 0. -1.
         -1    1    6    6    0  503 -0.10722890419E+03 -0.12082238555E+03  0.54587316803E+02  0.17051645639E+03  0.00000000000E+00 0.  1.
<mgrwt>
<rscale>  0 0.10220027E+04</rscale>
<asrwt>0</asrwt>
<pdfrwt beam="1">  1        1 0.26059235E+00 0.10220027E+04</pdfrwt>
<pdfrwt beam="2">  1       -1 0.22438983E+00 0.10220027E+04</pdfrwt>
<totfact> 0.49848181E-01</totfact>
</mgrwt>
</event>
<event>
12    1  0.1432447E-007  0.1362511E+04  0.7818608E-02  0.8981411E-01
         -1   -1    0    0    0  501 -0.00000000000E+00  0.00000000000E+00  0.84810623398E+03  0.84810623398E+03  0.00000000000E+00 0.  1.
          1   -1    0    0  501    0  0.00000000000E+00 -0.00000000000E+00 -0.26885324082E+04  0.26885324082E+04  0.00000000000E+00 0. -1.
         23    2    1    2    0    0 -0.73165697713E+03  0.11063215566E+04 -0.15677924239E+04  0.20555294402E+04  0.89212533835E+02 0.  0.
    5000000    2    1    2    0    0  0.73165697713E+03 -0.11063215566E+04 -0.27263375026E+03  0.14811092020E+04  0.60007165214E+03 0.  0.
         23    2    4    4    0    0  0.39488450124E+02  0.37430046834E+02  0.31392755441E+02  0.10720245576E+03  0.86870681641E+02 0.  0.
         23    2    4    4    0    0  0.69216852700E+03 -0.11437516034E+04 -0.30402650570E+03  0.13739067462E+04  0.89009162849E+02 0.  0.
          2    1    3    3  502    0 -0.23969962911E+03  0.32925233669E+03 -0.42527551967E+03  0.58883128402E+03  0.00000000000E+00 0. -1.
         -2    1    3    3    0  502 -0.49195734802E+03  0.77706921987E+03 -0.11425169043E+04  0.14666981562E+04  0.00000000000E+00 0.  1.
         13    1    5    5    0    0  0.29377507619E+02  0.40147964865E+02 -0.20835379479E+02  0.53935239637E+02  0.00000000000E+00 0.  1.
        -13    1    5    5    0    0  0.10110942505E+02 -0.27179180315E+01  0.52228134920E+02  0.53267216127E+02  0.00000000000E+00 0. -1.
          1    1    6    6  503    0  0.33459979828E+03 -0.60151135889E+03 -0.11879373492E+03  0.69848757422E+03  0.00000000000E+00 0. -1.
         -1    1    6    6    0  503  0.35756872872E+03 -0.54224024451E+03 -0.18523277078E+03  0.67541917200E+03  0.00000000000E+00 0.  1.
<mgrwt>
<rscale>  0 0.13625106E+04</rscale>
<asrwt>0</asrwt>
<pdfrwt beam="1">  1        1 0.41362037E+00 0.13625106E+04</pdfrwt>
<pdfrwt beam="2">  1       -1 0.13047788E+00 0.13625106E+04</pdfrwt>
<totfact> 0.48663434E-01</totfact>
</mgrwt>
</event>
<event>
12    1  0.1432447E-007  0.1401726E+04  0.7818608E-02  0.8952570E-01
         -3   -1    0    0    0  501 -0.00000000000E+00  0.00000000000E+00  0.27842693952E+04  0.27842693952E+04  0.00000000000E+00 0.  1.
          3   -1    0    0  501    0  0.00000000000E+00 -0.00000000000E+00 -0.80116516693E+03  0.80116516693E+03  0.00000000000E+00 0. -1.
         23    2    1    2    0    0 -0.71677550555E+03  0.11794224753E+04  0.49524560311E+03  0.14691438003E+04  0.91163577274E+02 0.  0.
    5000000    2    1    2    0    0  0.71677550555E+03 -0.11794224753E+04  0.14878586252E+04  0.21162907619E+04  0.60013231855E+03 0.  0.
         23    2    4    4    0    0  0.25515483941E+03 -0.71483615688E+03  0.11284767240E+04  0.13636102214E+04  0.99390119684E+02 0.  0.
         23    2    4    4    0    0  0.46162066614E+03 -0.46458631842E+03  0.35938190117E+03  0.75268054054E+03  0.91861627202E+02 0.  0.
          3    1    3    3  502    0 -0.52137252884E+03  0.77653458900E+03  0.34100527770E+03  0.99555003950E+03  0.00000000000E+00 0. -1.
         -3    1    3    3    0  502 -0.19540297671E+03  0.40288788630E+03  0.15424032540E+03  0.47359376075E+03  0.00000000000E+00 0.  1.
         11    1    5    5    0    0  0.17447813522E+03 -0.34181331204E+03  0.55645422786E+03  0.67595877660E+03  0.00000000000E+00 0.  1.
        -11    1    5    5    0    0  0.80676704189E+02 -0.37302284484E+03  0.57202249617E+03  0.68765144477E+03  0.00000000000E+00 0. -1.
          1    1    6    6  503    0  0.19829840475E+03 -0.19783119571E+03  0.10248680573E+03  0.29826663352E+03  0.00000000000E+00 0. -1.
         -1    1    6    6    0  503  0.26332226139E+03 -0.26675512271E+03  0.25689509544E+03  0.45441390702E+03  0.00000000000E+00 0.  1.
<mgrwt>
<rscale>  0 0.14017259E+04</rscale>
<asrwt>0</asrwt>
<pdfrwt beam="1">  1        3 0.12325618E+00 0.14017259E+04</pdfrwt>
<pdfrwt beam="2">  1       -3 0.42834913E+00 0.14017259E+04</pdfrwt>
<totfact> 0.96499303E-03</totfact>
</mgrwt>
</event>
<event>
12    1  0.1432447E-007  0.7263438E+03  0.7818608E-02  0.9673212E-01
         -2   -1    0    0    0  501 -0.00000000000E+00  0.00000000000E+00  0.61176066133E+03  0.61176066133E+03  0.00000000000E+00 0.  1.
          2   -1    0    0  501    0  0.00000000000E+00 -0.00000000000E+00 -0.15018454713E+04  0.15018454713E+04  0.00000000000E+00 0. -1.
         23    2    1    2    0    0  0.62260830620E+03 -0.47341764929E+02 -0.10579985434E+04  0.12314099690E+04  0.84423031654E+02 0.  0.
    5000000    2    1    2    0    0 -0.62260830620E+03  0.47341764929E+02  0.16791373346E+03  0.88219616360E+03  0.60016056478E+03 0.  0.
         23    2    4    4    0    0 -0.15142246584E+03 -0.21538132569E+03  0.18674994500E+03  0.33486221991E+03  0.89102669701E+02 0.  0.
         23    2    4    4    0    0 -0.47118584037E+03  0.26272309062E+03 -0.18836211540E+02  0.54733394369E+03  0.90444040914E+02 0.  0.
          1    1    3    3  502    0  0.32715628450E+03 -0.65063745079E+02 -0.53507042714E+03  0.63052746762E+03  0.00000000000E+00 0. -1.
         -1    1    3    3    0  502  0.29545202170E+03  0.17721980150E+02 -0.52292811629E+03  0.60088250142E+03  0.00000000000E+00 0.  1.
         11    1    5    5    0    0 -0.26865150107E+02 -0.11417674594E+03  0.73133242894E+02  0.13822639697E+03  0.00000000000E+00 0. -1.
        -11    1    5    5    0    0 -0.12455731573E+03 -0.10120457975E+03  0.11361670211E+03  0.19663582294E+03  0.00000000000E+00 0.  1.
          2    1    6    6  503    0 -0.14981666728E+03  0.42350774099E+02 -0.24617502399E+02  0.15762183633E+03  0.00000000000E+00 0.  1.
         -2    1    6    6    0  503 -0.32136917309E+03  0.22037231652E+03  0.57812908595E+01  0.38971210736E+03  0.00000000000E+00 0. -1.
<mgrwt>
<rscale>  0 0.72634377E+03</rscale>
<asrwt>0</asrwt>
<pdfrwt beam="1">  1        2 0.23105315E+00 0.72634377E+03</pdfrwt>
<pdfrwt beam="2">  1       -2 0.94117026E-01 0.72634377E+03</pdfrwt>
<totfact> 0.12397306E+01</totfact>
</mgrwt>
</event>
<event>
12    1  0.2054062E-007  0.1275866E+04  0.7818608E-02  0.9048925E-01
          1   -1    0    0  501    0  0.00000000000E+00  0.00000000000E+00  0.17429902342E+04  0.17429902342E+04  0.00000000000E+00 0. -1.
         -1   -1    0    0    0  501 -0.00000000000E+00 -0.00000000000E+00 -0.10697758603E+04  0.10697758603E+04  0.00000000000E+00 0.  1.
         23    2    1    2    0    0  0.63900004525E+03  0.10611715657E+04  0.72018637123E+03  0.14360183802E+04  0.95258749025E+02 0.  0.
    5000000    2    1    2    0    0 -0.63900004525E+03 -0.10611715657E+04 -0.46971997332E+02  0.13767477143E+04  0.59901732070E+03 0.  0.
         23    2    4    4    0    0 -0.15113106005E+03 -0.27328065895E+02 -0.13689025162E+03  0.22657542707E+03  0.94921349889E+02 0.  0.
         23    2    4    4    0    0 -0.48786898520E+03 -0.10338434998E+04  0.89918254291E+02  0.11501722872E+04  0.89232667500E+02 0.  0.
          4    1    3    3  502    0  0.30553931651E+03  0.49450777665E+03  0.28365775332E+03  0.64680285723E+03  0.00000000000E+00 0. -1.
         -4    1    3    3    0  502  0.33346072874E+03  0.56666378906E+03  0.43652861791E+03  0.78921552297E+03  0.00000000000E+00 0.  1.
         11    1    5    5    0    0 -0.71284092145E+02  0.22508151196E+02 -0.21737271291E+02  0.77849519115E+02  0.00000000000E+00 0. -1.
        -11    1    5    5    0    0 -0.79846967902E+02 -0.49836217091E+02 -0.11515298033E+03  0.14872590795E+03  0.00000000000E+00 0.  1.
          4    1    6    6  503    0 -0.25364040712E+03 -0.59018212400E+03  0.12202175681E+02  0.64249302619E+03  0.00000000000E+00 0.  1.
         -4    1    6    6    0  503 -0.23422857808E+03 -0.44366137581E+03  0.77716078611E+02  0.50767926100E+03  0.00000000000E+00 0. -1.
<mgrwt>
<rscale>  0 0.12758662E+04</rscale>
<asrwt>0</asrwt>
<pdfrwt beam="1">  1        1 0.26815234E+00 0.12758662E+04</pdfrwt>
<pdfrwt beam="2">  1       -1 0.16458090E+00 0.12758662E+04</pdfrwt>
<totfact> 0.11688992E+00</totfact>
</mgrwt>
</event>
<event>
12    1  0.1522388E-007  0.1486648E+04  0.7818608E-02  0.8893381E-01
         -2   -1    0    0    0  501 -0.00000000000E+00  0.00000000000E+00  0.70172284501E+03  0.70172284501E+03  0.00000000000E+00 0.  1.
          2   -1    0    0  501    0  0.00000000000E+00 -0.00000000000E+00 -0.34249571850E+04  0.34249571850E+04  0.00000000000E+00 0. -1.
         23    2    1    2    0    0  0.11253607062E+04  0.89075905491E+03 -0.18480906983E+04  0.23418741830E+04  0.95115966834E+02 0.  0.
    5000000    2    1    2    0    0 -0.11253607062E+04 -0.89075905491E+03 -0.87514364175E+03  0.17848058470E+04  0.59980588936E+03 0.  0.
         23    2    4    4    0    0 -0.55788348565E+03 -0.11579641386E+03 -0.44203138688E+03  0.72691947323E+03  0.91528031523E+02 0.  0.
         23    2    4    4    0    0 -0.56747722053E+03 -0.77496264105E+03 -0.43311225487E+03  0.10578863738E+04  0.94550852266E+02 0.  0.
          3    1    3    3  502    0  0.52756708806E+03  0.47784164064E+03 -0.92339526489E+03  0.11658981436E+04  0.00000000000E+00 0. -1.
         -3    1    3    3    0  502  0.59779361813E+03  0.41291741427E+03 -0.92469543338E+03  0.11759760395E+04  0.00000000000E+00 0.  1.
         13    1    5    5    0    0 -0.36408441636E+03 -0.72574303331E+02 -0.34120035663E+03  0.50422433014E+03  0.00000000000E+00 0.  1.
        -13    1    5    5    0    0 -0.19379906929E+03 -0.43222110530E+02 -0.10083103025E+03  0.22269514310E+03  0.00000000000E+00 0. -1.
          3    1    6    6  503    0 -0.47693147458E+03 -0.58551619543E+03 -0.33671831092E+03  0.82684464530E+03  0.00000000000E+00 0.  1.
         -3    1    6    6    0  503 -0.90545745954E+02 -0.18944644562E+03 -0.96393943950E+02  0.23104172848E+03  0.00000000000E+00 0. -1.
<mgrwt>
<rscale>  0 0.14866481E+04</rscale>
<asrwt>0</asrwt>
<pdfrwt beam="1">  1        2 0.52691647E+00 0.14866481E+04</pdfrwt>
<pdfrwt beam="2">  1       -2 0.10795736E+00 0.14866481E+04</pdfrwt>
<totfact> 0.60549940E-01</totfact>
</mgrwt>
</event>
<event>
12    1  0.1432447E-007  0.1081829E+04  0.7818608E-02  0.9223086E-01
          1   -1    0    0  501    0  0.00000000000E+00  0.00000000000E+00  0.26936456088E+04  0.26936456088E+04  0.00000000000E+00 0. -1.
         -1   -1    0    0    0  501 -0.00000000000E+00 -0.00000000000E+00 -0.91193716314E+03  0.91193716314E+03  0.00000000000E+00 0.  1.
         23    2    1    2    0    0  0.96098658247E+03  0.43322584107E+03  0.21000828643E+04  0.23515253310E+04  0.90241368155E+02 0.  0.
    5000000    2    1    2    0    0 -0.96098658247E+03 -0.43322584107E+03 -0.31837441860E+03  0.12540574409E+04  0.60009828670E+03 0.  0.
         23    2    4    4    0    0 -0.87928553466E+03 -0.31601308626E+03 -0.44746477060E+03  0.10403229741E+04  0.95078112261E+02 0.  0.
         23    2    4    4    0    0 -0.81701047814E+02 -0.11721275481E+03  0.12909035200E+03  0.21373446681E+03  0.92758892923E+02 0.  0.
          1    1    3    3  502    0  0.76652782742E+03  0.38418134309E+03  0.16966260093E+04  0.19009734427E+04  0.00000000000E+00 0. -1.
         -1    1    3    3    0  502  0.19445875505E+03  0.49044497981E+02  0.40345685498E+03  0.45055188828E+03  0.00000000000E+00 0.  1.
         13    1    5    5    0    0 -0.12588510273E+03 -0.72257437308E+02 -0.95674668907E+02  0.17384429414E+03  0.00000000000E+00 0. -1.
        -13    1    5    5    0    0 -0.75340043193E+03 -0.24375564895E+03 -0.35179010170E+03  0.86647867999E+03  0.00000000000E+00 0.  1.
          2    1    6    6  503    0 -0.73212746630E+02 -0.13240101532E+03  0.10560550339E+03  0.18450652420E+03  0.00000000000E+00 0. -1.
         -2    1    6    6    0  503 -0.84883011834E+01  0.15188260511E+02  0.23484848617E+02  0.29227942605E+02  0.00000000000E+00 0.  1.
<mgrwt>
<rscale>  0 0.10818288E+04</rscale>
<asrwt>0</asrwt>
<pdfrwt beam="1">  1        1 0.41440701E+00 0.10818288E+04</pdfrwt>
<pdfrwt beam="2">  1       -1 0.14029803E+00 0.10818288E+04</pdfrwt>
<totfact> 0.41647014E-01</totfact>
</mgrwt>
</event>
<event>
12    1  0.1432447E-007  0.4210763E+03  0.7818608E-02  0.1036717E+00
          1   -1    0    0  501    0  0.00000000000E+00  0.00000000000E+00  0.13053032518E+04  0.13053032518E+04  0.00000000000E+00 0. -1.
         -1   -1    0    0    0  501 -0.00000000000E+00 -0.00000000000E+00 -0.25794472548E+03  0.25794472548E+03  0.00000000000E+00 0.  1.
         23    2    1    2    0    0 -0.30068430024E+03  0.14525354285E+03  0.72615551052E+03  0.80516410047E+03  0.97353803767E+02 0.  0.
    5000000    2    1    2    0    0  0.30068430024E+03 -0.14525354285E+03  0.32120301583E+03  0.75808387684E+03  0.60000845563E+03 0.  0.
         23    2    4    4    0    0  0.20938063741E+03 -0.26471814882E+03 -0.44608750692E+02  0.35234595850E+03  0.90784272864E+02 0.  0.
         23    2    4    4    0    0  0.91303662833E+02  0.11946460598E+03  0.36581176652E+03  0.40573791834E+03  0.90536506039E+02 0.  0.
          3    1    3    3  502    0 -0.18912194273E+03  0.41509100050E+02  0.44725775146E+03  0.48737009639E+03  0.00000000000E+00 0. -1.
         -3    1    3    3    0  502 -0.11156235751E+03  0.10374444280E+03  0.27889775906E+03  0.31779400408E+03  0.00000000000E+00 0.  1.
         13    1    5    5    0    0  0.10712119237E+03 -0.18546551702E+03  0.37957374737E+01  0.21421208061E+03  0.00000000000E+00 0.  1.
        -13    1    5    5    0    0  0.10225944503E+03 -0.79252631806E+02 -0.48404488166E+02  0.13813387789E+03  0.00000000000E+00 0. -1.
          2    1    6    6  503    0  0.92448729424E+02  0.11990199391E+03  0.26716618402E+03  0.30708472056E+03  0.00000000000E+00 0. -1.
         -2    1    6    6    0  503 -0.11450665905E+01 -0.43738793703E+00  0.98645582498E+02  0.98653197779E+02  0.00000000000E+00 0.  1.
<mgrwt>
<rscale>  0 0.42107634E+03</rscale>
<asrwt>0</asrwt>
<pdfrwt beam="1">  1        1 0.20081588E+00 0.42107634E+03</pdfrwt>
<pdfrwt beam="2">  1       -1 0.39683805E-01 0.42107634E+03</pdfrwt>
<totfact> 0.59396586E+01</totfact>
</mgrwt>
</event>
<event>
12    1  0.1432447E-007  0.5043485E+03  0.7818608E-02  0.1012650E+00
          4   -1    0    0  501    0  0.00000000000E+00  0.00000000000E+00  0.33663963714E+03  0.33663963714E+03  0.00000000000E+00 0. -1.
         -4   -1    0    0    0  501 -0.00000000000E+00 -0.00000000000E+00 -0.88199635189E+03  0.88199635189E+03  0.00000000000E+00 0.  1.
         23    2    1    2    0    0  0.23106922917E+03  0.25654773824E+03 -0.34809906418E+03  0.49883801205E+03  0.91960171397E+02 0.  0.
    5000000    2    1    2    0    0 -0.23106922917E+03 -0.25654773824E+03 -0.19725765057E+03  0.71979797697E+03  0.59999068016E+03 0.  0.
         23    2    4    4    0    0 -0.35945136797E+03 -0.34794092545E+03 -0.16385337529E+03  0.53430141996E+03  0.91443453758E+02 0.  0.
         23    2    4    4    0    0  0.12838213880E+03  0.91393187216E+02 -0.33404275281E+02  0.18549655701E+03  0.91969771257E+02 0.  0.
          2    1    3    3  502    0  0.12005700941E+03  0.11343966140E+03 -0.22790931167E+03  0.28146917528E+03  0.00000000000E+00 0.  1.
         -2    1    3    3    0  502  0.11101221976E+03  0.14310807683E+03 -0.12018975251E+03  0.21736883677E+03  0.00000000000E+00 0. -1.
         11    1    5    5    0    0 -0.16965516323E+03 -0.17172713161E+03 -0.31466740611E+02  0.24344041963E+03  0.00000000000E+00 0.  1.
        -11    1    5    5    0    0 -0.18979620474E+03 -0.17621379384E+03 -0.13238663468E+03  0.29086100033E+03  0.00000000000E+00 0. -1.
          2    1    6    6  503    0  0.30230079020E+02  0.43065945457E+02 -0.52624139499E+02  0.74416620413E+02  0.00000000000E+00 0. -1.
         -2    1    6    6    0  503  0.98152059779E+02  0.48327241759E+02  0.19219864218E+02  0.11107993660E+03  0.00000000000E+00 0.  1.
<mgrwt>
<rscale>  0 0.50434848E+03</rscale>
<asrwt>0</asrwt>
<pdfrwt beam="1">  1        4 0.51790714E-01 0.50434848E+03</pdfrwt>
<pdfrwt beam="2">  1       -4 0.13569175E+00 0.50434848E+03</pdfrwt>
<totfact> 0.27174300E+00</totfact>
</mgrwt>
</event>
<event>
12    1  0.1432447E-007  0.4681020E+03  0.7818608E-02  0.1022457E+00
         -2   -1    0    0    0  501 -0.00000000000E+00  0.00000000000E+00  0.28426110294E+03  0.28426110294E+03  0.00000000000E+00 0.  1.
          2   -1    0    0  501    0  0.00000000000E+00 -0.00000000000E+00 -0.89199648318E+03  0.89199648318E+03  0.00000000000E+00 0. -1.
         23    2    1    2    0    0  0.17204521255E+03 -0.25738364753E+03 -0.12713175511E+03  0.34749627048E+03  0.93516189330E+02 0.  0.
    5000000    2    1    2    0    0 -0.17204521255E+03  0.25738364753E+03 -0.48060362513E+03  0.82876131564E+03  0.60001631364E+03 0.  0.
         23    2    4    4    0    0  0.14519895548E+03 -0.77133615036E+02 -0.22753989126E+03  0.29510532618E+03  0.90996814114E+02 0.  0.
         23    2    4    4    0    0 -0.31724416804E+03  0.33451726256E+03 -0.25306373387E+03  0.53365598946E+03  0.90563792932E+02 0.  0.
          4    1    3    3  502    0  0.10127970125E+03 -0.16735186506E+03 -0.31149278992E+02  0.19807701080E+03  0.00000000000E+00 0. -1.
         -4    1    3    3    0  502  0.70765511305E+02 -0.90031782463E+02 -0.95982476114E+02  0.14941925968E+03  0.00000000000E+00 0.  1.
         11    1    5    5    0    0  0.11845464809E+03 -0.60650185956E+02 -0.10765092026E+03  0.17116854076E+03  0.00000000000E+00 0.  1.
        -11    1    5    5    0    0  0.26744307388E+02 -0.16483429080E+02 -0.11988897100E+03  0.12393678542E+03  0.00000000000E+00 0. -1.
          2    1    6    6  503    0 -0.22950503607E+03  0.25633539173E+03 -0.14284449406E+03  0.37253851360E+03  0.00000000000E+00 0. -1.
         -2    1    6    6    0  503 -0.87739131965E+02  0.78181870833E+02 -0.11021923981E+03  0.16111747586E+03  0.00000000000E+00 0.  1.
<mgrwt>
<rscale>  0 0.46810204E+03</rscale>
<asrwt>0</asrwt>
<pdfrwt beam="1">  1        2 0.13723023E+00 0.46810204E+03</pdfrwt>
<pdfrwt beam="2">  1       -2 0.43732477E-01 0.46810204E+03</pdfrwt>
<totfact> 0.15208983E+02</totfact>
</mgrwt>
</event>
<event>
12    1  0.1432447E-007  0.5195440E+03  0.7818608E-02  0.1008800E+00
          1   -1    0    0  501    0  0.00000000000E+00  0.00000000000E+00  0.96336860327E+03  0.96336860327E+03  0.00000000000E+00 0. -1.
         -1   -1    0    0    0  501 -0.00000000000E+00 -0.00000000000E+00 -0.43764869372E+03  0.43764869372E+03  0.00000000000E+00 0.  1.
         23    2    1    2    0    0 -0.17666355621E+03  0.30443456959E+03  0.59990404519E+03  0.70147145944E+03  0.91032553070E+02 0.  0.
    5000000    2    1    2    0    0  0.17666355621E+03 -0.30443456959E+03 -0.74184135645E+02  0.69954583756E+03  0.59997556084E+03 0.  0.
         23    2    4    4    0    0  0.38361151587E+03 -0.19587159268E+03 -0.89811633788E+01  0.44033188170E+03  0.91038611706E+02 0.  0.
         23    2    4    4    0    0 -0.20694795966E+03 -0.10856297691E+03 -0.65202972266E+02  0.25921395585E+03  0.91252777244E+02 0.  0.
          3    1    3    3  502    0 -0.72054500832E+02  0.11284947292E+03  0.31721896447E+03  0.34431776900E+03  0.00000000000E+00 0. -1.
         -3    1    3    3    0  502 -0.10460905538E+03  0.19158509667E+03  0.28268508072E+03  0.35715369044E+03  0.00000000000E+00 0.  1.
         11    1    5    5    0    0  0.89555752099E+02 -0.80358665564E+02 -0.28996392576E+02  0.12376808412E+03  0.00000000000E+00 0. -1.
        -11    1    5    5    0    0  0.29405576377E+03 -0.11551292711E+03  0.20015229197E+02  0.31656379758E+03  0.00000000000E+00 0.  1.
          3    1    6    6  503    0 -0.12084858716E+03 -0.11161384025E+03 -0.47935633506E+02  0.17134717773E+03  0.00000000000E+00 0. -1.
         -3    1    6    6    0  503 -0.86099372493E+02  0.30508633373E+01 -0.17267338760E+02  0.87866778129E+02  0.00000000000E+00 0.  1.
<mgrwt>
<rscale>  0 0.51954398E+03</rscale>
<asrwt>0</asrwt>
<pdfrwt beam="1">  1        1 0.14821055E+00 0.51954398E+03</pdfrwt>
<pdfrwt beam="2">  1       -1 0.67330569E-01 0.51954398E+03</pdfrwt>
<totfact> 0.38144098E+01</totfact>
</mgrwt>
</event>
<event>
12    1  0.1432447E-007  0.3738020E+03  0.7818608E-02  0.1053249E+00
         -2   -1    0    0    0  501 -0.00000000000E+00  0.00000000000E+00  0.38926476033E+03  0.38926476033E+03  0.00000000000E+00 0.  1.
          2   -1    0    0  501    0  0.00000000000E+00 -0.00000000000E+00 -0.76268855202E+03  0.76268855202E+03  0.00000000000E+00 0. -1.
         23    2    1    2    0    0 -0.54582487829E+02  0.34590885400E+03 -0.26622743365E+03  0.44884053393E+03  0.89154894507E+02 0.  0.
    5000000    2    1    2    0    0  0.54582487829E+02 -0.34590885400E+03 -0.10719635804E+03  0.70311277842E+03  0.60020357942E+03 0.  0.
         23    2    4    4    0    0  0.69757322744E+02 -0.18706529738E+03  0.23098364014E+03  0.31865689269E+03  0.91264799827E+02 0.  0.
         23    2    4    4    0    0 -0.15174834915E+02 -0.15884355661E+03 -0.33817999818E+03  0.38445588573E+03  0.89325616758E+02 0.  0.
          3    1    3    3  502    0 -0.31217333415E+02  0.28585077293E+03 -0.25310259297E+03  0.38307454739E+03  0.00000000000E+00 0. -1.
         -3    1    3    3    0  502 -0.23365154414E+02  0.60058081066E+02 -0.13124840686E+02  0.65765986537E+02  0.00000000000E+00 0.  1.
         13    1    5    5    0    0  0.23477974141E+02 -0.16649825711E+03  0.18807405844E+03  0.25227908424E+03  0.00000000000E+00 0.  1.
        -13    1    5    5    0    0  0.46279348603E+02 -0.20567040279E+02  0.42909581696E+02  0.66377808448E+02  0.00000000000E+00 0. -1.
          1    1    6    6  503    0  0.21389194973E+02 -0.12558736998E+03 -0.19445963187E+03  0.23247415681E+03  0.00000000000E+00 0. -1.
         -1    1    6    6    0  503 -0.36564029888E+02 -0.33256186636E+02 -0.14372036631E+03  0.15198172891E+03  0.00000000000E+00 0.  1.
<mgrwt>
<rscale>  0 0.37380197E+03</rscale>
<asrwt>0</asrwt>
<pdfrwt beam="1">  1        2 0.11733670E+00 0.37380197E+03</pdfrwt>
<pdfrwt beam="2">  1       -2 0.59886888E-01 0.37380197E+03</pdfrwt>
<totfact> 0.99846621E+01</totfact>
</mgrwt>
</event>
<event>
12    1  0.1432447E-007  0.9488627E+03  0.7818608E-02  0.9366481E-01
          1   -1    0    0  501    0  0.00000000000E+00  0.00000000000E+00  0.12054801876E+04  0.12054801876E+04  0.00000000000E+00 0. -1.
         -1   -1    0    0    0  501 -0.00000000000E+00 -0.00000000000E+00 -0.75521969498E+03  0.75521969498E+03  0.00000000000E+00 0.  1.
         23    2    1    2    0    0 -0.85556448466E+03 -0.37295005609E+02  0.24093031337E+03  0.89433747967E+03  0.91709360351E+02 0.  0.
    5000000    2    1    2    0    0  0.85556448466E+03  0.37295005609E+02  0.20933017922E+03  0.10663624029E+04  0.59994011825E+03 0.  0.
         23    2    4    4    0    0  0.33038630242E+03  0.29322746946E+03  0.42454004017E+02  0.45172275197E+03  0.84342424179E+02 0.  0.
         23    2    4    4    0    0  0.52517818224E+03 -0.25593246386E+03  0.16687617520E+03  0.61463965091E+03  0.92847689588E+02 0.  0.
          2    1    3    3  502    0 -0.49866885215E+03  0.22929290781E+02  0.14752107728E+03  0.52053707334E+03  0.00000000000E+00 0.  1.
         -2    1    3    3    0  502 -0.35689563252E+03 -0.60224296389E+02  0.93409236087E+02  0.37380040633E+03  0.00000000000E+00 0. -1.
         11    1    5    5    0    0  0.32912512152E+03  0.26942501503E+03  0.45179198665E+02  0.42773162653E+03  0.00000000000E+00 0.  1.
        -11    1    5    5    0    0  0.12611809034E+01  0.23802454433E+02 -0.27251946480E+01  0.23991125446E+02  0.00000000000E+00 0. -1.
          4    1    6    6  503    0  0.41983454749E+03 -0.17625710924E+03  0.98320995662E+02  0.46582682835E+03  0.00000000000E+00 0. -1.
         -4    1    6    6    0  503  0.10534363475E+03 -0.79675354617E+02  0.68555179543E+02  0.14881282256E+03  0.00000000000E+00 0.  1.
<mgrwt>
<rscale>  0 0.94886267E+03</rscale>
<asrwt>0</asrwt>
<pdfrwt beam="1">  1        1 0.18545849E+00 0.94886267E+03</pdfrwt>
<pdfrwt beam="2">  1       -1 0.11618765E+00 0.94886267E+03</pdfrwt>
<totfact> 0.71554611E+00</totfact>
</mgrwt>
</event>
<event>
12    1  0.1432447E-007  0.1146752E+04  0.7818608E-02  0.9160785E-01
         -1   -1    0    0    0  501 -0.00000000000E+00  0.00000000000E+00  0.93640826044E+03  0.93640826044E+03  0.00000000000E+00 0.  1.
          1   -1    0    0  501    0  0.00000000000E+00 -0.00000000000E+00 -0.14798272920E+04  0.14798272920E+04  0.00000000000E+00 0. -1.
         23    2    1    2    0    0  0.58134575522E+03  0.90840631539E+03 -0.46972285440E+03  0.11798507274E+04  0.90792390097E+02 0.  0.
    5000000    2    1    2    0    0 -0.58134575522E+03 -0.90840631539E+03 -0.73696177128E+02  0.12363848250E+04  0.60004282180E+03 0.  0.
         23    2    4    4    0    0 -0.54544615140E+03 -0.35117245283E+03 -0.13290578787E+03  0.66823495624E+03  0.89668347751E+02 0.  0.
         23    2    4    4    0    0 -0.35899603816E+02 -0.55723386256E+03  0.59209610743E+02  0.56814986875E+03  0.86545573054E+02 0.  0.
          2    1    3    3  502    0  0.12879812033E+03  0.26104301491E+03 -0.15307957417E+03  0.32888564496E+03  0.00000000000E+00 0. -1.
         -2    1    3    3    0  502  0.45254763489E+03  0.64736330048E+03 -0.31664328024E+03  0.85096508246E+03  0.00000000000E+00 0.  1.
         13    1    5    5    0    0 -0.26526992769E+03 -0.14196544403E+03 -0.99871361426E+02  0.31701200398E+03  0.00000000000E+00 0.  1.
        -13    1    5    5    0    0 -0.28017622371E+03 -0.20920700879E+03 -0.33034426446E+02  0.35122295226E+03  0.00000000000E+00 0. -1.
          3    1    6    6  503    0 -0.31547314246E+02 -0.10202796205E+03  0.34597567186E+02  0.11225831698E+03  0.00000000000E+00 0. -1.
         -3    1    6    6    0  503 -0.43522895700E+01 -0.45520590051E+03  0.24612043557E+02  0.45589155176E+03  0.00000000000E+00 0.  1.
<mgrwt>
<rscale>  0 0.11467520E+04</rscale>
<asrwt>0</asrwt>
<pdfrwt beam="1">  1        1 0.22766574E+00 0.11467520E+04</pdfrwt>
<pdfrwt beam="2">  1       -1 0.14406281E+00 0.11467520E+04</pdfrwt>
<totfact> 0.25927081E+00</totfact>
</mgrwt>
</event>
<event>
12    1  0.1988042E-007  0.1383641E+04  0.7818608E-02  0.8965746E-01
         -1   -1    0    0    0  501 -0.00000000000E+00  0.00000000000E+00  0.13301206612E+04  0.13301206612E+04  0.00000000000E+00 0.  1.
          1   -1    0    0  501    0  0.00000000000E+00 -0.00000000000E+00 -0.16889342948E+04  0.16889342948E+04  0.00000000000E+00 0. -1.
         23    2    1    2    0    0  0.13221492705E+04 -0.46199735285E+02  0.39325620571E+03  0.13832664807E+04  0.92534340616E+02 0.  0.
    5000000    2    1    2    0    0 -0.13221492705E+04  0.46199735285E+02 -0.75206983931E+03  0.16357884753E+04  0.59998481963E+03 0.  0.
         23    2    4    4    0    0 -0.60900432570E+03 -0.25623191461E+03 -0.26973520185E+03  0.71935837858E+03  0.90434146874E+02 0.  0.
         23    2    4    4    0    0 -0.71314494479E+03  0.30243164989E+03 -0.48233463745E+03  0.91643009674E+03  0.84597899434E+02 0.  0.
          3    1    3    3  502    0  0.33303730722E+03  0.86518327563E+01  0.13549572292E+03  0.35964954211E+03  0.00000000000E+00 0. -1.
         -3    1    3    3    0  502  0.98911196327E+03 -0.54851568042E+02  0.25776048279E+03  0.10236169386E+04  0.00000000000E+00 0.  1.
         11    1    5    5    0    0 -0.23835066928E+03 -0.14757119766E+03 -0.12381757896E+03  0.30646222081E+03  0.00000000000E+00 0.  1.
        -11    1    5    5    0    0 -0.37065365642E+03 -0.10866071695E+03 -0.14591762289E+03  0.41289615777E+03  0.00000000000E+00 0. -1.
          3    1    6    6  503    0 -0.16811516182E+03  0.99342233382E+02 -0.91277464654E+02  0.21555315474E+03  0.00000000000E+00 0. -1.
         -3    1    6    6    0  503 -0.54502978298E+03  0.20308941651E+03 -0.39105717280E+03  0.70087694200E+03  0.00000000000E+00 0.  1.
<mgrwt>
<rscale>  0 0.13836407E+04</rscale>
<asrwt>0</asrwt>
<pdfrwt beam="1">  1        1 0.25983604E+00 0.13836407E+04</pdfrwt>
<pdfrwt beam="2">  1       -1 0.20463395E+00 0.13836407E+04</pdfrwt>
<totfact> 0.65006792E-01</totfact>
</mgrwt>
</event>
<event>
12    1  0.1432447E-007  0.7014158E+03  0.7818608E-02  0.9714814E-01
          2   -1    0    0  501    0  0.00000000000E+00  0.00000000000E+00  0.11110534817E+04  0.11110534817E+04  0.00000000000E+00 0. -1.
         -2   -1    0    0    0  501 -0.00000000000E+00 -0.00000000000E+00 -0.59214846570E+03  0.59214846570E+03  0.00000000000E+00 0.  1.
         23    2    1    2    0    0  0.48623387179E+03  0.49922049738E+03  0.21019753416E+03  0.73326231897E+03  0.88578450970E+02 0.  0.
    5000000    2    1    2    0    0 -0.48623387179E+03 -0.49922049738E+03  0.30870748189E+03  0.96993962848E+03  0.59986506020E+03 0.  0.
         23    2    4    4    0    0 -0.15403571532E+03 -0.12504464927E+03 -0.16680974844E+03  0.27446985622E+03  0.90249896936E+02 0.  0.
         23    2    4    4    0    0 -0.33219815647E+03 -0.37417584811E+03  0.47551723032E+03  0.69546977225E+03  0.84843310384E+02 0.  0.
          3    1    3    3  502    0  0.21071506884E+03  0.20062957722E+03  0.13211509369E+03  0.31954258788E+03  0.00000000000E+00 0. -1.
         -3    1    3    3    0  502  0.27551880294E+03  0.29859092016E+03  0.78082440477E+02  0.41371973108E+03  0.00000000000E+00 0.  1.
         11    1    5    5    0    0 -0.31468696943E+02 -0.54921735141E+02 -0.11095812547E+02  0.64263465004E+02  0.00000000000E+00 0. -1.
        -11    1    5    5    0    0 -0.12256701837E+03 -0.70122914131E+02 -0.15571393589E+03  0.21020639122E+03  0.00000000000E+00 0.  1.
          1    1    6    6  503    0 -0.16886120405E+03 -0.16992616466E+03  0.17252497247E+03  0.29521834935E+03  0.00000000000E+00 0. -1.
         -1    1    6    6    0  503 -0.16333695242E+03 -0.20424968344E+03  0.30299225786E+03  0.40025142290E+03  0.00000000000E+00 0.  1.
<mgrwt>
<rscale>  0 0.70141580E+03</rscale>
<asrwt>0</asrwt>
<pdfrwt beam="1">  1        2 0.17093130E+00 0.70141580E+03</pdfrwt>
<pdfrwt beam="2">  1       -2 0.91099764E-01 0.70141580E+03</pdfrwt>
<totfact> 0.22549452E+01</totfact>
</mgrwt>
</event>
<event>
12    1  0.1432447E-007  0.6223487E+03  0.7818608E-02  0.9860095E-01
         -2   -1    0    0    0  501 -0.00000000000E+00  0.00000000000E+00  0.27471106491E+03  0.27471106491E+03  0.00000000000E+00 0.  1.
          2   -1    0    0  501    0  0.00000000000E+00 -0.00000000000E+00 -0.18994648979E+04  0.18994648979E+04  0.00000000000E+00 0. -1.
         23    2    1    2    0    0 -0.59319922750E+03 -0.88479472659E+01 -0.64232138833E+03  0.87910588266E+03  0.91031738156E+02 0.  0.
    5000000    2    1    2    0    0  0.59319922750E+03  0.88479472659E+01 -0.98243244467E+03  0.12950700801E+04  0.60005782594E+03 0.  0.
         23    2    4    4    0    0  0.53399259897E+03  0.42416510588E+02 -0.10342710132E+04  0.11679984921E+04  0.86929240086E+02 0.  0.
         23    2    4    4    0    0  0.59206628533E+02 -0.33568563322E+02  0.51838568511E+02  0.12707158802E+03  0.93955723564E+02 0.  0.
          3    1    3    3  502    0 -0.42488842722E+02 -0.24771651595E+02 -0.56785906501E+02  0.75123735635E+02  0.00000000000E+00 0. -1.
         -3    1    3    3    0  502 -0.55071038478E+03  0.15923704329E+02 -0.58553548183E+03  0.80398214703E+03  0.00000000000E+00 0.  1.
         11    1    5    5    0    0  0.17965599646E+03 -0.10125260532E+02 -0.41979833440E+03  0.45673782362E+03  0.00000000000E+00 0. -1.
        -11    1    5    5    0    0  0.35433660251E+03  0.52541771120E+02 -0.61447267878E+03  0.71126066851E+03  0.00000000000E+00 0.  1.
          2    1    6    6  503    0  0.24205181188E+02 -0.58592536602E+02  0.51863497605E+01  0.63607188003E+02  0.00000000000E+00 0. -1.
         -2    1    6    6    0  503  0.35001447346E+02  0.25023973280E+02  0.46652218750E+02  0.63464400016E+02  0.00000000000E+00 0.  1.
<mgrwt>
<rscale>  0 0.62234870E+03</rscale>
<asrwt>0</asrwt>
<pdfrwt beam="1">  1        2 0.29222536E+00 0.62234870E+03</pdfrwt>
<pdfrwt beam="2">  1       -2 0.42263242E-01 0.62234870E+03</pdfrwt>
<totfact> 0.42203938E+01</totfact>
</mgrwt>
</event>
<event>
12    1  0.1432447E-007  0.1023618E+04  0.7818608E-02  0.9283014E-01
          2   -1    0    0  501    0  0.00000000000E+00  0.00000000000E+00  0.13774138884E+04  0.13774138884E+04  0.00000000000E+00 0. -1.
         -2   -1    0    0    0  501 -0.00000000000E+00 -0.00000000000E+00 -0.16773123710E+04  0.16773123710E+04  0.00000000000E+00 0.  1.
         23    2    1    2    0    0 -0.75664420738E+03 -0.55652047002E+03  0.97813058499E+03  0.13590671324E+04  0.89991883090E+02 0.  0.
    5000000    2    1    2    0    0  0.75664420738E+03  0.55652047002E+03 -0.12780290676E+04  0.16956591270E+04  0.59973001199E+03 0.  0.
         23    2    4    4    0    0  0.16852109770E+03 -0.10981490911E+03 -0.23362790344E+03  0.32128009065E+03  0.90444594898E+02 0.  0.
         23    2    4    4    0    0  0.58812310968E+03  0.66633537914E+03 -0.10444011642E+04  0.13743790364E+04  0.90842249451E+02 0.  0.
          1    1    3    3  502    0 -0.19045478730E+03 -0.18575504166E+03  0.30062709204E+03  0.40144066806E+03  0.00000000000E+00 0. -1.
         -1    1    3    3    0  502 -0.56618942008E+03 -0.37076542836E+03  0.67750349295E+03  0.95762646436E+03  0.00000000000E+00 0.  1.
         11    1    5    5    0    0  0.20994507586E+02  0.83059061366E+01 -0.24901481126E+01  0.22714714683E+02  0.00000000000E+00 0. -1.
        -11    1    5    5    0    0  0.14752659011E+03 -0.11812081525E+03 -0.23113775533E+03  0.29856537596E+03  0.00000000000E+00 0.  1.
          4    1    6    6  503    0  0.34494206835E+00  0.16945948045E+02 -0.27045215989E+02  0.31917516320E+02  0.00000000000E+00 0. -1.
         -4    1    6    6    0  503  0.58777816762E+03  0.64938943109E+03 -0.10173559482E+04  0.13424615201E+04  0.00000000000E+00 0.  1.
<mgrwt>
<rscale>  0 0.10236177E+04</rscale>
<asrwt>0</asrwt>
<pdfrwt beam="1">  1        2 0.21190983E+00 0.10236177E+04</pdfrwt>
<pdfrwt beam="2">  1       -2 0.25804806E+00 0.10236177E+04</pdfrwt>
<totfact> 0.85088371E-01</totfact>
</mgrwt>
</event>
<event>
12    1  0.1432447E-007  0.5997398E+03  0.7818608E-02  0.9905946E-01
          2   -1    0    0  501    0  0.00000000000E+00  0.00000000000E+00  0.26340545898E+04  0.26340545898E+04  0.00000000000E+00 0. -1.
         -2   -1    0    0    0  501 -0.00000000000E+00 -0.00000000000E+00 -0.18582743003E+03  0.18582743003E+03  0.00000000000E+00 0.  1.
         23    2    1    2    0    0  0.41749060128E+03  0.35461611463E+03  0.12994637354E+04  0.14129178579E+04  0.87634938901E+02 0.  0.
    5000000    2    1    2    0    0 -0.41749060128E+03 -0.35461611463E+03  0.11487634244E+04  0.14069641620E+04  0.59986644929E+03 0.  0.
         23    2    4    4    0    0 -0.19699667455E+03  0.26055784415E+02  0.82441188307E+03  0.85288286302E+03  0.90926516476E+02 0.  0.
         23    2    4    4    0    0 -0.22049392674E+03 -0.38067189905E+03  0.32435154132E+03  0.55408129897E+03  0.90958765701E+02 0.  0.
          3    1    3    3  502    0  0.97193356159E+02  0.61406472360E+02  0.19813709444E+03  0.22907555854E+03  0.00000000000E+00 0.  1.
         -3    1    3    3    0  502  0.32029724513E+03  0.29320964227E+03  0.11013266410E+04  0.11838422993E+04  0.00000000000E+00 0. -1.
         13    1    5    5    0    0 -0.73505016838E+02 -0.51750692707E+01  0.48093081197E+03  0.48654312732E+03  0.00000000000E+00 0.  1.
        -13    1    5    5    0    0 -0.12349165771E+03  0.31230853686E+02  0.34348107110E+03  0.36633973570E+03  0.00000000000E+00 0. -1.
          1    1    6    6  503    0 -0.95790667649E+02 -0.84040718998E+02  0.89974625129E+02  0.15599399868E+03  0.00000000000E+00 0. -1.
         -1    1    6    6    0  503 -0.12470325909E+03 -0.29663118005E+03  0.23437691619E+03  0.39808730029E+03  0.00000000000E+00 0.  1.
<mgrwt>
<rscale>  0 0.59973977E+03</rscale>
<asrwt>0</asrwt>
<pdfrwt beam="1">  1        2 0.40523914E+00 0.59973977E+03</pdfrwt>
<pdfrwt beam="2">  1       -2 0.28588837E-01 0.59973977E+03</pdfrwt>
<totfact> 0.34922718E+01</totfact>
</mgrwt>
</event>
<event>
12    1  0.1432447E-007  0.9697667E+03  0.7818608E-02  0.9342340E-01
          1   -1    0    0  501    0  0.00000000000E+00  0.00000000000E+00  0.79941375347E+03  0.79941375347E+03  0.00000000000E+00 0. -1.
         -1   -1    0    0    0  501 -0.00000000000E+00 -0.00000000000E+00 -0.13128560280E+04  0.13128560280E+04  0.00000000000E+00 0.  1.
         23    2    1    2    0    0 -0.59304511929E+03 -0.70557927666E+03 -0.39336071391E+03  0.10058798387E+04  0.86700458021E+02 0.  0.
    5000000    2    1    2    0    0  0.59304511929E+03  0.70557927666E+03 -0.12008156061E+03  0.11063899428E+04  0.60011206881E+03 0.  0.
         23    2    4    4    0    0  0.66299115528E+02  0.38820412758E+03  0.14681662090E+03  0.43007709903E+03  0.91176606375E+02 0.  0.
         23    2    4    4    0    0  0.52674600376E+03  0.31737514908E+03 -0.26689818151E+03  0.67631284375E+03  0.89308933459E+02 0.  0.
          4    1    3    3  502    0 -0.33274771317E+03 -0.44730224856E+03 -0.20830445492E+03  0.59513955348E+03  0.00000000000E+00 0. -1.
         -4    1    3    3    0  502 -0.26029740612E+03 -0.25827702811E+03 -0.18505625899E+03  0.41074028518E+03  0.00000000000E+00 0.  1.
         13    1    5    5    0    0  0.14553906578E+02  0.58947315953E+02 -0.10330384613E+02  0.61589926944E+02  0.00000000000E+00 0. -1.
        -13    1    5    5    0    0  0.51745208951E+02  0.32925681163E+03  0.15714700551E+03  0.36848717209E+03  0.00000000000E+00 0.  1.
          1    1    6    6  503    0  0.19004344819E+03  0.16532379310E+03 -0.10260867052E+03  0.27198714681E+03  0.00000000000E+00 0. -1.
         -1    1    6    6    0  503  0.33670255557E+03  0.15205135598E+03 -0.16428951099E+03  0.40432569694E+03  0.00000000000E+00 0.  1.
<mgrwt>
<rscale>  0 0.96976670E+03</rscale>
<asrwt>0</asrwt>
<pdfrwt beam="1">  1        1 0.12298673E+00 0.96976670E+03</pdfrwt>
<pdfrwt beam="2">  1       -1 0.20197785E+00 0.96976670E+03</pdfrwt>
<totfact> 0.32538335E+00</totfact>
</mgrwt>
</event>
<event>
12    1  0.1432447E-007  0.6066522E+03  0.7818608E-02  0.9891700E-01
         -2   -1    0    0    0  501 -0.00000000000E+00  0.00000000000E+00  0.61665178269E+03  0.61665178269E+03  0.00000000000E+00 0.  1.
          2   -1    0    0  501    0  0.00000000000E+00 -0.00000000000E+00 -0.89128268728E+03  0.89128268728E+03  0.00000000000E+00 0. -1.
         23    2    1    2    0    0 -0.58113172437E+03 -0.96866384388E+02 -0.29830255902E+03  0.66669244165E+03  0.91636333079E+02 0.  0.
    5000000    2    1    2    0    0  0.58113172437E+03  0.96866384388E+02  0.23671654430E+02  0.84124202833E+03  0.60002552072E+03 0.  0.
         23    2    4    4    0    0  0.39182412341E+03  0.14656314389E+02 -0.25956574555E+03  0.47892577493E+03  0.90854666320E+02 0.  0.
         23    2    4    4    0    0  0.18930760096E+03  0.82210069999E+02  0.28323739998E+03  0.36231625340E+03  0.91944436174E+02 0.  0.
          2    1    3    3  502    0 -0.51804452916E+03 -0.62682327940E+02 -0.24061834816E+03  0.57462718166E+03  0.00000000000E+00 0. -1.
         -2    1    3    3    0  502 -0.63087195208E+02 -0.34184056448E+02 -0.57684210858E+02  0.92065259988E+02  0.00000000000E+00 0.  1.
         13    1    5    5    0    0  0.34604781413E+03 -0.12349411902E+01 -0.19189358286E+03  0.39569402559E+03  0.00000000000E+00 0. -1.
        -13    1    5    5    0    0  0.45776309275E+02  0.15891255579E+02 -0.67672162686E+02  0.83231749335E+02  0.00000000000E+00 0.  1.
          3    1    6    6  503    0  0.94296056277E+02 -0.74428465558E+01  0.10483437605E+03  0.14119981797E+03  0.00000000000E+00 0. -1.
         -3    1    6    6    0  503  0.95011544680E+02  0.89652916555E+02  0.17840302393E+03  0.22111643543E+03  0.00000000000E+00 0.  1.
<mgrwt>
<rscale>  0 0.60665216E+03</rscale>
<asrwt>0</asrwt>
<pdfrwt beam="1">  1        2 0.13712041E+00 0.60665216E+03</pdfrwt>
<pdfrwt beam="2">  1       -2 0.94869506E-01 0.60665216E+03</pdfrwt>
<totfact> 0.28634742E+01</totfact>
</mgrwt>
</event>
<event>
12    1  0.1432447E-007  0.1194122E+04  0.7818608E-02  0.9118017E-01
          1   -1    0    0  501    0  0.00000000000E+00  0.00000000000E+00  0.27574703961E+04  0.27574703961E+04  0.00000000000E+00 0.  1.
         -1   -1    0    0    0  501 -0.00000000000E+00 -0.00000000000E+00 -0.54571125011E+03  0.54571125011E+03  0.00000000000E+00 0. -1.
         23    2    1    2    0    0 -0.66797188757E+03  0.90692818318E+03  0.13624483406E+04  0.17702080442E+04  0.93090639518E+02 0.  0.
    5000000    2    1    2    0    0  0.66797188757E+03 -0.90692818318E+03  0.84931080542E+03  0.15329736020E+04  0.59997837301E+03 0.  0.
         23    2    4    4    0    0  0.24303121947E+03  0.10819042973E+02  0.20472706848E+03  0.33043418282E+03  0.89957497097E+02 0.  0.
         23    2    4    4    0    0  0.42494066810E+03 -0.91774722615E+03  0.64458373694E+03  0.12025394191E+04  0.88194773868E+02 0.  0.
          4    1    3    3  502    0 -0.55434189968E+03  0.69946226109E+03  0.11089758256E+04  0.14235061567E+04  0.00000000000E+00 0.  1.
         -4    1    3    3    0  502 -0.11362998789E+03  0.20746592209E+03  0.25347251500E+03  0.34670188756E+03  0.00000000000E+00 0. -1.
         11    1    5    5    0    0  0.34485723008E+02 -0.63901601580E+01 -0.34780887801E+01  0.35244805856E+02  0.00000000000E+00 0.  1.
        -11    1    5    5    0    0  0.20854549646E+03  0.17209203131E+02  0.20820515726E+03  0.29518937697E+03  0.00000000000E+00 0. -1.
          1    1    6    6  503    0  0.36323603062E+03 -0.84317410520E+03  0.59172110027E+03  0.10922531053E+04  0.00000000000E+00 0. -1.
         -1    1    6    6    0  503  0.61704637486E+02 -0.74573120948E+02  0.52862636675E+02  0.11028631380E+03  0.00000000000E+00 0.  1.
<mgrwt>
<rscale>  0 0.11941216E+04</rscale>
<asrwt>0</asrwt>
<pdfrwt beam="1">  1        1 0.42422621E+00 0.11941216E+04</pdfrwt>
<pdfrwt beam="2">  1       -1 0.83955578E-01 0.11941216E+04</pdfrwt>
<totfact> 0.12505975E+00</totfact>
</mgrwt>
</event>
<event>
12    1  0.1432447E-007  0.7857490E+03  0.7818608E-02  0.9580877E-01
         -2   -1    0    0    0  501 -0.00000000000E+00  0.00000000000E+00  0.32841546464E+03  0.32841546464E+03  0.00000000000E+00 0. -1.
          2   -1    0    0  501    0  0.00000000000E+00 -0.00000000000E+00 -0.23461668912E+04  0.23461668912E+04  0.00000000000E+00 0.  1.
         23    2    1    2    0    0  0.80659545461E+02 -0.73304849162E+03 -0.54259040755E+03  0.92011005481E+03  0.91280388152E+02 0.  0.
    5000000    2    1    2    0    0 -0.80659545461E+02  0.73304849162E+03 -0.14751610190E+04  0.17544723010E+04  0.59850394292E+03 0.  0.
         23    2    4    4    0    0  0.41132732079E+02  0.16511663405E+02  0.62001668036E+01  0.10206145154E+03  0.91725466174E+02 0.  0.
         23    2    4    4    0    0 -0.12179227754E+03  0.71653682822E+03 -0.14813611858E+04  0.16524108494E+04  0.88160465009E+02 0.  0.
          1    1    3    3  502    0  0.28992682340E+02 -0.37823535309E+03 -0.33314248964E+03  0.50486282925E+03  0.00000000000E+00 0. -1.
         -1    1    3    3    0  502  0.51666863120E+02 -0.35481313853E+03 -0.20944791790E+03  0.41524722556E+03  0.00000000000E+00 0.  1.
         13    1    5    5    0    0 -0.55852658143E+01  0.46149809494E+02  0.10842458890E+01  0.46499201065E+02  0.00000000000E+00 0.  1.
        -13    1    5    5    0    0  0.46717997893E+02 -0.29638146089E+02  0.51159209146E+01  0.55562250472E+02  0.00000000000E+00 0. -1.
          4    1    6    6  503    0 -0.10416536327E+03  0.35881018186E+03 -0.78207712565E+03  0.86674090707E+03  0.00000000000E+00 0. -1.
         -4    1    6    6    0  503 -0.17626914265E+02  0.35772664635E+03 -0.69928406012E+03  0.78566994238E+03  0.00000000000E+00 0.  1.
<mgrwt>
<rscale>  0 0.78574896E+03</rscale>
<asrwt>0</asrwt>
<pdfrwt beam="1">  1        2 0.36094873E+00 0.78574896E+03</pdfrwt>
<pdfrwt beam="2">  1       -2 0.50525459E-01 0.78574896E+03</pdfrwt>
<totfact> 0.16397351E+01</totfact>
</mgrwt>
</event>
<event>
12    1  0.1432447E-007  0.1184028E+04  0.7818608E-02  0.9126953E-01
         -1   -1    0    0    0  501 -0.00000000000E+00  0.00000000000E+00  0.24151304176E+04  0.24151304176E+04  0.00000000000E+00 0.  1.
          1   -1    0    0  501    0  0.00000000000E+00 -0.00000000000E+00 -0.67772440190E+03  0.67772440190E+03  0.00000000000E+00 0. -1.
         23    2    1    2    0    0 -0.23405030471E+03 -0.10887491027E+04  0.13855022220E+04  0.17798773125E+04  0.90513460353E+02 0.  0.
    5000000    2    1    2    0    0  0.23405030471E+03  0.10887491027E+04  0.35190379371E+03  0.13129775070E+04  0.59993291291E+03 0.  0.
         23    2    4    4    0    0 -0.16196052237E+03  0.57266364278E+03  0.10750059505E+03  0.61161232063E+03  0.91314808408E+02 0.  0.
         23    2    4    4    0    0  0.39601082709E+03  0.51608545997E+03  0.24440319866E+03  0.70136518638E+03  0.94928520400E+02 0.  0.
          2    1    3    3  502    0 -0.19548933957E+03 -0.84511675085E+03  0.10206032795E+04  0.13394287807E+04  0.00000000000E+00 0.  1.
         -2    1    3    3    0  502 -0.38560965146E+02 -0.24363235190E+03  0.36489894245E+03  0.44044853176E+03  0.00000000000E+00 0. -1.
         13    1    5    5    0    0 -0.16383639788E+03  0.53213502735E+03  0.79774241518E+02  0.56247131679E+03  0.00000000000E+00 0. -1.
        -13    1    5    5    0    0  0.18758755062E+01  0.40528615430E+02  0.27726353533E+02  0.49141003834E+02  0.00000000000E+00 0.  1.
          2    1    6    6  503    0  0.48987656389E+02  0.24237883132E+02  0.10997898881E+02  0.55751405695E+02  0.00000000000E+00 0. -1.
         -2    1    6    6    0  503  0.34702317070E+03  0.49184757684E+03  0.23340529978E+03  0.64561378068E+03  0.00000000000E+00 0.  1.
<mgrwt>
<rscale>  0 0.11840283E+04</rscale>
<asrwt>0</asrwt>
<pdfrwt beam="1">  1        1 0.10426529E+00 0.11840283E+04</pdfrwt>
<pdfrwt beam="2">  1       -1 0.37155852E+00 0.11840283E+04</pdfrwt>
<totfact> 0.31778616E-01</totfact>
</mgrwt>
</event>
<event>
12    1  0.1659669E-007  0.1210678E+04  0.7818608E-02  0.9103561E-01
          2   -1    0    0  501    0  0.00000000000E+00  0.00000000000E+00  0.21215059121E+04  0.21215059121E+04  0.00000000000E+00 0. -1.
         -2   -1    0    0    0  501 -0.00000000000E+00 -0.00000000000E+00 -0.81604910808E+03  0.81604910808E+03  0.00000000000E+00 0.  1.
         23    2    1    2    0    0  0.11118462124E+04  0.36428302661E+03  0.10964580205E+04  0.16061786394E+04  0.93196069803E+02 0.  0.
    5000000    2    1    2    0    0 -0.11118462124E+04 -0.36428302661E+03  0.20899878349E+03  0.13313763808E+04  0.59998204332E+03 0.  0.
         23    2    4    4    0    0 -0.10918055795E+04 -0.38606323268E+03  0.71643349766E+02  0.11642592636E+04  0.96346355798E+02 0.  0.
         23    2    4    4    0    0 -0.20040632925E+02  0.21780206065E+02  0.13735543372E+03  0.16711711721E+03  0.90474368450E+02 0.  0.
          3    1    3    3  502    0  0.58151224604E+03  0.21244215929E+03  0.52273360552E+03  0.81027068667E+03  0.00000000000E+00 0.  1.
         -3    1    3    3    0  502  0.53033396634E+03  0.15184086732E+03  0.57372441499E+03  0.79590795272E+03  0.00000000000E+00 0. -1.
         13    1    5    5    0    0 -0.48391786120E+03 -0.15296500818E+03  0.76132147251E+02  0.51319674002E+03  0.00000000000E+00 0.  1.
        -13    1    5    5    0    0 -0.60788771825E+03 -0.23309822450E+03 -0.44887974857E+01  0.65106252355E+03  0.00000000000E+00 0. -1.
          2    1    6    6  503    0  0.32190734167E+02  0.23387817538E+02  0.38858528925E+02  0.55616711927E+02  0.00000000000E+00 0. -1.
         -2    1    6    6    0  503 -0.52231367092E+02 -0.16076114730E+01  0.98496904795E+02  0.11150040528E+03  0.00000000000E+00 0.  1.
<mgrwt>
<rscale>  0 0.12106784E+04</rscale>
<asrwt>0</asrwt>
<pdfrwt beam="1">  1        2 0.32638552E+00 0.12106784E+04</pdfrwt>
<pdfrwt beam="2">  1       -2 0.12554602E+00 0.12106784E+04</pdfrwt>
<totfact> 0.26436661E+00</totfact>
</mgrwt>
</event>
<event>
12    1  0.1432447E-007  0.6049853E+03  0.7818608E-02  0.9895117E-01
          2   -1    0    0  501    0  0.00000000000E+00  0.00000000000E+00  0.13194057835E+04  0.13194057835E+04  0.00000000000E+00 0. -1.
         -2   -1    0    0    0  501 -0.00000000000E+00 -0.00000000000E+00 -0.74755571551E+03  0.74755571551E+03  0.00000000000E+00 0.  1.
         23    2    1    2    0    0  0.53301015104E+03 -0.41009006612E+02  0.10136781839E+04  0.11496749595E+04  0.91801374585E+02 0.  0.
    5000000    2    1    2    0    0 -0.53301015104E+03  0.41009006612E+02 -0.44182811593E+03  0.91728653943E+03  0.60035069056E+03 0.  0.
         23    2    4    4    0    0 -0.49932410956E+03 -0.90801755206E+02 -0.52519413453E+03  0.73557263910E+03  0.87571132850E+02 0.  0.
         23    2    4    4    0    0 -0.33686041488E+02  0.13181076182E+03  0.83366018609E+02  0.18171390033E+03  0.86955288467E+02 0.  0.
          3    1    3    3  502    0  0.31494614618E+02  0.17926399209E+00  0.12001161781E+03  0.12407550643E+03  0.00000000000E+00 0. -1.
         -3    1    3    3    0  502  0.50151553643E+03 -0.41188270604E+02  0.89366656607E+03  0.10255994531E+04  0.00000000000E+00 0.  1.
         11    1    5    5    0    0 -0.38797993154E+03 -0.10707730185E+03 -0.40994970150E+03  0.57450216153E+03  0.00000000000E+00 0. -1.
        -11    1    5    5    0    0 -0.11134417802E+03  0.16275546647E+02 -0.11524443304E+03  0.16107047757E+03  0.00000000000E+00 0.  1.
          2    1    6    6  503    0 -0.62415552712E+02  0.89243551311E+02  0.66772057950E+02  0.12774435562E+03  0.00000000000E+00 0.  1.
         -2    1    6    6    0  503  0.28729511224E+02  0.42567210506E+02  0.16593960660E+02  0.53969544706E+02  0.00000000000E+00 0. -1.
<mgrwt>
<rscale>  0 0.60498532E+03</rscale>
<asrwt>0</asrwt>
<pdfrwt beam="1">  1        2 0.20298550E+00 0.60498532E+03</pdfrwt>
<pdfrwt beam="2">  1       -2 0.11500857E+00 0.60498532E+03</pdfrwt>
<totfact> 0.99077224E+00</totfact>
</mgrwt>
</event>
<event>
12    1  0.1432447E-007  0.8022167E+03  0.7818608E-02  0.9556814E-01
          1   -1    0    0  501    0  0.00000000000E+00  0.00000000000E+00  0.21038046283E+04  0.21038046283E+04  0.00000000000E+00 0. -1.
         -1   -1    0    0    0  501 -0.00000000000E+00 -0.00000000000E+00 -0.40567861650E+03  0.40567861650E+03  0.00000000000E+00 0.  1.
         23    2    1    2    0    0  0.71329048936E+02  0.74741276202E+03  0.30165986783E+03  0.81422868095E+03  0.90862527872E+02 0.  0.
    5000000    2    1    2    0    0 -0.71329048936E+02 -0.74741276202E+03  0.13964661439E+04  0.16952545638E+04  0.60004722725E+03 0.  0.
         23    2    4    4    0    0 -0.16548521553E+03 -0.13563730339E+03  0.96379149915E+02  0.25251717002E+03  0.93237041943E+02 0.  0.
         23    2    4    4    0    0  0.94156166589E+02 -0.61177545863E+03  0.13000869940E+04  0.14427373938E+04  0.90168730369E+02 0.  0.
          3    1    3    3  502    0 -0.64292885345E+01  0.37907769302E+03  0.16889137823E+03  0.41504882934E+03  0.00000000000E+00 0. -1.
         -3    1    3    3    0  502  0.77758337471E+02  0.36833506900E+03  0.13276848961E+03  0.39917985161E+03  0.00000000000E+00 0.  1.
         13    1    5    5    0    0 -0.58522184097E+02 -0.10167413276E+03  0.26355766984E+02  0.12023768859E+03  0.00000000000E+00 0. -1.
        -13    1    5    5    0    0 -0.10696303143E+03 -0.33963170628E+02  0.70023382931E+02  0.13227948143E+03  0.00000000000E+00 0.  1.
          3    1    6    6  503    0  0.30838040628E+02 -0.26620686361E+03  0.66473621395E+03  0.71672261937E+03  0.00000000000E+00 0.  1.
         -3    1    6    6    0  503  0.63318125961E+02 -0.34556859503E+03  0.63535078007E+03  0.72601477442E+03  0.00000000000E+00 0. -1.
<mgrwt>
<rscale>  0 0.80221667E+03</rscale>
<asrwt>0</asrwt>
<pdfrwt beam="1">  1        1 0.32366225E+00 0.80221667E+03</pdfrwt>
<pdfrwt beam="2">  1       -1 0.62412096E-01 0.80221667E+03</pdfrwt>
<totfact> 0.68668568E+00</totfact>
</mgrwt>
</event>
<event>
12    1  0.1432447E-007  0.4885450E+03  0.7818608E-02  0.1016813E+00
          2   -1    0    0  501    0  0.00000000000E+00  0.00000000000E+00  0.60184855707E+03  0.60184855707E+03  0.00000000000E+00 0. -1.
         -2   -1    0    0    0  501 -0.00000000000E+00 -0.00000000000E+00 -0.66863290004E+03  0.66863290004E+03  0.00000000000E+00 0.  1.
         23    2    1    2    0    0 -0.32328003197E+03  0.35336454365E+03 -0.11588375076E+03  0.50116964036E+03  0.91463025061E+02 0.  0.
    5000000    2    1    2    0    0  0.32328003197E+03 -0.35336454365E+03  0.49099407790E+02  0.76931181676E+03  0.60004453150E+03 0.  0.
         23    2    4    4    0    0  0.11110894841E+03 -0.16195567208E+03  0.30484642535E+03  0.37567373211E+03  0.98104902067E+02 0.  0.
         23    2    4    4    0    0  0.21217108355E+03 -0.19140887157E+03 -0.25574701757E+03  0.39363808465E+03  0.88828373186E+02 0.  0.
          4    1    3    3  502    0 -0.67857424153E+02  0.46433561153E+02 -0.50638323743E+02  0.96565757107E+02  0.00000000000E+00 0.  1.
         -4    1    3    3    0  502 -0.25542260781E+03  0.30693098249E+03 -0.65245427013E+02  0.40460388325E+03  0.00000000000E+00 0. -1.
         13    1    5    5    0    0  0.76611234043E+02 -0.11294459000E+03  0.12130456229E+03  0.18259397149E+03  0.00000000000E+00 0.  1.
        -13    1    5    5    0    0  0.34497714369E+02 -0.49011082075E+02  0.18354186307E+03  0.19307976062E+03  0.00000000000E+00 0. -1.
          1    1    6    6  503    0  0.14184368211E+03 -0.68449237773E+02 -0.13953873409E+03  0.21041859856E+03  0.00000000000E+00 0.  1.
         -1    1    6    6    0  503  0.70327401441E+02 -0.12295963380E+03 -0.11620828347E+03  0.18321948609E+03  0.00000000000E+00 0. -1.
<mgrwt>
<rscale>  0 0.48854497E+03</rscale>
<asrwt>0</asrwt>
<pdfrwt beam="1">  1        2 0.92592086E-01 0.48854497E+03</pdfrwt>
<pdfrwt beam="2">  1       -2 0.10286660E+00 0.48854497E+03</pdfrwt>
<totfact> 0.39585431E+01</totfact>
</mgrwt>
</event>
<event>
12    1  0.1432447E-007  0.7829364E+03  0.7818608E-02  0.9585050E-01
         -2   -1    0    0    0  501 -0.00000000000E+00  0.00000000000E+00  0.10766197092E+04  0.10766197092E+04  0.00000000000E+00 0.  1.
          2   -1    0    0  501    0  0.00000000000E+00 -0.00000000000E+00 -0.63061167716E+03  0.63061167716E+03  0.00000000000E+00 0. -1.
         23    2    1    2    0    0  0.12048305690E+03  0.67196661978E+03  0.40214481104E+03  0.79727229431E+03  0.88698123588E+02 0.  0.
    5000000    2    1    2    0    0 -0.12048305690E+03 -0.67196661978E+03  0.43863220957E+02  0.90995909200E+03  0.60003855032E+03 0.  0.
         23    2    4    4    0    0  0.13281871614E+03 -0.59393416082E+03  0.10063958680E+03  0.62367452793E+03  0.91885752992E+02 0.  0.
         23    2    4    4    0    0 -0.25330177304E+03 -0.78032458960E+02 -0.56776365847E+02  0.28628456408E+03  0.92111036436E+02 0.  0.
          1    1    3    3  502    0  0.10248083297E+03  0.32184852149E+03  0.20299362933E+03  0.39407512667E+03  0.00000000000E+00 0. -1.
         -1    1    3    3    0  502  0.18002223936E+02  0.35011809829E+03  0.19915118171E+03  0.40319716764E+03  0.00000000000E+00 0.  1.
         11    1    5    5    0    0  0.68389819901E+02 -0.31919085488E+03  0.75577513618E+01  0.32652272343E+03  0.00000000000E+00 0.  1.
        -11    1    5    5    0    0  0.64428896237E+02 -0.27474330594E+03  0.93081835443E+02  0.29715180450E+03  0.00000000000E+00 0. -1.
          1    1    6    6  503    0 -0.90267873336E+02 -0.54588499373E+01  0.18997401252E+02  0.92406651566E+02  0.00000000000E+00 0. -1.
         -1    1    6    6    0  503 -0.16303389970E+03 -0.72573609022E+02 -0.75773767100E+02  0.19387791251E+03  0.00000000000E+00 0.  1.
<mgrwt>
<rscale>  0 0.78293643E+03</rscale>
<asrwt>0</asrwt>
<pdfrwt beam="1">  1        2 0.97017181E-01 0.78293643E+03</pdfrwt>
<pdfrwt beam="2">  1       -2 0.16563380E+00 0.78293643E+03</pdfrwt>
<totfact> 0.10826343E+01</totfact>
</mgrwt>
</event>
<event>
12    1  0.1432447E-007  0.6789113E+03  0.7818608E-02  0.9753992E-01
         -1   -1    0    0    0  501 -0.00000000000E+00  0.00000000000E+00  0.94062778417E+03  0.94062778417E+03  0.00000000000E+00 0.  1.
          1   -1    0    0  501    0  0.00000000000E+00 -0.00000000000E+00 -0.57227841686E+03  0.57227841686E+03  0.00000000000E+00 0. -1.
         23    2    1    2    0    0  0.42700178422E+03  0.42036372545E+03  0.25641775898E+03  0.65757300479E+03  0.87269720432E+02 0.  0.
    5000000    2    1    2    0    0 -0.42700178422E+03 -0.42036372545E+03  0.11193160833E+03  0.85533319624E+03  0.60002500468E+03 0.  0.
         23    2    4    4    0    0 -0.12653239132E+03  0.80415667281E+02 -0.12859950946E+03  0.21738292525E+03  0.90776520968E+02 0.  0.
         23    2    4    4    0    0 -0.30046939290E+03 -0.50077939274E+03  0.24053111779E+03  0.63795027099E+03  0.89796845017E+02 0.  0.
          1    1    3    3  502    0  0.22746883316E+03  0.17972537239E+03  0.90687684746E+02  0.30375571715E+03  0.00000000000E+00 0. -1.
         -1    1    3    3    0  502  0.19953295106E+03  0.24063835307E+03  0.16573007423E+03  0.35381728764E+03  0.00000000000E+00 0.  1.
         13    1    5    5    0    0  0.95607711453E+01  0.66379756002E+01 -0.34058664639E+02  0.35992550645E+02  0.00000000000E+00 0. -1.
        -13    1    5    5    0    0 -0.13609316246E+03  0.73777691681E+02 -0.94540844821E+02  0.18139037460E+03  0.00000000000E+00 0.  1.
          3    1    6    6  503    0 -0.27281023817E+02 -0.10134760774E+03  0.23302526185E+02  0.10751092774E+03  0.00000000000E+00 0. -1.
         -3    1    6    6    0  503 -0.27318836908E+03 -0.39943178499E+03  0.21722859160E+03  0.53043934325E+03  0.00000000000E+00 0.  1.
<mgrwt>
<rscale>  0 0.67891133E+03</rscale>
<asrwt>0</asrwt>
<pdfrwt beam="1">  1        1 0.88042834E-01 0.67891133E+03</pdfrwt>
<pdfrwt beam="2">  1       -1 0.14471197E+00 0.67891133E+03</pdfrwt>
<totfact> 0.14605212E+01</totfact>
</mgrwt>
</event>
<event>
12    1  0.1432447E-007  0.3953911E+03  0.7818608E-02  0.1045387E+00
          1   -1    0    0  501    0  0.00000000000E+00  0.00000000000E+00  0.11916115615E+04  0.11916115615E+04  0.00000000000E+00 0. -1.
         -1   -1    0    0    0  501 -0.00000000000E+00 -0.00000000000E+00 -0.27873806221E+03  0.27873806221E+03  0.00000000000E+00 0.  1.
         23    2    1    2    0    0  0.29590873408E+03  0.86073893834E+01  0.70457072833E+03  0.76960890356E+03  0.90784839958E+02 0.  0.
    5000000    2    1    2    0    0 -0.29590873408E+03 -0.86073893834E+01  0.20830277099E+03  0.70074072017E+03  0.60000953863E+03 0.  0.
         23    2    4    4    0    0 -0.38376005794E+02 -0.16029510283E+03  0.31752272478E+03  0.36902616712E+03  0.90511841537E+02 0.  0.
         23    2    4    4    0    0 -0.25753272828E+03  0.15168771344E+03 -0.10921995379E+03  0.33171455305E+03  0.93665777364E+02 0.  0.
          4    1    3    3  502    0  0.19368865481E+02  0.53366005933E+01  0.13453955297E+03  0.13603133304E+03  0.00000000000E+00 0. -1.
         -4    1    3    3    0  502  0.27653986860E+03  0.32707887901E+01  0.57003117537E+03  0.63357757052E+03  0.00000000000E+00 0.  1.
         13    1    5    5    0    0  0.16159567210E+02 -0.99553303585E+02  0.21879237280E+03  0.24091926918E+03  0.00000000000E+00 0.  1.
        -13    1    5    5    0    0 -0.54535573004E+02 -0.60741799242E+02  0.98730351975E+02  0.12810689794E+03  0.00000000000E+00 0. -1.
          3    1    6    6  503    0 -0.15360366416E+03  0.39264800365E+02 -0.72155247662E+02  0.17419009718E+03  0.00000000000E+00 0. -1.
         -3    1    6    6    0  503 -0.10392906412E+03  0.11242291308E+03 -0.37064706129E+02  0.15752445586E+03  0.00000000000E+00 0.  1.
<mgrwt>
<rscale>  0 0.39539107E+03</rscale>
<asrwt>0</asrwt>
<pdfrwt beam="1">  1        1 0.18332485E+00 0.39539107E+03</pdfrwt>
<pdfrwt beam="2">  1       -1 0.42882779E-01 0.39539107E+03</pdfrwt>
<totfact> 0.62352416E+01</totfact>
</mgrwt>
</event>
<event>
12    1  0.1432447E-007  0.1816938E+04  0.7818608E-02  0.8697344E-01
          2   -1    0    0  501    0  0.00000000000E+00  0.00000000000E+00  0.33815283307E+04  0.33815283307E+04  0.00000000000E+00 0. -1.
         -2   -1    0    0    0  501 -0.00000000000E+00 -0.00000000000E+00 -0.10471713390E+04  0.10471713390E+04  0.00000000000E+00 0.  1.
         23    2    1    2    0    0  0.80418385559E+03  0.15783465148E+04  0.58456981324E+03  0.18675548042E+04  0.90275609333E+02 0.  0.
    5000000    2    1    2    0    0 -0.80418385559E+03 -0.15783465148E+04  0.17497871784E+04  0.25611448655E+04  0.59984869605E+03 0.  0.
         23    2    4    4    0    0 -0.57549629791E+03 -0.52343702354E+03  0.65543304587E+03  0.10214061894E+04  0.92172770096E+02 0.  0.
         23    2    4    4    0    0 -0.22868755768E+03 -0.10549094912E+04  0.10943541326E+04  0.15397386762E+04  0.89733994011E+02 0.  0.
          3    1    3    3  502    0  0.32848487669E+03  0.74218351829E+03  0.25905120665E+03  0.85196608894E+03  0.00000000000E+00 0. -1.
         -3    1    3    3    0  502  0.47569897890E+03  0.83616299649E+03  0.32551860659E+03  0.10155887152E+04  0.00000000000E+00 0.  1.
         11    1    5    5    0    0 -0.42341328408E+03 -0.42057111842E+03  0.46209401907E+03  0.75477795228E+03  0.00000000000E+00 0.  1.
        -11    1    5    5    0    0 -0.15208301383E+03 -0.10286590512E+03  0.19333902680E+03  0.26662823709E+03  0.00000000000E+00 0. -1.
          2    1    6    6  503    0 -0.35381540032E+01 -0.53889442794E+01  0.20140331976E+02  0.21146920019E+02  0.00000000000E+00 0. -1.
         -2    1    6    6    0  503 -0.22514940367E+03 -0.10495205470E+04  0.10742138006E+04  0.15185917562E+04  0.00000000000E+00 0.  1.
<mgrwt>
<rscale>  0 0.18169376E+04</rscale>
<asrwt>0</asrwt>
<pdfrwt beam="1">  1        2 0.52023512E+00 0.18169376E+04</pdfrwt>
<pdfrwt beam="2">  1       -2 0.16110328E+00 0.18169376E+04</pdfrwt>
<totfact> 0.22239182E-01</totfact>
</mgrwt>
</event>
<event>
12    1  0.1432447E-007  0.1127489E+04  0.7818608E-02  0.9178806E-01
         -2   -1    0    0    0  501 -0.00000000000E+00  0.00000000000E+00  0.74249821407E+03  0.74249821407E+03  0.00000000000E+00 0.  1.
          2   -1    0    0  501    0  0.00000000000E+00 -0.00000000000E+00 -0.18952213895E+04  0.18952213895E+04  0.00000000000E+00 0. -1.
         23    2    1    2    0    0  0.14735287394E+03  0.10983503102E+04 -0.55476481022E+03  0.12427447372E+04  0.92543038298E+02 0.  0.
    5000000    2    1    2    0    0 -0.14735287394E+03 -0.10983503102E+04 -0.59795836522E+03  0.13949748663E+04  0.60026194099E+03 0.  0.
         23    2    4    4    0    0  0.37683036759E+02 -0.65920592628E+03 -0.61810193903E+03  0.90938240669E+03  0.94624996986E+02 0.  0.
         23    2    4    4    0    0 -0.18503591070E+03 -0.43914438391E+03  0.20143573814E+02  0.48559245965E+03  0.91149301295E+02 0.  0.
          3    1    3    3  502    0 -0.51338374085E+01  0.22313677781E+03 -0.97297526423E+02  0.24348138850E+03  0.00000000000E+00 0. -1.
         -3    1    3    3    0  502  0.15248671135E+03  0.87521353239E+03 -0.45746728380E+03  0.99926334875E+03  0.00000000000E+00 0.  1.
         13    1    5    5    0    0  0.59037375381E+02 -0.59636150767E+03 -0.53787949890E+03  0.80526195419E+03  0.00000000000E+00 0. -1.
        -13    1    5    5    0    0 -0.21354338622E+02 -0.62844418612E+02 -0.80222440131E+02  0.10412045250E+03  0.00000000000E+00 0.  1.
          2    1    6    6  503    0 -0.10744122362E+03 -0.29624347821E+03  0.53400640923E+02  0.31961765184E+03  0.00000000000E+00 0. -1.
         -2    1    6    6    0  503 -0.77594687083E+02 -0.14290090570E+03 -0.33257067109E+02  0.16597480781E+03  0.00000000000E+00 0.  1.
<mgrwt>
<rscale>  0 0.11274888E+04</rscale>
<asrwt>0</asrwt>
<pdfrwt beam="1">  1        2 0.29157252E+00 0.11274888E+04</pdfrwt>
<pdfrwt beam="2">  1       -2 0.11423050E+00 0.11274888E+04</pdfrwt>
<totfact> 0.45052804E+00</totfact>
</mgrwt>
</event>
<event>
12    1  0.1432447E-007  0.1003856E+04  0.7818608E-02  0.9304326E-01
         -2   -1    0    0    0  501 -0.00000000000E+00  0.00000000000E+00  0.57398241806E+03  0.57398241806E+03  0.00000000000E+00 0.  1.
          2   -1    0    0  501    0  0.00000000000E+00 -0.00000000000E+00 -0.19006092970E+04  0.19006092970E+04  0.00000000000E+00 0. -1.
         23    2    1    2    0    0 -0.28764667659E+03 -0.87786243972E+03 -0.90064339015E+03  0.12934796956E+04  0.92456113824E+02 0.  0.
    5000000    2    1    2    0    0  0.28764667659E+03  0.87786243972E+03 -0.42598348878E+03  0.11811120195E+04  0.60015047801E+03 0.  0.
         23    2    4    4    0    0 -0.10932967672E+03  0.55701900617E+03 -0.29537932530E+03  0.64635575626E+03  0.91124455455E+02 0.  0.
         23    2    4    4    0    0  0.39697635331E+03  0.32084343355E+03 -0.13060416348E+03  0.53475626324E+03  0.91520924461E+02 0.  0.
          2    1    3    3  502    0 -0.20210175776E+03 -0.48402216018E+03 -0.48164791806E+03  0.71211466002E+03  0.00000000000E+00 0. -1.
         -2    1    3    3    0  502 -0.85544918834E+02 -0.39384027954E+03 -0.41899547208E+03  0.58136503555E+03  0.00000000000E+00 0.  1.
         13    1    5    5    0    0 -0.70237659471E+02  0.34295896939E+03 -0.13155236059E+03  0.37397888586E+03  0.00000000000E+00 0.  1.
        -13    1    5    5    0    0 -0.39092017249E+02  0.21406003678E+03 -0.16382696471E+03  0.27237687039E+03  0.00000000000E+00 0. -1.
          4    1    6    6  503    0  0.25153343961E+03  0.17430190812E+03 -0.37649602085E+02  0.30833053523E+03  0.00000000000E+00 0. -1.
         -4    1    6    6    0  503  0.14544291370E+03  0.14654152543E+03 -0.92954561399E+02  0.22642572801E+03  0.00000000000E+00 0.  1.
<mgrwt>
<rscale>  0 0.10038558E+04</rscale>
<asrwt>0</asrwt>
<pdfrwt beam="1">  1        2 0.29240143E+00 0.10038558E+04</pdfrwt>
<pdfrwt beam="2">  1       -2 0.88304986E-01 0.10038558E+04</pdfrwt>
<totfact> 0.83758627E+00</totfact>
</mgrwt>
</event>
<event>
12    1  0.1432447E-007  0.3916959E+03  0.7818608E-02  0.1046694E+00
         -1   -1    0    0    0  501 -0.00000000000E+00  0.00000000000E+00  0.25355558090E+03  0.25355558090E+03  0.00000000000E+00 0.  1.
          1   -1    0    0  501    0  0.00000000000E+00 -0.00000000000E+00 -0.88906187353E+03  0.88906187353E+03  0.00000000000E+00 0. -1.
         23    2    1    2    0    0  0.13135291982E+02  0.22527220338E+03 -0.63813924702E+01  0.24438918786E+03  0.93622921672E+02 0.  0.
    5000000    2    1    2    0    0 -0.13135291982E+02 -0.22527220338E+03 -0.62912490015E+03  0.89822826657E+03  0.60007980917E+03 0.  0.
         23    2    4    4    0    0 -0.16902147589E+03  0.72850394011E+02 -0.33680348835E+02  0.20808120295E+03  0.91038354032E+02 0.  0.
         23    2    4    4    0    0  0.15588618390E+03 -0.29812259739E+03 -0.59544455132E+03  0.69014706362E+03  0.92580615306E+02 0.  0.
          4    1    3    3  502    0 -0.20541062190E+02  0.12915315631E+03  0.33520325141E+02  0.13500401926E+03  0.00000000000E+00 0. -1.
         -4    1    3    3    0  502  0.33676354172E+02  0.96119047069E+02 -0.39901717612E+02  0.10938516859E+03  0.00000000000E+00 0.  1.
         11    1    5    5    0    0 -0.75745942565E+02 -0.14862240946E+02 -0.15951513993E+02  0.78821220617E+02  0.00000000000E+00 0. -1.
        -11    1    5    5    0    0 -0.93275533321E+02  0.87712634957E+02 -0.17728834842E+02  0.12925998233E+03  0.00000000000E+00 0.  1.
          1    1    6    6  503    0  0.11006292987E+03 -0.12544167395E+03 -0.33570224721E+03  0.37489393284E+03  0.00000000000E+00 0. -1.
         -1    1    6    6    0  503  0.45823254032E+02 -0.17268092343E+03 -0.25974230410E+03  0.31525313078E+03  0.00000000000E+00 0.  1.
<mgrwt>
<rscale>  0 0.39169592E+03</rscale>
<asrwt>0</asrwt>
<pdfrwt beam="1">  1        1 0.13677875E+00 0.39169592E+03</pdfrwt>
<pdfrwt beam="2">  1       -1 0.39008551E-01 0.39169592E+03</pdfrwt>
<totfact> 0.12486227E+02</totfact>
</mgrwt>
</event>
<event>
12    1  0.1432447E-007  0.5766168E+03  0.7818608E-02  0.9955142E-01
         -2   -1    0    0    0  501 -0.00000000000E+00  0.00000000000E+00  0.11026973350E+03  0.11026973350E+03  0.00000000000E+00 0.  1.
          2   -1    0    0  501    0  0.00000000000E+00 -0.00000000000E+00 -0.33770811976E+04  0.33770811976E+04  0.00000000000E+00 0. -1.
         23    2    1    2    0    0 -0.44911584691E+03  0.64072264822E+02 -0.10843068425E+04  0.11788332248E+04  0.90089645346E+02 0.  0.
    5000000    2    1    2    0    0  0.44911584691E+03 -0.64072264822E+02 -0.21825046216E+04  0.23085177063E+04  0.60009772355E+03 0.  0.
         23    2    4    4    0    0  0.12710063536E+03 -0.26724750531E+03 -0.56456019359E+03  0.64396734827E+03  0.91596576610E+02 0.  0.
         23    2    4    4    0    0  0.32201521155E+03  0.20317524049E+03 -0.16179444281E+04  0.16645503580E+04  0.89497192028E+02 0.  0.
          3    1    3    3  502    0 -0.11760157415E+03  0.11422663405E+01 -0.19575566585E+03  0.22836750147E+03  0.00000000000E+00 0.  1.
         -3    1    3    3    0  502 -0.33151427276E+03  0.62929998481E+02 -0.88855117664E+03  0.95046572335E+03  0.00000000000E+00 0. -1.
         11    1    5    5    0    0 -0.64664147363E+00 -0.87515985155E+02 -0.19273581285E+03  0.21167559934E+03  0.00000000000E+00 0. -1.
        -11    1    5    5    0    0  0.12774727683E+03 -0.17973152016E+03 -0.37182438075E+03  0.43229174893E+03  0.00000000000E+00 0.  1.
          3    1    6    6  503    0  0.19418232110E+03  0.17004334100E+03 -0.11243062475E+04  0.11535536614E+04  0.00000000000E+00 0. -1.
         -3    1    6    6    0  503  0.12783289045E+03  0.33131899488E+02 -0.49363818058E+03  0.51099669663E+03  0.00000000000E+00 0.  1.
<mgrwt>
<rscale>  0 0.57661683E+03</rscale>
<asrwt>0</asrwt>
<pdfrwt beam="1">  1        2 0.51955089E+00 0.57661683E+03</pdfrwt>
<pdfrwt beam="2">  1       -2 0.16964576E-01 0.57661683E+03</pdfrwt>
<totfact> 0.31051247E+01</totfact>
</mgrwt>
</event>
<event>
12    1  0.1432447E-007  0.4205643E+03  0.7818608E-02  0.1036883E+00
          2   -1    0    0  501    0  0.00000000000E+00  0.00000000000E+00  0.14832619572E+04  0.14832619572E+04  0.00000000000E+00 0. -1.
         -2   -1    0    0    0  501 -0.00000000000E+00 -0.00000000000E+00 -0.23854592739E+03  0.23854592739E+03  0.00000000000E+00 0.  1.
         23    2    1    2    0    0 -0.39000180487E+03  0.65612001677E+02  0.19579271454E+03  0.45036992765E+03  0.89955222762E+02 0.  0.
    5000000    2    1    2    0    0  0.39000180487E+03 -0.65612001677E+02  0.10489233153E+04  0.12714379570E+04  0.59992334049E+03 0.  0.
         23    2    4    4    0    0  0.82660057560E+02 -0.24726718303E+02  0.91121073966E+03  0.91971762983E+03  0.90174335819E+02 0.  0.
         23    2    4    4    0    0  0.30734174731E+03 -0.40885283374E+02  0.13771257563E+03  0.35172032712E+03  0.92800210077E+02 0.  0.
          3    1    3    3  502    0 -0.24186609087E+03  0.83509298700E+02  0.11289100721E+03  0.27967371773E+03  0.00000000000E+00 0. -1.
         -3    1    3    3    0  502 -0.14813571400E+03 -0.17897297022E+02  0.82901707327E+02  0.17069620992E+03  0.00000000000E+00 0.  1.
         11    1    5    5    0    0  0.19261315118E+02 -0.51588597056E+02  0.35144216916E+03  0.35573020657E+03  0.00000000000E+00 0.  1.
        -11    1    5    5    0    0  0.63398742442E+02  0.26861878753E+02  0.55976857050E+03  0.56398742325E+03  0.00000000000E+00 0. -1.
          3    1    6    6  503    0  0.27215258404E+03 -0.24359282534E+02  0.14901673991E+03  0.31123366209E+03  0.00000000000E+00 0. -1.
         -3    1    6    6    0  503  0.35189163268E+02 -0.16526000840E+02 -0.11304164282E+02  0.40486665031E+02  0.00000000000E+00 0.  1.
<mgrwt>
<rscale>  0 0.42056435E+03</rscale>
<asrwt>0</asrwt>
<pdfrwt beam="1">  1        2 0.22819414E+00 0.42056435E+03</pdfrwt>
<pdfrwt beam="2">  1       -2 0.36699374E-01 0.42056435E+03</pdfrwt>
<totfact> 0.96142087E+01</totfact>
</mgrwt>
</event>
<event>
12    1  0.1432447E-007  0.4904960E+03  0.7818608E-02  0.1016290E+00
         -2   -1    0    0    0  501 -0.00000000000E+00  0.00000000000E+00  0.32141284692E+03  0.32141284692E+03  0.00000000000E+00 0.  1.
          2   -1    0    0  501    0  0.00000000000E+00 -0.00000000000E+00 -0.83521818422E+03  0.83521818422E+03  0.00000000000E+00 0. -1.
         23    2    1    2    0    0  0.32017575474E+03 -0.70473970485E+02 -0.88750606421E+02  0.35163568201E+03  0.91059806082E+02 0.  0.
    5000000    2    1    2    0    0 -0.32017575474E+03  0.70473970485E+02 -0.42505473089E+03  0.80499534913E+03  0.59988906760E+03 0.  0.
         23    2    4    4    0    0  0.16022808298E+03  0.45902499966E+02 -0.76611866902E+02  0.20460076096E+03  0.90620169700E+02 0.  0.
         23    2    4    4    0    0 -0.48040383772E+03  0.24571470519E+02 -0.34844286398E+03  0.60039458817E+03  0.87576409984E+02 0.  0.
          4    1    3    3  502    0  0.21232489024E+03 -0.38378345525E+02 -0.10139465663E+03  0.23840225002E+03  0.00000000000E+00 0.  1.
         -4    1    3    3    0  502  0.10785086450E+03 -0.32095624960E+02  0.12644050210E+02  0.11323343200E+03  0.00000000000E+00 0. -1.
         11    1    5    5    0    0  0.12106592672E+03  0.38918777420E+02 -0.96963223876E+02  0.15991715553E+03  0.00000000000E+00 0. -1.
        -11    1    5    5    0    0  0.39162156255E+02  0.69837225456E+01  0.20351356974E+02  0.44683605426E+02  0.00000000000E+00 0.  1.
          3    1    6    6  503    0 -0.33954752538E+03  0.48126395761E+02 -0.27628217143E+03  0.44038677343E+03  0.00000000000E+00 0. -1.
         -3    1    6    6    0  503 -0.14085631234E+03 -0.23554925242E+02 -0.72160692553E+02  0.16000781474E+03  0.00000000000E+00 0.  1.
<mgrwt>
<rscale>  0 0.49049597E+03</rscale>
<asrwt>0</asrwt>
<pdfrwt beam="1">  1        2 0.12849511E+00 0.49049597E+03</pdfrwt>
<pdfrwt beam="2">  1       -2 0.49448130E-01 0.49049597E+03</pdfrwt>
<totfact> 0.12982837E+02</totfact>
</mgrwt>
</event>
<event>
12    1  0.1432447E-007  0.6913627E+03  0.7818608E-02  0.9732118E-01
          1   -1    0    0  501    0  0.00000000000E+00  0.00000000000E+00  0.26334361043E+04  0.26334361043E+04  0.00000000000E+00 0. -1.
         -1   -1    0    0    0  501 -0.00000000000E+00 -0.00000000000E+00 -0.21106547963E+03  0.21106547963E+03  0.00000000000E+00 0.  1.
         23    2    1    2    0    0 -0.42983337970E+03 -0.41827362071E+03  0.71374416244E+03  0.93687142817E+03  0.92670315661E+02 0.  0.
    5000000    2    1    2    0    0  0.42983337970E+03  0.41827362071E+03  0.17086264622E+04  0.19076301557E+04  0.59994905418E+03 0.  0.
         23    2    4    4    0    0  0.47123875453E+03  0.47288217124E+03  0.16382914407E+04  0.17713985780E+04  0.90391182344E+02 0.  0.
         23    2    4    4    0    0 -0.41405374825E+02 -0.54608550523E+02  0.70335021470E+02  0.13623157769E+03  0.94422077191E+02 0.  0.
          1    1    3    3  502    0 -0.18928047091E+03 -0.12802264955E+03  0.30047162324E+03  0.37749184341E+03  0.00000000000E+00 0. -1.
         -1    1    3    3    0  502 -0.24055290880E+03 -0.29025097116E+03  0.41327253920E+03  0.55937958476E+03  0.00000000000E+00 0.  1.
         11    1    5    5    0    0  0.29260680158E+03  0.30538076725E+03  0.92124880805E+03  0.10136939971E+04  0.00000000000E+00 0.  1.
        -11    1    5    5    0    0  0.17863195295E+03  0.16750140399E+03  0.71704263266E+03  0.75770458096E+03  0.00000000000E+00 0. -1.
          3    1    6    6  503    0 -0.47417352883E+02  0.66386127518E+01  0.78318989597E+01  0.48516133142E+02  0.00000000000E+00 0. -1.
         -3    1    6    6    0  503  0.60119780583E+01 -0.61247163275E+02  0.62503122510E+02  0.87715444552E+02  0.00000000000E+00 0.  1.
<mgrwt>
<rscale>  0 0.69136267E+03</rscale>
<asrwt>0</asrwt>
<pdfrwt beam="1">  1        1 0.40514399E+00 0.69136267E+03</pdfrwt>
<pdfrwt beam="2">  1       -1 0.32471614E-01 0.69136267E+03</pdfrwt>
<totfact> 0.10338896E+01</totfact>
</mgrwt>
</event>
<event>
12    1  0.1432447E-007  0.1316853E+04  0.7818608E-02  0.9016306E-01
          2   -1    0    0  501    0  0.00000000000E+00  0.00000000000E+00  0.25714614722E+04  0.25714614722E+04  0.00000000000E+00 0. -1.
         -2   -1    0    0    0  501 -0.00000000000E+00 -0.00000000000E+00 -0.70674013130E+03  0.70674013130E+03  0.00000000000E+00 0.  1.
         23    2    1    2    0    0  0.53464520747E+03 -0.11620825201E+04  0.93369246847E+03  0.15861710787E+04  0.88745612887E+02 0.  0.
    5000000    2    1    2    0    0 -0.53464520747E+03  0.11620825201E+04  0.93102887241E+03  0.16920305248E+04  0.59989270239E+03 0.  0.
         23    2    4    4    0    0  0.34711594473E+02  0.94924666313E+02  0.28083449044E+03  0.31579070954E+03  0.10315121979E+03 0.  0.
         23    2    4    4    0    0 -0.56935680194E+03  0.10671578537E+04  0.65019438197E+03  0.13762398153E+04  0.91050766633E+02 0.  0.
          3    1    3    3  502    0  0.40453582141E+03 -0.83910524502E+03  0.72305235650E+03  0.11792164997E+04  0.00000000000E+00 0. -1.
         -3    1    3    3    0  502  0.13010938605E+03 -0.32297727505E+03  0.21064011198E+03  0.40695457893E+03  0.00000000000E+00 0.  1.
         11    1    5    5    0    0  0.46976352034E+02  0.11311126323E+03  0.23863665767E+03  0.26823197032E+03  0.00000000000E+00 0.  1.
        -11    1    5    5    0    0 -0.12264757562E+02 -0.18186596913E+02  0.42197832776E+02  0.47558739221E+02  0.00000000000E+00 0. -1.
          3    1    6    6  503    0 -0.28150246222E+03  0.52015760830E+03  0.26648186163E+03  0.64870652555E+03  0.00000000000E+00 0. -1.
         -3    1    6    6    0  503 -0.28785433971E+03  0.54700024545E+03  0.38371252034E+03  0.72753328974E+03  0.00000000000E+00 0.  1.
<mgrwt>
<rscale>  0 0.13168528E+04</rscale>
<asrwt>0</asrwt>
<pdfrwt beam="1">  1        2 0.39560945E+00 0.13168528E+04</pdfrwt>
<pdfrwt beam="2">  1       -2 0.10872925E+00 0.13168528E+04</pdfrwt>
<totfact> 0.20732518E+00</totfact>
</mgrwt>
</event>
<event>
12    1  0.1432447E-007  0.6351808E+03  0.7818608E-02  0.9834991E-01
         -2   -1    0    0    0  501 -0.00000000000E+00  0.00000000000E+00  0.43921339299E+03  0.43921339299E+03  0.00000000000E+00 0.  1.
          2   -1    0    0  501    0  0.00000000000E+00 -0.00000000000E+00 -0.12009515159E+04  0.12009515159E+04  0.00000000000E+00 0. -1.
         23    2    1    2    0    0  0.65886386908E+02  0.59401597966E+03 -0.33063773351E+03  0.68989116230E+03  0.97121083861E+02 0.  0.
    5000000    2    1    2    0    0 -0.65886386908E+02 -0.59401597966E+03 -0.43110038935E+03  0.95027374654E+03  0.59998053934E+03 0.  0.
         23    2    4    4    0    0 -0.15675569967E+03 -0.40919709206E+03  0.18919741151E+02  0.44723971171E+03  0.87468814987E+02 0.  0.
         23    2    4    4    0    0  0.90869312764E+02 -0.18481888760E+03 -0.45002013050E+03  0.50303403483E+03  0.90054811753E+02 0.  0.
          2    1    3    3  502    0 -0.22194481495E+02  0.11342967457E+03 -0.45722201789E+02  0.12429563877E+03  0.00000000000E+00 0. -1.
         -2    1    3    3    0  502  0.88080868403E+02  0.48058630509E+03 -0.28491553172E+03  0.56559552353E+03  0.00000000000E+00 0.  1.
         11    1    5    5    0    0 -0.11463603445E+03 -0.20290761117E+03 -0.16923607331E+02  0.23366499000E+03  0.00000000000E+00 0.  1.
        -11    1    5    5    0    0 -0.42119665220E+02 -0.20628948089E+03  0.35843348482E+02  0.21357472171E+03  0.00000000000E+00 0. -1.
          3    1    6    6  503    0  0.10099974581E+03 -0.18671971738E+03 -0.40987917118E+03  0.46159087564E+03  0.00000000000E+00 0. -1.
         -3    1    6    6    0  503 -0.10130433042E+02  0.19008297828E+01 -0.40140959326E+02  0.41443159184E+02  0.00000000000E+00 0.  1.
<mgrwt>
<rscale>  0 0.63518082E+03</rscale>
<asrwt>0</asrwt>
<pdfrwt beam="1">  1        2 0.18476177E+00 0.63518082E+03</pdfrwt>
<pdfrwt beam="2">  1       -2 0.67571292E-01 0.63518082E+03</pdfrwt>
<totfact> 0.39151236E+01</totfact>
</mgrwt>
</event>
<event>
12    1  0.1432447E-007  0.1164326E+04  0.7818608E-02  0.9144668E-01
         -2   -1    0    0    0  501 -0.00000000000E+00  0.00000000000E+00  0.60567442112E+03  0.60567442112E+03  0.00000000000E+00 0.  1.
          2   -1    0    0  501    0  0.00000000000E+00 -0.00000000000E+00 -0.27467251078E+04  0.27467251078E+04  0.00000000000E+00 0. -1.
         23    2    1    2    0    0  0.73945033776E+03  0.82184630680E+03 -0.34815007510E+03  0.11622491892E+04  0.86003191497E+02 0.  0.
    5000000    2    1    2    0    0 -0.73945033776E+03 -0.82184630680E+03 -0.17929006116E+04  0.21901503397E+04  0.60003979337E+03 0.  0.
         23    2    4    4    0    0  0.69234921727E+02 -0.33719992235E+02 -0.25933349145E+03  0.28344887580E+03  0.84610242529E+02 0.  0.
         23    2    4    4    0    0 -0.80868525949E+03 -0.78812631457E+03 -0.15335671201E+04  0.19067014639E+04  0.92560380407E+02 0.  0.
          3    1    3    3  502    0  0.52567815497E+03  0.56172559686E+03 -0.28019027000E+03  0.81876721733E+03  0.00000000000E+00 0. -1.
         -3    1    3    3    0  502  0.21377218279E+03  0.26012070994E+03 -0.67959805097E+02  0.34348197185E+03  0.00000000000E+00 0.  1.
         11    1    5    5    0    0  0.46222330280E+02  0.46404026132E+01 -0.45639662586E+02  0.65123083111E+02  0.00000000000E+00 0.  1.
        -11    1    5    5    0    0  0.23012591447E+02 -0.38360394848E+02 -0.21369382886E+03  0.21832579269E+03  0.00000000000E+00 0. -1.
          2    1    6    6  503    0 -0.48458453464E+03 -0.52015309416E+03 -0.10113467578E+04  0.12362053540E+04  0.00000000000E+00 0. -1.
         -2    1    6    6    0  503 -0.32410072484E+03 -0.26797322041E+03 -0.52222036228E+03  0.67049610996E+03  0.00000000000E+00 0.  1.
<mgrwt>
<rscale>  0 0.11643257E+04</rscale>
<asrwt>0</asrwt>
<pdfrwt beam="1">  1        2 0.42257309E+00 0.11643257E+04</pdfrwt>
<pdfrwt beam="2">  1       -2 0.93180680E-01 0.11643257E+04</pdfrwt>
<totfact> 0.24081766E+00</totfact>
</mgrwt>
</event>
<event>
12    1  0.1432447E-007  0.8064179E+03  0.7818608E-02  0.9550774E-01
         -1   -1    0    0    0  501 -0.00000000000E+00  0.00000000000E+00  0.24701172062E+04  0.24701172062E+04  0.00000000000E+00 0.  1.
          1   -1    0    0  501    0  0.00000000000E+00 -0.00000000000E+00 -0.26958310671E+03  0.26958310671E+03  0.00000000000E+00 0. -1.
         23    2    1    2    0    0  0.16321340657E+03  0.68274681955E+03  0.99238264837E+03  0.12190285870E+04  0.91790737370E+02 0.  0.
    5000000    2    1    2    0    0 -0.16321340657E+03 -0.68274681955E+03  0.12081514511E+04  0.15206717259E+04  0.60002561062E+03 0.  0.
         23    2    4    4    0    0  0.17447737394E+03 -0.71354335999E+02  0.37159566708E+03  0.42709491172E+03  0.93770616616E+02 0.  0.
         23    2    4    4    0    0 -0.33769078051E+03 -0.61139248355E+03  0.83655578401E+03  0.10935768142E+04  0.90823105541E+02 0.  0.
          1    1    3    3  502    0  0.10974770777E+03  0.29612555400E+03  0.48792079850E+03  0.58120702740E+03  0.00000000000E+00 0. -1.
         -1    1    3    3    0  502  0.53465698798E+02  0.38662126555E+03  0.50446184988E+03  0.63782155961E+03  0.00000000000E+00 0.  1.
         11    1    5    5    0    0  0.13582735006E+03 -0.11253165472E+02  0.27522465289E+03  0.30712263400E+03  0.00000000000E+00 0. -1.
        -11    1    5    5    0    0  0.38650023881E+02 -0.60101170528E+02  0.96371014190E+02  0.11997227772E+03  0.00000000000E+00 0.  1.
          1    1    6    6  503    0 -0.21581143009E+03 -0.36332330271E+03  0.57026676012E+03  0.70977642490E+03  0.00000000000E+00 0. -1.
         -1    1    6    6    0  503 -0.12187935043E+03 -0.24806918084E+03  0.26628902389E+03  0.38380038925E+03  0.00000000000E+00 0.  1.
<mgrwt>
<rscale>  0 0.80641790E+03</rscale>
<asrwt>0</asrwt>
<pdfrwt beam="1">  1        1 0.41474326E-01 0.80641790E+03</pdfrwt>
<pdfrwt beam="2">  1       -1 0.38001802E+00 0.80641790E+03</pdfrwt>
<totfact> 0.10393075E+00</totfact>
</mgrwt>
</event>
<event>
12    1  0.1432447E-007  0.1253636E+04  0.7818608E-02  0.9067163E-01
          1   -1    0    0  501    0  0.00000000000E+00  0.00000000000E+00  0.24431152647E+04  0.24431152647E+04  0.00000000000E+00 0. -1.
         -1   -1    0    0    0  501 -0.00000000000E+00 -0.00000000000E+00 -0.74783664568E+03  0.74783664568E+03  0.00000000000E+00 0.  1.
         23    2    1    2    0    0  0.52094729403E+03 -0.11036386099E+04  0.33820013366E+03  0.12697839851E+04  0.92562269933E+02 0.  0.
    5000000    2    1    2    0    0 -0.52094729403E+03  0.11036386099E+04  0.13570784853E+04  0.19211679253E+04  0.59984991226E+03 0.  0.
         23    2    4    4    0    0 -0.35738684810E+03  0.33502912223E+03  0.83409844595E+03  0.97275545007E+03  0.10277682699E+03 0.  0.
         23    2    4    4    0    0 -0.16356044594E+03  0.76860948771E+03  0.52298003937E+03  0.94841247520E+03  0.92008355384E+02 0.  0.
          1    1    3    3  502    0  0.44196597406E+03 -0.86612286065E+03  0.29186537791E+03  0.10152281176E+04  0.00000000000E+00 0. -1.
         -1    1    3    3    0  502  0.78981319972E+02 -0.23751574929E+03  0.46334755747E+02  0.25455586745E+03  0.00000000000E+00 0.  1.
         11    1    5    5    0    0 -0.10049120178E+02  0.29646728254E+02  0.10298684314E+03  0.10763922692E+03  0.00000000000E+00 0. -1.
        -11    1    5    5    0    0 -0.34733772792E+03  0.30538239398E+03  0.73111160281E+03  0.86511622315E+03  0.00000000000E+00 0.  1.
          4    1    6    6  503    0 -0.15082416305E+03  0.76133752875E+03  0.50899949545E+03  0.92815044428E+03  0.00000000000E+00 0.  1.
         -4    1    6    6    0  503 -0.12736282889E+02  0.72719589648E+01  0.13980543911E+02  0.20262030921E+02  0.00000000000E+00 0. -1.
<mgrwt>
<rscale>  0 0.12536356E+04</rscale>
<asrwt>0</asrwt>
<pdfrwt beam="1">  1        1 0.37586388E+00 0.12536356E+04</pdfrwt>
<pdfrwt beam="2">  1       -1 0.11505179E+00 0.12536356E+04</pdfrwt>
<totfact> 0.99840187E-01</totfact>
</mgrwt>
</event>
<event>
12    1  0.1432447E-007  0.1056914E+04  0.7818608E-02  0.9248235E-01
          2   -1    0    0  501    0  0.00000000000E+00  0.00000000000E+00  0.65054491771E+03  0.65054491771E+03  0.00000000000E+00 0. -1.
         -2   -1    0    0    0  501 -0.00000000000E+00 -0.00000000000E+00 -0.20695024176E+04  0.20695024176E+04  0.00000000000E+00 0.  1.
         23    2    1    2    0    0  0.36216419675E+03  0.91448010064E+03 -0.11881345858E+04  0.15449885999E+04  0.88821280804E+02 0.  0.
    5000000    2    1    2    0    0 -0.36216419675E+03 -0.91448010064E+03 -0.23082291408E+03  0.11750587354E+04  0.60003921051E+03 0.  0.
         23    2    4    4    0    0 -0.37546534535E+03 -0.23797631252E+03  0.17777934587E+01  0.45337015911E+03  0.89075191528E+02 0.  0.
         23    2    4    4    0    0  0.13301148603E+02 -0.67650378812E+03 -0.23260070754E+03  0.72168857630E+03  0.94323995505E+02 0.  0.
          1    1    3    3  502    0  0.28797330433E+03  0.69073670329E+03 -0.84579980371E+03  0.11293463265E+04  0.00000000000E+00 0. -1.
         -1    1    3    3    0  502  0.74190892424E+02  0.22374339734E+03 -0.34233478207E+03  0.41564227334E+03  0.00000000000E+00 0.  1.
         11    1    5    5    0    0 -0.32093012581E+03 -0.16226345973E+03  0.94841921206E+01  0.35974369475E+03  0.00000000000E+00 0.  1.
        -11    1    5    5    0    0 -0.54535219542E+02 -0.75712852792E+02 -0.77063986619E+01  0.93626464361E+02  0.00000000000E+00 0. -1.
          3    1    6    6  503    0 -0.63284879504E+00 -0.36386275232E+03 -0.75890108457E+02  0.37169316860E+03  0.00000000000E+00 0. -1.
         -3    1    6    6    0  503  0.13933997398E+02 -0.31264103580E+03 -0.15671059908E+03  0.34999540771E+03  0.00000000000E+00 0.  1.
<mgrwt>
<rscale>  0 0.10569137E+04</rscale>
<asrwt>0</asrwt>
<pdfrwt beam="1">  1        2 0.10008383E+00 0.10569137E+04</pdfrwt>
<pdfrwt beam="2">  1       -2 0.31838499E+00 0.10569137E+04</pdfrwt>
<totfact> 0.11016831E+00</totfact>
</mgrwt>
</event>
<event>
12    1  0.1432447E-007  0.8288373E+03  0.7818608E-02  0.9519189E-01
         -2   -1    0    0    0  501 -0.00000000000E+00  0.00000000000E+00  0.14794256267E+04  0.14794256267E+04  0.00000000000E+00 0. -1.
          2   -1    0    0  501    0  0.00000000000E+00 -0.00000000000E+00 -0.65299817669E+03  0.65299817669E+03  0.00000000000E+00 0.  1.
         23    2    1    2    0    0 -0.48155381874E+02  0.80831748895E+03  0.77319199818E+03  0.11232909549E+04  0.90887839962E+02 0.  0.
    5000000    2    1    2    0    0  0.48155381874E+02 -0.80831748895E+03  0.53235451785E+02  0.10091328485E+04  0.59984913838E+03 0.  0.
         23    2    4    4    0    0  0.13289999765E+03 -0.43868093164E+03  0.29069640536E+03  0.55145869501E+03  0.97462418689E+02 0.  0.
         23    2    4    4    0    0 -0.84744615773E+02 -0.36963655732E+03 -0.23746095357E+03  0.45767415348E+03  0.96255347285E+02 0.  0.
          3    1    3    3  502    0 -0.23773008567E+02  0.59772523328E+03  0.62147826502E+03  0.86259830995E+03  0.00000000000E+00 0. -1.
         -3    1    3    3    0  502 -0.24382373306E+02  0.21059225567E+03  0.15171373317E+03  0.26069264491E+03  0.00000000000E+00 0.  1.
         11    1    5    5    0    0  0.13677844927E+03 -0.31778231177E+03  0.19437247505E+03  0.39683069553E+03  0.00000000000E+00 0. -1.
        -11    1    5    5    0    0 -0.38784516232E+01 -0.12089861987E+03  0.96323930306E+02  0.15462799948E+03  0.00000000000E+00 0.  1.
          1    1    6    6  503    0 -0.22522644309E+02 -0.16875626308E+03 -0.54031459977E+02  0.17862067210E+03  0.00000000000E+00 0. -1.
         -1    1    6    6    0  503 -0.62221971463E+02 -0.20088029424E+03 -0.18342949360E+03  0.27905348137E+03  0.00000000000E+00 0.  1.
<mgrwt>
<rscale>  0 0.82883726E+03</rscale>
<asrwt>0</asrwt>
<pdfrwt beam="1">  1        2 0.10046126E+00 0.82883726E+03</pdfrwt>
<pdfrwt beam="2">  1       -2 0.22760394E+00 0.82883726E+03</pdfrwt>
<totfact> 0.40168688E+00</totfact>
</mgrwt>
</event>
<event>
12    1  0.1432447E-007  0.1355745E+04  0.7818608E-02  0.8986490E-01
          2   -1    0    0  501    0  0.00000000000E+00  0.00000000000E+00  0.22175843281E+04  0.22175843281E+04  0.00000000000E+00 0. -1.
         -2   -1    0    0    0  501 -0.00000000000E+00 -0.00000000000E+00 -0.85464372915E+03  0.85464372915E+03  0.00000000000E+00 0.  1.
         23    2    1    2    0    0 -0.10443827757E+04 -0.78018960497E+03  0.51028747155E+03  0.14029430110E+04  0.91785547547E+02 0.  0.
    5000000    2    1    2    0    0  0.10443827757E+04  0.78018960497E+03  0.85265312745E+03  0.16692850463E+04  0.60005333767E+03 0.  0.
         23    2    4    4    0    0  0.99815423838E+03  0.49458337471E+03  0.57063458333E+03  0.12548091188E+04  0.89428735734E+02 0.  0.
         23    2    4    4    0    0  0.46228537297E+02  0.28560623026E+03  0.28201854411E+03  0.41447592746E+03  0.92454522829E+02 0.  0.
          4    1    3    3  502    0 -0.20800857916E+03 -0.18747828321E+03  0.13944842238E+03  0.31282828865E+03  0.00000000000E+00 0.  1.
         -4    1    3    3    0  502 -0.83637419652E+03 -0.59271132177E+03  0.37083904917E+03  0.10901147224E+04  0.00000000000E+00 0. -1.
         11    1    5    5    0    0  0.29632581442E+03  0.17193028775E+03  0.13697193996E+03  0.36895843191E+03  0.00000000000E+00 0. -1.
        -11    1    5    5    0    0  0.70182842396E+03  0.32265308696E+03  0.43366264337E+03  0.88585068689E+03  0.00000000000E+00 0.  1.
          3    1    6    6  503    0 -0.56091588313E+01  0.26194317964E+02 -0.13434556603E+01  0.26821816298E+02  0.00000000000E+00 0. -1.
         -3    1    6    6    0  503  0.51837696129E+02  0.25941191230E+03  0.28336199978E+03  0.38765411116E+03  0.00000000000E+00 0.  1.
<mgrwt>
<rscale>  0 0.13557453E+04</rscale>
<asrwt>0</asrwt>
<pdfrwt beam="1">  1        2 0.34116682E+00 0.13557453E+04</pdfrwt>
<pdfrwt beam="2">  1       -2 0.13148365E+00 0.13557453E+04</pdfrwt>
<totfact> 0.20455035E+00</totfact>
</mgrwt>
</event>
<event>
12    1  0.1432447E-007  0.1160615E+04  0.7818608E-02  0.9148046E-01
         -2   -1    0    0    0  501 -0.00000000000E+00  0.00000000000E+00  0.49353326009E+03  0.49353326009E+03  0.00000000000E+00 0.  1.
          2   -1    0    0  501    0  0.00000000000E+00 -0.00000000000E+00 -0.30911530409E+04  0.30911530409E+04  0.00000000000E+00 0. -1.
         23    2    1    2    0    0 -0.91480573534E+03  0.62710666306E+03 -0.72696213897E+03  0.13287052179E+04  0.82772605556E+02 0.  0.
    5000000    2    1    2    0    0  0.91480573534E+03 -0.62710666306E+03 -0.18706576419E+04  0.22559810832E+04  0.59996527746E+03 0.  0.
         23    2    4    4    0    0  0.16575122080E+03  0.75590735784E+02 -0.16319223379E+03  0.26131924759E+03  0.92025091447E+02 0.  0.
         23    2    4    4    0    0  0.74905451454E+03 -0.70269739884E+03 -0.17074654081E+04  0.19946618356E+04  0.91495455426E+02 0.  0.
          4    1    3    3  502    0 -0.30405443400E+03  0.23540741487E+03 -0.29106769160E+03  0.48227186410E+03  0.00000000000E+00 0. -1.
         -4    1    3    3    0  502 -0.61075130134E+03  0.39169924819E+03 -0.43589444737E+03  0.84643335377E+03  0.00000000000E+00 0.  1.
         11    1    5    5    0    0  0.94948348723E+02  0.53293228059E+02 -0.37155564034E+02  0.11504735121E+03  0.00000000000E+00 0. -1.
        -11    1    5    5    0    0  0.70802872075E+02  0.22297507726E+02 -0.12603666976E+03  0.14627189637E+03  0.00000000000E+00 0.  1.
          3    1    6    6  503    0  0.42253343673E+03 -0.36617674848E+03 -0.10053835912E+04  0.11503982275E+04  0.00000000000E+00 0. -1.
         -3    1    6    6    0  503  0.32652107782E+03 -0.33652065036E+03 -0.70208181686E+03  0.84426360809E+03  0.00000000000E+00 0.  1.
<mgrwt>
<rscale>  0 0.11606154E+04</rscale>
<asrwt>0</asrwt>
<pdfrwt beam="1">  1        2 0.47556200E+00 0.11606154E+04</pdfrwt>
<pdfrwt beam="2">  1       -2 0.75928195E-01 0.11606154E+04</pdfrwt>
<totfact> 0.23707702E+00</totfact>
</mgrwt>
</event>
<event>
12    1  0.1432447E-007  0.6634945E+03  0.7818608E-02  0.9781782E-01
         -2   -1    0    0    0  501 -0.00000000000E+00  0.00000000000E+00  0.63788218332E+03  0.63788218332E+03  0.00000000000E+00 0.  1.
          2   -1    0    0  501    0  0.00000000000E+00 -0.00000000000E+00 -0.84656690149E+03  0.84656690149E+03  0.00000000000E+00 0. -1.
         23    2    1    2    0    0 -0.31809121008E+03 -0.46848464957E+03  0.13733654792E+03  0.58973105541E+03  0.90892824294E+02 0.  0.
    5000000    2    1    2    0    0  0.31809121008E+03  0.46848464957E+03 -0.34602126610E+03  0.89471802940E+03  0.60010811587E+03 0.  0.
         23    2    4    4    0    0  0.35576771939E+03  0.52929243288E+03 -0.40953733983E+03  0.76299375186E+03  0.87849206020E+02 0.  0.
         23    2    4    4    0    0 -0.37676509311E+02 -0.60807783310E+02  0.63516073729E+02  0.13172427754E+03  0.90553231899E+02 0.  0.
          4    1    3    3  502    0 -0.18354686233E+02 -0.78322359101E+02  0.32008099921E+02  0.86578316583E+02  0.00000000000E+00 0. -1.
         -4    1    3    3    0  502 -0.29973652384E+03 -0.39016229047E+03  0.10532844800E+03  0.50315273883E+03  0.00000000000E+00 0.  1.
         13    1    5    5    0    0  0.45395810885E+01  0.45531211303E+02 -0.24401867311E+02  0.51857016184E+02  0.00000000000E+00 0.  1.
        -13    1    5    5    0    0  0.35122813830E+03  0.48376122158E+03 -0.38513547252E+03  0.71113673567E+03  0.00000000000E+00 0. -1.
          2    1    6    6  503    0  0.26833557248E+02 -0.27269113750E+02  0.53844402821E+01  0.38634654864E+02  0.00000000000E+00 0. -1.
         -2    1    6    6    0  503 -0.64510066559E+02 -0.33538669560E+02  0.58131633447E+02  0.93089622679E+02  0.00000000000E+00 0.  1.
<mgrwt>
<rscale>  0 0.66349446E+03</rscale>
<asrwt>0</asrwt>
<pdfrwt beam="1">  1        2 0.13024106E+00 0.66349446E+03</pdfrwt>
<pdfrwt beam="2">  1       -2 0.98135721E-01 0.66349446E+03</pdfrwt>
<totfact> 0.28202370E+01</totfact>
</mgrwt>
</event>
<event>
12    1  0.1432447E-007  0.6390455E+03  0.7818608E-02  0.9827554E-01
          3   -1    0    0  501    0  0.00000000000E+00  0.00000000000E+00  0.43959737802E+03  0.43959737802E+03  0.00000000000E+00 0. -1.
         -3   -1    0    0    0  501 -0.00000000000E+00 -0.00000000000E+00 -0.97629605853E+03  0.97629605853E+03  0.00000000000E+00 0.  1.
         23    2    1    2    0    0 -0.24761779362E+03  0.43967306187E+03 -0.31516493344E+03  0.60163675165E+03  0.89503478246E+02 0.  0.
    5000000    2    1    2    0    0  0.24761779362E+03 -0.43967306187E+03 -0.22153374706E+03  0.81425668490E+03  0.59942453633E+03 0.  0.
         23    2    4    4    0    0  0.25575895838E+03  0.51163915114E+02 -0.23919386672E+02  0.27700733124E+03  0.90169470993E+02 0.  0.
         23    2    4    4    0    0 -0.81411647645E+01 -0.49083697699E+03 -0.19761436039E+03  0.53724935366E+03  0.92726565947E+02 0.  0.
          3    1    3    3  502    0 -0.14418173935E+03  0.26785314106E+03 -0.13797339785E+03  0.33402146286E+03  0.00000000000E+00 0. -1.
         -3    1    3    3    0  502 -0.10343605427E+03  0.17181992081E+03 -0.17719153559E+03  0.26761528879E+03  0.00000000000E+00 0.  1.
         13    1    5    5    0    0  0.51260621142E+02 -0.25695037009E+02 -0.89019616963E+01  0.58026986211E+02  0.00000000000E+00 0.  1.
        -13    1    5    5    0    0  0.20449833724E+03  0.76858952124E+02 -0.15017424976E+02  0.21898034503E+03  0.00000000000E+00 0. -1.
          1    1    6    6  503    0  0.36622056821E+02 -0.21634082633E+03 -0.63134572830E+02  0.22832105130E+03  0.00000000000E+00 0. -1.
         -1    1    6    6    0  503 -0.44763221586E+02 -0.27449615066E+03 -0.13447978756E+03  0.30892830235E+03  0.00000000000E+00 0.  1.
<mgrwt>
<rscale>  0 0.63904553E+03</rscale>
<asrwt>0</asrwt>
<pdfrwt beam="1">  1        3 0.67630367E-01 0.63904553E+03</pdfrwt>
<pdfrwt beam="2">  1       -3 0.15019939E+00 0.63904553E+03</pdfrwt>
<totfact> 0.17671804E+00</totfact>
</mgrwt>
</event>
<event>
12    1  0.1432447E-007  0.8805087E+03  0.7818608E-02  0.9450280E-01
          1   -1    0    0  501    0  0.00000000000E+00  0.00000000000E+00  0.44575129866E+04  0.44575129866E+04  0.00000000000E+00 0. -1.
         -1   -1    0    0    0  501 -0.00000000000E+00 -0.00000000000E+00 -0.27165185001E+03  0.27165185001E+03  0.00000000000E+00 0.  1.
         23    2    1    2    0    0  0.71406186113E+03 -0.45381571568E+03  0.73034537235E+03  0.11213732676E+04  0.90777733891E+02 0.  0.
    5000000    2    1    2    0    0 -0.71406186113E+03  0.45381571568E+03  0.34555157642E+04  0.36077915690E+04  0.59978142970E+03 0.  0.
         23    2    4    4    0    0 -0.76255436481E+02  0.21475514261E+03  0.17836704195E+04  0.18004476283E+04  0.90536368787E+02 0.  0.
         23    2    4    4    0    0 -0.63780642465E+03  0.23906057307E+03  0.16718453447E+04  0.18073439407E+04  0.86476993442E+02 0.  0.
          2    1    3    3  502    0  0.39612244286E+03 -0.24366340477E+03  0.45983708603E+03  0.65401451838E+03  0.00000000000E+00 0. -1.
         -2    1    3    3    0  502  0.31793941827E+03 -0.21015231091E+03  0.27050828632E+03  0.46735874918E+03  0.00000000000E+00 0.  1.
         11    1    5    5    0    0  0.63996598818E+01  0.15959238048E+02  0.37747736124E+03  0.37786877507E+03  0.00000000000E+00 0. -1.
        -11    1    5    5    0    0 -0.82655096363E+02  0.19879590456E+03  0.14061930583E+04  0.14225788532E+04  0.00000000000E+00 0.  1.
          2    1    6    6  503    0 -0.40628404125E+03  0.17301847036E+03  0.98284564507E+03  0.10774913806E+04  0.00000000000E+00 0. -1.
         -2    1    6    6    0  503 -0.23152238339E+03  0.66042102710E+02  0.68899969967E+03  0.72985256010E+03  0.00000000000E+00 0.  1.
<mgrwt>
<rscale>  0 0.88050866E+03</rscale>
<asrwt>0</asrwt>
<pdfrwt beam="1">  1        1 0.68577118E+00 0.88050866E+03</pdfrwt>
<pdfrwt beam="2">  1       -1 0.41792595E-01 0.88050866E+03</pdfrwt>
<totfact> 0.21959039E-01</totfact>
</mgrwt>
</event>
<event>
12    1  0.1432447E-007  0.6665181E+03  0.7818608E-02  0.9776269E-01
          1   -1    0    0  501    0  0.00000000000E+00  0.00000000000E+00  0.19824414537E+04  0.19824414537E+04  0.00000000000E+00 0.  1.
         -1   -1    0    0    0  501 -0.00000000000E+00 -0.00000000000E+00 -0.25292495236E+03  0.25292495236E+03  0.00000000000E+00 0. -1.
         23    2    1    2    0    0 -0.55164909390E+03 -0.96831487243E+02  0.93183843259E+03  0.10908100128E+04  0.88603385187E+02 0.  0.
    5000000    2    1    2    0    0  0.55164909390E+03  0.96831487243E+02  0.79767806873E+03  0.11445563932E+04  0.60002164646E+03 0.  0.
         23    2    4    4    0    0  0.27251637813E+03  0.30504739282E+03  0.60542667080E+03  0.73647126411E+03  0.92354647599E+02 0.  0.
         23    2    4    4    0    0  0.27913271576E+03 -0.20821590557E+03  0.19225139794E+03  0.40808512912E+03  0.91125936239E+02 0.  0.
          3    1    3    3  502    0 -0.30285449973E+03 -0.85137137467E+01  0.48946132502E+03  0.57564374401E+03  0.00000000000E+00 0. -1.
         -3    1    3    3    0  502 -0.24879459417E+03 -0.88317773496E+02  0.44237710757E+03  0.51516626879E+03  0.00000000000E+00 0.  1.
         11    1    5    5    0    0  0.61263256982E+01  0.17456329011E+02  0.45894869344E+01  0.19060920214E+02  0.00000000000E+00 0.  1.
        -11    1    5    5    0    0  0.26639005244E+03  0.28759106381E+03  0.60083718386E+03  0.71741034390E+03  0.00000000000E+00 0. -1.
          4    1    6    6  503    0  0.12290747588E+03 -0.13639544526E+03  0.13104824388E+03  0.22557395093E+03  0.00000000000E+00 0. -1.
         -4    1    6    6    0  503  0.15622523989E+03 -0.71820460312E+02  0.61203154060E+02  0.18251117819E+03  0.00000000000E+00 0.  1.
<mgrwt>
<rscale>  0 0.66651808E+03</rscale>
<asrwt>0</asrwt>
<pdfrwt beam="1">  1        1 0.30499098E+00 0.66651808E+03</pdfrwt>
<pdfrwt beam="2">  1       -1 0.38911532E-01 0.66651808E+03</pdfrwt>
<totfact> 0.20669720E+01</totfact>
</mgrwt>
</event>
<event>
12    1  0.1432447E-007  0.1066928E+04  0.7818608E-02  0.9238039E-01
         -2   -1    0    0    0  501 -0.00000000000E+00  0.00000000000E+00  0.19795862708E+04  0.19795862708E+04  0.00000000000E+00 0.  1.
          2   -1    0    0  501    0  0.00000000000E+00 -0.00000000000E+00 -0.71085828497E+03  0.71085828497E+03  0.00000000000E+00 0. -1.
         23    2    1    2    0    0  0.39359880819E+03 -0.95396693582E+03  0.13622810321E+03  0.10449281512E+04  0.91344450947E+02 0.  0.
    5000000    2    1    2    0    0 -0.39359880819E+03  0.95396693582E+03  0.11324998826E+04  0.16455164045E+04  0.60016274207E+03 0.  0.
         23    2    4    4    0    0 -0.32738976326E+03  0.31578108601E+03  0.18872129429E+03  0.50060809998E+03  0.89949938748E+02 0.  0.
         23    2    4    4    0    0 -0.66209044935E+02  0.63818584980E+03  0.94377858831E+03  0.11449083045E+04  0.91826932306E+02 0.  0.
          4    1    3    3  502    0  0.75908787233E+02 -0.13778300766E+03 -0.69807761456E+01  0.15746438459E+03  0.00000000000E+00 0.  1.
         -4    1    3    3    0  502  0.31769002096E+03 -0.81618392816E+03  0.14320887935E+03  0.88746376665E+03  0.00000000000E+00 0. -1.
         13    1    5    5    0    0 -0.24415372468E+03  0.20914757909E+03  0.17112652283E+03  0.36419505478E+03  0.00000000000E+00 0. -1.
        -13    1    5    5    0    0 -0.83236038583E+02  0.10663350693E+03  0.17594771456E+02  0.13641304520E+03  0.00000000000E+00 0.  1.
          2    1    6    6  503    0 -0.44604492169E+02  0.18683536677E+03  0.34355650336E+03  0.39360905223E+03  0.00000000000E+00 0.  1.
         -2    1    6    6    0  503 -0.21604552766E+02  0.45135048303E+03  0.60022208495E+03  0.75129925229E+03  0.00000000000E+00 0. -1.
<mgrwt>
<rscale>  0 0.10669280E+04</rscale>
<asrwt>0</asrwt>
<pdfrwt beam="1">  1        2 0.10936281E+00 0.10669280E+04</pdfrwt>
<pdfrwt beam="2">  1       -2 0.30455173E+00 0.10669280E+04</pdfrwt>
<totfact> 0.11944291E+00</totfact>
</mgrwt>
</event>
<event>
12    1  0.1432447E-007  0.7876339E+03  0.7818608E-02  0.9578091E-01
         -2   -1    0    0    0  501 -0.00000000000E+00  0.00000000000E+00  0.92378294739E+03  0.92378294739E+03  0.00000000000E+00 0.  1.
          2   -1    0    0  501    0  0.00000000000E+00 -0.00000000000E+00 -0.12605262338E+04  0.12605262338E+04  0.00000000000E+00 0. -1.
         23    2    1    2    0    0  0.67615932655E+03  0.39764615801E+03  0.46177547885E+03  0.91436760865E+03  0.86704261909E+02 0.  0.
    5000000    2    1    2    0    0 -0.67615932655E+03 -0.39764615801E+03 -0.79851876526E+03  0.12699415725E+04  0.59983787585E+03 0.  0.
         23    2    4    4    0    0 -0.37163945777E+03 -0.22077699118E+03 -0.58865264258E+02  0.44607283159E+03  0.93045608916E+02 0.  0.
         23    2    4    4    0    0 -0.30451986878E+03 -0.17686916683E+03 -0.73965350100E+03  0.82386874094E+03  0.87506274636E+02 0.  0.
          2    1    3    3  502    0  0.14495668115E+03  0.12044363133E+03  0.86501788919E+02  0.20736843353E+03  0.00000000000E+00 0. -1.
         -2    1    3    3    0  502  0.53120264539E+03  0.27720252668E+03  0.37527368993E+03  0.70699917512E+03  0.00000000000E+00 0.  1.
         13    1    5    5    0    0 -0.10342859512E+03 -0.48173048582E+02  0.23869005484E+02  0.11656691778E+03  0.00000000000E+00 0.  1.
        -13    1    5    5    0    0 -0.26821086265E+03 -0.17260394260E+03 -0.82734269742E+02  0.32950591381E+03  0.00000000000E+00 0. -1.
          2    1    6    6  503    0 -0.23731668004E+03 -0.11708528218E+03 -0.46704429413E+03  0.53680400763E+03  0.00000000000E+00 0. -1.
         -2    1    6    6    0  503 -0.67203188740E+02 -0.59783884645E+02 -0.27260920687E+03  0.28706473331E+03  0.00000000000E+00 0.  1.
<mgrwt>
<rscale>  0 0.78763391E+03</rscale>
<asrwt>0</asrwt>
<pdfrwt beam="1">  1        2 0.19392711E+00 0.78763391E+03</pdfrwt>
<pdfrwt beam="2">  1       -2 0.14212045E+00 0.78763391E+03</pdfrwt>
<totfact> 0.61216967E+00</totfact>
</mgrwt>
</event>
<event>
12    1  0.1432447E-007  0.7045106E+03  0.7818608E-02  0.9709549E-01
          2   -1    0    0  501    0  0.00000000000E+00  0.00000000000E+00  0.22746087546E+04  0.22746087546E+04  0.00000000000E+00 0. -1.
         -2   -1    0    0    0  501 -0.00000000000E+00 -0.00000000000E+00 -0.24192663175E+03  0.24192663175E+03  0.00000000000E+00 0.  1.
         23    2    1    2    0    0  0.97181204115E+02  0.59064891158E+03  0.11029921810E+04  0.12585726652E+04  0.95410057256E+02 0.  0.
    5000000    2    1    2    0    0 -0.97181204115E+02 -0.59064891158E+03  0.92968994183E+03  0.12579627212E+04  0.59986373176E+03 0.  0.
         23    2    4    4    0    0  0.15519390736E+03 -0.27720524539E+02  0.40205047826E+03  0.44091203259E+03  0.88911512477E+02 0.  0.
         23    2    4    4    0    0 -0.25237511147E+03 -0.56292838704E+03  0.52763946357E+03  0.81705068856E+03  0.92665302739E+02 0.  0.
          2    1    3    3  502    0  0.95918742503E+02  0.31178951825E+03  0.63182653131E+03  0.71106812228E+03  0.00000000000E+00 0. -1.
         -2    1    3    3    0  502  0.12624616115E+01  0.27885939333E+03  0.47116564970E+03  0.54750454292E+03  0.00000000000E+00 0.  1.
         11    1    5    5    0    0  0.12559054865E+03  0.17161693536E+02  0.26734914334E+03  0.29587678868E+03  0.00000000000E+00 0.  1.
        -11    1    5    5    0    0  0.29603358704E+02 -0.44882218075E+02  0.13470133492E+03  0.14503524391E+03  0.00000000000E+00 0. -1.
          3    1    6    6  503    0 -0.42191263554E+01 -0.83258815506E+02  0.80879350511E+02  0.11615205864E+03  0.00000000000E+00 0. -1.
         -3    1    6    6    0  503 -0.24815598512E+03 -0.47966957154E+03  0.44676011306E+03  0.70089862992E+03  0.00000000000E+00 0.  1.
<mgrwt>
<rscale>  0 0.70451062E+03</rscale>
<asrwt>0</asrwt>
<pdfrwt beam="1">  1        2 0.34993979E+00 0.70451062E+03</pdfrwt>
<pdfrwt beam="2">  1       -2 0.37219483E-01 0.70451062E+03</pdfrwt>
<totfact> 0.33308310E+01</totfact>
</mgrwt>
</event>
<event>
12    1  0.1432447E-007  0.1261728E+04  0.7818608E-02  0.9060479E-01
         -1   -1    0    0    0  501 -0.00000000000E+00  0.00000000000E+00  0.20556164526E+04  0.20556164526E+04  0.00000000000E+00 0.  1.
          1   -1    0    0  501    0  0.00000000000E+00 -0.00000000000E+00 -0.12759180350E+04  0.12759180350E+04  0.00000000000E+00 0. -1.
         23    2    1    2    0    0 -0.11880345493E+04  0.40856419213E+03 -0.57866858671E+03  0.13863101821E+04  0.92993540010E+02 0.  0.
    5000000    2    1    2    0    0  0.11880345493E+04 -0.40856419213E+03  0.13583670043E+04  0.19452243055E+04  0.60032148958E+03 0.  0.
         23    2    4    4    0    0  0.65600869771E+03 -0.28809362245E+03  0.11419691711E+04  0.13512703768E+04  0.92155827678E+02 0.  0.
         23    2    4    4    0    0  0.53202585158E+03 -0.12047056969E+03  0.21639783320E+03  0.59395392872E+03  0.91589204165E+02 0.  0.
          2    1    3    3  502    0 -0.45687486463E+03  0.10996157039E+03 -0.20953353973E+03  0.51451967228E+03  0.00000000000E+00 0. -1.
         -2    1    3    3    0  502 -0.73115968466E+03  0.29860262175E+03 -0.36913504699E+03  0.87179050987E+03  0.00000000000E+00 0.  1.
         11    1    5    5    0    0  0.24766979172E+03 -0.83255370828E+02  0.34681162686E+03  0.43422354499E+03  0.00000000000E+00 0.  1.
        -11    1    5    5    0    0  0.40833890600E+03 -0.20483825162E+03  0.79515754428E+03  0.91704683180E+03  0.00000000000E+00 0. -1.
          4    1    6    6  503    0  0.15104020415E+03 -0.28703823115E+02  0.10625463474E+03  0.18688793470E+03  0.00000000000E+00 0. -1.
         -4    1    6    6    0  503  0.38098564743E+03 -0.91766746571E+02  0.11014319846E+03  0.40706599402E+03  0.00000000000E+00 0.  1.
<mgrwt>
<rscale>  0 0.12617275E+04</rscale>
<asrwt>0</asrwt>
<pdfrwt beam="1">  1        1 0.19629508E+00 0.12617275E+04</pdfrwt>
<pdfrwt beam="2">  1       -1 0.31624869E+00 0.12617275E+04</pdfrwt>
<totfact> 0.23806256E-01</totfact>
</mgrwt>
</event>
<event>
12    1  0.1432447E-007  0.5658765E+03  0.7818608E-02  0.9978845E-01
          1   -1    0    0  501    0  0.00000000000E+00  0.00000000000E+00  0.49514182130E+03  0.49514182130E+03  0.00000000000E+00 0. -1.
         -1   -1    0    0    0  501 -0.00000000000E+00 -0.00000000000E+00 -0.77263203233E+03  0.77263203233E+03  0.00000000000E+00 0.  1.
         23    2    1    2    0    0  0.29409817212E+03  0.29148081117E+03 -0.32915568219E+03  0.53702291155E+03  0.92711090403E+02 0.  0.
    5000000    2    1    2    0    0 -0.29409817212E+03 -0.29148081117E+03  0.51665471160E+02  0.73075094208E+03  0.59989400757E+03 0.  0.
         23    2    4    4    0    0  0.53284824857E+02  0.12846166087E+03  0.63165287033E+02  0.17787065431E+03  0.91139702142E+02 0.  0.
         23    2    4    4    0    0 -0.34738299698E+03 -0.41994247204E+03 -0.11499815873E+02  0.55288028777E+03  0.92291605405E+02 0.  0.
          1    1    3    3  502    0  0.11499165953E+03  0.13347514423E+03 -0.85498153732E+02  0.19582806280E+03  0.00000000000E+00 0. -1.
         -1    1    3    3    0  502  0.17910651260E+03  0.15800566694E+03 -0.24365752846E+03  0.34119484875E+03  0.00000000000E+00 0.  1.
         11    1    5    5    0    0  0.78259040375E+02  0.11083896782E+03  0.52828274743E+02  0.14560419225E+03  0.00000000000E+00 0. -1.
        -11    1    5    5    0    0 -0.24974215518E+02  0.17622693045E+02  0.10337012290E+02  0.32266462062E+02  0.00000000000E+00 0.  1.
          2    1    6    6  503    0  0.42709077179E+01 -0.49336062313E+01  0.56764079480E+01  0.86488571715E+01  0.00000000000E+00 0. -1.
         -2    1    6    6    0  503 -0.35165390470E+03 -0.41500886580E+03 -0.17176223821E+02  0.54423143060E+03  0.00000000000E+00 0.  1.
<mgrwt>
<rscale>  0 0.56587648E+03</rscale>
<asrwt>0</asrwt>
<pdfrwt beam="1">  1        1 0.76175665E-01 0.56587648E+03</pdfrwt>
<pdfrwt beam="2">  1       -1 0.11886647E+00 0.56587648E+03</pdfrwt>
<totfact> 0.29755415E+01</totfact>
</mgrwt>
</event>
<event>
12    1  0.1432447E-007  0.7998269E+03  0.7818608E-02  0.9560268E-01
          1   -1    0    0  501    0  0.00000000000E+00  0.00000000000E+00  0.11801843888E+04  0.11801843888E+04  0.00000000000E+00 0. -1.
         -1   -1    0    0    0  501 -0.00000000000E+00 -0.00000000000E+00 -0.69662493719E+03  0.69662493719E+03  0.00000000000E+00 0.  1.
         23    2    1    2    0    0 -0.42029204237E+03 -0.56341624931E+03  0.62120119952E+03  0.94237283702E+03  0.89957561039E+02 0.  0.
    5000000    2    1    2    0    0  0.42029204237E+03  0.56341624931E+03 -0.13764174792E+03  0.93443648897E+03  0.60011918006E+03 0.  0.
         23    2    4    4    0    0  0.17347371630E+03 -0.78422570936E+02 -0.11670278597E+03  0.24145985841E+03  0.91869979278E+02 0.  0.
         23    2    4    4    0    0  0.24681832607E+03  0.64183882025E+03 -0.20938961952E+02  0.69297663056E+03  0.83077151539E+02 0.  0.
          3    1    3    3  502    0 -0.35400024471E+02 -0.52598089554E+02  0.94639750750E+02  0.11391401661E+03  0.00000000000E+00 0. -1.
         -3    1    3    3    0  502 -0.38489201790E+03 -0.51081815976E+03  0.52656144877E+03  0.82845882041E+03  0.00000000000E+00 0.  1.
         11    1    5    5    0    0  0.10756149310E+03 -0.84023189075E+01 -0.30002269088E+02  0.11198307869E+03  0.00000000000E+00 0.  1.
        -11    1    5    5    0    0  0.65912223196E+02 -0.70020252029E+02 -0.86700516878E+02  0.12947677972E+03  0.00000000000E+00 0. -1.
          4    1    6    6  503    0  0.14483546126E+03  0.47948410754E+03 -0.18898897399E+02  0.50123795601E+03  0.00000000000E+00 0. -1.
         -4    1    6    6    0  503  0.10198286481E+03  0.16235471271E+03 -0.20400645528E+01  0.19173867455E+03  0.00000000000E+00 0.  1.
<mgrwt>
<rscale>  0 0.79982689E+03</rscale>
<asrwt>0</asrwt>
<pdfrwt beam="1">  1        1 0.18156683E+00 0.79982689E+03</pdfrwt>
<pdfrwt beam="2">  1       -1 0.10717307E+00 0.79982689E+03</pdfrwt>
<totfact> 0.92148555E+00</totfact>
</mgrwt>
</event>
<event>
12    1  0.1432447E-007  0.4478045E+03  0.7818608E-02  0.1028379E+00
          2   -1    0    0  501    0  0.00000000000E+00  0.00000000000E+00  0.43282798420E+04  0.43282798420E+04  0.00000000000E+00 0.  1.
         -2   -1    0    0    0  501 -0.00000000000E+00 -0.00000000000E+00 -0.82710073411E+02  0.82710073411E+02  0.00000000000E+00 0. -1.
         23    2    1    2    0    0  0.38914450033E+03 -0.16134152025E+03  0.11091897989E+04  0.11900527391E+04  0.91972732061E+02 0.  0.
    5000000    2    1    2    0    0 -0.38914450033E+03  0.16134152025E+03  0.31363799697E+04  0.32209371763E+04  0.60007703797E+03 0.  0.
         23    2    4    4    0    0 -0.25091189735E+03  0.14122596037E+03  0.53763748675E+03  0.61677030531E+03  0.91923828433E+02 0.  0.
         23    2    4    4    0    0 -0.13823260299E+03  0.20115559881E+02  0.25987424829E+04  0.26041668710E+04  0.93325834605E+02 0.  0.
          2    1    3    3  502    0  0.25455043150E+03 -0.65470955702E+02  0.74864681295E+03  0.79344465387E+03  0.00000000000E+00 0. -1.
         -2    1    3    3    0  502  0.13459406883E+03 -0.95870564552E+02  0.36054298597E+03  0.39660808520E+03  0.00000000000E+00 0.  1.
         13    1    5    5    0    0 -0.16859575215E+03  0.13885233590E+03  0.36202232524E+03  0.42280570337E+03  0.00000000000E+00 0.  1.
        -13    1    5    5    0    0 -0.82316145197E+02  0.23736244779E+01  0.17561516151E+03  0.19396460194E+03  0.00000000000E+00 0. -1.
          4    1    6    6  503    0 -0.39674954542E+02  0.49948639700E+02  0.11516671083E+04  0.11534323114E+04  0.00000000000E+00 0.  1.
         -4    1    6    6    0  503 -0.98557648443E+02 -0.29833079819E+02  0.14470753746E+04  0.14507345596E+04  0.00000000000E+00 0. -1.
<mgrwt>
<rscale>  0 0.44780452E+03</rscale>
<asrwt>0</asrwt>
<pdfrwt beam="1">  1        2 0.66588903E+00 0.44780452E+03</pdfrwt>
<pdfrwt beam="2">  1       -2 0.12724630E-01 0.44780452E+03</pdfrwt>
<totfact> 0.10048085E+01</totfact>
</mgrwt>
</event>
<event>
12    1  0.1432447E-007  0.1293025E+04  0.7818608E-02  0.9035114E-01
         -2   -1    0    0    0  501 -0.00000000000E+00  0.00000000000E+00  0.15310236974E+04  0.15310236974E+04  0.00000000000E+00 0.  1.
          2   -1    0    0  501    0  0.00000000000E+00 -0.00000000000E+00 -0.15961296633E+04  0.15961296633E+04  0.00000000000E+00 0. -1.
         23    2    1    2    0    0 -0.54863665489E+03 -0.11571327675E+04 -0.82055114104E+03  0.15237460764E+04  0.92409467806E+02 0.  0.
    5000000    2    1    2    0    0  0.54863665489E+03  0.11571327675E+04  0.75544517518E+03  0.16034072843E+04  0.60021586605E+03 0.  0.
         23    2    4    4    0    0  0.37757239816E+03  0.58555721004E+03  0.70901591466E+03  0.99817253842E+03  0.90590767357E+02 0.  0.
         23    2    4    4    0    0  0.17106425673E+03  0.57157555743E+03  0.46429260522E+02  0.60523474583E+03  0.90508693265E+02 0.  0.
          1    1    3    3  502    0 -0.41899525519E+03 -0.81851926847E+03 -0.62461429899E+03  0.11116086718E+04  0.00000000000E+00 0. -1.
         -1    1    3    3    0  502 -0.12964139970E+03 -0.33861349900E+03 -0.19593684205E+03  0.41213740462E+03  0.00000000000E+00 0.  1.
         11    1    5    5    0    0  0.16143044099E+02  0.51708751133E+01  0.30629255675E+02  0.35006958243E+02  0.00000000000E+00 0.  1.
        -11    1    5    5    0    0  0.36142935406E+03  0.58038633493E+03  0.67838665899E+03  0.96316558018E+03  0.00000000000E+00 0. -1.
          1    1    6    6  503    0  0.25771653332E+01  0.13916859802E+03  0.17049528422E+02  0.14023275964E+03  0.00000000000E+00 0. -1.
         -1    1    6    6    0  503  0.16848709140E+03  0.43240695940E+03  0.29379732100E+02  0.46500198620E+03  0.00000000000E+00 0.  1.
<mgrwt>
<rscale>  0 0.12930255E+04</rscale>
<asrwt>0</asrwt>
<pdfrwt beam="1">  1        2 0.24555841E+00 0.12930255E+04</pdfrwt>
<pdfrwt beam="2">  1       -2 0.23554211E+00 0.12930255E+04</pdfrwt>
<totfact> 0.84976020E-01</totfact>
</mgrwt>
</event>
<event>
12    1  0.1432447E-007  0.1627739E+04  0.7818608E-02  0.8803686E-01
          1   -1    0    0  501    0  0.00000000000E+00  0.00000000000E+00  0.22644153034E+04  0.22644153034E+04  0.00000000000E+00 0. -1.
         -1   -1    0    0    0  501 -0.00000000000E+00 -0.00000000000E+00 -0.15773270933E+04  0.15773270933E+04  0.00000000000E+00 0.  1.
         23    2    1    2    0    0  0.15183247761E+04  0.52138886591E+03  0.12510778945E+04  0.20373150887E+04  0.91106517413E+02 0.  0.
    5000000    2    1    2    0    0 -0.15183247761E+04 -0.52138886591E+03 -0.56398968444E+03  0.18044273081E+04  0.60059726176E+03 0.  0.
         23    2    4    4    0    0  0.16637144862E+02 -0.23747926980E+02 -0.13662270930E+02  0.97167758296E+02  0.91728714044E+02 0.  0.
         23    2    4    4    0    0 -0.15349619209E+04 -0.49764093893E+03 -0.55032741351E+03  0.17072595498E+04  0.90112737342E+02 0.  0.
          4    1    3    3  502    0  0.10800927720E+04  0.36156266961E+03  0.93799341421E+03  0.14755201135E+04  0.00000000000E+00 0. -1.
         -4    1    3    3    0  502  0.43823200406E+03  0.15982619629E+03  0.31308448033E+03  0.56179497526E+03  0.00000000000E+00 0.  1.
         11    1    5    5    0    0  0.31014327240E+01  0.34774678730E+01 -0.49756504011E+02  0.49974206939E+02  0.00000000000E+00 0.  1.
        -11    1    5    5    0    0  0.13535712138E+02 -0.27225394853E+02  0.36094233081E+02  0.47193551357E+02  0.00000000000E+00 0. -1.
          4    1    6    6  503    0 -0.13701213763E+04 -0.46518945795E+03 -0.51274330478E+03  0.15351024442E+04  0.00000000000E+00 0.  1.
         -4    1    6    6    0  503 -0.16484054463E+03 -0.32451480982E+02 -0.37584108727E+02  0.17215710558E+03  0.00000000000E+00 0. -1.
<mgrwt>
<rscale>  0 0.16277392E+04</rscale>
<asrwt>0</asrwt>
<pdfrwt beam="1">  1        1 0.34837158E+00 0.16277392E+04</pdfrwt>
<pdfrwt beam="2">  1       -1 0.24266571E+00 0.16277392E+04</pdfrwt>
<totfact> 0.14241742E-01</totfact>
</mgrwt>
</event>
<event>
12    1  0.1432447E-007  0.5288273E+03  0.7818608E-02  0.1006517E+00
         -1   -1    0    0    0  501 -0.00000000000E+00  0.00000000000E+00  0.52494802930E+03  0.52494802930E+03  0.00000000000E+00 0.  1.
          1   -1    0    0  501    0  0.00000000000E+00 -0.00000000000E+00 -0.71340555746E+03  0.71340555746E+03  0.00000000000E+00 0. -1.
         23    2    1    2    0    0  0.40605369017E+03 -0.20715921288E+03 -0.12897878880E+03  0.48248474944E+03  0.91441055907E+02 0.  0.
    5000000    2    1    2    0    0 -0.40605369017E+03  0.20715921288E+03 -0.59478739363E+02  0.75586883731E+03  0.60000453332E+03 0.  0.
         23    2    4    4    0    0  0.48865836528E+02 -0.11472831826E+02  0.16630397047E+03  0.19560137777E+03  0.89907689010E+02 0.  0.
         23    2    4    4    0    0 -0.45491952670E+03  0.21863204471E+03 -0.22578270983E+03  0.56026745954E+03  0.90388314631E+02 0.  0.
          2    1    3    3  502    0  0.73099463885E+02 -0.80018991702E+02 -0.35124353701E+02  0.11393107950E+03  0.00000000000E+00 0. -1.
         -2    1    3    3    0  502  0.33295422628E+03 -0.12714022118E+03 -0.93854435097E+02  0.36855366994E+03  0.00000000000E+00 0.  1.
         11    1    5    5    0    0  0.33750133040E+02  0.25079960423E+02  0.14437690611E+03  0.15037541991E+03  0.00000000000E+00 0.  1.
        -11    1    5    5    0    0  0.15115703488E+02 -0.36552792249E+02  0.21927064355E+02  0.45225957860E+02  0.00000000000E+00 0. -1.
          3    1    6    6  503    0 -0.30672310544E+03  0.10388207092E+03 -0.16342466922E+03  0.36273705432E+03  0.00000000000E+00 0. -1.
         -3    1    6    6    0  503 -0.14819642126E+03  0.11474997379E+03 -0.62358040606E+02  0.19753040522E+03  0.00000000000E+00 0.  1.
<mgrwt>
<rscale>  0 0.52882729E+03</rscale>
<asrwt>0</asrwt>
<pdfrwt beam="1">  1        1 0.10975470E+00 0.52882729E+03</pdfrwt>
<pdfrwt beam="2">  1       -1 0.80761235E-01 0.52882729E+03</pdfrwt>
<totfact> 0.42448767E+01</totfact>
</mgrwt>
</event>
<event>
12    1  0.1432447E-007  0.1838304E+04  0.7818608E-02  0.8686191E-01
          1   -1    0    0  501    0  0.00000000000E+00  0.00000000000E+00  0.13039916991E+04  0.13039916991E+04  0.00000000000E+00 0. -1.
         -1   -1    0    0    0  501 -0.00000000000E+00 -0.00000000000E+00 -0.26130465052E+04  0.26130465052E+04  0.00000000000E+00 0.  1.
         23    2    1    2    0    0 -0.15823449737E+04  0.83852063891E+03 -0.77984771442E+03  0.19556346391E+04  0.97014979361E+02 0.  0.
    5000000    2    1    2    0    0  0.15823449737E+04 -0.83852063891E+03 -0.52920709164E+03  0.19614035652E+04  0.60009276096E+03 0.  0.
         23    2    4    4    0    0  0.11143986241E+04 -0.85626953551E+03 -0.43608370533E+03  0.14742771495E+04  0.90787138479E+02 0.  0.
         23    2    4    4    0    0  0.46794634962E+03  0.17748896594E+02 -0.93123386314E+02  0.48712641569E+03  0.96599018268E+02 0.  0.
          3    1    3    3  502    0 -0.10366195082E+04  0.55362016122E+03 -0.46132541316E+03  0.12624961087E+04  0.00000000000E+00 0. -1.
         -3    1    3    3    0  502 -0.54572546554E+03  0.28490047770E+03 -0.31852230126E+03  0.69313853041E+03  0.00000000000E+00 0.  1.
         11    1    5    5    0    0  0.17039508285E+03 -0.17406941147E+03 -0.77782292924E+02  0.25570437885E+03  0.00000000000E+00 0. -1.
        -11    1    5    5    0    0  0.94400354128E+03 -0.68220012403E+03 -0.35830141240E+03  0.12185727706E+04  0.00000000000E+00 0.  1.
          3    1    6    6  503    0  0.19266045108E+03 -0.38659899812E+02 -0.25986679751E+02  0.19821186844E+03  0.00000000000E+00 0. -1.
         -3    1    6    6    0  503  0.27528589854E+03  0.56408796406E+02 -0.67136706563E+02  0.28891454725E+03  0.00000000000E+00 0.  1.
<mgrwt>
<rscale>  0 0.18383043E+04</rscale>
<asrwt>0</asrwt>
<pdfrwt beam="1">  1        1 0.20061411E+00 0.18383043E+04</pdfrwt>
<pdfrwt beam="2">  1       -1 0.40200715E+00 0.18383043E+04</pdfrwt>
<totfact> 0.56826030E-02</totfact>
</mgrwt>
</event>
<event>
12    1  0.1496413E-007  0.8300969E+03  0.7818608E-02  0.9517446E-01
          2   -1    0    0  501    0  0.00000000000E+00  0.00000000000E+00  0.10574853819E+04  0.10574853819E+04  0.00000000000E+00 0. -1.
         -2   -1    0    0    0  501 -0.00000000000E+00 -0.00000000000E+00 -0.92319565739E+03  0.92319565739E+03  0.00000000000E+00 0.  1.
         23    2    1    2    0    0  0.60939735333E+03  0.39261604169E+03  0.58640467743E+03  0.93667252251E+03  0.89288735364E+02 0.  0.
    5000000    2    1    2    0    0 -0.60939735333E+03 -0.39261604169E+03 -0.45211495298E+03  0.10440085167E+04  0.60002780091E+03 0.  0.
         23    2    4    4    0    0 -0.40688305815E+02 -0.35292764710E+03 -0.18385751640E+03  0.40875312554E+03  0.84036117130E+02 0.  0.
         23    2    4    4    0    0 -0.56870904752E+03 -0.39688394589E+02 -0.26825743658E+03  0.63525539120E+03  0.81130822573E+02 0.  0.
          4    1    3    3  502    0  0.26399051967E+03  0.11856341494E+03  0.23946544281E+03  0.37562211881E+03  0.00000000000E+00 0. -1.
         -4    1    3    3    0  502  0.34540683366E+03  0.27405262675E+03  0.34693923463E+03  0.56105040370E+03  0.00000000000E+00 0.  1.
         11    1    5    5    0    0  0.13505794141E+02 -0.77450183240E+02 -0.11884167264E+02  0.79512079528E+02  0.00000000000E+00 0.  1.
        -11    1    5    5    0    0 -0.54194099957E+02 -0.27547746386E+03 -0.17197334913E+03  0.32924104601E+03  0.00000000000E+00 0. -1.
          3    1    6    6  503    0 -0.33331764785E+03 -0.12555104176E+02 -0.19893583230E+03  0.38837321018E+03  0.00000000000E+00 0. -1.
         -3    1    6    6    0  503 -0.23539139967E+03 -0.27133290412E+02 -0.69321604279E+02  0.24688218102E+03  0.00000000000E+00 0.  1.
<mgrwt>
<rscale>  0 0.83009694E+03</rscale>
<asrwt>0</asrwt>
<pdfrwt beam="1">  1        2 0.16269006E+00 0.83009694E+03</pdfrwt>
<pdfrwt beam="2">  1       -2 0.14203010E+00 0.83009694E+03</pdfrwt>
<totfact> 0.80823058E+00</totfact>
</mgrwt>
</event>
<event>
12    1  0.1432447E-007  0.2077262E+04  0.7818608E-02  0.8571326E-01
         -1   -1    0    0    0  501 -0.00000000000E+00  0.00000000000E+00  0.16817335234E+04  0.16817335234E+04  0.00000000000E+00 0.  1.
          1   -1    0    0  501    0  0.00000000000E+00 -0.00000000000E+00 -0.27923687784E+04  0.27923687784E+04  0.00000000000E+00 0. -1.
         23    2    1    2    0    0 -0.19581772119E+04  0.58466747361E+03  0.54515317126E+02  0.20464140392E+04  0.92436206284E+02 0.  0.
    5000000    2    1    2    0    0  0.19581772119E+04 -0.58466747361E+03 -0.11651505721E+04  0.24276882625E+04  0.59983364061E+03 0.  0.
         23    2    4    4    0    0  0.46175363447E+02 -0.83190703518E+02 -0.32040319274E+01  0.13287171284E+03  0.92691795272E+02 0.  0.
         23    2    4    4    0    0  0.19120018485E+04 -0.50147677009E+03 -0.11619465402E+04  0.22948165497E+04  0.93985185186E+02 0.  0.
          1    1    3    3  502    0 -0.10647014437E+04  0.36452350305E+03  0.19106469049E+02  0.11255361414E+04  0.00000000000E+00 0.  1.
         -1    1    3    3    0  502 -0.89347576820E+03  0.22014397056E+03  0.35408848077E+02  0.92087789780E+03  0.00000000000E+00 0. -1.
         11    1    5    5    0    0  0.66734832593E+02 -0.88358360179E+02  0.30475887095E+01  0.11077014711E+03  0.00000000000E+00 0. -1.
        -11    1    5    5    0    0 -0.20559469146E+02  0.51676566604E+01 -0.62516206369E+01  0.22101565725E+02  0.00000000000E+00 0.  1.
          1    1    6    6  503    0  0.69378899568E+03 -0.20058820558E+03 -0.47290103508E+03  0.86325789179E+03  0.00000000000E+00 0. -1.
         -1    1    6    6    0  503  0.12182128528E+04 -0.30088856451E+03 -0.68904550513E+03  0.14315586579E+04  0.00000000000E+00 0.  1.
<mgrwt>
<rscale>  0 0.20772617E+04</rscale>
<asrwt>0</asrwt>
<pdfrwt beam="1">  1        1 0.42959520E+00 0.20772617E+04</pdfrwt>
<pdfrwt beam="2">  1       -1 0.25872823E+00 0.20772617E+04</pdfrwt>
<totfact> 0.45539941E-02</totfact>
</mgrwt>
</event>
<event>
12    1  0.1432447E-007  0.5837031E+03  0.7818608E-02  0.9939806E-01
         -3   -1    0    0    0  501 -0.00000000000E+00  0.00000000000E+00  0.23572004296E+03  0.23572004296E+03  0.00000000000E+00 0.  1.
          3   -1    0    0  501    0  0.00000000000E+00 -0.00000000000E+00 -0.17479071881E+04  0.17479071881E+04  0.00000000000E+00 0. -1.
         23    2    1    2    0    0  0.38950734474E+03  0.26466444483E+03 -0.83442917355E+03  0.96272102465E+03  0.93789581891E+02 0.  0.
    5000000    2    1    2    0    0 -0.38950734474E+03 -0.26466444483E+03 -0.67775797157E+03  0.10209062064E+04  0.60094124024E+03 0.  0.
         23    2    4    4    0    0  0.27639741189E+02  0.98553526098E+02  0.50088903715E+01  0.13750241031E+03  0.91679174617E+02 0.  0.
         23    2    4    4    0    0 -0.41714708593E+03 -0.36321797093E+03 -0.68276686194E+03  0.88340379607E+03  0.91064226961E+02 0.  0.
          4    1    3    3  502    0  0.24353762352E+02  0.18679214786E+02 -0.11706838020E+03  0.12102489185E+03  0.00000000000E+00 0. -1.
         -4    1    3    3    0  502  0.36515358239E+03  0.24598523005E+03 -0.71736079335E+03  0.84169613280E+03  0.00000000000E+00 0.  1.
         11    1    5    5    0    0 -0.33367269005E+02  0.46383618072E+02  0.23194418414E+01  0.57185614246E+02  0.00000000000E+00 0. -1.
        -11    1    5    5    0    0  0.61007010194E+02  0.52169908027E+02  0.26894485301E+01  0.80316796062E+02  0.00000000000E+00 0.  1.
          3    1    6    6  503    0 -0.11903562683E+03 -0.58136196750E+02 -0.13493273378E+03  0.18909294136E+03  0.00000000000E+00 0. -1.
         -3    1    6    6    0  503 -0.29811145911E+03 -0.30508177418E+03 -0.54783412816E+03  0.69431085470E+03  0.00000000000E+00 0.  1.
<mgrwt>
<rscale>  0 0.58370311E+03</rscale>
<asrwt>0</asrwt>
<pdfrwt beam="1">  1        3 0.26890880E+00 0.58370311E+03</pdfrwt>
<pdfrwt beam="2">  1       -3 0.36264622E-01 0.58370311E+03</pdfrwt>
<totfact> 0.11655429E+00</totfact>
</mgrwt>
</event>
<event>
12    1  0.1432447E-007  0.7478111E+03  0.7818608E-02  0.9638791E-01
         -2   -1    0    0    0  501 -0.00000000000E+00  0.00000000000E+00  0.11453630576E+04  0.11453630576E+04  0.00000000000E+00 0.  1.
          2   -1    0    0  501    0  0.00000000000E+00 -0.00000000000E+00 -0.13125814703E+04  0.13125814703E+04  0.00000000000E+00 0. -1.
         23    2    1    2    0    0 -0.37770156700E+03 -0.57895772235E+03 -0.10009222402E+04  0.12198796377E+04  0.91708678041E+02 0.  0.
    5000000    2    1    2    0    0  0.37770156700E+03  0.57895772235E+03  0.83370382749E+03  0.12380648901E+04  0.59991006175E+03 0.  0.
         23    2    4    4    0    0  0.34111076356E+03  0.18004758822E+03  0.70162814472E+03  0.80619189789E+03  0.94284864682E+02 0.  0.
         23    2    4    4    0    0  0.36590803441E+02  0.39891013412E+03  0.13207568277E+03  0.43187299223E+03  0.92747579139E+02 0.  0.
          3    1    3    3  502    0 -0.11084264383E+03 -0.22077759723E+03 -0.29844914887E+03  0.38742835930E+03  0.00000000000E+00 0. -1.
         -3    1    3    3    0  502 -0.26685892317E+03 -0.35818012512E+03 -0.70247309134E+03  0.83245127843E+03  0.00000000000E+00 0.  1.
         11    1    5    5    0    0  0.10580997137E+03  0.10697439593E+03  0.25313139607E+03  0.29447372565E+03  0.00000000000E+00 0.  1.
        -11    1    5    5    0    0  0.23530079220E+03  0.73073192296E+02  0.44849674866E+03  0.51171817224E+03  0.00000000000E+00 0. -1.
          4    1    6    6  503    0  0.24589229565E+02  0.47785931752E+02 -0.66411529474E+01  0.54150072913E+02  0.00000000000E+00 0. -1.
         -4    1    6    6    0  503  0.12001573876E+02  0.35112420237E+03  0.13871683572E+03  0.37772291932E+03  0.00000000000E+00 0.  1.
<mgrwt>
<rscale>  0 0.74781106E+03</rscale>
<asrwt>0</asrwt>
<pdfrwt beam="1">  1        2 0.20193561E+00 0.74781106E+03</pdfrwt>
<pdfrwt beam="2">  1       -2 0.17620970E+00 0.74781106E+03</pdfrwt>
<totfact> 0.32132568E+00</totfact>
</mgrwt>
</event>
<event>
12    1  0.1432447E-007  0.9008977E+03  0.7818608E-02  0.9424460E-01
          2   -1    0    0  501    0  0.00000000000E+00  0.00000000000E+00  0.13279344119E+04  0.13279344119E+04  0.00000000000E+00 0. -1.
         -2   -1    0    0    0  501 -0.00000000000E+00 -0.00000000000E+00 -0.67820014507E+03  0.67820014507E+03  0.00000000000E+00 0.  1.
         23    2    1    2    0    0 -0.30724710375E+03 -0.75796291520E+03  0.54363761995E+03  0.98629644995E+03  0.91270267785E+02 0.  0.
    5000000    2    1    2    0    0  0.30724710375E+03  0.75796291520E+03  0.10609664691E+03  0.10198381070E+04  0.59992058017E+03 0.  0.
         23    2    4    4    0    0 -0.12778986700E+03  0.55595862113E+02  0.91422650422E+02  0.18864699225E+03  0.88365359066E+02 0.  0.
         23    2    4    4    0    0  0.43503697074E+03  0.70236705309E+03  0.14673996488E+02  0.83119111480E+03  0.89926080541E+02 0.  0.
          2    1    3    3  502    0 -0.18542852373E+03 -0.48173810553E+03  0.29052385333E+03  0.59233390000E+03  0.00000000000E+00 0. -1.
         -2    1    3    3    0  502 -0.12181858001E+03 -0.27622480968E+03  0.25311376661E+03  0.39396254995E+03  0.00000000000E+00 0.  1.
         11    1    5    5    0    0 -0.76417897202E+02 -0.66661059853E+01  0.72913830329E+02  0.10583269171E+03  0.00000000000E+00 0.  1.
        -11    1    5    5    0    0 -0.51371969796E+02  0.62261968098E+02  0.18508820093E+02  0.82814300537E+02  0.00000000000E+00 0. -1.
          3    1    6    6  503    0  0.18034310753E+02  0.34241437744E+02 -0.18536867440E+02  0.42910696541E+02  0.00000000000E+00 0. -1.
         -3    1    6    6    0  503  0.41700265999E+03  0.66812561535E+03  0.33210863928E+02  0.78828041826E+03  0.00000000000E+00 0.  1.
<mgrwt>
<rscale>  0 0.90089768E+03</rscale>
<asrwt>0</asrwt>
<pdfrwt beam="1">  1        2 0.20429760E+00 0.90089768E+03</pdfrwt>
<pdfrwt beam="2">  1       -2 0.10433848E+00 0.90089768E+03</pdfrwt>
<totfact> 0.11931913E+01</totfact>
</mgrwt>
</event>
<event>
12    1  0.1432447E-007  0.5498049E+03  0.7818608E-02  0.1001539E+00
         -1   -1    0    0    0  501 -0.00000000000E+00  0.00000000000E+00  0.71982920355E+03  0.71982920355E+03  0.00000000000E+00 0.  1.
          1   -1    0    0  501    0  0.00000000000E+00 -0.00000000000E+00 -0.52786600701E+03  0.52786600701E+03  0.00000000000E+00 0. -1.
         23    2    1    2    0    0  0.23765375385E+03 -0.39794739691E+03  0.43255126672E+02  0.47505366004E+03  0.94675955311E+02 0.  0.
    5000000    2    1    2    0    0 -0.23765375385E+03  0.39794739691E+03  0.14870806987E+03  0.77264155051E+03  0.60001619820E+03 0.  0.
         23    2    4    4    0    0 -0.33552586944E+03  0.22610615011E+03 -0.11508372771E+03  0.43029404325E+03  0.90593041057E+02 0.  0.
         23    2    4    4    0    0  0.97872115594E+02  0.17184124680E+03  0.26379179759E+03  0.34234750726E+03  0.92235232653E+02 0.  0.
          4    1    3    3  502    0  0.20745082194E+03 -0.38859025006E+03  0.32661061620E+02  0.44170688348E+03  0.00000000000E+00 0. -1.
         -4    1    3    3    0  502  0.30202931907E+02 -0.93571468450E+01  0.10594065052E+02  0.33346776563E+02  0.00000000000E+00 0.  1.
         11    1    5    5    0    0 -0.13024012388E+03  0.13795743963E+03 -0.71016095138E+02  0.20257845588E+03  0.00000000000E+00 0. -1.
        -11    1    5    5    0    0 -0.20528574556E+03  0.88148710482E+02 -0.44067632576E+02  0.22771558737E+03  0.00000000000E+00 0.  1.
          1    1    6    6  503    0  0.39707911511E+02  0.14492961507E+03  0.21248334621E+03  0.26025080976E+03  0.00000000000E+00 0. -1.
         -1    1    6    6    0  503  0.58164204084E+02  0.26911631725E+02  0.51308451376E+02  0.82096697506E+02  0.00000000000E+00 0.  1.
<mgrwt>
<rscale>  0 0.54980485E+03</rscale>
<asrwt>0</asrwt>
<pdfrwt beam="1">  1        1 0.81210155E-01 0.54980485E+03</pdfrwt>
<pdfrwt beam="2">  1       -1 0.11074295E+00 0.54980485E+03</pdfrwt>
<totfact> 0.32321312E+01</totfact>
</mgrwt>
</event>
<event>
12    1  0.1432447E-007  0.7791257E+03  0.7818608E-02  0.9590733E-01
         -1   -1    0    0    0  501 -0.00000000000E+00  0.00000000000E+00  0.58871391452E+03  0.58871391452E+03  0.00000000000E+00 0.  1.
          1   -1    0    0  501    0  0.00000000000E+00 -0.00000000000E+00 -0.11563651346E+04  0.11563651346E+04  0.00000000000E+00 0. -1.
         23    2    1    2    0    0  0.57623235567E+03  0.32807644651E+03  0.28550411565E+02  0.66999902587E+03  0.91682529395E+02 0.  0.
    5000000    2    1    2    0    0 -0.57623235567E+03 -0.32807644651E+03 -0.59620163167E+03  0.10750800233E+04  0.60055206964E+03 0.  0.
         23    2    4    4    0    0 -0.17446399579E+03 -0.42820257454E+03 -0.32000119397E+03  0.56978609445E+03  0.91979881603E+02 0.  0.
         23    2    4    4    0    0 -0.40176835988E+03  0.10012612803E+03 -0.27620043770E+03  0.50529392881E+03  0.87133324275E+02 0.  0.
          2    1    3    3  502    0  0.23855086830E+03  0.85251653261E+02  0.41628961094E+01  0.25336079186E+03  0.00000000000E+00 0. -1.
         -2    1    3    3    0  502  0.33768148737E+03  0.24282479325E+03  0.24387515456E+02  0.41663823401E+03  0.00000000000E+00 0.  1.
         11    1    5    5    0    0 -0.17998595988E+03 -0.39697510691E+03 -0.31476657440E+03  0.53764502938E+03  0.00000000000E+00 0.  1.
        -11    1    5    5    0    0  0.55219640827E+01 -0.31227467626E+02 -0.52346195658E+01  0.32141065067E+02  0.00000000000E+00 0. -1.
          4    1    6    6  503    0 -0.15814108460E+03  0.79276885290E+02 -0.93731443277E+02  0.20019742915E+03  0.00000000000E+00 0. -1.
         -4    1    6    6    0  503 -0.24362727528E+03  0.20849242740E+02 -0.18246899442E+03  0.30509649966E+03  0.00000000000E+00 0.  1.
<mgrwt>
<rscale>  0 0.77912570E+03</rscale>
<asrwt>0</asrwt>
<pdfrwt beam="1">  1        1 0.17790233E+00 0.77912570E+03</pdfrwt>
<pdfrwt beam="2">  1       -1 0.90571372E-01 0.77912570E+03</pdfrwt>
<totfact> 0.14096900E+01</totfact>
</mgrwt>
</event>
<event>
12    1  0.1432447E-007  0.7271306E+03  0.7818608E-02  0.9671928E-01
          1   -1    0    0  501    0  0.00000000000E+00  0.00000000000E+00  0.25000447874E+04  0.25000447874E+04  0.00000000000E+00 0. -1.
         -1   -1    0    0    0  501 -0.00000000000E+00 -0.00000000000E+00 -0.28857838851E+03  0.28857838851E+03  0.00000000000E+00 0.  1.
         23    2    1    2    0    0  0.62100656701E+03  0.30519592905E+03  0.54117265276E+03  0.88369110094E+03  0.96168656003E+02 0.  0.
    5000000    2    1    2    0    0 -0.62100656701E+03 -0.30519592905E+03  0.16702937461E+04  0.19049320749E+04  0.60007607892E+03 0.  0.
         23    2    4    4    0    0 -0.33145496556E+02 -0.57833247853E+02 -0.71525218378E+00  0.11402650817E+03  0.92510672252E+02 0.  0.
         23    2    4    4    0    0 -0.58786107045E+03 -0.24736268120E+03  0.16710089983E+04  0.17909055668E+04  0.91119386166E+02 0.  0.
          2    1    3    3  502    0  0.55256044986E+03  0.23832287050E+03  0.44885828742E+03  0.75072938103E+03  0.00000000000E+00 0. -1.
         -2    1    3    3    0  502  0.68446117152E+02  0.66873058545E+02  0.92314365342E+02  0.13296171991E+03  0.00000000000E+00 0.  1.
         11    1    5    5    0    0 -0.48966934903E+02 -0.75228179701E+02 -0.58754243201E+01  0.89953100812E+02  0.00000000000E+00 0. -1.
        -11    1    5    5    0    0  0.15821438346E+02  0.17394931848E+02  0.51601721363E+01  0.24073407357E+02  0.00000000000E+00 0.  1.
          4    1    6    6  503    0 -0.23588541862E+03 -0.14534169035E+03  0.67748531122E+03  0.73195114905E+03  0.00000000000E+00 0. -1.
         -4    1    6    6    0  503 -0.35197565183E+03 -0.10202099084E+03  0.99352368705E+03  0.10589544177E+04  0.00000000000E+00 0.  1.
<mgrwt>
<rscale>  0 0.72713063E+03</rscale>
<asrwt>0</asrwt>
<pdfrwt beam="1">  1        1 0.38462226E+00 0.72713063E+03</pdfrwt>
<pdfrwt beam="2">  1       -1 0.44396677E-01 0.72713063E+03</pdfrwt>
<totfact> 0.72139301E+00</totfact>
</mgrwt>
</event>
<event>
12    1  0.1432447E-007  0.9443140E+03  0.7818608E-02  0.9371821E-01
         -2   -1    0    0    0  501 -0.00000000000E+00  0.00000000000E+00  0.63325818887E+03  0.63325818887E+03  0.00000000000E+00 0.  1.
          2   -1    0    0  501    0  0.00000000000E+00 -0.00000000000E+00 -0.21774257435E+04  0.21774257435E+04  0.00000000000E+00 0. -1.
         23    2    1    2    0    0  0.88906085445E+03 -0.12858895272E+03  0.27733671243E+02  0.90327342935E+03  0.90384788409E+02 0.  0.
    5000000    2    1    2    0    0 -0.88906085445E+03  0.12858895272E+03 -0.15719012258E+04  0.19074105030E+04  0.60031411894E+03 0.  0.
         23    2    4    4    0    0 -0.49739819337E+03  0.26811241345E+03 -0.12463142906E+04  0.13714474252E+04  0.90991758841E+02 0.  0.
         23    2    4    4    0    0 -0.39166266108E+03 -0.13952346073E+03 -0.32558693524E+03  0.53596307776E+03  0.91559445948E+02 0.  0.
          1    1    3    3  502    0  0.20792680604E+03  0.99282434325E+00  0.28856164058E+02  0.20992193924E+03  0.00000000000E+00 0. -1.
         -1    1    3    3    0  502  0.68113404841E+03 -0.12958177706E+03 -0.11224928152E+01  0.69335149011E+03  0.00000000000E+00 0.  1.
         13    1    5    5    0    0 -0.41324117538E+03  0.18463071443E+03 -0.10219607486E+04  0.11177032439E+04  0.00000000000E+00 0. -1.
        -13    1    5    5    0    0 -0.84157017994E+02  0.83481699019E+02 -0.22435354205E+03  0.25374418137E+03  0.00000000000E+00 0.  1.
          3    1    6    6  503    0 -0.35364021246E+03 -0.13177569548E+03 -0.32355570902E+03  0.49710615630E+03  0.00000000000E+00 0. -1.
         -3    1    6    6    0  503 -0.38022448623E+02 -0.77477652532E+01 -0.20312262188E+01  0.38856921464E+02  0.00000000000E+00 0.  1.
<mgrwt>
<rscale>  0 0.94431402E+03</rscale>
<asrwt>0</asrwt>
<pdfrwt beam="1">  1        2 0.33498857E+00 0.94431402E+03</pdfrwt>
<pdfrwt beam="2">  1       -2 0.97424337E-01 0.94431402E+03</pdfrwt>
<totfact> 0.47203532E+00</totfact>
</mgrwt>
</event>
<event>
12    1  0.1432447E-007  0.3430506E+03  0.7818608E-02  0.1065504E+00
         -1   -1    0    0    0  501 -0.00000000000E+00  0.00000000000E+00  0.16864685369E+03  0.16864685369E+03  0.00000000000E+00 0.  1.
          1   -1    0    0  501    0  0.00000000000E+00 -0.00000000000E+00 -0.79547584105E+03  0.79547584105E+03  0.00000000000E+00 0. -1.
         23    2    1    2    0    0  0.59920709941E+02 -0.32217302921E+02 -0.54831648084E+02  0.13231657139E+03  0.99361558691E+02 0.  0.
    5000000    2    1    2    0    0 -0.59920709941E+02  0.32217302921E+02 -0.57199733928E+03  0.83180612335E+03  0.60007668228E+03 0.  0.
         23    2    4    4    0    0  0.25611017793E+03 -0.69831160472E+01 -0.23518537949E+03  0.35942260744E+03  0.90726296418E+02 0.  0.
         23    2    4    4    0    0 -0.31603088788E+03  0.39200418969E+02 -0.33681195979E+03  0.47238351592E+03  0.91058744284E+02 0.  0.
          3    1    3    3  502    0  0.25574562875E+02 -0.54700512059E+02 -0.66317334710E+02  0.89689426181E+02  0.00000000000E+00 0. -1.
         -3    1    3    3    0  502  0.34346147067E+02  0.22483209137E+02  0.11485686626E+02  0.42627145209E+02  0.00000000000E+00 0.  1.
         13    1    5    5    0    0  0.10691630511E+03 -0.35509600507E+02 -0.60299059854E+02  0.12778108094E+03  0.00000000000E+00 0.  1.
        -13    1    5    5    0    0  0.14919387282E+03  0.28526484460E+02 -0.17488631963E+03  0.23164152650E+03  0.00000000000E+00 0. -1.
          2    1    6    6  503    0 -0.22616402236E+02  0.11555262146E+02 -0.76119552705E+00  0.25408761324E+02  0.00000000000E+00 0. -1.
         -2    1    6    6    0  503 -0.29341448564E+03  0.27645156822E+02 -0.33605076427E+03  0.44697475459E+03  0.00000000000E+00 0.  1.
<mgrwt>
<rscale>  0 0.34305061E+03</rscale>
<asrwt>0</asrwt>
<pdfrwt beam="1">  1        1 0.12238090E+00 0.34305061E+03</pdfrwt>
<pdfrwt beam="2">  1       -1 0.25945670E-01 0.34305061E+03</pdfrwt>
<totfact> 0.30417969E+02</totfact>
</mgrwt>
</event>
<event>
12    1  0.1432447E-007  0.1488598E+04  0.7818608E-02  0.8892070E-01
          2   -1    0    0  501    0  0.00000000000E+00  0.00000000000E+00  0.27092870648E+04  0.27092870648E+04  0.00000000000E+00 0. -1.
         -2   -1    0    0    0  501 -0.00000000000E+00 -0.00000000000E+00 -0.90468081839E+03  0.90468081839E+03  0.00000000000E+00 0.  1.
         23    2    1    2    0    0 -0.10778205868E+04  0.95631399093E+03  0.13781272872E+04  0.19959054054E+04  0.90387505857E+02 0.  0.
    5000000    2    1    2    0    0  0.10778205868E+04 -0.95631399093E+03  0.42647895924E+03  0.16180624777E+04  0.60000684379E+03 0.  0.
         23    2    4    4    0    0  0.53142391903E+03 -0.13356581157E+03  0.25690801908E+03  0.61202407695E+03  0.91216954358E+02 0.  0.
         23    2    4    4    0    0  0.54639666779E+03 -0.82274817936E+03  0.16957094016E+03  0.10060384008E+04  0.88854234092E+02 0.  0.
          4    1    3    3  502    0 -0.81272902079E+03  0.71267878531E+03  0.10858981894E+04  0.15321926739E+04  0.00000000000E+00 0. -1.
         -4    1    3    3    0  502 -0.26509156602E+03  0.24363520563E+03  0.29222909780E+03  0.46371273154E+03  0.00000000000E+00 0.  1.
         11    1    5    5    0    0  0.23900529817E+03 -0.48020531342E+02  0.16280967271E+03  0.29314926832E+03  0.00000000000E+00 0.  1.
        -11    1    5    5    0    0  0.29241862086E+03 -0.85545280230E+02  0.94098346369E+02  0.31887480864E+03  0.00000000000E+00 0. -1.
          1    1    6    6  503    0  0.21821980052E+03 -0.34090207409E+03  0.11340314103E+03  0.42035030374E+03  0.00000000000E+00 0. -1.
         -1    1    6    6    0  503  0.32817686726E+03 -0.48184610527E+03  0.56167799128E+02  0.58568809705E+03  0.00000000000E+00 0.  1.
<mgrwt>
<rscale>  0 0.14885985E+04</rscale>
<asrwt>0</asrwt>
<pdfrwt beam="1">  1        2 0.41681339E+00 0.14885985E+04</pdfrwt>
<pdfrwt beam="2">  1       -2 0.13918167E+00 0.14885985E+04</pdfrwt>
<totfact> 0.90691215E-01</totfact>
</mgrwt>
</event>
<event>
12    1  0.1432447E-007  0.8694072E+03  0.7818608E-02  0.9464653E-01
         -1   -1    0    0    0  501 -0.00000000000E+00  0.00000000000E+00  0.46089524637E+03  0.46089524637E+03  0.00000000000E+00 0.  1.
          1   -1    0    0  501    0  0.00000000000E+00 -0.00000000000E+00 -0.23524037017E+04  0.23524037017E+04  0.00000000000E+00 0. -1.
         23    2    1    2    0    0  0.18051405024E+03 -0.83765181660E+03 -0.14318898495E+04  0.16707279749E+04  0.82325795337E+02 0.  0.
    5000000    2    1    2    0    0 -0.18051405024E+03  0.83765181660E+03 -0.45961860576E+03  0.11425709732E+04  0.59997773109E+03 0.  0.
         23    2    4    4    0    0 -0.52299005350E+02  0.83324250940E+02  0.11777820603E+03  0.17854981925E+03  0.91270013616E+02 0.  0.
         23    2    4    4    0    0 -0.12821504489E+03  0.75432756567E+03 -0.57739681179E+03  0.96402115393E+03  0.10247210794E+03 0.  0.
          3    1    3    3  502    0  0.14405204611E+03 -0.60188077353E+03 -0.96471413131E+03  0.11461609017E+04  0.00000000000E+00 0. -1.
         -3    1    3    3    0  502  0.36462004124E+02 -0.23577104307E+03 -0.46717571823E+03  0.52456707312E+03  0.00000000000E+00 0.  1.
         11    1    5    5    0    0 -0.63330432335E+02  0.59887677482E+02  0.38755613989E+02  0.95390121027E+02  0.00000000000E+00 0. -1.
        -11    1    5    5    0    0  0.11031426985E+02  0.23436573458E+02  0.79022592038E+02  0.83159698227E+02  0.00000000000E+00 0.  1.
          3    1    6    6  503    0 -0.13133227564E+03  0.61194550420E+03 -0.43198079089E+03  0.76048199876E+03  0.00000000000E+00 0. -1.
         -3    1    6    6    0  503  0.31172307574E+01  0.14238206146E+03 -0.14541602090E+03  0.20353915517E+03  0.00000000000E+00 0.  1.
<mgrwt>
<rscale>  0 0.86940715E+03</rscale>
<asrwt>0</asrwt>
<pdfrwt beam="1">  1        1 0.36190825E+00 0.86940715E+03</pdfrwt>
<pdfrwt beam="2">  1       -1 0.70906962E-01 0.86940715E+03</pdfrwt>
<totfact> 0.35670439E+00</totfact>
</mgrwt>
</event>
<event>
12    1  0.1432447E-007  0.9841241E+03  0.7818608E-02  0.9326131E-01
         -2   -1    0    0    0  501 -0.00000000000E+00  0.00000000000E+00  0.65132057346E+03  0.65132057346E+03  0.00000000000E+00 0.  1.
          2   -1    0    0  501    0  0.00000000000E+00 -0.00000000000E+00 -0.15740133071E+04  0.15740133071E+04  0.00000000000E+00 0. -1.
         23    2    1    2    0    0  0.33888386325E+03 -0.85657114904E+03 -0.42560665963E+03  0.10188371198E+04  0.91277828080E+02 0.  0.
    5000000    2    1    2    0    0 -0.33888386325E+03  0.85657114904E+03 -0.49708607404E+03  0.12064967607E+04  0.59998621863E+03 0.  0.
         23    2    4    4    0    0 -0.13357433923E+03  0.82811110905E+03 -0.49788326839E+03  0.97970729464E+03  0.91260731956E+02 0.  0.
         23    2    4    4    0    0 -0.20530952401E+03  0.28460039984E+02  0.79719435039E+00  0.22678946610E+03  0.92037230995E+02 0.  0.
          2    1    3    3  502    0  0.26268696025E+03 -0.61517642996E+03 -0.26772672821E+03  0.72050265792E+03  0.00000000000E+00 0. -1.
         -2    1    3    3    0  502  0.76196902999E+02 -0.24139471908E+03 -0.15787993141E+03  0.29833446192E+03  0.00000000000E+00 0.  1.
         13    1    5    5    0    0 -0.17344465449E+02  0.13509626086E+03 -0.12170034816E+03  0.18265487927E+03  0.00000000000E+00 0. -1.
        -13    1    5    5    0    0 -0.11622987379E+03  0.69301484820E+03 -0.37618292024E+03  0.79705241538E+03  0.00000000000E+00 0.  1.
          3    1    6    6  503    0 -0.82159524266E+02  0.13040164860E+02 -0.44900860261E+02  0.94532114011E+02  0.00000000000E+00 0. -1.
         -3    1    6    6    0  503 -0.12314999975E+03  0.15419875124E+02  0.45698054612E+02  0.13225735209E+03  0.00000000000E+00 0.  1.
<mgrwt>
<rscale>  0 0.98412412E+03</rscale>
<asrwt>0</asrwt>
<pdfrwt beam="1">  1        2 0.24215590E+00 0.98412412E+03</pdfrwt>
<pdfrwt beam="2">  1       -2 0.10020316E+00 0.98412412E+03</pdfrwt>
<totfact> 0.94576827E+00</totfact>
</mgrwt>
</event>
<event>
12    1  0.1432447E-007  0.1509747E+04  0.7818608E-02  0.8877997E-01
         -2   -1    0    0    0  501 -0.00000000000E+00  0.00000000000E+00  0.27089603591E+04  0.27089603591E+04  0.00000000000E+00 0.  1.
          2   -1    0    0  501    0  0.00000000000E+00 -0.00000000000E+00 -0.12765081346E+04  0.12765081346E+04  0.00000000000E+00 0. -1.
         23    2    1    2    0    0 -0.13927974333E+04 -0.49369222372E+03  0.18175133104E+04  0.23448186464E+04  0.10584492880E+03 0.  0.
    5000000    2    1    2    0    0  0.13927974333E+04  0.49369222372E+03 -0.38506108594E+03  0.16406498474E+04  0.59986930231E+03 0.  0.
         23    2    4    4    0    0  0.33341180466E+02  0.30460881936E+02 -0.14859434249E+03  0.18229734625E+03  0.95459646911E+02 0.  0.
         23    2    4    4    0    0  0.13594562528E+04  0.46323134178E+03 -0.23646674345E+03  0.14583525011E+04  0.90393127081E+02 0.  0.
          4    1    3    3  502    0 -0.47614527006E+03 -0.17954361414E+03  0.54922738500E+03  0.74873289498E+03  0.00000000000E+00 0. -1.
         -4    1    3    3    0  502 -0.91665216322E+03 -0.31414860958E+03  0.12682859254E+04  0.15960857514E+04  0.00000000000E+00 0.  1.
         13    1    5    5    0    0  0.34429861462E+02  0.63161411665E+02 -0.11295887486E+03  0.13391970241E+03  0.00000000000E+00 0. -1.
        -13    1    5    5    0    0 -0.10886809956E+01 -0.32700529729E+02 -0.35635467630E+02  0.48377643846E+02  0.00000000000E+00 0.  1.
          1    1    6    6  503    0  0.64460735082E+03  0.24442709643E+03 -0.74350533533E+02  0.69339111909E+03  0.00000000000E+00 0. -1.
         -1    1    6    6    0  503  0.71484890200E+03  0.21880424535E+03 -0.16211620991E+03  0.76496138203E+03  0.00000000000E+00 0.  1.
<mgrwt>
<rscale>  0 0.15097473E+04</rscale>
<asrwt>0</asrwt>
<pdfrwt beam="1">  1        2 0.19638587E+00 0.15097473E+04</pdfrwt>
<pdfrwt beam="2">  1       -2 0.41676313E+00 0.15097473E+04</pdfrwt>
<totfact> 0.92758365E-02</totfact>
</mgrwt>
</event>
<event>
12    1  0.1432447E-007  0.8978447E+03  0.7818608E-02  0.9428280E-01
          1   -1    0    0  501    0  0.00000000000E+00  0.00000000000E+00  0.20015004654E+04  0.20015004654E+04  0.00000000000E+00 0. -1.
         -1   -1    0    0    0  501 -0.00000000000E+00 -0.00000000000E+00 -0.61512393232E+03  0.61512393232E+03  0.00000000000E+00 0.  1.
         23    2    1    2    0    0 -0.45315506432E+03  0.65798142864E+03 -0.11570120168E+03  0.81258025548E+03  0.92794562190E+02 0.  0.
    5000000    2    1    2    0    0  0.45315506432E+03 -0.65798142864E+03  0.15020777348E+04  0.18040441423E+04  0.60004055957E+03 0.  0.
         23    2    4    4    0    0  0.14900716695E+03  0.77902902699E+02  0.22441676094E+03  0.29578209417E+03  0.94085953224E+02 0.  0.
         23    2    4    4    0    0  0.30414789737E+03 -0.73588433134E+03  0.12776609739E+04  0.15082620481E+04  0.91679599748E+02 0.  0.
          1    1    3    3  502    0 -0.29971188699E+03  0.35663897879E+03 -0.56288495155E+02  0.46924084550E+03  0.00000000000E+00 0. -1.
         -1    1    3    3    0  502 -0.15344317732E+03  0.30134244985E+03 -0.59412706525E+02  0.34333940998E+03  0.00000000000E+00 0.  1.
         11    1    5    5    0    0  0.12966157376E+03  0.22428380171E+02  0.17537701265E+03  0.21925385405E+03  0.00000000000E+00 0. -1.
        -11    1    5    5    0    0  0.19345593191E+02  0.55474522528E+02  0.49039748284E+02  0.76528240130E+02  0.00000000000E+00 0.  1.
          1    1    6    6  503    0  0.11648631504E+03 -0.39964843977E+03  0.67979030808E+03  0.79712157163E+03  0.00000000000E+00 0. -1.
         -1    1    6    6    0  503  0.18766158233E+03 -0.33623589157E+03  0.59787066579E+03  0.71114047647E+03  0.00000000000E+00 0.  1.
<mgrwt>
<rscale>  0 0.89784469E+03</rscale>
<asrwt>0</asrwt>
<pdfrwt beam="1">  1        1 0.30792314E+00 0.89784469E+03</pdfrwt>
<pdfrwt beam="2">  1       -1 0.94634453E-01 0.89784469E+03</pdfrwt>
<totfact> 0.32951381E+00</totfact>
</mgrwt>
</event>
<event>
12    1  0.1432447E-007  0.5448307E+03  0.7818608E-02  0.1002698E+00
         -1   -1    0    0    0  501 -0.00000000000E+00  0.00000000000E+00  0.16472049477E+03  0.16472049477E+03  0.00000000000E+00 0.  1.
          1   -1    0    0  501    0  0.00000000000E+00 -0.00000000000E+00 -0.21609469285E+04  0.21609469285E+04  0.00000000000E+00 0. -1.
         23    2    1    2    0    0 -0.43249529551E+03 -0.81576231828E+02 -0.70799857843E+03  0.83805055755E+03  0.85789787905E+02 0.  0.
    5000000    2    1    2    0    0  0.43249529551E+03  0.81576231828E+02 -0.12882278553E+04  0.14876168657E+04  0.59980502644E+03 0.  0.
         23    2    4    4    0    0  0.25811689664E+03  0.27361610500E+03 -0.10620186313E+04  0.11312076941E+04  0.10127768106E+03 0.  0.
         23    2    4    4    0    0  0.17437839888E+03 -0.19203987317E+03 -0.22620922393E+03  0.35640917156E+03  0.92572920994E+02 0.  0.
          2    1    3    3  502    0 -0.28352939162E+03 -0.42597879756E+02 -0.53089588986E+03  0.60336882679E+03  0.00000000000E+00 0. -1.
         -2    1    3    3    0  502 -0.14896590390E+03 -0.38978352071E+02 -0.17710268857E+03  0.23468173076E+03  0.00000000000E+00 0.  1.
         13    1    5    5    0    0  0.22391398325E+03  0.25739554372E+03 -0.85130015565E+03  0.91711607381E+03  0.00000000000E+00 0. -1.
        -13    1    5    5    0    0  0.34202913388E+02  0.16220561281E+02 -0.21071847569E+03  0.21409162032E+03  0.00000000000E+00 0.  1.
          2    1    6    6  503    0  0.25168916076E+02 -0.78565049340E+02 -0.38195286355E+02  0.90911062109E+02  0.00000000000E+00 0. -1.
         -2    1    6    6    0  503  0.14920948280E+03 -0.11347482383E+03 -0.18801393757E+03  0.26549810946E+03  0.00000000000E+00 0.  1.
<mgrwt>
<rscale>  0 0.54483065E+03</rscale>
<asrwt>0</asrwt>
<pdfrwt beam="1">  1        1 0.33245340E+00 0.54483065E+03</pdfrwt>
<pdfrwt beam="2">  1       -1 0.25341612E-01 0.54483065E+03</pdfrwt>
<totfact> 0.33972443E+01</totfact>
</mgrwt>
</event>
<event>
12    1  0.1432447E-007  0.1046805E+04  0.7818608E-02  0.9258649E-01
          2   -1    0    0  501    0  0.00000000000E+00  0.00000000000E+00  0.16351694033E+04  0.16351694033E+04  0.00000000000E+00 0. -1.
         -2   -1    0    0    0  501 -0.00000000000E+00 -0.00000000000E+00 -0.70293322137E+03  0.70293322137E+03  0.00000000000E+00 0.  1.
         23    2    1    2    0    0 -0.27791766148E+03  0.93373471311E+03  0.26530608603E+03  0.10138046435E+04  0.91180013239E+02 0.  0.
    5000000    2    1    2    0    0  0.27791766148E+03 -0.93373471311E+03  0.66693009590E+03  0.13242979812E+04  0.59989219796E+03 0.  0.
         23    2    4    4    0    0  0.41950684004E+03 -0.83104644766E+03  0.61874887047E+03  0.11218586539E+04  0.95354536401E+02 0.  0.
         23    2    4    4    0    0 -0.14158917856E+03 -0.10268826545E+03  0.48181225436E+02  0.20243932731E+03  0.89821352757E+02 0.  0.
          1    1    3    3  502    0 -0.10209841087E+03  0.23626944487E+03  0.97275085713E+02  0.27515409934E+03  0.00000000000E+00 0. -1.
         -1    1    3    3    0  502 -0.17581925061E+03  0.69746526824E+03  0.16803100032E+03  0.73865054414E+03  0.00000000000E+00 0.  1.
         11    1    5    5    0    0  0.26321737046E+03 -0.61394027559E+03  0.42887210138E+03  0.79381189550E+03  0.00000000000E+00 0.  1.
        -11    1    5    5    0    0  0.15628946958E+03 -0.21710617207E+03  0.18987676909E+03  0.32804675839E+03  0.00000000000E+00 0. -1.
          1    1    6    6  503    0 -0.25830580575E+02  0.12614434367E+01 -0.19882582388E+02  0.32620962812E+02  0.00000000000E+00 0. -1.
         -1    1    6    6    0  503 -0.11575859798E+03 -0.10394970889E+03  0.68063807824E+02  0.16981836450E+03  0.00000000000E+00 0.  1.
<mgrwt>
<rscale>  0 0.10468046E+04</rscale>
<asrwt>0</asrwt>
<pdfrwt beam="1">  1        2 0.25156452E+00 0.10468046E+04</pdfrwt>
<pdfrwt beam="2">  1       -2 0.10814357E+00 0.10468046E+04</pdfrwt>
<totfact> 0.72310414E+00</totfact>
</mgrwt>
</event>
<event>
12    1  0.1432447E-007  0.3742683E+03  0.7818608E-02  0.1053073E+00
          1   -1    0    0  501    0  0.00000000000E+00  0.00000000000E+00  0.56503062855E+03  0.56503062855E+03  0.00000000000E+00 0. -1.
         -1   -1    0    0    0  501 -0.00000000000E+00 -0.00000000000E+00 -0.38763574613E+03  0.38763574613E+03  0.00000000000E+00 0.  1.
         23    2    1    2    0    0 -0.42414118953E+02  0.11832635734E+03  0.29068613973E+03  0.32945967712E+03  0.90802878220E+02 0.  0.
    5000000    2    1    2    0    0  0.42414118953E+02 -0.11832635734E+03 -0.11329125730E+03  0.62320669755E+03  0.59979295975E+03 0.  0.
         23    2    4    4    0    0 -0.23181953990E+03  0.80160720324E+02 -0.43458531530E+02  0.26576049372E+03  0.92595658069E+02 0.  0.
         23    2    4    4    0    0  0.27423365886E+03 -0.19848707767E+03 -0.69832725772E+02  0.35744620383E+03  0.91049214139E+02 0.  0.
          4    1    3    3  502    0  0.22543691938E+02  0.40551533537E+02  0.49467880019E+02  0.67821206654E+02  0.00000000000E+00 0. -1.
         -4    1    3    3    0  502 -0.64957810891E+02  0.77774823807E+02  0.24121825971E+03  0.26163847047E+03  0.00000000000E+00 0.  1.
         11    1    5    5    0    0 -0.18303796053E+03  0.19106133228E+02 -0.30908191780E+02  0.18660990231E+03  0.00000000000E+00 0. -1.
        -11    1    5    5    0    0 -0.48781579373E+02  0.61054587096E+02 -0.12550339750E+02  0.79150591403E+02  0.00000000000E+00 0.  1.
          2    1    6    6  503    0  0.74434860012E+02 -0.49466198424E+02 -0.60680445433E+02  0.10802578224E+03  0.00000000000E+00 0. -1.
         -2    1    6    6    0  503  0.19979879885E+03 -0.14902087924E+03 -0.91522803391E+01  0.24942042159E+03  0.00000000000E+00 0.  1.
<mgrwt>
<rscale>  0 0.37426830E+03</rscale>
<asrwt>0</asrwt>
<pdfrwt beam="1">  1        1 0.86927789E-01 0.37426830E+03</pdfrwt>
<pdfrwt beam="2">  1       -1 0.59636268E-01 0.37426830E+03</pdfrwt>
<totfact> 0.11207049E+02</totfact>
</mgrwt>
</event>
<event>
12    1  0.1432447E-007  0.6062218E+03  0.7818608E-02  0.9892581E-01
         -2   -1    0    0    0  501 -0.00000000000E+00  0.00000000000E+00  0.16888280681E+04  0.16888280681E+04  0.00000000000E+00 0.  1.
          2   -1    0    0  501    0  0.00000000000E+00 -0.00000000000E+00 -0.30420264303E+03  0.30420264303E+03  0.00000000000E+00 0. -1.
         23    2    1    2    0    0 -0.37268517494E+03  0.30196740957E+03  0.10332698263E+03  0.49900842494E+03  0.90853655745E+02 0.  0.
    5000000    2    1    2    0    0  0.37268517494E+03 -0.30196740957E+03  0.12812984425E+04  0.14940222862E+04  0.60024856266E+03 0.  0.
         23    2    4    4    0    0 -0.19800205426E+02 -0.32486188517E+03  0.77335258011E+03  0.84533719742E+03  0.10292459184E+03 0.  0.
         23    2    4    4    0    0  0.39248538037E+03  0.22894475606E+02  0.50794586235E+03  0.64868508879E+03  0.90633407319E+02 0.  0.
          3    1    3    3  502    0 -0.20816086042E+03  0.22369403593E+03  0.54534430674E+02  0.31039325000E+03  0.00000000000E+00 0. -1.
         -3    1    3    3    0  502 -0.16452431453E+03  0.78273373641E+02  0.48792551955E+02  0.18861517494E+03  0.00000000000E+00 0.  1.
         13    1    5    5    0    0 -0.38631648354E+02 -0.25876685985E+03  0.68593846663E+03  0.73414186096E+03  0.00000000000E+00 0.  1.
        -13    1    5    5    0    0  0.18831442928E+02 -0.66095025320E+02  0.87414113482E+02  0.11119533646E+03  0.00000000000E+00 0. -1.
          1    1    6    6  503    0 -0.52390042726E+00  0.42142951524E+00 -0.33440394719E+01  0.34109638643E+01  0.00000000000E+00 0. -1.
         -1    1    6    6    0  503  0.39300928080E+03  0.22473046090E+02  0.51128990182E+03  0.64527412492E+03  0.00000000000E+00 0.  1.
<mgrwt>
<rscale>  0 0.60622177E+03</rscale>
<asrwt>0</asrwt>
<pdfrwt beam="1">  1        2 0.46800407E-01 0.60622177E+03</pdfrwt>
<pdfrwt beam="2">  1       -2 0.25981970E+00 0.60622177E+03</pdfrwt>
<totfact> 0.63445479E+00</totfact>
</mgrwt>
</event>
<event>
12    1  0.1432447E-007  0.5602641E+03  0.7818608E-02  0.9991457E-01
          1   -1    0    0  501    0  0.00000000000E+00  0.00000000000E+00  0.78411984237E+03  0.78411984237E+03  0.00000000000E+00 0. -1.
         -1   -1    0    0    0  501 -0.00000000000E+00 -0.00000000000E+00 -0.50328188965E+03  0.50328188965E+03  0.00000000000E+00 0.  1.
         23    2    1    2    0    0 -0.41357345068E+03 -0.13727019528E+03  0.31317703051E+03  0.54523640605E+03  0.96523470819E+02 0.  0.
    5000000    2    1    2    0    0  0.41357345068E+03  0.13727019528E+03 -0.32339077795E+02  0.74216532598E+03  0.59989786590E+03 0.  0.
         23    2    4    4    0    0  0.19571437365E+03 -0.20010144430E+03 -0.12575763549E+03  0.32065832074E+03  0.93070251507E+02 0.  0.
         23    2    4    4    0    0  0.21785907703E+03  0.33737163958E+03  0.93418557691E+02  0.42150700523E+03  0.87515300978E+02 0.  0.
          1    1    3    3  502    0 -0.18862832392E+03 -0.57411960889E+02  0.20075162522E+03  0.28138584340E+03  0.00000000000E+00 0. -1.
         -1    1    3    3    0  502 -0.22494512676E+03 -0.79858234390E+02  0.11242540529E+03  0.26385056264E+03  0.00000000000E+00 0.  1.
         13    1    5    5    0    0  0.51430721434E+02 -0.71026483413E+02  0.36984893672E+01  0.87769922393E+02  0.00000000000E+00 0.  1.
        -13    1    5    5    0    0  0.14428365222E+03 -0.12907496088E+03 -0.12945612485E+03  0.23288839835E+03  0.00000000000E+00 0. -1.
          1    1    6    6  503    0  0.93337925240E+02  0.17935351615E+03  0.63419391835E+01  0.20228660914E+03  0.00000000000E+00 0. -1.
         -1    1    6    6    0  503  0.12452115179E+03  0.15801812343E+03  0.87076618508E+02  0.21922039610E+03  0.00000000000E+00 0.  1.
<mgrwt>
<rscale>  0 0.56026413E+03</rscale>
<asrwt>0</asrwt>
<pdfrwt beam="1">  1        1 0.12063382E+00 0.56026413E+03</pdfrwt>
<pdfrwt beam="2">  1       -1 0.77427984E-01 0.56026413E+03</pdfrwt>
<totfact> 0.39945124E+01</totfact>
</mgrwt>
</event>
<event>
12    1  0.1432447E-007  0.4191471E+03  0.7818608E-02  0.1037344E+00
         -2   -1    0    0    0  501 -0.00000000000E+00  0.00000000000E+00  0.30678308804E+03  0.30678308804E+03  0.00000000000E+00 0.  1.
          2   -1    0    0  501    0  0.00000000000E+00 -0.00000000000E+00 -0.94070599858E+03  0.94070599858E+03  0.00000000000E+00 0. -1.
         23    2    1    2    0    0 -0.26265901601E+03 -0.24721149926E+03 -0.26997779771E+03  0.45866452773E+03  0.85917714622E+02 0.  0.
    5000000    2    1    2    0    0  0.26265901601E+03  0.24721149926E+03 -0.36394511283E+03  0.78882455889E+03  0.59973732208E+03 0.  0.
         23    2    4    4    0    0 -0.32316840112E+02  0.58707494740E+01  0.12668695264E+03  0.16094166986E+03  0.93668528723E+02 0.  0.
         23    2    4    4    0    0  0.29497585612E+03  0.24134074979E+03 -0.49063206547E+03  0.62788288903E+03  0.90889963544E+02 0.  0.
          4    1    3    3  502    0 -0.18393105052E+03 -0.17109949417E+03 -0.13610313983E+03  0.28570917542E+03  0.00000000000E+00 0. -1.
         -4    1    3    3    0  502 -0.78727965486E+02 -0.76112005091E+02 -0.13387465788E+03  0.17295535230E+03  0.00000000000E+00 0.  1.
         13    1    5    5    0    0 -0.12838586300E+02 -0.38458135334E+02  0.94416490904E+02  0.10275374069E+03  0.00000000000E+00 0.  1.
        -13    1    5    5    0    0 -0.19478253812E+02  0.44328884808E+02  0.32270461734E+02  0.58187929164E+02  0.00000000000E+00 0. -1.
          1    1    6    6  503    0  0.11774775981E+03  0.50335880019E+02 -0.12537772401E+03  0.17921442307E+03  0.00000000000E+00 0. -1.
         -1    1    6    6    0  503  0.17722809631E+03  0.19100486977E+03 -0.36525434146E+03  0.44866846596E+03  0.00000000000E+00 0.  1.
<mgrwt>
<rscale>  0 0.41914714E+03</rscale>
<asrwt>0</asrwt>
<pdfrwt beam="1">  1        2 0.14472400E+00 0.41914714E+03</pdfrwt>
<pdfrwt beam="2">  1       -2 0.47197398E-01 0.41914714E+03</pdfrwt>
<totfact> 0.12214418E+02</totfact>
</mgrwt>
</event>
<event>
12    1  0.1432447E-007  0.1065998E+04  0.7818608E-02  0.9238981E-01
          1   -1    0    0  501    0  0.00000000000E+00  0.00000000000E+00  0.39233395349E+04  0.39233395349E+04  0.00000000000E+00 0. -1.
         -1   -1    0    0    0  501 -0.00000000000E+00 -0.00000000000E+00 -0.31687721868E+03  0.31687721868E+03  0.00000000000E+00 0.  1.
         23    2    1    2    0    0  0.75205398511E+02 -0.10287291666E+04  0.16032736995E+04  0.19086033907E+04  0.91327964886E+02 0.  0.
    5000000    2    1    2    0    0 -0.75205398511E+02  0.10287291666E+04  0.20031886167E+04  0.23316133629E+04  0.59976386176E+03 0.  0.
         23    2    4    4    0    0 -0.11166514835E+03  0.98848356767E+03  0.19883660835E+04  0.22251920823E+04  0.91166067821E+02 0.  0.
         23    2    4    4    0    0  0.36459749842E+02  0.40245598909E+02  0.14822533216E+02  0.10642128068E+03  0.90314782298E+02 0.  0.
          2    1    3    3  502    0  0.43871106423E+02 -0.64734266406E+03  0.10879726315E+04  0.12667524011E+04  0.00000000000E+00 0. -1.
         -2    1    3    3    0  502  0.31334292088E+02 -0.38138650253E+03  0.51530106802E+03  0.64185098962E+03  0.00000000000E+00 0.  1.
         11    1    5    5    0    0 -0.10117023676E+03  0.49019727391E+03  0.99037438103E+03  0.11096712120E+04  0.00000000000E+00 0. -1.
        -11    1    5    5    0    0 -0.10494911591E+02  0.49828629377E+03  0.99799170249E+03  0.11155208702E+04  0.00000000000E+00 0.  1.
          3    1    6    6  503    0 -0.73323698133E+01 -0.23283847809E+02  0.16113989637E+02  0.29249989366E+02  0.00000000000E+00 0. -1.
         -3    1    6    6    0  503  0.43792119655E+02  0.63529446718E+02 -0.12914564214E+01  0.77171291319E+02  0.00000000000E+00 0.  1.
<mgrwt>
<rscale>  0 0.10659980E+04</rscale>
<asrwt>0</asrwt>
<pdfrwt beam="1">  1        1 0.60359066E+00 0.10659980E+04</pdfrwt>
<pdfrwt beam="2">  1       -1 0.48750344E-01 0.10659980E+04</pdfrwt>
<totfact> 0.49002188E-01</totfact>
</mgrwt>
</event>
<event>
12    1  0.1432447E-007  0.8369871E+03  0.7818608E-02  0.9507971E-01
          1   -1    0    0  501    0  0.00000000000E+00  0.00000000000E+00  0.91187600715E+03  0.91187600715E+03  0.00000000000E+00 0. -1.
         -1   -1    0    0    0  501 -0.00000000000E+00 -0.00000000000E+00 -0.10355339424E+04  0.10355339424E+04  0.00000000000E+00 0.  1.
         23    2    1    2    0    0  0.68219827779E+03 -0.46810766600E+03  0.23359132348E+03  0.86470918936E+03  0.92939757753E+02 0.  0.
    5000000    2    1    2    0    0 -0.68219827779E+03  0.46810766600E+03 -0.35724925872E+03  0.10827007602E+04  0.60007884986E+03 0.  0.
         23    2    4    4    0    0 -0.25905981424E+03  0.21636757862E+03  0.13956751496E+03  0.37655987880E+03  0.91604228406E+02 0.  0.
         23    2    4    4    0    0 -0.42313846356E+03  0.25174008738E+03 -0.49681677368E+03  0.70614088138E+03  0.96895855472E+02 0.  0.
          1    1    3    3  502    0  0.39564300787E+03 -0.30595559183E+03  0.17754424302E+03  0.53072042741E+03  0.00000000000E+00 0. -1.
         -1    1    3    3    0  502  0.28655526993E+03 -0.16215207417E+03  0.56047080466E+02  0.33398876195E+03  0.00000000000E+00 0.  1.
         11    1    5    5    0    0 -0.22875425847E+03  0.14528305713E+03  0.93890747745E+02  0.28679461287E+03  0.00000000000E+00 0. -1.
        -11    1    5    5    0    0 -0.30305555767E+02  0.71084521482E+02  0.45676767216E+02  0.89765265932E+02  0.00000000000E+00 0.  1.
          4    1    6    6  503    0 -0.16778709093E+03  0.13588237103E+03 -0.16517539512E+03  0.27184451032E+03  0.00000000000E+00 0. -1.
         -4    1    6    6    0  503 -0.25535137263E+03  0.11585771636E+03 -0.33164137855E+03  0.43429637106E+03  0.00000000000E+00 0.  1.
<mgrwt>
<rscale>  0 0.83698711E+03</rscale>
<asrwt>0</asrwt>
<pdfrwt beam="1">  1        1 0.14028862E+00 0.83698711E+03</pdfrwt>
<pdfrwt beam="2">  1       -1 0.15931291E+00 0.83698711E+03</pdfrwt>
<totfact> 0.53827281E+00</totfact>
</mgrwt>
</event>
<event>
12    1  0.1432447E-007  0.5614053E+03  0.7818608E-02  0.9988880E-01
         -2   -1    0    0    0  501 -0.00000000000E+00  0.00000000000E+00  0.92239798493E+03  0.92239798493E+03  0.00000000000E+00 0.  1.
          2   -1    0    0  501    0  0.00000000000E+00 -0.00000000000E+00 -0.52321615199E+03  0.52321615199E+03  0.00000000000E+00 0. -1.
         23    2    1    2    0    0  0.63891989497E+02  0.52139085769E+03 -0.40890539371E+02  0.53511820572E+03  0.93535261164E+02 0.  0.
    5000000    2    1    2    0    0 -0.63891989497E+02 -0.52139085769E+03  0.44007237232E+03  0.91049593120E+03  0.59950690993E+03 0.  0.
         23    2    4    4    0    0  0.43916354368E+01 -0.46061854007E+03  0.56263515565E+03  0.73272937958E+03  0.90251312473E+02 0.  0.
         23    2    4    4    0    0 -0.68283624934E+02 -0.60772317615E+02 -0.12256278334E+03  0.17776655162E+03  0.90682870454E+02 0.  0.
          3    1    3    3  502    0  0.12335386810E+02  0.39554824203E+03 -0.49645546508E+02  0.39884239222E+03  0.00000000000E+00 0. -1.
         -3    1    3    3    0  502  0.51556602687E+02  0.12584261566E+03  0.87550071374E+01  0.13627581350E+03  0.00000000000E+00 0.  1.
         13    1    5    5    0    0  0.44639674568E+02 -0.23908549238E+03  0.26798445664E+03  0.36189811026E+03  0.00000000000E+00 0. -1.
        -13    1    5    5    0    0 -0.40248039131E+02 -0.22153304770E+03  0.29465069901E+03  0.37083126932E+03  0.00000000000E+00 0.  1.
          1    1    6    6  503    0  0.18706309179E+02 -0.17177597299E+02 -0.51026615630E+02  0.56997467968E+02  0.00000000000E+00 0. -1.
         -1    1    6    6    0  503 -0.86989934113E+02 -0.43594720316E+02 -0.71536167705E+02  0.12076908365E+03  0.00000000000E+00 0.  1.
<mgrwt>
<rscale>  0 0.56140529E+03</rscale>
<asrwt>0</asrwt>
<pdfrwt beam="1">  1        2 0.80494793E-01 0.56140529E+03</pdfrwt>
<pdfrwt beam="2">  1       -2 0.14190738E+00 0.56140529E+03</pdfrwt>
<totfact> 0.20906510E+01</totfact>
</mgrwt>
</event>
<event>
12    1  0.1432447E-007  0.6435472E+03  0.7818608E-02  0.9818963E-01
         -2   -1    0    0    0  501 -0.00000000000E+00  0.00000000000E+00  0.23980618250E+03  0.23980618250E+03  0.00000000000E+00 0.  1.
          2   -1    0    0  501    0  0.00000000000E+00 -0.00000000000E+00 -0.24885037742E+04  0.24885037742E+04  0.00000000000E+00 0. -1.
         23    2    1    2    0    0  0.63590144410E+03 -0.93216222749E+01 -0.12147614025E+04  0.13742584764E+04  0.92106219945E+02 0.  0.
    5000000    2    1    2    0    0 -0.63590144410E+03  0.93216222749E+01 -0.10339361892E+04  0.13540514803E+04  0.59997819015E+03 0.  0.
         23    2    4    4    0    0 -0.14542078878E+03  0.16663891082E+02  0.33806267312E+02  0.17573412443E+03  0.91185128746E+02 0.  0.
         23    2    4    4    0    0 -0.49048065532E+03 -0.73422688074E+01 -0.10677424565E+04  0.11783173558E+04  0.87935519043E+02 0.  0.
          4    1    3    3  502    0  0.55475561699E+03  0.22233894363E+02 -0.10343465794E+04  0.11739339790E+04  0.00000000000E+00 0. -1.
         -4    1    3    3    0  502  0.81145827112E+02 -0.31555516638E+02 -0.18041482309E+03  0.20032449745E+03  0.00000000000E+00 0.  1.
         13    1    5    5    0    0 -0.23987193051E+02  0.12365397013E+02  0.46292766172E+02  0.53584593622E+02  0.00000000000E+00 0.  1.
        -13    1    5    5    0    0 -0.12143359573E+03  0.42984940690E+01 -0.12486498860E+02  0.12214953081E+03  0.00000000000E+00 0. -1.
          3    1    6    6  503    0 -0.25612287830E+03  0.33952077524E+02 -0.50263595715E+03  0.56515004890E+03  0.00000000000E+00 0. -1.
         -3    1    6    6    0  503 -0.23435777703E+03 -0.41294346332E+02 -0.56510649934E+03  0.61316730693E+03  0.00000000000E+00 0.  1.
<mgrwt>
<rscale>  0 0.64354721E+03</rscale>
<asrwt>0</asrwt>
<pdfrwt beam="1">  1        2 0.38284672E+00 0.64354721E+03</pdfrwt>
<pdfrwt beam="2">  1       -2 0.36893260E-01 0.64354721E+03</pdfrwt>
<totfact> 0.25986536E+01</totfact>
</mgrwt>
</event>
<event>
12    1  0.1432447E-007  0.1756229E+04  0.7818608E-02  0.8729929E-01
         -1   -1    0    0    0  501 -0.00000000000E+00  0.00000000000E+00  0.16531584817E+04  0.16531584817E+04  0.00000000000E+00 0.  1.
          1   -1    0    0  501    0  0.00000000000E+00 -0.00000000000E+00 -0.20383867061E+04  0.20383867061E+04  0.00000000000E+00 0. -1.
         23    2    1    2    0    0  0.10918944198E+04 -0.13697480661E+04  0.15974854582E+03  0.17614537008E+04  0.93575390556E+02 0.  0.
    5000000    2    1    2    0    0 -0.10918944198E+04  0.13697480661E+04 -0.54497677021E+03  0.19300914870E+04  0.59984187908E+03 0.  0.
         23    2    4    4    0    0 -0.60032921879E+03  0.68562440992E+03  0.12572599600E+02  0.91588193769E+03  0.90585049053E+02 0.  0.
         23    2    4    4    0    0 -0.49156520097E+03  0.68412365613E+03 -0.55754936981E+03  0.10142095493E+04  0.89989924559E+02 0.  0.
          1    1    3    3  502    0  0.60330139668E+03 -0.76240197219E+03  0.13520433941E+03  0.98158522597E+03  0.00000000000E+00 0. -1.
         -1    1    3    3    0  502  0.48859302308E+03 -0.60734609386E+03  0.24544206409E+02  0.77986847481E+03  0.00000000000E+00 0.  1.
         11    1    5    5    0    0 -0.34347779886E+03  0.45455987671E+03 -0.77995375534E+01  0.56979163964E+03  0.00000000000E+00 0. -1.
        -11    1    5    5    0    0 -0.25685141993E+03  0.23106453322E+03  0.20372137154E+02  0.34609029805E+03  0.00000000000E+00 0.  1.
          3    1    6    6  503    0 -0.11804173048E+03  0.22087229273E+03 -0.13635479926E+03  0.28515092690E+03  0.00000000000E+00 0. -1.
         -3    1    6    6    0  503 -0.37352347050E+03  0.46325136340E+03 -0.42119457055E+03  0.72905862245E+03  0.00000000000E+00 0.  1.
<mgrwt>
<rscale>  0 0.17562286E+04</rscale>
<asrwt>0</asrwt>
<pdfrwt beam="1">  1        1 0.31359795E+00 0.17562286E+04</pdfrwt>
<pdfrwt beam="2">  1       -1 0.25433208E+00 0.17562286E+04</pdfrwt>
<totfact> 0.16801449E-01</totfact>
</mgrwt>
</event>
<event>
12    1  0.1432447E-007  0.1087159E+04  0.7818608E-02  0.9217799E-01
          1   -1    0    0  501    0  0.00000000000E+00  0.00000000000E+00  0.23181491289E+04  0.23181491289E+04  0.00000000000E+00 0. -1.
         -1   -1    0    0    0  501 -0.00000000000E+00 -0.00000000000E+00 -0.52644020092E+03  0.52644020092E+03  0.00000000000E+00 0.  1.
         23    2    1    2    0    0  0.66612717984E+03 -0.77340863560E+03  0.86237420190E+03  0.13393940559E+04  0.91656071484E+02 0.  0.
    5000000    2    1    2    0    0 -0.66612717984E+03  0.77340863560E+03  0.92933472613E+03  0.15051952740E+04  0.60005286625E+03 0.  0.
         23    2    4    4    0    0 -0.52596129470E+02 -0.77469632580E+02  0.79907813406E+02  0.15232858453E+03  0.89726485585E+02 0.  0.
         23    2    4    4    0    0 -0.61353105037E+03  0.85087826818E+03  0.84942691272E+03  0.13528666895E+04  0.91148353469E+02 0.  0.
          2    1    3    3  502    0  0.50020602154E+03 -0.57656342526E+03  0.69513766685E+03  0.10323990620E+04  0.00000000000E+00 0. -1.
         -2    1    3    3    0  502  0.16592115830E+03 -0.19684521035E+03  0.16723653505E+03  0.30699499387E+03  0.00000000000E+00 0.  1.
         11    1    5    5    0    0 -0.51688374650E+02 -0.39653908473E+02  0.91898054290E+02  0.11264711676E+03  0.00000000000E+00 0. -1.
        -11    1    5    5    0    0 -0.90775481953E+00 -0.37815724107E+02 -0.11990240884E+02  0.39681467778E+02  0.00000000000E+00 0.  1.
          4    1    6    6  503    0 -0.57421707348E+03  0.76863578815E+03  0.79976973830E+03  0.12490627913E+04  0.00000000000E+00 0. -1.
         -4    1    6    6    0  503 -0.39313976891E+02  0.82242480032E+02  0.49657174421E+02  0.10380389816E+03  0.00000000000E+00 0.  1.
<mgrwt>
<rscale>  0 0.10871590E+04</rscale>
<asrwt>0</asrwt>
<pdfrwt beam="1">  1        1 0.35663832E+00 0.10871590E+04</pdfrwt>
<pdfrwt beam="2">  1       -1 0.80990802E-01 0.10871590E+04</pdfrwt>
<totfact> 0.27589288E+00</totfact>
</mgrwt>
</event>
<event>
12    1  0.1432447E-007  0.4708851E+03  0.7818608E-02  0.1021671E+00
          2   -1    0    0  501    0  0.00000000000E+00  0.00000000000E+00  0.24428578419E+04  0.24428578419E+04  0.00000000000E+00 0. -1.
         -2   -1    0    0    0  501 -0.00000000000E+00 -0.00000000000E+00 -0.16135379465E+03  0.16135379465E+03  0.00000000000E+00 0.  1.
         23    2    1    2    0    0 -0.26303755448E+03 -0.11710099631E+03  0.91785510050E+02  0.31560870305E+03  0.91010302641E+02 0.  0.
    5000000    2    1    2    0    0  0.26303755448E+03  0.11710099631E+03  0.21897185372E+04  0.22886029335E+04  0.59994559473E+03 0.  0.
         23    2    4    4    0    0 -0.68392157893E+01  0.30305652894E+03  0.12451779770E+04  0.12848220380E+04  0.91703000687E+02 0.  0.
         23    2    4    4    0    0  0.26987677027E+03 -0.18595553263E+03  0.94454056016E+03  0.10037808954E+04  0.89477846622E+02 0.  0.
          2    1    3    3  502    0 -0.10575475078E+03 -0.95842076791E+02  0.34120289498E+02  0.14674455749E+03  0.00000000000E+00 0. -1.
         -2    1    3    3    0  502 -0.15728280369E+03 -0.21258919521E+02  0.57665220552E+02  0.16886414557E+03  0.00000000000E+00 0.  1.
         11    1    5    5    0    0  0.59806635505E+01  0.13861058746E+03  0.75484617518E+03  0.76749033315E+03  0.00000000000E+00 0. -1.
        -11    1    5    5    0    0 -0.12819879340E+02  0.16444594148E+03  0.49033180185E+03  0.51733170488E+03  0.00000000000E+00 0.  1.
          3    1    6    6  503    0  0.19012867153E+03 -0.85715829514E+02  0.51755718067E+03  0.55799780504E+03  0.00000000000E+00 0. -1.
         -3    1    6    6    0  503  0.79748098730E+02 -0.10023970311E+03  0.42698337949E+03  0.44578309041E+03  0.00000000000E+00 0.  1.
<mgrwt>
<rscale>  0 0.47088508E+03</rscale>
<asrwt>0</asrwt>
<pdfrwt beam="1">  1        2 0.37582426E+00 0.47088508E+03</pdfrwt>
<pdfrwt beam="2">  1       -2 0.24823662E-01 0.47088508E+03</pdfrwt>
<totfact> 0.59277593E+01</totfact>
</mgrwt>
</event>
<event>
12    1  0.1432447E-007  0.5389081E+03  0.7818608E-02  0.1004094E+00
         -1   -1    0    0    0  501 -0.00000000000E+00  0.00000000000E+00  0.43715297263E+03  0.43715297263E+03  0.00000000000E+00 0.  1.
          1   -1    0    0  501    0  0.00000000000E+00 -0.00000000000E+00 -0.81922570666E+03  0.81922570666E+03  0.00000000000E+00 0. -1.
         23    2    1    2    0    0 -0.40014898367E+03 -0.17844836722E+03 -0.20640827962E+03  0.49304120156E+03  0.92315868882E+02 0.  0.
    5000000    2    1    2    0    0  0.40014898367E+03  0.17844836722E+03 -0.17566445442E+03  0.76333747772E+03  0.59988588536E+03 0.  0.
         23    2    4    4    0    0  0.24140106961E+03  0.32362260547E+03  0.76740758982E+02  0.42086336366E+03  0.90723533917E+02 0.  0.
         23    2    4    4    0    0  0.15874791407E+03 -0.14517423825E+03 -0.25240521340E+03  0.34247411406E+03  0.85461496451E+02 0.  0.
          4    1    3    3  502    0 -0.96343056675E+02 -0.41142750024E+02 -0.95298037354E+02  0.14162071308E+03  0.00000000000E+00 0. -1.
         -4    1    3    3    0  502 -0.30380592700E+03 -0.13730561719E+03 -0.11111024226E+03  0.35142048849E+03  0.00000000000E+00 0.  1.
         11    1    5    5    0    0  0.14234245889E+03  0.12868343765E+03  0.62199264547E+02  0.20171651206E+03  0.00000000000E+00 0. -1.
        -11    1    5    5    0    0  0.99058610724E+02  0.19493916782E+03  0.14541494434E+02  0.21914685160E+03  0.00000000000E+00 0.  1.
          1    1    6    6  503    0  0.12177832016E+03 -0.58950338659E+02 -0.12458193860E+03  0.18391781076E+03  0.00000000000E+00 0. -1.
         -1    1    6    6    0  503  0.36969593902E+02 -0.86223899595E+02 -0.12782327480E+03  0.15855630330E+03  0.00000000000E+00 0.  1.
<mgrwt>
<rscale>  0 0.53890811E+03</rscale>
<asrwt>0</asrwt>
<pdfrwt beam="1">  1        1 0.12603472E+00 0.53890811E+03</pdfrwt>
<pdfrwt beam="2">  1       -1 0.67254305E-01 0.53890811E+03</pdfrwt>
<totfact> 0.49896304E+01</totfact>
</mgrwt>
</event>
<event>
12    1  0.1432447E-007  0.7301663E+03  0.7818608E-02  0.9666991E-01
         -2   -1    0    0    0  501 -0.00000000000E+00  0.00000000000E+00  0.27982302163E+03  0.27982302163E+03  0.00000000000E+00 0.  1.
          2   -1    0    0  501    0  0.00000000000E+00 -0.00000000000E+00 -0.25769805248E+04  0.25769805248E+04  0.00000000000E+00 0. -1.
         23    2    1    2    0    0  0.60654347938E+03  0.92674578681E+02 -0.17041615542E+04  0.18136722965E+04  0.93578983830E+02 0.  0.
    5000000    2    1    2    0    0 -0.60654347938E+03 -0.92674578681E+02 -0.59299594894E+03  0.10431312499E+04  0.59999586601E+03 0.  0.
         23    2    4    4    0    0 -0.62885387225E+03  0.98868270283E+02 -0.45414074627E+03  0.78738284894E+03  0.92172695947E+02 0.  0.
         23    2    4    4    0    0  0.22310392866E+02 -0.19154284896E+03 -0.13885520267E+03  0.25574840100E+03  0.94551894134E+02 0.  0.
          3    1    3    3  502    0  0.33213187246E+03  0.13340188350E+02 -0.83285978506E+03  0.89674130210E+03  0.00000000000E+00 0. -1.
         -3    1    3    3    0  502  0.27441160693E+03  0.79334390332E+02 -0.87130176914E+03  0.91693099435E+03  0.00000000000E+00 0.  1.
         11    1    5    5    0    0 -0.53446183770E+03  0.11689746277E+03 -0.38395422220E+03  0.66838261311E+03  0.00000000000E+00 0. -1.
        -11    1    5    5    0    0 -0.94392034543E+02 -0.18029192488E+02 -0.70186524069E+02  0.11900023583E+03  0.00000000000E+00 0.  1.
          1    1    6    6  503    0  0.19112153317E+02 -0.20542548010E+02 -0.62378428330E+02  0.68398384514E+02  0.00000000000E+00 0. -1.
         -1    1    6    6    0  503  0.31982395485E+01 -0.17100030095E+03 -0.76476774343E+02  0.18735001648E+03  0.00000000000E+00 0.  1.
<mgrwt>
<rscale>  0 0.73016631E+03</rscale>
<asrwt>0</asrwt>
<pdfrwt beam="1">  1        2 0.39645853E+00 0.73016631E+03</pdfrwt>
<pdfrwt beam="2">  1       -2 0.43049697E-01 0.73016631E+03</pdfrwt>
<totfact> 0.16894201E+01</totfact>
</mgrwt>
</event>
<event>
12    1  0.1432447E-007  0.1086334E+04  0.7818608E-02  0.9218615E-01
         -2   -1    0    0    0  501 -0.00000000000E+00  0.00000000000E+00  0.56972346337E+03  0.56972346337E+03  0.00000000000E+00 0.  1.
          2   -1    0    0  501    0  0.00000000000E+00 -0.00000000000E+00 -0.25534109515E+04  0.25534109515E+04  0.00000000000E+00 0. -1.
         23    2    1    2    0    0  0.76921794528E+03 -0.72227328174E+03 -0.14538962518E+04  0.17987064216E+04  0.90308023918E+02 0.  0.
    5000000    2    1    2    0    0 -0.76921794528E+03  0.72227328174E+03 -0.52979123634E+03  0.13244279933E+04  0.60004651024E+03 0.  0.
         23    2    4    4    0    0 -0.11173771794E+03  0.31580631671E+03 -0.40971893749E+03  0.53702438518E+03  0.91140744253E+02 0.  0.
         23    2    4    4    0    0 -0.65748022734E+03  0.40646696503E+03 -0.12007229885E+03  0.78740360811E+03  0.89952443576E+02 0.  0.
          1    1    3    3  502    0  0.31767796495E+03 -0.35704818977E+03 -0.67946269158E+03  0.83070587363E+03  0.00000000000E+00 0. -1.
         -1    1    3    3    0  502  0.45153998033E+03 -0.36522509196E+03 -0.77443356019E+03  0.96800054793E+03  0.00000000000E+00 0.  1.
         11    1    5    5    0    0 -0.83270423414E+02  0.26817183654E+03 -0.38437274469E+03  0.47601733602E+03  0.00000000000E+00 0.  1.
        -11    1    5    5    0    0 -0.28467294528E+02  0.47634480163E+02 -0.25346192793E+02  0.61007049160E+02  0.00000000000E+00 0. -1.
          1    1    6    6  503    0 -0.51715152421E+02  0.62394099298E+02 -0.40003153535E+01  0.81138666122E+02  0.00000000000E+00 0. -1.
         -1    1    6    6    0  503 -0.60576507492E+03  0.34407286573E+03 -0.11607198350E+03  0.70626494198E+03  0.00000000000E+00 0.  1.
<mgrwt>
<rscale>  0 0.10863340E+04</rscale>
<asrwt>0</asrwt>
<pdfrwt beam="1">  1        2 0.39283246E+00 0.10863340E+04</pdfrwt>
<pdfrwt beam="2">  1       -2 0.87649763E-01 0.10863340E+04</pdfrwt>
<totfact> 0.36371299E+00</totfact>
</mgrwt>
</event>
<event>
12    1  0.1432447E-007  0.7653234E+03  0.7818608E-02  0.9611612E-01
         -2   -1    0    0    0  501 -0.00000000000E+00  0.00000000000E+00  0.71281095810E+03  0.71281095810E+03  0.00000000000E+00 0.  1.
          2   -1    0    0  501    0  0.00000000000E+00 -0.00000000000E+00 -0.12122077352E+04  0.12122077352E+04  0.00000000000E+00 0. -1.
         23    2    1    2    0    0  0.86857913121E+02  0.65758585166E+03  0.29224264350E+03  0.73057003532E+03  0.91451432224E+02 0.  0.
    5000000    2    1    2    0    0 -0.86857913121E+02 -0.65758585166E+03 -0.79163942058E+03  0.11944486580E+04  0.60004264426E+03 0.  0.
         23    2    4    4    0    0 -0.30856445325E+03 -0.50235381936E+03 -0.43981953462E+03  0.74122387164E+03  0.91652731662E+02 0.  0.
         23    2    4    4    0    0  0.22170654013E+03 -0.15523203230E+03 -0.35181988597E+03  0.45322478633E+03  0.91568012925E+02 0.  0.
          2    1    3    3  502    0  0.72821716288E+02  0.56779953026E+03  0.28481691993E+03  0.63939032429E+03  0.00000000000E+00 0. -1.
         -2    1    3    3    0  502  0.14036196833E+02  0.89786321401E+02  0.74257235698E+01  0.91179711026E+02  0.00000000000E+00 0.  1.
         13    1    5    5    0    0 -0.24837367408E+03 -0.46077120628E+03 -0.38815157815E+03  0.65166036716E+03  0.00000000000E+00 0.  1.
        -13    1    5    5    0    0 -0.60190779178E+02 -0.41582613077E+02 -0.51667956471E+02  0.89563504477E+02  0.00000000000E+00 0. -1.
          4    1    6    6  503    0  0.54246921055E+02 -0.41086582746E+02 -0.16131449286E+03  0.17508055670E+03  0.00000000000E+00 0. -1.
         -4    1    6    6    0  503  0.16745961908E+03 -0.11414544955E+03 -0.19050539310E+03  0.27814422963E+03  0.00000000000E+00 0.  1.
<mgrwt>
<rscale>  0 0.76532338E+03</rscale>
<asrwt>0</asrwt>
<pdfrwt beam="1">  1        2 0.18649350E+00 0.76532338E+03</pdfrwt>
<pdfrwt beam="2">  1       -2 0.10966323E+00 0.76532338E+03</pdfrwt>
<totfact> 0.12548772E+01</totfact>
</mgrwt>
</event>
<event>
12    1  0.1432447E-007  0.1528858E+04  0.7818608E-02  0.8865486E-01
         -1   -1    0    0    0  501 -0.00000000000E+00  0.00000000000E+00  0.15576780490E+04  0.15576780490E+04  0.00000000000E+00 0.  1.
          1   -1    0    0  501    0  0.00000000000E+00 -0.00000000000E+00 -0.27964218028E+04  0.27964218028E+04  0.00000000000E+00 0. -1.
         23    2    1    2    0    0  0.14483009340E+04  0.26736256683E+03 -0.20836748251E+04  0.25532764066E+04  0.91985294100E+02 0.  0.
    5000000    2    1    2    0    0 -0.14483009340E+04 -0.26736256683E+03  0.84493107127E+03  0.18008234451E+04  0.59999852322E+03 0.  0.
         23    2    4    4    0    0 -0.10516083213E+04 -0.44582719435E+03  0.60542874045E+03  0.12958350910E+04  0.89457669885E+02 0.  0.
         23    2    4    4    0    0 -0.39669261272E+03  0.17846462752E+03  0.23950233081E+03  0.50498835415E+03  0.91854336342E+02 0.  0.
          2    1    3    3  502    0  0.52895101593E+03  0.62040232073E+02 -0.79960816225E+03  0.96073481293E+03  0.00000000000E+00 0.  1.
         -2    1    3    3    0  502  0.91934991805E+03  0.20532233476E+03 -0.12840666628E+04  0.15925415937E+04  0.00000000000E+00 0. -1.
         11    1    5    5    0    0 -0.50654242186E+03 -0.17177585750E+03  0.30622155039E+03  0.61633092433E+03  0.00000000000E+00 0. -1.
        -11    1    5    5    0    0 -0.54506589939E+03 -0.27405133684E+03  0.29920719007E+03  0.67950416665E+03  0.00000000000E+00 0.  1.
          3    1    6    6  503    0 -0.22948521581E+03  0.13155338523E+03  0.18565637365E+03  0.32316875857E+03  0.00000000000E+00 0. -1.
         -3    1    6    6    0  503 -0.16720739691E+03  0.46911242289E+02  0.53845957163E+02  0.18181959558E+03  0.00000000000E+00 0.  1.
<mgrwt>
<rscale>  0 0.15288578E+04</rscale>
<asrwt>0</asrwt>
<pdfrwt beam="1">  1        1 0.43021874E+00 0.15288578E+04</pdfrwt>
<pdfrwt beam="2">  1       -1 0.23964278E+00 0.15288578E+04</pdfrwt>
<totfact> 0.64301663E-02</totfact>
</mgrwt>
</event>
<event>
12    1  0.1432447E-007  0.8978341E+03  0.7818608E-02  0.9428293E-01
         -2   -1    0    0    0  501 -0.00000000000E+00  0.00000000000E+00  0.29424968846E+03  0.29424968846E+03  0.00000000000E+00 0.  1.
          2   -1    0    0  501    0  0.00000000000E+00 -0.00000000000E+00 -0.33075572189E+04  0.33075572189E+04  0.00000000000E+00 0. -1.
         23    2    1    2    0    0  0.73342073324E+03 -0.50280671251E+03 -0.15201994610E+04  0.17632573061E+04  0.85728432855E+02 0.  0.
    5000000    2    1    2    0    0 -0.73342073324E+03  0.50280671251E+03 -0.14931080695E+04  0.18385496013E+04  0.60014362214E+03 0.  0.
         23    2    4    4    0    0 -0.48526663731E+03  0.34217552976E+03 -0.44989000760E+03  0.75072696325E+03  0.92855543462E+02 0.  0.
         23    2    4    4    0    0 -0.24815409593E+03  0.16063118275E+03 -0.10432180619E+04  0.10878226380E+04  0.87586157817E+02 0.  0.
          2    1    3    3  502    0  0.49892901998E+03 -0.33955040756E+03 -0.11082059504E+04  0.12618815613E+04  0.00000000000E+00 0. -1.
         -2    1    3    3    0  502  0.23449171325E+03 -0.16325630495E+03 -0.41199351055E+03  0.50137574475E+03  0.00000000000E+00 0.  1.
         13    1    5    5    0    0 -0.40688514168E+03  0.24965141328E+03 -0.33093875622E+03  0.58086298474E+03  0.00000000000E+00 0. -1.
        -13    1    5    5    0    0 -0.78381495625E+02  0.92524116488E+02 -0.11895125139E+03  0.16986397851E+03  0.00000000000E+00 0.  1.
          3    1    6    6  503    0 -0.15902593430E+03  0.52055113746E+02 -0.59802760219E+03  0.62099597070E+03  0.00000000000E+00 0. -1.
         -3    1    6    6    0  503 -0.89128161630E+02  0.10857606900E+03 -0.44519045967E+03  0.46682666733E+03  0.00000000000E+00 0.  1.
<mgrwt>
<rscale>  0 0.89783406E+03</rscale>
<asrwt>0</asrwt>
<pdfrwt beam="1">  1        2 0.50885495E+00 0.89783406E+03</pdfrwt>
<pdfrwt beam="2">  1       -2 0.45269184E-01 0.89783406E+03</pdfrwt>
<totfact> 0.53388955E+00</totfact>
</mgrwt>
</event>
<event>
12    1  0.1432447E-007  0.1325607E+04  0.7818608E-02  0.9009502E-01
          2   -1    0    0  501    0  0.00000000000E+00  0.00000000000E+00  0.13766505846E+04  0.13766505846E+04  0.00000000000E+00 0. -1.
         -2   -1    0    0    0  501 -0.00000000000E+00 -0.00000000000E+00 -0.15620944286E+04  0.15620944286E+04  0.00000000000E+00 0.  1.
         23    2    1    2    0    0  0.62271681076E+03 -0.11286542663E+04 -0.64523360530E+03  0.14444320143E+04  0.91764696317E+02 0.  0.
    5000000    2    1    2    0    0 -0.62271681076E+03  0.11286542663E+04  0.45978976132E+03  0.14943129988E+04  0.59994002591E+03 0.  0.
         23    2    4    4    0    0 -0.63306940985E+03  0.78347140552E+03  0.14879716098E+03  0.10215126042E+04  0.82116286733E+02 0.  0.
         23    2    4    4    0    0  0.10352599096E+02  0.34518286074E+03  0.31099260034E+03  0.47280039458E+03  0.86979491788E+02 0.  0.
          1    1    3    3  502    0  0.52906903599E+03 -0.89199120707E+03 -0.53673713303E+03  0.11677538732E+04  0.00000000000E+00 0. -1.
         -1    1    3    3    0  502  0.93647774765E+02 -0.23666305920E+03 -0.10849647227E+03  0.27667814117E+03  0.00000000000E+00 0.  1.
         11    1    5    5    0    0 -0.23264538200E+03  0.34654475699E+03  0.78326970827E+02  0.42467900433E+03  0.00000000000E+00 0.  1.
        -11    1    5    5    0    0 -0.40042402785E+03  0.43692664854E+03  0.70470190152E+02  0.59683359991E+03  0.00000000000E+00 0. -1.
          1    1    6    6  503    0 -0.11863781493E+02  0.28739152599E+03  0.21726849610E+03  0.36047224292E+03  0.00000000000E+00 0.  1.
         -1    1    6    6    0  503  0.22216380589E+02  0.57791334755E+02  0.93724104242E+02  0.11232815166E+03  0.00000000000E+00 0. -1.
<mgrwt>
<rscale>  0 0.13256069E+04</rscale>
<asrwt>0</asrwt>
<pdfrwt beam="1">  1        2 0.21179240E+00 0.13256069E+04</pdfrwt>
<pdfrwt beam="2">  1       -2 0.24032222E+00 0.13256069E+04</pdfrwt>
<totfact> 0.10543254E+00</totfact>
</mgrwt>
</event>
<event>
12    1  0.1432447E-007  0.8834222E+03  0.7818608E-02  0.9446545E-01
          2   -1    0    0  501    0  0.00000000000E+00  0.00000000000E+00  0.11881442231E+04  0.11881442231E+04  0.00000000000E+00 0.  1.
         -2   -1    0    0    0  501 -0.00000000000E+00 -0.00000000000E+00 -0.16003111903E+04  0.16003111903E+04  0.00000000000E+00 0. -1.
         23    2    1    2    0    0  0.72526359004E+03 -0.33022792284E+03  0.85720781548E+03  0.11740500890E+04  0.92361336838E+02 0.  0.
    5000000    2    1    2    0    0 -0.72526359004E+03  0.33022792284E+03 -0.12693747827E+04  0.16144053244E+04  0.59994537783E+03 0.  0.
         23    2    4    4    0    0 -0.47645657615E+03 -0.71485304109E+02 -0.45704777248E+03  0.67018767384E+03  0.90209945031E+02 0.  0.
         23    2    4    4    0    0 -0.24880701389E+03  0.40171322695E+03 -0.81232701019E+03  0.94421765052E+03  0.91615245440E+02 0.  0.
          3    1    3    3  502    0  0.21402570957E+03 -0.10091314390E+03  0.31847933128E+03  0.39676132803E+03  0.00000000000E+00 0. -1.
         -3    1    3    3    0  502  0.51123788047E+03 -0.22931477894E+03  0.53872848419E+03  0.77728876098E+03  0.00000000000E+00 0.  1.
         13    1    5    5    0    0 -0.10057741528E+03  0.21232257546E+02 -0.87791965777E+02  0.13518156117E+03  0.00000000000E+00 0.  1.
        -13    1    5    5    0    0 -0.37587916086E+03 -0.92717561655E+02 -0.36925580670E+03  0.53500611267E+03  0.00000000000E+00 0. -1.
          4    1    6    6  503    0 -0.14308732998E+03  0.30408196686E+03 -0.60029720635E+03  0.68796552423E+03  0.00000000000E+00 0. -1.
         -4    1    6    6    0  503 -0.10571968391E+03  0.97631260096E+02 -0.21202980384E+03  0.25625212630E+03  0.00000000000E+00 0.  1.
<mgrwt>
<rscale>  0 0.88342218E+03</rscale>
<asrwt>0</asrwt>
<pdfrwt beam="1">  1        2 0.18279142E+00 0.88342218E+03</pdfrwt>
<pdfrwt beam="2">  1       -2 0.24620172E+00 0.88342218E+03</pdfrwt>
<totfact> 0.13229161E+00</totfact>
</mgrwt>
</event>
<event>
12    1  0.1432447E-007  0.1191493E+04  0.7818608E-02  0.9120336E-01
          2   -1    0    0  501    0  0.00000000000E+00  0.00000000000E+00  0.91851134262E+03  0.91851134262E+03  0.00000000000E+00 0. -1.
         -2   -1    0    0    0  501 -0.00000000000E+00 -0.00000000000E+00 -0.23661576553E+04  0.23661576553E+04  0.00000000000E+00 0.  1.
         23    2    1    2    0    0 -0.11371073279E+04 -0.33627822828E+03 -0.15476829166E+04  0.19519455590E+04  0.93128583056E+02 0.  0.
    5000000    2    1    2    0    0  0.11371073279E+04  0.33627822828E+03  0.10003660397E+03  0.13327234389E+04  0.60004026562E+03 0.  0.
         23    2    4    4    0    0  0.75692516609E+03  0.15494008807E+03 -0.20516977755E+03  0.80467513556E+03  0.92007055302E+02 0.  0.
         23    2    4    4    0    0  0.38018216183E+03  0.18133814021E+03  0.30520638153E+03  0.52804830331E+03  0.90895973689E+02 0.  0.
          3    1    3    3  502    0 -0.29946910292E+03 -0.58173978191E+02 -0.44526182331E+03  0.53974442715E+03  0.00000000000E+00 0. -1.
         -3    1    3    3    0  502 -0.83763822500E+03 -0.27810425009E+03 -0.11024210933E+04  0.14122011319E+04  0.00000000000E+00 0.  1.
         11    1    5    5    0    0  0.10982734769E+03  0.89771058872E+01 -0.60566325674E+02  0.12574145910E+03  0.00000000000E+00 0. -1.
        -11    1    5    5    0    0  0.64709781839E+03  0.14596298218E+03 -0.14460345188E+03  0.67893367646E+03  0.00000000000E+00 0.  1.
          3    1    6    6  503    0  0.13469494690E+03  0.75803169807E+02  0.16576422641E+03  0.22664207030E+03  0.00000000000E+00 0. -1.
         -3    1    6    6    0  503  0.24548721493E+03  0.10553497041E+03  0.13944215512E+03  0.30140623301E+03  0.00000000000E+00 0.  1.
<mgrwt>
<rscale>  0 0.11914929E+04</rscale>
<asrwt>0</asrwt>
<pdfrwt beam="1">  1        2 0.14130944E+00 0.11914929E+04</pdfrwt>
<pdfrwt beam="2">  1       -2 0.36402425E+00 0.11914929E+04</pdfrwt>
<totfact> 0.35608459E-01</totfact>
</mgrwt>
</event>
<event>
12    1  0.1432447E-007  0.1684856E+04  0.7818608E-02  0.8770049E-01
         -2   -1    0    0    0  501 -0.00000000000E+00  0.00000000000E+00  0.13671623019E+04  0.13671623019E+04  0.00000000000E+00 0.  1.
          2   -1    0    0  501    0  0.00000000000E+00 -0.00000000000E+00 -0.24703993269E+04  0.24703993269E+04  0.00000000000E+00 0. -1.
         23    2    1    2    0    0  0.16234646952E+04  0.19086628138E+03 -0.12921855776E+04  0.20860681168E+04  0.99343179570E+02 0.  0.
    5000000    2    1    2    0    0 -0.16234646952E+04 -0.19086628138E+03  0.18894855254E+03  0.17514935119E+04  0.59996700986E+03 0.  0.
         23    2    4    4    0    0 -0.14047680400E+04 -0.35338978831E+03  0.11793115717E+03  0.14557710421E+04  0.84285113947E+02 0.  0.
         23    2    4    4    0    0 -0.21869665517E+03  0.16252350693E+03  0.71017395364E+02  0.29572246983E+03  0.90366981965E+02 0.  0.
          1    1    3    3  502    0  0.10767848079E+04  0.15203017372E+03 -0.80829207517E+03  0.13549593260E+04  0.00000000000E+00 0. -1.
         -1    1    3    3    0  502  0.54667988727E+03  0.38836107657E+02 -0.48389350241E+03  0.73110879087E+03  0.00000000000E+00 0.  1.
         11    1    5    5    0    0 -0.11565174967E+04 -0.26879173025E+03  0.12092928108E+03  0.11934846481E+04  0.00000000000E+00 0.  1.
        -11    1    5    5    0    0 -0.24825054336E+03 -0.84598058064E+02 -0.29981239071E+01  0.26228639395E+03  0.00000000000E+00 0. -1.
          4    1    6    6  503    0  0.10862298894E+01 -0.69560486314E+01  0.88453641101E+01  0.11305174664E+02  0.00000000000E+00 0. -1.
         -4    1    6    6    0  503 -0.21978288506E+03  0.16947955556E+03  0.62172031254E+02  0.28441729516E+03  0.00000000000E+00 0.  1.
<mgrwt>
<rscale>  0 0.16848564E+04</rscale>
<asrwt>0</asrwt>
<pdfrwt beam="1">  1        2 0.38006143E+00 0.16848564E+04</pdfrwt>
<pdfrwt beam="2">  1       -2 0.21033266E+00 0.16848564E+04</pdfrwt>
<totfact> 0.37992072E-01</totfact>
</mgrwt>
</event>
<event>
12    1  0.1432447E-007  0.1027912E+04  0.7818608E-02  0.9278450E-01
         -2   -1    0    0    0  501 -0.00000000000E+00  0.00000000000E+00  0.46280461069E+03  0.46280461069E+03  0.00000000000E+00 0.  1.
          2   -1    0    0  501    0  0.00000000000E+00 -0.00000000000E+00 -0.30379845622E+04  0.30379845622E+04  0.00000000000E+00 0. -1.
         23    2    1    2    0    0 -0.10173119902E+04 -0.55803867045E+02 -0.56513233362E+03  0.11687523769E+04  0.92573251869E+02 0.  0.
    5000000    2    1    2    0    0  0.10173119902E+04  0.55803867045E+02 -0.20100476179E+04  0.23320367960E+04  0.60005535962E+03 0.  0.
         23    2    4    4    0    0  0.46840240630E+03 -0.28855406435E+02 -0.38996788958E+03  0.61697966004E+03  0.91408409286E+02 0.  0.
         23    2    4    4    0    0  0.54890958394E+03  0.84659273480E+02 -0.16200797283E+04  0.17150571359E+04  0.91069915940E+02 0.  0.
          3    1    3    3  502    0 -0.74912815380E+03 -0.79779923597E+02 -0.43098471138E+03  0.86793182247E+03  0.00000000000E+00 0. -1.
         -3    1    3    3    0  502 -0.26818383644E+03  0.23976056553E+02 -0.13414762224E+03  0.30082055443E+03  0.00000000000E+00 0.  1.
         13    1    5    5    0    0  0.23637485685E+03  0.16221231862E+02 -0.15154834108E+03  0.28125273509E+03  0.00000000000E+00 0. -1.
        -13    1    5    5    0    0  0.23202754945E+03 -0.45076638297E+02 -0.23841954851E+03  0.33572692495E+03  0.00000000000E+00 0.  1.
          3    1    6    6  503    0  0.44856274624E+03  0.96625394403E+02 -0.12551463867E+04  0.13363897097E+04  0.00000000000E+00 0. -1.
         -3    1    6    6    0  503  0.10034683770E+03 -0.11966120922E+02 -0.36493334161E+03  0.37866742625E+03  0.00000000000E+00 0.  1.
<mgrwt>
<rscale>  0 0.10279119E+04</rscale>
<asrwt>0</asrwt>
<pdfrwt beam="1">  1        2 0.46738225E+00 0.10279119E+04</pdfrwt>
<pdfrwt beam="2">  1       -2 0.71200707E-01 0.10279119E+04</pdfrwt>
<totfact> 0.30062920E+00</totfact>
</mgrwt>
</event>
<event>
12    1  0.1432447E-007  0.7638557E+03  0.7818608E-02  0.9613860E-01
         -1   -1    0    0    0  501 -0.00000000000E+00  0.00000000000E+00  0.20734541930E+04  0.20734541930E+04  0.00000000000E+00 0.  1.
          1   -1    0    0  501    0  0.00000000000E+00 -0.00000000000E+00 -0.35742326700E+03  0.35742326700E+03  0.00000000000E+00 0. -1.
         23    2    1    2    0    0  0.59534486265E+03 -0.40247850994E+03  0.44137818223E+03  0.84934052350E+03  0.10069840449E+03 0.  0.
    5000000    2    1    2    0    0 -0.59534486265E+03  0.40247850994E+03  0.12746527438E+04  0.15815369365E+04  0.60007916798E+03 0.  0.
         23    2    4    4    0    0 -0.68343493069E+02 -0.34983479396E+02 -0.77209364867E+01  0.12405444074E+03  0.97135032465E+02 0.  0.
         23    2    4    4    0    0 -0.52700136958E+03  0.43746198933E+03  0.12823736803E+04  0.14574824957E+04  0.10329343617E+03 0.  0.
          1    1    3    3  502    0  0.10684467672E+03 -0.10489953041E+03  0.57135487119E+02  0.16026278518E+03  0.00000000000E+00 0. -1.
         -1    1    3    3    0  502  0.48850018593E+03 -0.29757897953E+03  0.38424269512E+03  0.68907773833E+03  0.00000000000E+00 0.  1.
         11    1    5    5    0    0  0.19539315956E+02 -0.23119333768E+02  0.13067458364E+02  0.32970394751E+02  0.00000000000E+00 0.  1.
        -11    1    5    5    0    0 -0.87882809025E+02 -0.11864145627E+02 -0.20788394851E+02  0.91084045991E+02  0.00000000000E+00 0. -1.
          3    1    6    6  503    0 -0.29326461853E+03  0.20846295428E+03  0.57849261704E+03  0.68125960379E+03  0.00000000000E+00 0. -1.
         -3    1    6    6    0  503 -0.23373675105E+03  0.22899903505E+03  0.70388106321E+03  0.77622289196E+03  0.00000000000E+00 0.  1.
<mgrwt>
<rscale>  0 0.76385570E+03</rscale>
<asrwt>0</asrwt>
<pdfrwt beam="1">  1        1 0.54988196E-01 0.76385570E+03</pdfrwt>
<pdfrwt beam="2">  1       -1 0.31899295E+00 0.76385570E+03</pdfrwt>
<totfact> 0.18210482E+00</totfact>
</mgrwt>
</event>
<event>
12    1  0.1432447E-007  0.4496679E+03  0.7818608E-02  0.1027821E+00
         -1   -1    0    0    0  501 -0.00000000000E+00  0.00000000000E+00  0.20287718838E+04  0.20287718838E+04  0.00000000000E+00 0.  1.
          1   -1    0    0  501    0  0.00000000000E+00 -0.00000000000E+00 -0.14037465994E+03  0.14037465994E+03  0.00000000000E+00 0. -1.
         23    2    1    2    0    0 -0.83355901914E+02  0.34903737230E+03  0.64325998830E+03  0.74124852145E+03  0.83010025653E+02 0.  0.
    5000000    2    1    2    0    0  0.83355901914E+02 -0.34903737230E+03  0.12451372356E+04  0.14278980223E+04  0.59979224158E+03 0.  0.
         23    2    4    4    0    0 -0.15206804790E+03 -0.10439904298E+03  0.10076625970E+03  0.23073400909E+03  0.95186619295E+02 0.  0.
         23    2    4    4    0    0  0.23542394981E+03 -0.24463832932E+03  0.11443709759E+04  0.11971640132E+04  0.91347664345E+02 0.  0.
          3    1    3    3  502    0 -0.84050767916E+02  0.20528453796E+03  0.34512185213E+03  0.41026255731E+03  0.00000000000E+00 0. -1.
         -3    1    3    3    0  502  0.69486600149E+00  0.14375283434E+03  0.29813813617E+03  0.33098596414E+03  0.00000000000E+00 0.  1.
         13    1    5    5    0    0 -0.72325339383E+02 -0.41720790511E+02 -0.56970817489E+01  0.83690117805E+02  0.00000000000E+00 0. -1.
        -13    1    5    5    0    0 -0.79742708515E+02 -0.62678252469E+02  0.10646334144E+03  0.14704389129E+03  0.00000000000E+00 0.  1.
          1    1    6    6  503    0  0.17655177260E+03 -0.12764314980E+03  0.63996641821E+03  0.67603277919E+03  0.00000000000E+00 0. -1.
         -1    1    6    6    0  503  0.58872177216E+02 -0.11699517952E+03  0.50440455769E+03  0.52113123405E+03  0.00000000000E+00 0.  1.
<mgrwt>
<rscale>  0 0.44966789E+03</rscale>
<asrwt>0</asrwt>
<pdfrwt beam="1">  1        1 0.21596103E-01 0.44966789E+03</pdfrwt>
<pdfrwt beam="2">  1       -1 0.31211873E+00 0.44966789E+03</pdfrwt>
<totfact> 0.71717535E+00</totfact>
</mgrwt>
</event>
<event>
12    1  0.1432447E-007  0.1504341E+04  0.7818608E-02  0.8881571E-01
          1   -1    0    0  501    0  0.00000000000E+00  0.00000000000E+00  0.85521754820E+03  0.85521754820E+03  0.00000000000E+00 0. -1.
         -1   -1    0    0    0  501 -0.00000000000E+00 -0.00000000000E+00 -0.27465845972E+04  0.27465845972E+04  0.00000000000E+00 0.  1.
         23    2    1    2    0    0 -0.11918707807E+04  0.83560479449E+03 -0.65080261057E+03  0.15973637123E+04  0.96101306729E+02 0.  0.
    5000000    2    1    2    0    0  0.11918707807E+04 -0.83560479449E+03 -0.12405644385E+04  0.20044384331E+04  0.59998497949E+03 0.  0.
         23    2    4    4    0    0  0.93767328959E+03 -0.35710465303E+03 -0.65611054685E+03  0.12022750982E+04  0.90716210368E+02 0.  0.
         23    2    4    4    0    0  0.25419749111E+03 -0.47850014145E+03 -0.58445389162E+03  0.80216333490E+03  0.91109354998E+02 0.  0.
          4    1    3    3  502    0 -0.80201869246E+03  0.61509428132E+03 -0.44032441804E+03  0.11024792747E+04  0.00000000000E+00 0. -1.
         -4    1    3    3    0  502 -0.38985208824E+03  0.22051051317E+03 -0.21047819253E+03  0.49488443767E+03  0.00000000000E+00 0.  1.
         13    1    5    5    0    0  0.71918674406E+03 -0.30946000557E+03 -0.53118717748E+03  0.94612625235E+03  0.00000000000E+00 0. -1.
        -13    1    5    5    0    0  0.21848654554E+03 -0.47644647462E+02 -0.12492336937E+03  0.25614884584E+03  0.00000000000E+00 0.  1.
          1    1    6    6  503    0  0.20903870054E+03 -0.35467417827E+03 -0.38887053704E+03  0.56631373428E+03  0.00000000000E+00 0. -1.
         -1    1    6    6    0  503  0.45158790567E+02 -0.12382596319E+03 -0.19558335457E+03  0.23584960062E+03  0.00000000000E+00 0.  1.
<mgrwt>
<rscale>  0 0.15043410E+04</rscale>
<asrwt>0</asrwt>
<pdfrwt beam="1">  1        1 0.13157193E+00 0.15043410E+04</pdfrwt>
<pdfrwt beam="2">  1       -1 0.42255148E+00 0.15043410E+04</pdfrwt>
<totfact> 0.94747809E-02</totfact>
</mgrwt>
</event>
<event>
12    1  0.1432447E-007  0.5197699E+03  0.7818608E-02  0.1008744E+00
          1   -1    0    0  501    0  0.00000000000E+00  0.00000000000E+00  0.99338933631E+03  0.99338933631E+03  0.00000000000E+00 0. -1.
         -1   -1    0    0    0  501 -0.00000000000E+00 -0.00000000000E+00 -0.73795534109E+03  0.73795534109E+03  0.00000000000E+00 0.  1.
         23    2    1    2    0    0 -0.49192790033E+02 -0.46828546795E+03  0.70037269633E+03  0.84860912994E+03  0.88906307788E+02 0.  0.
    5000000    2    1    2    0    0  0.49192790033E+02  0.46828546795E+03 -0.44493870111E+03  0.88273554746E+03  0.59961686845E+03 0.  0.
         23    2    4    4    0    0 -0.31707396678E+02  0.21545725384E+02 -0.40546053065E+03  0.41796092976E+03  0.93933591450E+02 0.  0.
         23    2    4    4    0    0  0.80900186710E+02  0.44673974256E+03 -0.39478170458E+02  0.46477461770E+03  0.91299953578E+02 0.  0.
          1    1    3    3  502    0  0.24230826794E+02 -0.13587864863E+03  0.18112892797E+03  0.22772314038E+03  0.00000000000E+00 0. -1.
         -1    1    3    3    0  502 -0.73423616827E+02 -0.33240681932E+03  0.51924376836E+03  0.62088598955E+03  0.00000000000E+00 0.  1.
         13    1    5    5    0    0 -0.50535873969E+02 -0.18613110292E+02 -0.16889408556E+03  0.17727248679E+03  0.00000000000E+00 0.  1.
        -13    1    5    5    0    0  0.18828477291E+02  0.40158835676E+02 -0.23656644509E+03  0.24068844298E+03  0.00000000000E+00 0. -1.
          2    1    6    6  503    0  0.97570165490E+02  0.30631289506E+03 -0.21040871358E+02  0.32216493469E+03  0.00000000000E+00 0. -1.
         -2    1    6    6    0  503 -0.16669978780E+02  0.14042684750E+03 -0.18437299100E+02  0.14260968302E+03  0.00000000000E+00 0.  1.
<mgrwt>
<rscale>  0 0.51976988E+03</rscale>
<asrwt>0</asrwt>
<pdfrwt beam="1">  1        1 0.15282913E+00 0.51976988E+03</pdfrwt>
<pdfrwt beam="2">  1       -1 0.11353159E+00 0.51976988E+03</pdfrwt>
<totfact> 0.11613398E+01</totfact>
</mgrwt>
</event>
<event>
12    1  0.1432447E-007  0.5668253E+03  0.7818608E-02  0.9976729E-01
         -2   -1    0    0    0  501 -0.00000000000E+00  0.00000000000E+00  0.37983419461E+03  0.37983419461E+03  0.00000000000E+00 0.  1.
          2   -1    0    0  501    0  0.00000000000E+00 -0.00000000000E+00 -0.13598980715E+04  0.13598980715E+04  0.00000000000E+00 0. -1.
         23    2    1    2    0    0  0.22280212293E+03 -0.50066724783E+03 -0.66938452390E+03  0.86983128343E+03  0.90677129214E+02 0.  0.
    5000000    2    1    2    0    0 -0.22280212293E+03  0.50066724783E+03 -0.31067935295E+03  0.86990098264E+03  0.59991464411E+03 0.  0.
         23    2    4    4    0    0 -0.54345046836E+02  0.34372400667E+03  0.11522192934E+03  0.37699459425E+03  0.88029848438E+02 0.  0.
         23    2    4    4    0    0 -0.16845707609E+03  0.15694324116E+03 -0.42590128229E+03  0.49290638838E+03  0.92497773063E+02 0.  0.
          1    1    3    3  502    0  0.11340672637E+03 -0.18681596852E+03 -0.32099117224E+03  0.38832541037E+03  0.00000000000E+00 0. -1.
         -1    1    3    3    0  502  0.10939539656E+03 -0.31385127931E+03 -0.34839335165E+03  0.48150587306E+03  0.00000000000E+00 0.  1.
         13    1    5    5    0    0 -0.52819757991E+02  0.15469278351E+03  0.89078773244E+02  0.18615802950E+03  0.00000000000E+00 0. -1.
        -13    1    5    5    0    0 -0.15252888445E+01  0.18903122316E+03  0.26143156099E+02  0.19083656475E+03  0.00000000000E+00 0.  1.
          2    1    6    6  503    0 -0.10584068940E+03  0.98984872704E+02 -0.34959321110E+03  0.37843846237E+03  0.00000000000E+00 0. -1.
         -2    1    6    6    0  503 -0.62616386691E+02  0.57958368456E+02 -0.76308071196E+02  0.11446792601E+03  0.00000000000E+00 0.  1.
<mgrwt>
<rscale>  0 0.56682527E+03</rscale>
<asrwt>0</asrwt>
<pdfrwt beam="1">  1        2 0.20921509E+00 0.56682527E+03</pdfrwt>
<pdfrwt beam="2">  1       -2 0.58436030E-01 0.56682527E+03</pdfrwt>
<totfact> 0.43567880E+01</totfact>
</mgrwt>
</event>
<event>
12    1  0.1432447E-007  0.1345988E+04  0.7818608E-02  0.8993870E-01
         -2   -1    0    0    0  501 -0.00000000000E+00  0.00000000000E+00  0.53182164824E+03  0.53182164824E+03  0.00000000000E+00 0.  1.
          2   -1    0    0  501    0  0.00000000000E+00 -0.00000000000E+00 -0.37445384729E+04  0.37445384729E+04  0.00000000000E+00 0. -1.
         23    2    1    2    0    0 -0.49551061004E+03 -0.11982373887E+04 -0.98949529415E+03  0.16336215222E+04  0.91185175647E+02 0.  0.
    5000000    2    1    2    0    0  0.49551061004E+03  0.11982373887E+04 -0.22232215305E+04  0.26427385989E+04  0.60004143551E+03 0.  0.
         23    2    4    4    0    0  0.23195448926E+03  0.10555576159E+03 -0.67591884417E+03  0.72811486989E+03  0.91324016385E+02 0.  0.
         23    2    4    4    0    0  0.26355612078E+03  0.10926816271E+04 -0.15473026863E+04  0.19146237290E+04  0.90683260195E+02 0.  0.
          1    1    3    3  502    0 -0.75854918324E+02 -0.11925540254E+03 -0.12597594049E+03  0.18932975796E+03  0.00000000000E+00 0. -1.
         -1    1    3    3    0  502 -0.41965569172E+03 -0.10789819861E+04 -0.86351935366E+03  0.14442917642E+04  0.00000000000E+00 0.  1.
         11    1    5    5    0    0  0.19481848689E+03  0.11731099551E+03 -0.61610877143E+03  0.65673901265E+03  0.00000000000E+00 0. -1.
        -11    1    5    5    0    0  0.37136002370E+02 -0.11755233926E+02 -0.59810072738E+02  0.71375857246E+02  0.00000000000E+00 0.  1.
          2    1    6    6  503    0  0.13953320084E+03  0.42094286955E+03 -0.65093165336E+03  0.78763851538E+03  0.00000000000E+00 0. -1.
         -2    1    6    6    0  503  0.12402291994E+03  0.67173875755E+03 -0.89637103295E+03  0.11269852136E+04  0.00000000000E+00 0.  1.
<mgrwt>
<rscale>  0 0.13459885E+04</rscale>
<asrwt>0</asrwt>
<pdfrwt beam="1">  1        2 0.57608284E+00 0.13459885E+04</pdfrwt>
<pdfrwt beam="2">  1       -2 0.81818716E-01 0.13459885E+04</pdfrwt>
<totfact> 0.70247774E-01</totfact>
</mgrwt>
</event>
<event>
12    1  0.1432447E-007  0.6548772E+03  0.7818608E-02  0.9797670E-01
         -2   -1    0    0    0  501 -0.00000000000E+00  0.00000000000E+00  0.87583984110E+03  0.87583984110E+03  0.00000000000E+00 0.  1.
          2   -1    0    0  501    0  0.00000000000E+00 -0.00000000000E+00 -0.57176278011E+03  0.57176278011E+03  0.00000000000E+00 0. -1.
         23    2    1    2    0    0 -0.15771985087E+03 -0.51248194387E+03  0.34092714433E+03  0.64197977066E+03  0.91615577529E+02 0.  0.
    5000000    2    1    2    0    0  0.15771985087E+03  0.51248194387E+03 -0.36850083333E+02  0.80562285055E+03  0.60013078119E+03 0.  0.
         23    2    4    4    0    0  0.34892560488E+03  0.45254145228E+03 -0.71016344980E+02  0.58239890702E+03  0.87191294725E+02 0.  0.
         23    2    4    4    0    0 -0.19120575402E+03  0.59940491594E+02  0.34166261647E+02  0.22322394353E+03  0.92244743087E+02 0.  0.
          2    1    3    3  502    0 -0.12835710160E+03 -0.42422587551E+03  0.23735402186E+03  0.50277238455E+03  0.00000000000E+00 0. -1.
         -2    1    3    3    0  502 -0.29362749271E+02 -0.88256068366E+02  0.10357312247E+03  0.13920738611E+03  0.00000000000E+00 0.  1.
         13    1    5    5    0    0  0.16039424182E+03  0.20132841420E+03 -0.75583120271E+02  0.26827644556E+03  0.00000000000E+00 0. -1.
        -13    1    5    5    0    0  0.18853136306E+03  0.25121303807E+03  0.45667752912E+01  0.31412246146E+03  0.00000000000E+00 0.  1.
          3    1    6    6  503    0 -0.59241951578E+02  0.63021714595E+01  0.52744183625E+02  0.79569310027E+02  0.00000000000E+00 0. -1.
         -3    1    6    6    0  503 -0.13196380244E+03  0.53638320135E+02 -0.18577921979E+02  0.14365463350E+03  0.00000000000E+00 0.  1.
<mgrwt>
<rscale>  0 0.65487716E+03</rscale>
<asrwt>0</asrwt>
<pdfrwt beam="1">  1        2 0.87963505E-01 0.65487716E+03</pdfrwt>
<pdfrwt beam="2">  1       -2 0.13474459E+00 0.65487716E+03</pdfrwt>
<totfact> 0.21303748E+01</totfact>
</mgrwt>
</event>
<event>
12    1  0.1432447E-007  0.7757702E+03  0.7818608E-02  0.9595766E-01
         -2   -1    0    0    0  501 -0.00000000000E+00  0.00000000000E+00  0.32546813379E+03  0.32546813379E+03  0.00000000000E+00 0.  1.
          2   -1    0    0  501    0  0.00000000000E+00 -0.00000000000E+00 -0.21540285948E+04  0.21540285948E+04  0.00000000000E+00 0. -1.
         23    2    1    2    0    0  0.59533198259E+02 -0.70902613765E+03 -0.10168888908E+04  0.12445219921E+04  0.92248072826E+02 0.  0.
    5000000    2    1    2    0    0 -0.59533198259E+02  0.70902613765E+03 -0.81167157016E+03  0.12349747365E+04  0.60007465899E+03 0.  0.
         23    2    4    4    0    0 -0.21518467467E+03  0.20846454733E+03 -0.57184934026E+03  0.65142852222E+03  0.87095004983E+02 0.  0.
         23    2    4    4    0    0  0.15565147641E+03  0.50056159032E+03 -0.23982222990E+03  0.58354621426E+03  0.90676316687E+02 0.  0.
          4    1    3    3  502    0  0.48550265059E+02 -0.20410519607E+03 -0.25142141772E+03  0.32745807150E+03  0.00000000000E+00 0.  1.
         -4    1    3    3    0  502  0.10982933200E+02 -0.50492094158E+03 -0.76546747309E+03  0.91706392057E+03  0.00000000000E+00 0. -1.
         11    1    5    5    0    0 -0.87779527263E+02  0.12417878445E+03 -0.35474460555E+03  0.38596547913E+03  0.00000000000E+00 0. -1.
        -11    1    5    5    0    0 -0.12740514741E+03  0.84285762881E+02 -0.21710473471E+03  0.26546304309E+03  0.00000000000E+00 0.  1.
          4    1    6    6  503    0  0.12265098571E+03  0.24298980741E+03 -0.11650533324E+03  0.29607567187E+03  0.00000000000E+00 0. -1.
         -4    1    6    6    0  503  0.33000490700E+02  0.25757178291E+03 -0.12331689665E+03  0.28747054239E+03  0.00000000000E+00 0.  1.
<mgrwt>
<rscale>  0 0.77577017E+03</rscale>
<asrwt>0</asrwt>
<pdfrwt beam="1">  1        2 0.33138902E+00 0.77577017E+03</pdfrwt>
<pdfrwt beam="2">  1       -2 0.50072019E-01 0.77577017E+03</pdfrwt>
<totfact> 0.21371272E+01</totfact>
</mgrwt>
</event>
<event>
12    1  0.1432447E-007  0.5502901E+03  0.7818608E-02  0.1001427E+00
         -1   -1    0    0    0  501 -0.00000000000E+00  0.00000000000E+00  0.22420243604E+03  0.22420243604E+03  0.00000000000E+00 0.  1.
          1   -1    0    0  501    0  0.00000000000E+00 -0.00000000000E+00 -0.19723333561E+04  0.19723333561E+04  0.00000000000E+00 0. -1.
         23    2    1    2    0    0 -0.24027079051E+03 -0.45821851875E+03 -0.84539694543E+03  0.99529310862E+03  0.90653808706E+02 0.  0.
    5000000    2    1    2    0    0  0.24027079051E+03  0.45821851875E+03 -0.90273397463E+03  0.12012426835E+04  0.60030083464E+03 0.  0.
         23    2    4    4    0    0  0.23000244514E+03  0.16589728771E+03 -0.59326645819E+02  0.30368264956E+03  0.90997065340E+02 0.  0.
         23    2    4    4    0    0  0.10268345371E+02  0.29232123104E+03 -0.84340732881E+03  0.89756003396E+03  0.93386033436E+02 0.  0.
          1    1    3    3  502    0 -0.48728073389E+02 -0.13535085405E+03 -0.30586697810E+03  0.33800722939E+03  0.00000000000E+00 0. -1.
         -1    1    3    3    0  502 -0.19154271712E+03 -0.32286766470E+03 -0.53952996733E+03  0.65728587923E+03  0.00000000000E+00 0.  1.
         13    1    5    5    0    0  0.17233425624E+03  0.11072732993E+03 -0.82112347122E+02  0.22068546626E+03  0.00000000000E+00 0.  1.
        -13    1    5    5    0    0  0.57668188894E+02  0.55169957782E+02  0.22785701303E+02  0.82997183301E+02  0.00000000000E+00 0. -1.
          3    1    6    6  503    0 -0.19146182914E+02  0.15844945742E+03 -0.33621843501E+03  0.37217689734E+03  0.00000000000E+00 0. -1.
         -3    1    6    6    0  503  0.29414528285E+02  0.13387177362E+03 -0.50718889380E+03  0.52538313662E+03  0.00000000000E+00 0.  1.
<mgrwt>
<rscale>  0 0.55029013E+03</rscale>
<asrwt>0</asrwt>
<pdfrwt beam="1">  1        1 0.30343590E+00 0.55029013E+03</pdfrwt>
<pdfrwt beam="2">  1       -1 0.34492683E-01 0.55029013E+03</pdfrwt>
<totfact> 0.26555662E+01</totfact>
</mgrwt>
</event>
<event>
12    1  0.1432447E-007  0.7019176E+03  0.7818608E-02  0.9713958E-01
         -1   -1    0    0    0  501 -0.00000000000E+00  0.00000000000E+00  0.32617902118E+03  0.32617902118E+03  0.00000000000E+00 0.  1.
          1   -1    0    0  501    0  0.00000000000E+00 -0.00000000000E+00 -0.20034773909E+04  0.20034773909E+04  0.00000000000E+00 0. -1.
         23    2    1    2    0    0  0.54664218666E+03  0.32495571587E+03 -0.11248917687E+04  0.12955223211E+04  0.92642839928E+02 0.  0.
    5000000    2    1    2    0    0 -0.54664218666E+03 -0.32495571587E+03 -0.55240660108E+03  0.10341340910E+04  0.59988862941E+03 0.  0.
         23    2    4    4    0    0 -0.34712004070E+03  0.38934365805E+02 -0.48379132380E+03  0.60431622639E+03  0.95581635270E+02 0.  0.
         23    2    4    4    0    0 -0.19952214595E+03 -0.36389008168E+03 -0.68615277281E+02  0.42981786459E+03  0.88375687685E+02 0.  0.
          1    1    3    3  502    0  0.29618771073E+03  0.17903393855E+03 -0.51826581738E+03  0.62320122642E+03  0.00000000000E+00 0. -1.
         -1    1    3    3    0  502  0.25045447593E+03  0.14592177732E+03 -0.60662595129E+03  0.67232109471E+03  0.00000000000E+00 0.  1.
         13    1    5    5    0    0 -0.24104324697E+03  0.44101948596E+02 -0.26392253372E+03  0.36014154521E+03  0.00000000000E+00 0. -1.
        -13    1    5    5    0    0 -0.10607679373E+03 -0.51675827912E+01 -0.21986879008E+03  0.24417468118E+03  0.00000000000E+00 0.  1.
          3    1    6    6  503    0 -0.19951636462E+03 -0.35100134919E+03 -0.49504518863E+02  0.40676703931E+03  0.00000000000E+00 0. -1.
         -3    1    6    6    0  503 -0.57813354319E-02 -0.12888732487E+02 -0.19110758418E+02  0.23050825275E+02  0.00000000000E+00 0.  1.
<mgrwt>
<rscale>  0 0.70191764E+03</rscale>
<asrwt>0</asrwt>
<pdfrwt beam="1">  1        1 0.30822729E+00 0.70191764E+03</pdfrwt>
<pdfrwt beam="2">  1       -1 0.50181388E-01 0.70191764E+03</pdfrwt>
<totfact> 0.12434311E+01</totfact>
</mgrwt>
</event>
<event>
12    1  0.1432447E-007  0.6163058E+03  0.7818608E-02  0.9872142E-01
          2   -1    0    0  501    0  0.00000000000E+00  0.00000000000E+00  0.81777129948E+03  0.81777129948E+03  0.00000000000E+00 0. -1.
         -2   -1    0    0    0  501 -0.00000000000E+00 -0.00000000000E+00 -0.86121527116E+03  0.86121527116E+03  0.00000000000E+00 0.  1.
         23    2    1    2    0    0 -0.30226181374E+03 -0.49585736296E+03  0.42124651690E+03  0.72336170696E+03  0.92557023806E+02 0.  0.
    5000000    2    1    2    0    0  0.30226181374E+03  0.49585736296E+03 -0.46469048858E+03  0.95562486368E+03  0.60003741672E+03 0.  0.
         23    2    4    4    0    0 -0.22518920977E+01  0.60858782470E+02  0.11829986441E+03  0.16197910716E+03  0.92377003714E+02 0.  0.
         23    2    4    4    0    0  0.30451370583E+03  0.43499858049E+03 -0.58299035299E+03  0.79364575652E+03  0.89685411836E+02 0.  0.
          3    1    3    3  502    0 -0.22993336934E+03 -0.43280523578E+03  0.32915855902E+03  0.59036859963E+03  0.00000000000E+00 0. -1.
         -3    1    3    3    0  502 -0.72328444397E+02 -0.63052127173E+02  0.92087957885E+02  0.13299310733E+03  0.00000000000E+00 0.  1.
         13    1    5    5    0    0 -0.46472550764E+02  0.40653516924E+02  0.71892005963E+02  0.94767436043E+02  0.00000000000E+00 0.  1.
        -13    1    5    5    0    0  0.44220658666E+02  0.20205265545E+02  0.46407858447E+02  0.67211671117E+02  0.00000000000E+00 0. -1.
          4    1    6    6  503    0  0.27848600703E+03  0.34979541331E+03 -0.51187787804E+03  0.67965450731E+03  0.00000000000E+00 0. -1.
         -4    1    6    6    0  503  0.26027698799E+02  0.85203167179E+02 -0.71112474955E+02  0.11399124921E+03  0.00000000000E+00 0.  1.
<mgrwt>
<rscale>  0 0.61630584E+03</rscale>
<asrwt>0</asrwt>
<pdfrwt beam="1">  1        2 0.12581097E+00 0.61630584E+03</pdfrwt>
<pdfrwt beam="2">  1       -2 0.13249466E+00 0.61630584E+03</pdfrwt>
<totfact> 0.14274521E+01</totfact>
</mgrwt>
</event>
<event>
12    1  0.1432447E-007  0.7980592E+03  0.7818608E-02  0.9562831E-01
          2   -1    0    0  501    0  0.00000000000E+00  0.00000000000E+00  0.22474198476E+04  0.22474198476E+04  0.00000000000E+00 0. -1.
         -2   -1    0    0    0  501 -0.00000000000E+00 -0.00000000000E+00 -0.34002542918E+03  0.34002542918E+03  0.00000000000E+00 0.  1.
         23    2    1    2    0    0  0.59596595397E+01  0.68614597878E+03  0.33462359532E+03  0.76899124323E+03  0.92427051690E+02 0.  0.
    5000000    2    1    2    0    0 -0.59596595397E+01 -0.68614597878E+03  0.15727708231E+04  0.18184540335E+04  0.60194284474E+03 0.  0.
         23    2    4    4    0    0  0.24137474506E+03 -0.11905369114E+03  0.43674949433E+03  0.52135492660E+03  0.92872438136E+02 0.  0.
         23    2    4    4    0    0 -0.24733440460E+03 -0.56709228764E+03  0.11360213287E+04  0.12970991069E+04  0.95674779269E+02 0.  0.
          3    1    3    3  502    0  0.46272966817E+02  0.25997159540E+03  0.11797057708E+03  0.28921181671E+03  0.00000000000E+00 0. -1.
         -3    1    3    3    0  502 -0.40313307277E+02  0.42617438339E+03  0.21665301824E+03  0.47977942652E+03  0.00000000000E+00 0.  1.
         13    1    5    5    0    0  0.14584991810E+03 -0.29392756147E+02  0.27991707831E+03  0.31700110954E+03  0.00000000000E+00 0. -1.
        -13    1    5    5    0    0  0.95524826954E+02 -0.89660934998E+02  0.15683241603E+03  0.20435381706E+03  0.00000000000E+00 0.  1.
          3    1    6    6  503    0 -0.24752800121E+03 -0.50799133609E+03  0.99643577343E+03  0.11455171581E+04  0.00000000000E+00 0. -1.
         -3    1    6    6    0  503  0.19359660726E+00 -0.59100951549E+02  0.13958555532E+03  0.15158194882E+03  0.00000000000E+00 0.  1.
<mgrwt>
<rscale>  0 0.79805918E+03</rscale>
<asrwt>0</asrwt>
<pdfrwt beam="1">  1        2 0.34575689E+00 0.79805918E+03</pdfrwt>
<pdfrwt beam="2">  1       -2 0.52311606E-01 0.79805918E+03</pdfrwt>
<totfact> 0.17299883E+01</totfact>
</mgrwt>
</event>
<event>
12    1  0.1432447E-007  0.3263459E+03  0.7818608E-02  0.1072765E+00
         -1   -1    0    0    0  501 -0.00000000000E+00  0.00000000000E+00  0.27984026375E+03  0.27984026375E+03  0.00000000000E+00 0.  1.
          1   -1    0    0  501    0  0.00000000000E+00 -0.00000000000E+00 -0.71839325714E+03  0.71839325714E+03  0.00000000000E+00 0. -1.
         23    2    1    2    0    0  0.11091196555E+03  0.17273024967E+03 -0.24236491367E+03  0.33450570836E+03  0.10495767858E+03 0.  0.
    5000000    2    1    2    0    0 -0.11091196555E+03 -0.17273024967E+03 -0.19618807972E+03  0.66372781254E+03  0.59992303111E+03 0.  0.
         23    2    4    4    0    0  0.11157194594E+03  0.46496260571E+02  0.13439483000E+03  0.19999678459E+03  0.85595222702E+02 0.  0.
         23    2    4    4    0    0 -0.22248391149E+03 -0.21922651024E+03 -0.33058290972E+03  0.46373102795E+03  0.90565183252E+02 0.  0.
          2    1    3    3  502    0  0.40834420104E+02  0.38190526305E+02 -0.14200689308E+03  0.15261691861E+03  0.00000000000E+00 0. -1.
         -2    1    3    3    0  502  0.70077545450E+02  0.13453972337E+03 -0.10035802059E+03  0.18188878975E+03  0.00000000000E+00 0.  1.
         13    1    5    5    0    0  0.85162677920E+02  0.90448983198E+01  0.12759068056E+03  0.15366806325E+03  0.00000000000E+00 0. -1.
        -13    1    5    5    0    0  0.26409268021E+02  0.37451362251E+02  0.68041494342E+01  0.46328721345E+02  0.00000000000E+00 0.  1.
          3    1    6    6  503    0 -0.18818867627E+03 -0.16988040348E+03 -0.21077712994E+03  0.32969884420E+03  0.00000000000E+00 0. -1.
         -3    1    6    6    0  503 -0.34295235226E+02 -0.49346106761E+02 -0.11980577977E+03  0.13403218374E+03  0.00000000000E+00 0.  1.
<mgrwt>
<rscale>  0 0.32634592E+03</rscale>
<asrwt>0</asrwt>
<pdfrwt beam="1">  1        1 0.11052204E+00 0.32634592E+03</pdfrwt>
<pdfrwt beam="2">  1       -1 0.43052348E-01 0.32634592E+03</pdfrwt>
<totfact> 0.14715823E+02</totfact>
</mgrwt>
</event>
<event>
12    1  0.1432447E-007  0.3421533E+03  0.7818608E-02  0.1065882E+00
         -1   -1    0    0    0  501 -0.00000000000E+00  0.00000000000E+00  0.50696009660E+03  0.50696009660E+03  0.00000000000E+00 0.  1.
          1   -1    0    0  501    0  0.00000000000E+00 -0.00000000000E+00 -0.26485500189E+03  0.26485500189E+03  0.00000000000E+00 0. -1.
         23    2    1    2    0    0  0.61403467103E+02  0.55785038479E+02  0.16940273130E+02  0.12426667743E+03  0.90955362544E+02 0.  0.
    5000000    2    1    2    0    0 -0.61403467103E+02 -0.55785038479E+02  0.22516482158E+03  0.64754842105E+03  0.60144609437E+03 0.  0.
         23    2    4    4    0    0 -0.19706046146E+03  0.20511416914E+03  0.12737927260E+03  0.32342998677E+03  0.86468661386E+02 0.  0.
         23    2    4    4    0    0  0.13565699436E+03 -0.26089920762E+03  0.97785548983E+02  0.32411843428E+03  0.94971201914E+02 0.  0.
          1    1    3    3  502    0  0.50067037866E+01  0.72041754384E+01  0.44150221781E+02  0.45013434771E+02  0.00000000000E+00 0. -1.
         -1    1    3    3    0  502  0.56396763316E+02  0.48580863041E+02 -0.27209948652E+02  0.79253242659E+02  0.00000000000E+00 0.  1.
         13    1    5    5    0    0 -0.59621479298E+02  0.15108391784E+02  0.38984290001E+02  0.72820046435E+02  0.00000000000E+00 0. -1.
        -13    1    5    5    0    0 -0.13743898217E+03  0.19000577736E+03  0.88394982596E+02  0.25060994034E+03  0.00000000000E+00 0.  1.
          3    1    6    6  503    0  0.14168271693E+03 -0.20694567367E+03  0.59713932675E+02  0.25781050770E+03  0.00000000000E+00 0. -1.
         -3    1    6    6    0  503 -0.60257225684E+01 -0.53953533954E+02  0.38071616308E+02  0.66307926577E+02  0.00000000000E+00 0.  1.
<mgrwt>
<rscale>  0 0.34215332E+03</rscale>
<asrwt>0</asrwt>
<pdfrwt beam="1">  1        1 0.40746924E-01 0.34215332E+03</pdfrwt>
<pdfrwt beam="2">  1       -1 0.77993861E-01 0.34215332E+03</pdfrwt>
<totfact> 0.17666323E+02</totfact>
</mgrwt>
</event>
<event>
12    1  0.1432447E-007  0.1631726E+04  0.7818608E-02  0.8801291E-01
          2   -1    0    0  501    0  0.00000000000E+00  0.00000000000E+00  0.12056298434E+04  0.12056298434E+04  0.00000000000E+00 0. -1.
         -2   -1    0    0    0  501 -0.00000000000E+00 -0.00000000000E+00 -0.25816609180E+04  0.25816609180E+04  0.00000000000E+00 0.  1.
         23    2    1    2    0    0 -0.22676920915E+03  0.15667846903E+04  0.30639319893E+02  0.15861958417E+04  0.94020957317E+02 0.  0.
    5000000    2    1    2    0    0  0.22676920915E+03 -0.15667846903E+04 -0.14066703944E+04  0.22010949197E+04  0.59988224445E+03 0.  0.
         23    2    4    4    0    0  0.40179347626E+03 -0.96254145804E+03 -0.99064399681E+03  0.14413090903E+04  0.89846030582E+02 0.  0.
         23    2    4    4    0    0 -0.17502426711E+03 -0.60424323222E+03 -0.41602639762E+03  0.75978582947E+03  0.91941097404E+02 0.  0.
          4    1    3    3  502    0 -0.31065912920E+01  0.26477543831E+03  0.17305774660E+01  0.26479931749E+03  0.00000000000E+00 0. -1.
         -4    1    3    3    0  502 -0.22366261786E+03  0.13020092519E+04  0.28908742427E+02  0.13213965242E+04  0.00000000000E+00 0.  1.
         13    1    5    5    0    0  0.21561953888E+03 -0.61377839346E+03 -0.64656601882E+03  0.91720407681E+03  0.00000000000E+00 0.  1.
        -13    1    5    5    0    0  0.18617393738E+03 -0.34876306458E+03 -0.34407797799E+03  0.52410501344E+03  0.00000000000E+00 0. -1.
          2    1    6    6  503    0 -0.17145291380E+03 -0.52350439617E+03 -0.33188246378E+03  0.64311657126E+03  0.00000000000E+00 0. -1.
         -2    1    6    6    0  503 -0.35713533111E+01 -0.80738836048E+02 -0.84143933838E+02  0.11666925822E+03  0.00000000000E+00 0.  1.
<mgrwt>
<rscale>  0 0.16317255E+04</rscale>
<asrwt>0</asrwt>
<pdfrwt beam="1">  1        2 0.18548152E+00 0.16317255E+04</pdfrwt>
<pdfrwt beam="2">  1       -2 0.39717860E+00 0.16317255E+04</pdfrwt>
<totfact> 0.13574679E-01</totfact>
</mgrwt>
</event>
<event>
12    1  0.1432447E-007  0.3427944E+03  0.7818608E-02  0.1065612E+00
          2   -1    0    0  501    0  0.00000000000E+00  0.00000000000E+00  0.96512897959E+03  0.96512897959E+03  0.00000000000E+00 0. -1.
         -2   -1    0    0    0  501 -0.00000000000E+00 -0.00000000000E+00 -0.20933967286E+03  0.20933967286E+03  0.00000000000E+00 0.  1.
         23    2    1    2    0    0 -0.15208458979E+03  0.80546849199E+02  0.42768303093E+03  0.47013645135E+03  0.92184546301E+02 0.  0.
    5000000    2    1    2    0    0  0.15208458979E+03 -0.80546849199E+02  0.32810627580E+03  0.70433220111E+03  0.59900968600E+03 0.  0.
         23    2    4    4    0    0 -0.92193300030E+02 -0.19039003688E+03  0.35225861982E+03  0.42019114695E+03  0.87900477954E+02 0.  0.
         23    2    4    4    0    0  0.24427788982E+03  0.10984318768E+03 -0.24152344013E+02  0.28414105416E+03  0.91736522719E+02 0.  0.
          3    1    3    3  502    0 -0.11730831879E+03  0.19598164839E+02  0.32214601185E+03  0.34339974181E+03  0.00000000000E+00 0. -1.
         -3    1    3    3    0  502 -0.34776271005E+02  0.60948684360E+02  0.10553701907E+03  0.12673670954E+03  0.00000000000E+00 0.  1.
         13    1    5    5    0    0  0.83571954025E+00 -0.46326623212E+02  0.30160051543E+02  0.55285469650E+02  0.00000000000E+00 0.  1.
        -13    1    5    5    0    0 -0.93029019571E+02 -0.14406341367E+03  0.32209856827E+03  0.36490567730E+03  0.00000000000E+00 0. -1.
          2    1    6    6  503    0  0.51461986532E+02  0.60893276123E+02 -0.29838907693E+02  0.85127478214E+02  0.00000000000E+00 0. -1.
         -2    1    6    6    0  503  0.19281590329E+03  0.48949911558E+02  0.56865636805E+01  0.19901357594E+03  0.00000000000E+00 0.  1.
<mgrwt>
<rscale>  0 0.34279445E+03</rscale>
<asrwt>0</asrwt>
<pdfrwt beam="1">  1        2 0.14848138E+00 0.34279445E+03</pdfrwt>
<pdfrwt beam="2">  1       -2 0.32206104E-01 0.34279445E+03</pdfrwt>
<totfact> 0.24771094E+02</totfact>
</mgrwt>
</event>
<event>
12    1  0.1432447E-007  0.3239583E+03  0.7818608E-02  0.1073842E+00
         -2   -1    0    0    0  501 -0.00000000000E+00  0.00000000000E+00  0.13635513282E+03  0.13635513282E+03  0.00000000000E+00 0.  1.
          2   -1    0    0  501    0  0.00000000000E+00 -0.00000000000E+00 -0.29321954120E+04  0.29321954120E+04  0.00000000000E+00 0. -1.
         23    2    1    2    0    0  0.28617774516E+02  0.27551867412E+03 -0.20556797515E+04  0.20763048260E+04  0.92157327356E+02 0.  0.
    5000000    2    1    2    0    0 -0.28617774516E+02 -0.27551867412E+03 -0.74016052762E+03  0.99224571875E+03  0.59998703563E+03 0.  0.
         23    2    4    4    0    0 -0.10536975858E+03 -0.20754274205E+03 -0.80327398903E+03  0.84171964798E+03  0.95216009955E+02 0.  0.
         23    2    4    4    0    0  0.76751984064E+02 -0.67975932062E+02  0.63113461405E+02  0.15052607077E+03  0.90350398854E+02 0.  0.
          2    1    3    3  502    0  0.25809162150E+02  0.18781954765E+03 -0.16723096427E+04  0.16830216387E+04  0.00000000000E+00 0. -1.
         -2    1    3    3    0  502  0.28086123654E+01  0.87699126463E+02 -0.38337010887E+03  0.39328318736E+03  0.00000000000E+00 0.  1.
         13    1    5    5    0    0 -0.42791895903E+01 -0.34469993645E+02 -0.26633710956E+03  0.26859253127E+03  0.00000000000E+00 0. -1.
        -13    1    5    5    0    0 -0.10109056899E+03 -0.17307274841E+03 -0.53693687947E+03  0.57312711672E+03  0.00000000000E+00 0.  1.
          1    1    6    6  503    0  0.94848165417E+02 -0.41925332151E+02  0.39445279351E+02  0.11094970943E+03  0.00000000000E+00 0. -1.
         -1    1    6    6    0  503 -0.18096181353E+02 -0.26050599911E+02  0.23668182054E+02  0.39576361342E+02  0.00000000000E+00 0.  1.
<mgrwt>
<rscale>  0 0.32395833E+03</rscale>
<asrwt>0</asrwt>
<pdfrwt beam="1">  1        2 0.45110700E+00 0.32395833E+03</pdfrwt>
<pdfrwt beam="2">  1       -2 0.20977712E-01 0.32395833E+03</pdfrwt>
<totfact> 0.43643719E+01</totfact>
</mgrwt>
</event>
<event>
12    1  0.1432447E-007  0.4854737E+03  0.7818608E-02  0.1017642E+00
         -2   -1    0    0    0  501 -0.00000000000E+00  0.00000000000E+00  0.41250827940E+03  0.41250827940E+03  0.00000000000E+00 0.  1.
          2   -1    0    0  501    0  0.00000000000E+00 -0.00000000000E+00 -0.75445284954E+03  0.75445284954E+03  0.00000000000E+00 0. -1.
         23    2    1    2    0    0  0.37262364450E+03  0.95620572047E+02 -0.18757232613E+03  0.43767284799E+03  0.91555830542E+02 0.  0.
    5000000    2    1    2    0    0 -0.37262364450E+03 -0.95620572047E+02 -0.15437224401E+03  0.72928828095E+03  0.60003244310E+03 0.  0.
         23    2    4    4    0    0  0.72656334923E+02  0.52872652760E+02  0.12179120448E+03  0.17509701655E+03  0.88042076871E+02 0.  0.
         23    2    4    4    0    0 -0.44527997942E+03 -0.14849322481E+03 -0.27616344850E+03  0.55419126440E+03  0.10265091023E+03 0.  0.
          3    1    3    3  502    0  0.20836290759E+03  0.35997219152E+02 -0.14912740793E+03  0.25874675813E+03  0.00000000000E+00 0. -1.
         -3    1    3    3    0  502  0.16426073691E+03  0.59623352895E+02 -0.38444918197E+02  0.17892608987E+03  0.00000000000E+00 0.  1.
         11    1    5    5    0    0  0.27123814872E+02  0.63108192974E+02  0.36287135292E+02  0.77685915978E+02  0.00000000000E+00 0.  1.
        -11    1    5    5    0    0  0.45532520051E+02 -0.10235540214E+02  0.85504069192E+02  0.97411100569E+02  0.00000000000E+00 0. -1.
          1    1    6    6  503    0 -0.32216880405E+03 -0.10648290594E+03 -0.25010403945E+03  0.42152506226E+03  0.00000000000E+00 0.  1.
         -1    1    6    6    0  503 -0.12311117537E+03 -0.42010318868E+02 -0.26059409043E+02  0.13266620215E+03  0.00000000000E+00 0. -1.
<mgrwt>
<rscale>  0 0.48547366E+03</rscale>
<asrwt>0</asrwt>
<pdfrwt beam="1">  1        2 0.11606967E+00 0.48547366E+03</pdfrwt>
<pdfrwt beam="2">  1       -2 0.63462813E-01 0.48547366E+03</pdfrwt>
<totfact> 0.88478776E+01</totfact>
</mgrwt>
</event>
<event>
12    1  0.1432447E-007  0.4391284E+03  0.7818608E-02  0.1031015E+00
         -1   -1    0    0    0  501 -0.00000000000E+00  0.00000000000E+00  0.57327438732E+03  0.57327438732E+03  0.00000000000E+00 0.  1.
          1   -1    0    0  501    0  0.00000000000E+00 -0.00000000000E+00 -0.75059817856E+03  0.75059817856E+03  0.00000000000E+00 0. -1.
         23    2    1    2    0    0 -0.28591400941E+02 -0.27042534635E+03  0.36956507488E+03  0.46764563136E+03  0.90370104549E+02 0.  0.
    5000000    2    1    2    0    0  0.28591400941E+02  0.27042534635E+03 -0.54688886613E+03  0.85622693452E+03  0.60007482479E+03 0.  0.
         23    2    4    4    0    0 -0.24434293591E+03  0.75950433081E+02 -0.99449178916E+02  0.28960631373E+03  0.92248247423E+02 0.  0.
         23    2    4    4    0    0  0.27293433685E+03  0.19447491327E+03 -0.44743968721E+03  0.56662062079E+03  0.92428405184E+02 0.  0.
          2    1    3    3  502    0 -0.35985144398E+02 -0.87217722315E+02  0.74352388177E+02  0.12012551490E+03  0.00000000000E+00 0. -1.
         -2    1    3    3    0  502  0.73937434571E+01 -0.18320762404E+03  0.29521268671E+03  0.34752011645E+03  0.00000000000E+00 0.  1.
         11    1    5    5    0    0 -0.90067614320E+02  0.46134991192E+02 -0.84372232161E+02  0.13175464364E+03  0.00000000000E+00 0. -1.
        -11    1    5    5    0    0 -0.15427532159E+03  0.29815441889E+02 -0.15076946755E+02  0.15785167009E+03  0.00000000000E+00 0.  1.
          4    1    6    6  503    0  0.10722175017E+03  0.11885931546E+03 -0.25946747904E+03  0.30487278209E+03  0.00000000000E+00 0. -1.
         -4    1    6    6    0  503  0.16571258668E+03  0.75615597807E+02 -0.18797220818E+03  0.26174783870E+03  0.00000000000E+00 0.  1.
<mgrwt>
<rscale>  0 0.43912839E+03</rscale>
<asrwt>0</asrwt>
<pdfrwt beam="1">  1        1 0.11547664E+00 0.43912839E+03</pdfrwt>
<pdfrwt beam="2">  1       -1 0.88196059E-01 0.43912839E+03</pdfrwt>
<totfact> 0.33009143E+01</totfact>
</mgrwt>
</event>
<event>
12    1  0.1432447E-007  0.9953388E+03  0.7818608E-02  0.9313672E-01
          1   -1    0    0  501    0  0.00000000000E+00  0.00000000000E+00  0.20481279713E+04  0.20481279713E+04  0.00000000000E+00 0. -1.
         -1   -1    0    0    0  501 -0.00000000000E+00 -0.00000000000E+00 -0.54924893793E+03  0.54924893793E+03  0.00000000000E+00 0.  1.
         23    2    1    2    0    0  0.97250716846E+03 -0.28360018670E+02  0.65369696570E+03  0.11758093414E+04  0.92916096309E+02 0.  0.
    5000000    2    1    2    0    0 -0.97250716846E+03  0.28360018670E+02  0.84518206770E+03  0.14215675679E+04  0.59995594764E+03 0.  0.
         23    2    4    4    0    0 -0.82886454299E+03 -0.55481023035E+02  0.37955080240E+03  0.91879503860E+03  0.10015456459E+03 0.  0.
         23    2    4    4    0    0 -0.14364262547E+03  0.83841041705E+02  0.46563126530E+03  0.50277252928E+03  0.91132962445E+02 0.  0.
          2    1    3    3  502    0  0.76166669216E+03 -0.58223995791E+02  0.52674007168E+03  0.92789077306E+03  0.00000000000E+00 0. -1.
         -2    1    3    3    0  502  0.21084047630E+03  0.29863977121E+02  0.12695689402E+03  0.24791856832E+03  0.00000000000E+00 0.  1.
         13    1    5    5    0    0 -0.16371746164E+03 -0.26968624186E+02  0.11752493722E+03  0.20332935057E+03  0.00000000000E+00 0. -1.
        -13    1    5    5    0    0 -0.66514708135E+03 -0.28512398849E+02  0.26202586518E+03  0.71546568803E+03  0.00000000000E+00 0.  1.
          4    1    6    6  503    0 -0.64926106059E+02  0.80438763476E+02  0.19244305878E+03  0.21844936436E+03  0.00000000000E+00 0.  1.
         -4    1    6    6    0  503 -0.78716519413E+02  0.34022782288E+01  0.27318820652E+03  0.28432316492E+03  0.00000000000E+00 0. -1.
<mgrwt>
<rscale>  0 0.99533884E+03</rscale>
<asrwt>0</asrwt>
<pdfrwt beam="1">  1        1 0.31509661E+00 0.99533884E+03</pdfrwt>
<pdfrwt beam="2">  1       -1 0.84499838E-01 0.99533884E+03</pdfrwt>
<totfact> 0.38811942E+00</totfact>
</mgrwt>
</event>
<event>
12    1  0.1432447E-007  0.5686752E+03  0.7818608E-02  0.9972615E-01
         -2   -1    0    0    0  501 -0.00000000000E+00  0.00000000000E+00  0.50488716855E+03  0.50488716855E+03  0.00000000000E+00 0.  1.
          2   -1    0    0  501    0  0.00000000000E+00 -0.00000000000E+00 -0.97532009582E+03  0.97532009582E+03  0.00000000000E+00 0. -1.
         23    2    1    2    0    0 -0.29820971463E+03  0.39007553614E+03  0.11066990790E+03  0.51127952076E+03  0.89838533173E+02 0.  0.
    5000000    2    1    2    0    0  0.29820971463E+03 -0.39007553614E+03 -0.58110283516E+03  0.96892774361E+03  0.60004375633E+03 0.  0.
         23    2    4    4    0    0  0.22290188527E+03 -0.44620137972E+03 -0.16735398413E+03  0.53463811135E+03  0.95129555749E+02 0.  0.
         23    2    4    4    0    0  0.75307829362E+02  0.56125843589E+02 -0.41374885103E+03  0.43428963226E+03  0.92725365876E+02 0.  0.
          3    1    3    3  502    0 -0.24328018224E+03  0.25408555486E+03  0.65527690517E+02  0.35782480977E+03  0.00000000000E+00 0. -1.
         -3    1    3    3    0  502 -0.54929532387E+02  0.13598998127E+03  0.45142217383E+02  0.15345471099E+03  0.00000000000E+00 0.  1.
         13    1    5    5    0    0  0.99164362789E+02 -0.10624398515E+03 -0.35709919071E+02  0.14965478124E+03  0.00000000000E+00 0.  1.
        -13    1    5    5    0    0  0.12373752248E+03 -0.33995739458E+03 -0.13164406506E+03  0.38498333011E+03  0.00000000000E+00 0. -1.
          2    1    6    6  503    0  0.13044619186E+02  0.67294322055E+02 -0.20387312807E+03  0.21508821497E+03  0.00000000000E+00 0. -1.
         -2    1    6    6    0  503  0.62263210176E+02 -0.11168478466E+02 -0.20987572296E+03  0.21920141729E+03  0.00000000000E+00 0.  1.
<mgrwt>
<rscale>  0 0.56867517E+03</rscale>
<asrwt>0</asrwt>
<pdfrwt beam="1">  1        2 0.15004924E+00 0.56867517E+03</pdfrwt>
<pdfrwt beam="2">  1       -2 0.77674949E-01 0.56867517E+03</pdfrwt>
<totfact> 0.39939471E+01</totfact>
</mgrwt>
</event>
<event>
12    1  0.1432447E-007  0.1276455E+04  0.7818608E-02  0.9048448E-01
          2   -1    0    0  501    0  0.00000000000E+00  0.00000000000E+00  0.20074624476E+04  0.20074624476E+04  0.00000000000E+00 0. -1.
         -2   -1    0    0    0  501 -0.00000000000E+00 -0.00000000000E+00 -0.91253943390E+03  0.91253943390E+03  0.00000000000E+00 0.  1.
         23    2    1    2    0    0  0.19104694692E+03 -0.12395742471E+04  0.21785617128E+03  0.12761276066E+04  0.89426545364E+02 0.  0.
    5000000    2    1    2    0    0 -0.19104694692E+03  0.12395742471E+04  0.87706684241E+03  0.16438742749E+04  0.60002761240E+03 0.  0.
         23    2    4    4    0    0 -0.27416596535E+01  0.88404852292E+03  0.30692330376E+03  0.94040405924E+03  0.92782394172E+02 0.  0.
         23    2    4    4    0    0 -0.18830528727E+03  0.35552572416E+03  0.57014353865E+03  0.70347021565E+03  0.89158666931E+02 0.  0.
          4    1    3    3  502    0  0.16643450725E+03 -0.80429527684E+03  0.13525099977E+03  0.83239664253E+03  0.00000000000E+00 0. -1.
         -4    1    3    3    0  502  0.24612439676E+02 -0.43527897024E+03  0.82605171513E+02  0.44373096407E+03  0.00000000000E+00 0.  1.
         13    1    5    5    0    0 -0.85110168619E+01  0.52849109324E+03  0.23074978427E+03  0.57673281161E+03  0.00000000000E+00 0.  1.
        -13    1    5    5    0    0  0.57693572084E+01  0.35555742968E+03  0.76173519485E+02  0.36367124763E+03  0.00000000000E+00 0. -1.
          1    1    6    6  503    0 -0.34388254372E+02  0.15435107547E+03  0.20028604271E+03  0.25518876433E+03  0.00000000000E+00 0. -1.
         -1    1    6    6    0  503 -0.15391703290E+03  0.20117464869E+03  0.36985749594E+03  0.44828145131E+03  0.00000000000E+00 0.  1.
<mgrwt>
<rscale>  0 0.12764551E+04</rscale>
<asrwt>0</asrwt>
<pdfrwt beam="1">  1        2 0.30884038E+00 0.12764551E+04</pdfrwt>
<pdfrwt beam="2">  1       -2 0.14039068E+00 0.12764551E+04</pdfrwt>
<totfact> 0.22799585E+00</totfact>
</mgrwt>
</event>
<event>
12    1  0.1432447E-007  0.5720384E+03  0.7818608E-02  0.9965178E-01
         -2   -1    0    0    0  501 -0.00000000000E+00  0.00000000000E+00  0.31206180793E+03  0.31206180793E+03  0.00000000000E+00 0.  1.
          2   -1    0    0  501    0  0.00000000000E+00 -0.00000000000E+00 -0.12377097822E+04  0.12377097822E+04  0.00000000000E+00 0. -1.
         23    2    1    2    0    0  0.99066649106E+02  0.42687268363E+03 -0.14106239252E+03  0.46920441973E+03  0.90662560758E+02 0.  0.
    5000000    2    1    2    0    0 -0.99066649106E+02 -0.42687268363E+03 -0.78458558175E+03  0.10805671704E+04  0.60001365455E+03 0.  0.
         23    2    4    4    0    0  0.32156560012E+02  0.11034828106E+03 -0.47867576943E+02  0.15415715981E+03  0.90897401021E+02 0.  0.
         23    2    4    4    0    0 -0.13122320912E+03 -0.53722096469E+03 -0.73671800481E+03  0.92641001058E+03  0.98265933008E+02 0.  0.
          1    1    3    3  502    0  0.46649424894E+02  0.23785710788E+03 -0.12413474467E+03  0.27232628857E+03  0.00000000000E+00 0. -1.
         -1    1    3    3    0  502  0.52417224213E+02  0.18901557575E+03 -0.16927647850E+02  0.19687813117E+03  0.00000000000E+00 0.  1.
         11    1    5    5    0    0 -0.23401297503E+02  0.73976221237E+02 -0.39984372980E+02  0.87286036202E+02  0.00000000000E+00 0.  1.
        -11    1    5    5    0    0  0.55557857514E+02  0.36372059827E+02 -0.78832039637E+01  0.66871123606E+02  0.00000000000E+00 0. -1.
          3    1    6    6  503    0  0.76044182257E+00 -0.19128669697E+03 -0.26056182630E+03  0.32323929840E+03  0.00000000000E+00 0. -1.
         -3    1    6    6    0  503 -0.13198365094E+03 -0.34593426772E+03 -0.47615617851E+03  0.60317071218E+03  0.00000000000E+00 0.  1.
<mgrwt>
<rscale>  0 0.57203842E+03</rscale>
<asrwt>0</asrwt>
<pdfrwt beam="1">  1        2 0.19041689E+00 0.57203842E+03</pdfrwt>
<pdfrwt beam="2">  1       -2 0.48009510E-01 0.57203842E+03</pdfrwt>
<totfact> 0.76520611E+01</totfact>
</mgrwt>
</event>
<event>
12    1  0.1432447E-007  0.7546155E+03  0.7818608E-02  0.9628137E-01
          1   -1    0    0  501    0  0.00000000000E+00  0.00000000000E+00  0.19940238720E+04  0.19940238720E+04  0.00000000000E+00 0. -1.
         -1   -1    0    0    0  501 -0.00000000000E+00 -0.00000000000E+00 -0.41481587784E+03  0.41481587784E+03  0.00000000000E+00 0.  1.
         23    2    1    2    0    0  0.55020710679E+03 -0.37706682971E+03  0.13090104704E+04  0.14719528457E+04  0.90716668292E+02 0.  0.
    5000000    2    1    2    0    0 -0.55020710679E+03  0.37706682971E+03  0.27019752379E+03  0.93688690418E+03  0.59986924820E+03 0.  0.
         23    2    4    4    0    0 -0.51209982612E+03  0.48979225267E+03  0.11935081644E+03  0.72377168661E+03  0.86360606020E+02 0.  0.
         23    2    4    4    0    0 -0.38107280675E+02 -0.11272542296E+03  0.15084670735E+03  0.21311521757E+03  0.92218116539E+02 0.  0.
          2    1    3    3  502    0  0.37271314649E+03 -0.20881304321E+03  0.78664610435E+03  0.89517041398E+03  0.00000000000E+00 0. -1.
         -2    1    3    3    0  502  0.17749396030E+03 -0.16825378650E+03  0.52236436604E+03  0.57678243170E+03  0.00000000000E+00 0.  1.
         13    1    5    5    0    0 -0.17193270826E+03  0.17296992087E+03  0.82493165209E+02  0.25745790336E+03  0.00000000000E+00 0. -1.
        -13    1    5    5    0    0 -0.34016711786E+03  0.31682233180E+03  0.36857651229E+02  0.46631378325E+03  0.00000000000E+00 0.  1.
          3    1    6    6  503    0  0.10458928854E+02 -0.39308514566E+02  0.10761407689E+03  0.11504493928E+03  0.00000000000E+00 0. -1.
         -3    1    6    6    0  503 -0.48566209529E+02 -0.73416908398E+02  0.43232630469E+02  0.98070278290E+02  0.00000000000E+00 0.  1.
<mgrwt>
<rscale>  0 0.75461551E+03</rscale>
<asrwt>0</asrwt>
<pdfrwt beam="1">  1        1 0.30677290E+00 0.75461551E+03</pdfrwt>
<pdfrwt beam="2">  1       -1 0.63817828E-01 0.75461551E+03</pdfrwt>
<totfact> 0.78384207E+00</totfact>
</mgrwt>
</event>
<event>
12    1  0.1432447E-007  0.1203980E+04  0.7818608E-02  0.9109380E-01
         -1   -1    0    0    0  501 -0.00000000000E+00  0.00000000000E+00  0.89504691159E+03  0.89504691159E+03  0.00000000000E+00 0.  1.
          1   -1    0    0  501    0  0.00000000000E+00 -0.00000000000E+00 -0.17447430899E+04  0.17447430899E+04  0.00000000000E+00 0. -1.
         23    2    1    2    0    0  0.10391404848E+04 -0.50450534035E+03 -0.63492290832E+03  0.13205593550E+04  0.80070750289E+02 0.  0.
    5000000    2    1    2    0    0 -0.10391404848E+04  0.50450534035E+03 -0.21477326999E+03  0.13192306465E+04  0.59991945755E+03 0.  0.
         23    2    4    4    0    0 -0.10876061431E+04  0.49174826523E+03 -0.17144016862E+03  0.12085976834E+04  0.81321277223E+02 0.  0.
         23    2    4    4    0    0  0.48465658294E+02  0.12757075120E+02 -0.43333101380E+02  0.11063296306E+03  0.88601534080E+02 0.  0.
          3    1    3    3  502    0  0.41429949472E+03 -0.23116117492E+03 -0.29331756302E+03  0.55777661559E+03  0.00000000000E+00 0.  1.
         -3    1    3    3    0  502  0.62484099006E+03 -0.27334416543E+03 -0.34160534530E+03  0.76278273943E+03  0.00000000000E+00 0. -1.
         11    1    5    5    0    0 -0.20443921939E+03  0.11670453934E+03 -0.57750900276E+02  0.24238504576E+03  0.00000000000E+00 0. -1.
        -11    1    5    5    0    0 -0.88316692369E+03  0.37504372590E+03 -0.11368926834E+03  0.96621263766E+03  0.00000000000E+00 0.  1.
          1    1    6    6  503    0  0.48128807568E+02  0.17982885559E+02 -0.68106171451E+02  0.85312466150E+02  0.00000000000E+00 0. -1.
         -1    1    6    6    0  503  0.33685072675E+00 -0.52258104397E+01  0.24773070071E+02  0.25320496913E+02  0.00000000000E+00 0.  1.
<mgrwt>
<rscale>  0 0.12039802E+04</rscale>
<asrwt>0</asrwt>
<pdfrwt beam="1">  1        1 0.26842201E+00 0.12039802E+04</pdfrwt>
<pdfrwt beam="2">  1       -1 0.13769953E+00 0.12039802E+04</pdfrwt>
<totfact> 0.19090414E+00</totfact>
</mgrwt>
</event>
<event>
12    1  0.1432447E-007  0.2264224E+04  0.7818608E-02  0.8492162E-01
          2   -1    0    0  501    0  0.00000000000E+00  0.00000000000E+00  0.38428913179E+04  0.38428913179E+04  0.00000000000E+00 0. -1.
         -2   -1    0    0    0  501 -0.00000000000E+00 -0.00000000000E+00 -0.13627490874E+04  0.13627490874E+04  0.00000000000E+00 0.  1.
         23    2    1    2    0    0  0.21983587135E+04  0.42815474034E+03  0.14410223687E+04  0.26647841320E+04  0.91823135672E+02 0.  0.
    5000000    2    1    2    0    0 -0.21983587135E+04 -0.42815474034E+03  0.10391198618E+04  0.25408562733E+04  0.60006916231E+03 0.  0.
         23    2    4    4    0    0 -0.13008124742E+04 -0.17603348734E+02  0.76741427873E+03  0.15132519641E+04  0.92649126761E+02 0.  0.
         23    2    4    4    0    0 -0.89754623931E+03 -0.41055139160E+03  0.27170558305E+03  0.10276043092E+04  0.89470641200E+02 0.  0.
          3    1    3    3  502    0  0.12130996542E+04  0.21585270634E+03  0.84135843850E+03  0.14920077694E+04  0.00000000000E+00 0. -1.
         -3    1    3    3    0  502  0.98525905929E+03  0.21230203400E+03  0.59966393023E+03  0.11727763626E+04  0.00000000000E+00 0.  1.
         11    1    5    5    0    0 -0.46431606887E+03 -0.18861864669E+02  0.32398482554E+03  0.56649037850E+03  0.00000000000E+00 0. -1.
        -11    1    5    5    0    0 -0.83649640529E+03  0.12585159342E+01  0.44342945319E+03  0.94676158556E+03  0.00000000000E+00 0.  1.
          3    1    6    6  503    0 -0.58818497419E+03 -0.28033695274E+03  0.22165013318E+03  0.68824352701E+03  0.00000000000E+00 0. -1.
         -3    1    6    6    0  503 -0.30936126511E+03 -0.13021443886E+03  0.50055449871E+02  0.33936078221E+03  0.00000000000E+00 0.  1.
<mgrwt>
<rscale>  0 0.22642236E+04</rscale>
<asrwt>0</asrwt>
<pdfrwt beam="1">  1        2 0.59121404E+00 0.22642236E+04</pdfrwt>
<pdfrwt beam="2">  1       -2 0.20965371E+00 0.22642236E+04</pdfrwt>
<totfact> 0.45608562E-02</totfact>
</mgrwt>
</event>
<event>
12    1  0.1432447E-007  0.5873375E+03  0.7818608E-02  0.9932031E-01
         -1   -1    0    0    0  501 -0.00000000000E+00  0.00000000000E+00  0.47770141839E+03  0.47770141839E+03  0.00000000000E+00 0.  1.
          1   -1    0    0  501    0  0.00000000000E+00 -0.00000000000E+00 -0.80764240007E+03  0.80764240007E+03  0.00000000000E+00 0. -1.
         23    2    1    2    0    0 -0.21154277704E+03  0.41784552048E+03 -0.17116390858E+03  0.50774058240E+03  0.95698432126E+02 0.  0.
    5000000    2    1    2    0    0  0.21154277704E+03 -0.41784552048E+03 -0.15877707311E+03  0.77760323606E+03  0.60009283306E+03 0.  0.
         23    2    4    4    0    0  0.33735634925E+03 -0.42529506995E+03 -0.23707768644E+03  0.59981711487E+03  0.94284351716E+02 0.  0.
         23    2    4    4    0    0 -0.12581357221E+03  0.74495494649E+01  0.78300613335E+02  0.17778612119E+03  0.97940635594E+02 0.  0.
          3    1    3    3  502    0 -0.16429812832E+03  0.26147214173E+03 -0.14905122308E+03  0.34289622770E+03  0.00000000000E+00 0. -1.
         -3    1    3    3    0  502 -0.47244648718E+02  0.15637337876E+03 -0.22112685492E+02  0.16484435470E+03  0.00000000000E+00 0.  1.
         11    1    5    5    0    0  0.89330399008E+02 -0.71742996543E+02 -0.19464843781E+02  0.11621470597E+03  0.00000000000E+00 0. -1.
        -11    1    5    5    0    0  0.24802595024E+03 -0.35355207341E+03 -0.21761284266E+03  0.48360240890E+03  0.00000000000E+00 0.  1.
          3    1    6    6  503    0 -0.27908490717E+02  0.43543342156E+02  0.89302184847E+01  0.52484810206E+02  0.00000000000E+00 0. -1.
         -3    1    6    6    0  503 -0.97905081497E+02 -0.36093792691E+02  0.69370394850E+02  0.12530131099E+03  0.00000000000E+00 0.  1.
<mgrwt>
<rscale>  0 0.58733749E+03</rscale>
<asrwt>0</asrwt>
<pdfrwt beam="1">  1        1 0.12425268E+00 0.58733749E+03</pdfrwt>
<pdfrwt beam="2">  1       -1 0.73492526E-01 0.58733749E+03</pdfrwt>
<totfact> 0.42337478E+01</totfact>
</mgrwt>
</event>
<event>
12    1  0.1432447E-007  0.3590715E+03  0.7818608E-02  0.1058952E+00
          1   -1    0    0  501    0  0.00000000000E+00  0.00000000000E+00  0.14182721924E+04  0.14182721924E+04  0.00000000000E+00 0. -1.
         -1   -1    0    0    0  501 -0.00000000000E+00 -0.00000000000E+00 -0.14787275484E+03  0.14787275484E+03  0.00000000000E+00 0.  1.
         23    2    1    2    0    0  0.11552756109E+03  0.19001493711E+03  0.17327856109E+03  0.29609818395E+03  0.90533867181E+02 0.  0.
    5000000    2    1    2    0    0 -0.11552756109E+03 -0.19001493711E+03  0.10971208765E+04  0.12700467633E+04  0.59991021801E+03 0.  0.
         23    2    4    4    0    0  0.79518723915E+02 -0.27180230155E+03  0.95328924015E+03  0.99863883674E+03  0.91210921909E+02 0.  0.
         23    2    4    4    0    0 -0.19504628500E+03  0.81787364439E+02  0.14383163632E+03  0.27140792656E+03  0.90788197006E+02 0.  0.
          2    1    3    3  502    0  0.59323319909E+02  0.94383612863E+02  0.31037911765E+02  0.11571894671E+03  0.00000000000E+00 0. -1.
         -2    1    3    3    0  502  0.56204241178E+02  0.95631324247E+02  0.14224064932E+03  0.18037923723E+03  0.00000000000E+00 0.  1.
         11    1    5    5    0    0  0.36318302539E+02 -0.13855881408E+03  0.63393980221E+03  0.64992094664E+03  0.00000000000E+00 0.  1.
        -11    1    5    5    0    0  0.43200421376E+02 -0.13324348747E+03  0.31934943794E+03  0.34871789009E+03  0.00000000000E+00 0. -1.
          2    1    6    6  503    0 -0.12662358464E+03  0.63234626677E+02  0.42573533192E+02  0.14779937728E+03  0.00000000000E+00 0. -1.
         -2    1    6    6    0  503 -0.68422700366E+02  0.18552737762E+02  0.10125810313E+03  0.12360854927E+03  0.00000000000E+00 0.  1.
<mgrwt>
<rscale>  0 0.35907153E+03</rscale>
<asrwt>0</asrwt>
<pdfrwt beam="1">  1        1 0.21819571E+00 0.35907153E+03</pdfrwt>
<pdfrwt beam="2">  1       -1 0.22749655E-01 0.35907153E+03</pdfrwt>
<totfact> 0.13114816E+02</totfact>
</mgrwt>
</event>
<event>
12    1  0.1432447E-007  0.1391802E+04  0.7818608E-02  0.8959774E-01
          1   -1    0    0  501    0  0.00000000000E+00  0.00000000000E+00  0.22016737400E+04  0.22016737400E+04  0.00000000000E+00 0. -1.
         -1   -1    0    0    0  501 -0.00000000000E+00 -0.00000000000E+00 -0.11489708573E+04  0.11489708573E+04  0.00000000000E+00 0.  1.
         23    2    1    2    0    0  0.33640195607E+03 -0.12844219447E+04  0.13140180995E+04  0.18702815871E+04  0.91671376158E+02 0.  0.
    5000000    2    1    2    0    0 -0.33640195607E+03  0.12844219447E+04 -0.26131521684E+03  0.14803630101E+04  0.60023577944E+03 0.  0.
         23    2    4    4    0    0 -0.10756021518E+03  0.11803021593E+04 -0.18699106258E+03  0.12033972930E+04  0.92287594700E+02 0.  0.
         23    2    4    4    0    0 -0.22884174089E+03  0.10411978537E+03 -0.74324154268E+02  0.27696571704E+03  0.89311009577E+02 0.  0.
          4    1    3    3  502    0  0.24976961420E+03 -0.86652437758E+03  0.83954708604E+03  0.12321074088E+04  0.00000000000E+00 0. -1.
         -4    1    3    3    0  502  0.86632341870E+02 -0.41789756713E+03  0.47447101350E+03  0.63817417835E+03  0.00000000000E+00 0.  1.
         11    1    5    5    0    0 -0.53527764526E+02  0.21782961342E+03 -0.48765811405E+02  0.22954970359E+03  0.00000000000E+00 0.  1.
        -11    1    5    5    0    0 -0.54032450657E+02  0.96247254593E+03 -0.13822525117E+03  0.97384758943E+03  0.00000000000E+00 0. -1.
          2    1    6    6  503    0 -0.98525380166E+02 -0.21771237614E+01 -0.30877311405E+02  0.10327341751E+03  0.00000000000E+00 0. -1.
         -2    1    6    6    0  503 -0.13031636072E+03  0.10629690913E+03 -0.43446842863E+02  0.17369229953E+03  0.00000000000E+00 0.  1.
<mgrwt>
<rscale>  0 0.13918021E+04</rscale>
<asrwt>0</asrwt>
<pdfrwt beam="1">  1        1 0.33871904E+00 0.13918021E+04</pdfrwt>
<pdfrwt beam="2">  1       -1 0.17676475E+00 0.13918021E+04</pdfrwt>
<totfact> 0.45760566E-01</totfact>
</mgrwt>
</event>
<event>
12    1  0.1432447E-007  0.1196460E+04  0.7818608E-02  0.9115961E-01
          1   -1    0    0  501    0  0.00000000000E+00  0.00000000000E+00  0.12473650032E+04  0.12473650032E+04  0.00000000000E+00 0. -1.
         -1   -1    0    0    0  501 -0.00000000000E+00 -0.00000000000E+00 -0.14051648550E+04  0.14051648550E+04  0.00000000000E+00 0.  1.
         23    2    1    2    0    0  0.83133775967E+02 -0.11510133862E+04  0.41684121236E+03  0.12305663237E+04  0.93775480661E+02 0.  0.
    5000000    2    1    2    0    0 -0.83133775967E+02  0.11510133862E+04 -0.57464106420E+03  0.14219635344E+04  0.60002075016E+03 0.  0.
         23    2    4    4    0    0 -0.22858552587E+03  0.35539163191E+03 -0.39973288161E+03  0.58939392178E+03  0.95101334012E+02 0.  0.
         23    2    4    4    0    0  0.14545174990E+03  0.79562175432E+03 -0.17490818259E+03  0.83256961265E+03  0.91701145471E+02 0.  0.
          3    1    3    3  502    0  0.61159616586E+02 -0.60540740691E+03  0.17342637637E+03  0.63272058214E+03  0.00000000000E+00 0. -1.
         -3    1    3    3    0  502  0.21974159382E+02 -0.54560597931E+03  0.24341483599E+03  0.59784574158E+03  0.00000000000E+00 0.  1.
         11    1    5    5    0    0 -0.15655698440E+03  0.18755130625E+03 -0.27700432040E+03  0.36934668722E+03  0.00000000000E+00 0. -1.
        -11    1    5    5    0    0 -0.72028541470E+02  0.16784032566E+03 -0.12272856121E+03  0.22004723457E+03  0.00000000000E+00 0.  1.
          1    1    6    6  503    0  0.59272414564E+02  0.50016680754E+03 -0.76439432379E+02  0.50943404020E+03  0.00000000000E+00 0. -1.
         -1    1    6    6    0  503  0.86179335340E+02  0.29545494678E+03 -0.98468750213E+02  0.32313557245E+03  0.00000000000E+00 0.  1.
<mgrwt>
<rscale>  0 0.11964600E+04</rscale>
<asrwt>0</asrwt>
<pdfrwt beam="1">  1        1 0.19190231E+00 0.11964600E+04</pdfrwt>
<pdfrwt beam="2">  1       -1 0.21617921E+00 0.11964600E+04</pdfrwt>
<totfact> 0.11300018E+00</totfact>
</mgrwt>
</event>
<event>
12    1  0.1432447E-007  0.4867322E+03  0.7818608E-02  0.1017301E+00
         -2   -1    0    0    0  501 -0.00000000000E+00  0.00000000000E+00  0.18176548839E+03  0.18176548839E+03  0.00000000000E+00 0.  1.
          2   -1    0    0  501    0  0.00000000000E+00 -0.00000000000E+00 -0.16066407778E+04  0.16066407778E+04  0.00000000000E+00 0. -1.
         23    2    1    2    0    0 -0.19455735753E+02 -0.35458801873E+03 -0.35060284623E+03  0.50763992601E+03  0.93084638960E+02 0.  0.
    5000000    2    1    2    0    0  0.19455735753E+02  0.35458801873E+03 -0.10742724432E+04  0.12807663402E+04  0.60015826855E+03 0.  0.
         23    2    4    4    0    0  0.12157992829E+03  0.43674917427E+03 -0.10044404857E+04  0.11057088869E+04  0.90332347439E+02 0.  0.
         23    2    4    4    0    0 -0.10212419254E+03 -0.82161155539E+02 -0.69831957473E+02  0.17505745332E+03  0.92675797797E+02 0.  0.
          2    1    3    3  502    0 -0.41216112064E+02 -0.32148273757E+03 -0.33164053325E+03  0.46371905476E+03  0.00000000000E+00 0.  1.
         -2    1    3    3    0  502  0.21760376311E+02 -0.33105281155E+02 -0.18962312981E+02  0.43920871247E+02  0.00000000000E+00 0. -1.
         11    1    5    5    0    0  0.73624981752E+02  0.35158541416E+03 -0.71406145005E+03  0.79932264815E+03  0.00000000000E+00 0. -1.
        -11    1    5    5    0    0  0.47954946538E+02  0.85163760104E+02 -0.29037903563E+03  0.30638623871E+03  0.00000000000E+00 0.  1.
          1    1    6    6  503    0 -0.38691240214E+02  0.10867285619E+02  0.40397803336E+01  0.40390961751E+02  0.00000000000E+00 0. -1.
         -1    1    6    6    0  503 -0.63432952322E+02 -0.93028441158E+02 -0.73871737807E+02  0.13466649157E+03  0.00000000000E+00 0.  1.
<mgrwt>
<rscale>  0 0.48673225E+03</rscale>
<asrwt>0</asrwt>
<pdfrwt beam="1">  1        2 0.24717549E+00 0.48673225E+03</pdfrwt>
<pdfrwt beam="2">  1       -2 0.27963923E-01 0.48673225E+03</pdfrwt>
<totfact> 0.13527264E+02</totfact>
</mgrwt>
</event>
<event>
12    1  0.1432447E-007  0.7538568E+03  0.7818608E-02  0.9629319E-01
          3   -1    0    0  501    0  0.00000000000E+00  0.00000000000E+00  0.37667410982E+03  0.37667410982E+03  0.00000000000E+00 0. -1.
         -3   -1    0    0    0  501 -0.00000000000E+00 -0.00000000000E+00 -0.17139443947E+04  0.17139443947E+04  0.00000000000E+00 0.  1.
         23    2    1    2    0    0 -0.67955987311E+03  0.10647271761E+03 -0.60547067541E+03  0.92085711683E+03  0.90802148074E+02 0.  0.
    5000000    2    1    2    0    0  0.67955987311E+03 -0.10647271761E+03 -0.73179960948E+03  0.11697613877E+04  0.59972741725E+03 0.  0.
         23    2    4    4    0    0  0.31577264370E+03  0.15713528268E+03 -0.82351277560E+02  0.37476611344E+03  0.96249921012E+02 0.  0.
         23    2    4    4    0    0  0.36378722941E+03 -0.26360800029E+03 -0.64944833192E+03  0.79499527427E+03  0.91673464956E+02 0.  0.
          4    1    3    3  502    0 -0.42983253962E+03  0.10748752491E+03 -0.36300283062E+03  0.57278323576E+03  0.00000000000E+00 0. -1.
         -4    1    3    3    0  502 -0.24972733349E+03 -0.10148072971E+01 -0.24246784480E+03  0.34807388107E+03  0.00000000000E+00 0.  1.
         13    1    5    5    0    0  0.12146760007E+03  0.10333166573E+02 -0.32921598024E+02  0.12627344857E+03  0.00000000000E+00 0.  1.
        -13    1    5    5    0    0  0.19430504363E+03  0.14680211611E+03 -0.49429679536E+02  0.24849266487E+03  0.00000000000E+00 0. -1.
          3    1    6    6  503    0  0.13763101542E+03 -0.91218649248E+02 -0.31773227589E+03  0.35807392745E+03  0.00000000000E+00 0. -1.
         -3    1    6    6    0  503  0.22615621399E+03 -0.17238935105E+03 -0.33171605603E+03  0.43692134682E+03  0.00000000000E+00 0.  1.
<mgrwt>
<rscale>  0 0.75385683E+03</rscale>
<asrwt>0</asrwt>
<pdfrwt beam="1">  1        3 0.57949863E-01 0.75385683E+03</pdfrwt>
<pdfrwt beam="2">  1       -3 0.26368375E+00 0.75385683E+03</pdfrwt>
<totfact> 0.46969219E-01</totfact>
</mgrwt>
</event>
<event>
12    1  0.1432447E-007  0.1365893E+04  0.7818608E-02  0.8978884E-01
          1   -1    0    0  501    0  0.00000000000E+00  0.00000000000E+00  0.14928504571E+04  0.14928504571E+04  0.00000000000E+00 0. -1.
         -1   -1    0    0    0  501 -0.00000000000E+00 -0.00000000000E+00 -0.13392110394E+04  0.13392110394E+04  0.00000000000E+00 0.  1.
         23    2    1    2    0    0  0.10319718161E+04  0.84871586708E+03 -0.10860561719E+03  0.13440671941E+04  0.97144170687E+02 0.  0.
    5000000    2    1    2    0    0 -0.10319718161E+04 -0.84871586708E+03  0.26224503495E+03  0.14879943023E+04  0.60005844143E+03 0.  0.
         23    2    4    4    0    0 -0.11398868020E+03 -0.29716900661E+03 -0.11246363209E+03  0.34967490441E+03  0.91222982439E+02 0.  0.
         23    2    4    4    0    0 -0.91798313593E+03 -0.55154686047E+03  0.37470866704E+03  0.11383193979E+04  0.92018962271E+02 0.  0.
          4    1    3    3  502    0  0.36502326180E+03  0.35843872596E+03 -0.55824850491E+02  0.51462288703E+03  0.00000000000E+00 0. -1.
         -4    1    3    3    0  502  0.66694855433E+03  0.49027714112E+03 -0.52780766699E+02  0.82944430709E+03  0.00000000000E+00 0.  1.
         13    1    5    5    0    0 -0.50422986456E+02 -0.18190578065E+03 -0.22190816950E+02  0.19006478620E+03  0.00000000000E+00 0. -1.
        -13    1    5    5    0    0 -0.63565693744E+02 -0.11526322596E+03 -0.90272815139E+02  0.15961011820E+03  0.00000000000E+00 0.  1.
          3    1    6    6  503    0 -0.62690012041E+03 -0.40284096002E+03  0.29813760949E+03  0.80260241354E+03  0.00000000000E+00 0. -1.
         -3    1    6    6    0  503 -0.29108301552E+03 -0.14870590045E+03  0.76571057550E+02  0.33571698439E+03  0.00000000000E+00 0.  1.
<mgrwt>
<rscale>  0 0.13658928E+04</rscale>
<asrwt>0</asrwt>
<pdfrwt beam="1">  1        1 0.22966930E+00 0.13658928E+04</pdfrwt>
<pdfrwt beam="2">  1       -1 0.20603247E+00 0.13658928E+04</pdfrwt>
<totfact> 0.86989171E-01</totfact>
</mgrwt>
</event>
<event>
12    1  0.1432447E-007  0.1872416E+04  0.7818608E-02  0.8668710E-01
          1   -1    0    0  501    0  0.00000000000E+00  0.00000000000E+00  0.23101029845E+04  0.23101029845E+04  0.00000000000E+00 0. -1.
         -1   -1    0    0    0  501 -0.00000000000E+00 -0.00000000000E+00 -0.16737126411E+04  0.16737126411E+04  0.00000000000E+00 0.  1.
         23    2    1    2    0    0 -0.18083517955E+04 -0.24281562220E+03 -0.29283065702E+03  0.18501487242E+04  0.90580710662E+02 0.  0.
    5000000    2    1    2    0    0  0.18083517955E+04  0.24281562220E+03  0.92922100042E+03  0.21336669015E+04  0.59998927989E+03 0.  0.
         23    2    4    4    0    0  0.13297966603E+04 -0.80550580180E+02  0.62375680242E+03  0.14737397069E+04  0.89379087222E+02 0.  0.
         23    2    4    4    0    0  0.47855513520E+03  0.32336620238E+03  0.30546419800E+03  0.65992719460E+03  0.92815988060E+02 0.  0.
          2    1    3    3  502    0 -0.15844710873E+04 -0.24152901308E+03 -0.26518437020E+03  0.16245638310E+04  0.00000000000E+00 0. -1.
         -2    1    3    3    0  502 -0.22388070818E+03 -0.12866091218E+01 -0.27646286819E+02  0.22558489319E+03  0.00000000000E+00 0.  1.
         11    1    5    5    0    0  0.51011571057E+03 -0.71527834396E+00  0.27328698048E+03  0.57870918733E+03  0.00000000000E+00 0. -1.
        -11    1    5    5    0    0  0.81968094976E+03 -0.79835301836E+02  0.35046982194E+03  0.89503051954E+03  0.00000000000E+00 0.  1.
          2    1    6    6  503    0  0.14150568936E+03  0.14720454392E+03  0.11948553940E+03  0.23657944120E+03  0.00000000000E+00 0. -1.
         -2    1    6    6    0  503  0.33704944584E+03  0.17616165846E+03  0.18597865860E+03  0.42334775340E+03  0.00000000000E+00 0.  1.
<mgrwt>
<rscale>  0 0.18724163E+04</rscale>
<asrwt>0</asrwt>
<pdfrwt beam="1">  1        1 0.35540046E+00 0.18724163E+04</pdfrwt>
<pdfrwt beam="2">  1       -1 0.25749425E+00 0.18724163E+04</pdfrwt>
<totfact> 0.10310770E-01</totfact>
</mgrwt>
</event>
<event>
12    1  0.2246619E-007  0.9809873E+03  0.7818608E-02  0.9329647E-01
         -2   -1    0    0    0  501 -0.00000000000E+00  0.00000000000E+00  0.76544819049E+03  0.76544819049E+03  0.00000000000E+00 0.  1.
          2   -1    0    0  501    0  0.00000000000E+00 -0.00000000000E+00 -0.14483452716E+04  0.14483452716E+04  0.00000000000E+00 0. -1.
         23    2    1    2    0    0  0.82585176014E+03 -0.48031354600E+03 -0.45702364395E+03  0.10632550838E+04  0.94385008481E+02 0.  0.
    5000000    2    1    2    0    0 -0.82585176014E+03  0.48031354600E+03 -0.22587343715E+03  0.11505383783E+04  0.59998959837E+03 0.  0.
         23    2    4    4    0    0 -0.75683272237E+03  0.33782409623E+03  0.35276205076E+02  0.83451035601E+03  0.90786750104E+02 0.  0.
         23    2    4    4    0    0 -0.69019037766E+02  0.14248944977E+03 -0.26114964223E+03  0.31602802230E+03  0.81287787345E+02 0.  0.
          4    1    3    3  502    0  0.33103308192E+03 -0.22536701222E+03 -0.15057592008E+03  0.42783910437E+03  0.00000000000E+00 0. -1.
         -4    1    3    3    0  502  0.49481867822E+03 -0.25494653378E+03 -0.30644772387E+03  0.63541597940E+03  0.00000000000E+00 0.  1.
         13    1    5    5    0    0 -0.38738694233E+03  0.18436051398E+03 -0.25937902104E+02  0.42980253252E+03  0.00000000000E+00 0. -1.
        -13    1    5    5    0    0 -0.36944578005E+03  0.15346358226E+03  0.61214107181E+02  0.40470782349E+03  0.00000000000E+00 0.  1.
          2    1    6    6  503    0 -0.14184502327E+02  0.11232723195E+03 -0.14368043170E+03  0.18292805579E+03  0.00000000000E+00 0. -1.
         -2    1    6    6    0  503 -0.54834535439E+02  0.30162217821E+02 -0.11746921054E+03  0.13309996651E+03  0.00000000000E+00 0.  1.
<mgrwt>
<rscale>  0 0.98098726E+03</rscale>
<asrwt>0</asrwt>
<pdfrwt beam="1">  1        2 0.22282235E+00 0.98098726E+03</pdfrwt>
<pdfrwt beam="2">  1       -2 0.11776126E+00 0.98098726E+03</pdfrwt>
<totfact> 0.75233993E+00</totfact>
</mgrwt>
</event>
<event>
12    1  0.1432447E-007  0.6607604E+03  0.7818608E-02  0.9786795E-01
          2   -1    0    0  501    0  0.00000000000E+00  0.00000000000E+00  0.16486227059E+04  0.16486227059E+04  0.00000000000E+00 0. -1.
         -2   -1    0    0    0  501 -0.00000000000E+00 -0.00000000000E+00 -0.67679757697E+03  0.67679757697E+03  0.00000000000E+00 0.  1.
         23    2    1    2    0    0 -0.84395072030E+02  0.56768872736E+03 -0.41157969125E+03  0.71194496619E+03  0.89859742292E+02 0.  0.
    5000000    2    1    2    0    0  0.84395072030E+02 -0.56768872736E+03  0.13834048202E+04  0.16134753167E+04  0.60008389553E+03 0.  0.
         23    2    4    4    0    0  0.20370936027E+03 -0.56135284612E+03  0.74527065491E+03  0.95939777734E+03  0.91658195427E+02 0.  0.
         23    2    4    4    0    0 -0.11931428824E+03 -0.63358812381E+01  0.63813416525E+03  0.65407753932E+03  0.79537235403E+02 0.  0.
          1    1    3    3  502    0 -0.93990497598E+02  0.33951015290E+03 -0.23927127580E+03  0.42585455379E+03  0.00000000000E+00 0. -1.
         -1    1    3    3    0  502  0.95954255679E+01  0.22817857446E+03 -0.17230841545E+03  0.28609041240E+03  0.00000000000E+00 0.  1.
         13    1    5    5    0    0  0.16096922797E+03 -0.35248590847E+03  0.43037888436E+03  0.57912295079E+03  0.00000000000E+00 0. -1.
        -13    1    5    5    0    0  0.42740132300E+02 -0.20886693764E+03  0.31489177055E+03  0.38027482655E+03  0.00000000000E+00 0.  1.
          1    1    6    6  503    0 -0.11481509919E+03  0.17293257591E+02  0.46483561075E+03  0.47911763564E+03  0.00000000000E+00 0. -1.
         -1    1    6    6    0  503 -0.44991890450E+01 -0.23629138829E+02  0.17329855450E+03  0.17495990368E+03  0.00000000000E+00 0.  1.
<mgrwt>
<rscale>  0 0.66076039E+03</rscale>
<asrwt>0</asrwt>
<pdfrwt beam="1">  1        2 0.25363426E+00 0.66076039E+03</pdfrwt>
<pdfrwt beam="2">  1       -2 0.10412270E+00 0.66076039E+03</pdfrwt>
<totfact> 0.81874459E+00</totfact>
</mgrwt>
</event>
<event>
12    1  0.1432447E-007  0.7441397E+03  0.7818608E-02  0.9644589E-01
          1   -1    0    0  501    0  0.00000000000E+00  0.00000000000E+00  0.17266959377E+04  0.17266959377E+04  0.00000000000E+00 0. -1.
         -1   -1    0    0    0  501 -0.00000000000E+00 -0.00000000000E+00 -0.48578894606E+03  0.48578894606E+03  0.00000000000E+00 0.  1.
         23    2    1    2    0    0  0.62267537992E+03 -0.29802116999E+03  0.10783560996E+04  0.12835954668E+04  0.90687365831E+02 0.  0.
    5000000    2    1    2    0    0 -0.62267537992E+03  0.29802116999E+03  0.16255089201E+03  0.92888941694E+03  0.59989291534E+03 0.  0.
         23    2    4    4    0    0  0.37818400520E+02  0.10056438888E+02  0.17378955985E+03  0.20254501309E+03  0.96386242975E+02 0.  0.
         23    2    4    4    0    0 -0.66049378044E+03  0.28796473111E+03 -0.11238667836E+02  0.72634440384E+03  0.90962437165E+02 0.  0.
          3    1    3    3  502    0  0.13728663435E+03 -0.44383317667E+02  0.17064558909E+03  0.22346681171E+03  0.00000000000E+00 0. -1.
         -3    1    3    3    0  502  0.48538874557E+03 -0.25363785233E+03  0.90771051054E+03  0.10601286551E+04  0.00000000000E+00 0.  1.
         11    1    5    5    0    0  0.24303680972E+02  0.34469492740E+02  0.20790028698E+02  0.47021698521E+02  0.00000000000E+00 0.  1.
        -11    1    5    5    0    0  0.13514719549E+02 -0.24413053852E+02  0.15299953115E+03  0.15552331457E+03  0.00000000000E+00 0. -1.
          3    1    6    6  503    0 -0.56741521874E+03  0.21065588992E+03 -0.10209916475E+02  0.60534302408E+03  0.00000000000E+00 0. -1.
         -3    1    6    6    0  503 -0.93078561709E+02  0.77308841182E+02 -0.10287513608E+01  0.12100137976E+03  0.00000000000E+00 0.  1.
<mgrwt>
<rscale>  0 0.74413975E+03</rscale>
<asrwt>0</asrwt>
<pdfrwt beam="1">  1        1 0.26564553E+00 0.74413975E+03</pdfrwt>
<pdfrwt beam="2">  1       -1 0.74736762E-01 0.74413975E+03</pdfrwt>
<totfact> 0.85896939E+00</totfact>
</mgrwt>
</event>
<event>
12    1  0.1432447E-007  0.1054103E+04  0.7818608E-02  0.9251118E-01
          2   -1    0    0  501    0  0.00000000000E+00  0.00000000000E+00  0.12776160358E+04  0.12776160358E+04  0.00000000000E+00 0. -1.
         -2   -1    0    0    0  501 -0.00000000000E+00 -0.00000000000E+00 -0.10716554632E+04  0.10716554632E+04  0.00000000000E+00 0.  1.
         23    2    1    2    0    0  0.76574672465E+03 -0.67746234911E+03  0.47899452283E+03  0.11327945280E+04  0.92002222352E+02 0.  0.
    5000000    2    1    2    0    0 -0.76574672465E+03  0.67746234911E+03 -0.27303395017E+03  0.12164769710E+04  0.59995450013E+03 0.  0.
         23    2    4    4    0    0 -0.16188267449E+03 -0.15059845629E+02  0.11425222777E+03  0.21509692244E+03  0.82342669634E+02 0.  0.
         23    2    4    4    0    0 -0.60386405016E+03  0.69252219474E+03 -0.38728617794E+03  0.10013800485E+04  0.92372272470E+02 0.  0.
          3    1    3    3  502    0  0.64489360973E+03 -0.55348361657E+03  0.36137359966E+03  0.92348403354E+03  0.00000000000E+00 0. -1.
         -3    1    3    3    0  502  0.12085311493E+03 -0.12397873254E+03  0.11762092317E+03  0.20931049442E+03  0.00000000000E+00 0.  1.
         11    1    5    5    0    0 -0.39052985938E+02 -0.14613782098E+02 -0.72520036225E+01  0.42323632812E+02  0.00000000000E+00 0.  1.
        -11    1    5    5    0    0 -0.12282968855E+03 -0.44606353108E+00  0.12150423140E+03  0.17277328963E+03  0.00000000000E+00 0. -1.
          2    1    6    6  503    0 -0.42974982672E+03  0.53187699627E+03 -0.32090804413E+03  0.75535423843E+03  0.00000000000E+00 0. -1.
         -2    1    6    6    0  503 -0.17411422344E+03  0.16064519847E+03 -0.66378133814E+02  0.24602581012E+03  0.00000000000E+00 0.  1.
<mgrwt>
<rscale>  0 0.10541029E+04</rscale>
<asrwt>0</asrwt>
<pdfrwt beam="1">  1        2 0.19655631E+00 0.10541029E+04</pdfrwt>
<pdfrwt beam="2">  1       -2 0.16487007E+00 0.10541029E+04</pdfrwt>
<totfact> 0.38963522E+00</totfact>
</mgrwt>
</event>
<event>
12    1  0.1432447E-007  0.8638294E+03  0.7818608E-02  0.9471961E-01
          2   -1    0    0  501    0  0.00000000000E+00  0.00000000000E+00  0.64999113899E+03  0.64999113899E+03  0.00000000000E+00 0. -1.
         -2   -1    0    0    0  501 -0.00000000000E+00 -0.00000000000E+00 -0.15785635156E+04  0.15785635156E+04  0.00000000000E+00 0.  1.
         23    2    1    2    0    0 -0.70211766934E+03  0.34617691125E+03 -0.95983346808E+03  0.12418129303E+04  0.89506379650E+02 0.  0.
    5000000    2    1    2    0    0  0.70211766934E+03 -0.34617691125E+03  0.31261091453E+02  0.98674172428E+03  0.59989524012E+03 0.  0.
         23    2    4    4    0    0 -0.43577601124E+02 -0.12990513616E+03  0.11399757477E+03  0.20081918664E+03  0.92512415118E+02 0.  0.
         23    2    4    4    0    0  0.74569527047E+03 -0.21627177510E+03 -0.82736483317E+02  0.78592253764E+03  0.89409129289E+02 0.  0.
          3    1    3    3  502    0 -0.54042596710E+03  0.30385511911E+03 -0.73269791480E+03  0.95980956115E+03  0.00000000000E+00 0. -1.
         -3    1    3    3    0  502 -0.16169170225E+03  0.42321792149E+02 -0.22713555328E+03  0.28200336918E+03  0.00000000000E+00 0.  1.
         11    1    5    5    0    0 -0.96298028114E+00  0.13616502333E+02  0.19405180536E+02  0.23725460974E+02  0.00000000000E+00 0. -1.
        -11    1    5    5    0    0 -0.42614620842E+02 -0.14352163849E+03  0.94592394235E+02  0.17709372567E+03  0.00000000000E+00 0.  1.
          1    1    6    6  503    0  0.63847537069E+03 -0.17261597542E+03 -0.99867857611E+02  0.66889510608E+03  0.00000000000E+00 0. -1.
         -1    1    6    6    0  503  0.10721989978E+03 -0.43655799679E+02  0.17131374294E+02  0.11702743157E+03  0.00000000000E+00 0.  1.
<mgrwt>
<rscale>  0 0.86382941E+03</rscale>
<asrwt>0</asrwt>
<pdfrwt beam="1">  1        2 0.99998638E-01 0.86382941E+03</pdfrwt>
<pdfrwt beam="2">  1       -2 0.24285592E+00 0.86382941E+03</pdfrwt>
<totfact> 0.32404283E+00</totfact>
</mgrwt>
</event>
<event>
12    1  0.1432447E-007  0.4236116E+03  0.7818608E-02  0.1035897E+00
          2   -1    0    0  501    0  0.00000000000E+00  0.00000000000E+00  0.27404443624E+04  0.27404443624E+04  0.00000000000E+00 0.  1.
         -2   -1    0    0    0  501 -0.00000000000E+00 -0.00000000000E+00 -0.49279613166E+03  0.49279613166E+03  0.00000000000E+00 0. -1.
         23    2    1    2    0    0  0.22712169423E+03  0.31838793882E+03 -0.35359768236E+03  0.53519460077E+03  0.91906453258E+02 0.  0.
    5000000    2    1    2    0    0 -0.22712169423E+03 -0.31838793882E+03  0.26012459131E+04  0.26980458933E+04  0.60001349842E+03 0.  0.
         23    2    4    4    0    0 -0.60704152087E+02 -0.38158883924E+02  0.51426652769E+02  0.12584399827E+03  0.89726901105E+02 0.  0.
         23    2    4    4    0    0 -0.16641754214E+03 -0.28022905489E+03  0.25498192603E+04  0.25722018950E+04  0.91767133868E+02 0.  0.
          3    1    3    3  502    0  0.94838231222E+02  0.17274786413E+03 -0.22984721870E+03  0.30276370094E+03  0.00000000000E+00 0. -1.
         -3    1    3    3    0  502  0.13228346301E+03  0.14564007469E+03 -0.12375046366E+03  0.23243089983E+03  0.00000000000E+00 0.  1.
         11    1    5    5    0    0  0.20050762545E+02 -0.26489059564E+02  0.13368973581E+02  0.35811071051E+02  0.00000000000E+00 0.  1.
        -11    1    5    5    0    0 -0.80754914632E+02 -0.11669824360E+02  0.38057679188E+02  0.90032927216E+02  0.00000000000E+00 0. -1.
          3    1    6    6  503    0 -0.14454406190E+03 -0.15688315725E+03  0.16102600015E+04  0.16243283484E+04  0.00000000000E+00 0. -1.
         -3    1    6    6    0  503 -0.21873480243E+02 -0.12334589764E+03  0.93955925880E+03  0.94787354663E+03  0.00000000000E+00 0.  1.
<mgrwt>
<rscale>  0 0.42361156E+03</rscale>
<asrwt>0</asrwt>
<pdfrwt beam="1">  1        2 0.42160682E+00 0.42361156E+03</pdfrwt>
<pdfrwt beam="2">  1       -2 0.75814791E-01 0.42361156E+03</pdfrwt>
<totfact> 0.44990580E+00</totfact>
</mgrwt>
</event>
<event>
12    1  0.1432447E-007  0.4198176E+03  0.7818608E-02  0.1037126E+00
         -1   -1    0    0    0  501 -0.00000000000E+00  0.00000000000E+00  0.25615176325E+03  0.25615176325E+03  0.00000000000E+00 0.  1.
          1   -1    0    0  501    0  0.00000000000E+00 -0.00000000000E+00 -0.10114080389E+04  0.10114080389E+04  0.00000000000E+00 0. -1.
         23    2    1    2    0    0  0.61880047651E+02  0.31703256650E+03 -0.22867532574E+03  0.40686393620E+03  0.94377271962E+02 0.  0.
    5000000    2    1    2    0    0 -0.61880047651E+02 -0.31703256650E+03 -0.52658094990E+03  0.86069586593E+03  0.59930884218E+03 0.  0.
         23    2    4    4    0    0  0.12360898550E+03 -0.25252167827E+03 -0.28736582973E+01  0.29387060107E+03  0.85471006609E+02 0.  0.
         23    2    4    4    0    0 -0.18548903315E+03 -0.64510888224E+02 -0.52370729161E+03  0.56682526486E+03  0.91944099759E+02 0.  0.
          2    1    3    3  502    0 -0.69566694359E+01  0.18595212629E+03 -0.15117335523E+03  0.23974981096E+03  0.00000000000E+00 0. -1.
         -2    1    3    3    0  502  0.68836717087E+02  0.13108044020E+03 -0.77501970506E+02  0.16711412524E+03  0.00000000000E+00 0.  1.
         11    1    5    5    0    0  0.11024510237E+03 -0.14732303478E+03  0.20916812733E+02  0.18519063753E+03  0.00000000000E+00 0. -1.
        -11    1    5    5    0    0  0.13363883131E+02 -0.10519864349E+03 -0.23790471031E+02  0.10867996354E+03  0.00000000000E+00 0.  1.
          2    1    6    6  503    0 -0.16091278204E+03 -0.16811199429E+02 -0.41942960767E+03  0.44955170519E+03  0.00000000000E+00 0. -1.
         -2    1    6    6    0  503 -0.24576251115E+02 -0.47699688796E+02 -0.10427768394E+03  0.11727355967E+03  0.00000000000E+00 0.  1.
<mgrwt>
<rscale>  0 0.41981755E+03</rscale>
<asrwt>0</asrwt>
<pdfrwt beam="1">  1        1 0.15560124E+00 0.41981755E+03</pdfrwt>
<pdfrwt beam="2">  1       -1 0.39407963E-01 0.41981755E+03</pdfrwt>
<totfact> 0.98052140E+01</totfact>
</mgrwt>
</event>
<event>
12    1  0.1432447E-007  0.8956705E+03  0.7818608E-02  0.9431010E-01
          2   -1    0    0  501    0  0.00000000000E+00  0.00000000000E+00  0.42967973610E+04  0.42967973610E+04  0.00000000000E+00 0. -1.
         -2   -1    0    0    0  501 -0.00000000000E+00 -0.00000000000E+00 -0.21778964239E+03  0.21778964239E+03  0.00000000000E+00 0.  1.
         23    2    1    2    0    0 -0.75585403014E+03 -0.28545143196E+03  0.26094528844E+04  0.27335275014E+04  0.10064993989E+03 0.  0.
    5000000    2    1    2    0    0  0.75585403014E+03  0.28545143196E+03  0.14695548342E+04  0.17810595019E+04  0.59981972606E+03 0.  0.
         23    2    4    4    0    0  0.74910172626E+03  0.40148118966E+03  0.13076657467E+04  0.15626361611E+04  0.97475766371E+02 0.  0.
         23    2    4    4    0    0  0.67523038795E+01 -0.11602975769E+03  0.16188908745E+03  0.21842334076E+03  0.89398998162E+02 0.  0.
          2    1    3    3  502    0 -0.32580141988E+03 -0.14341090898E+03  0.99533901330E+03  0.10570775778E+04  0.00000000000E+00 0. -1.
         -2    1    3    3    0  502 -0.43005261026E+03 -0.14204052298E+03  0.16141138711E+04  0.16764499237E+04  0.00000000000E+00 0.  1.
         13    1    5    5    0    0  0.69478914256E+03  0.36782655613E+03  0.12494632359E+04  0.14762068642E+04  0.00000000000E+00 0.  1.
        -13    1    5    5    0    0  0.54312583693E+02  0.33654633525E+02  0.58202510813E+02  0.86429296943E+02  0.00000000000E+00 0. -1.
          1    1    6    6  503    0 -0.20966873305E+02 -0.95914750967E+02  0.15501628415E+03  0.18349195509E+03  0.00000000000E+00 0. -1.
         -1    1    6    6    0  503  0.27719177185E+02 -0.20115006727E+02  0.68728032985E+01  0.34931385667E+02  0.00000000000E+00 0.  1.
<mgrwt>
<rscale>  0 0.89567053E+03</rscale>
<asrwt>0</asrwt>
<pdfrwt beam="1">  1        2 0.66104569E+00 0.89567053E+03</pdfrwt>
<pdfrwt beam="2">  1       -2 0.33506102E-01 0.89567053E+03</pdfrwt>
<totfact> 0.17298255E+00</totfact>
</mgrwt>
</event>
<event>
12    1  0.1432447E-007  0.1328988E+04  0.7818608E-02  0.9006888E-01
         -2   -1    0    0    0  501 -0.00000000000E+00  0.00000000000E+00  0.14406852921E+04  0.14406852921E+04  0.00000000000E+00 0.  1.
          2   -1    0    0  501    0  0.00000000000E+00 -0.00000000000E+00 -0.40343868857E+04  0.40343868857E+04  0.00000000000E+00 0. -1.
         23    2    1    2    0    0  0.49144218083E+03  0.12255533745E+04 -0.35156414166E+04  0.37564493534E+04  0.87639511581E+02 0.  0.
    5000000    2    1    2    0    0 -0.49144218083E+03 -0.12255533745E+04  0.92193982298E+03  0.17186228244E+04  0.60016238187E+03 0.  0.
         23    2    4    4    0    0 -0.19858588721E+03 -0.33163774129E+03 -0.29140136832E+01  0.39633079584E+03  0.87462347352E+02 0.  0.
         23    2    4    4    0    0 -0.29285629362E+03 -0.89391563317E+03  0.92485383667E+03  0.13222920286E+04  0.90838437210E+02 0.  0.
          4    1    3    3  502    0  0.33978339323E+03  0.74943688858E+03 -0.21248466932E+04  0.22786140247E+04  0.00000000000E+00 0. -1.
         -4    1    3    3    0  502  0.15165878760E+03  0.47611648588E+03 -0.13907947234E+04  0.14778353287E+04  0.00000000000E+00 0.  1.
         11    1    5    5    0    0 -0.10327599487E+03 -0.23603580244E+03  0.23729750580E+02  0.25873139008E+03  0.00000000000E+00 0. -1.
        -11    1    5    5    0    0 -0.95309892345E+02 -0.95601938850E+02 -0.26643764263E+02  0.13759940576E+03  0.00000000000E+00 0.  1.
          1    1    6    6  503    0 -0.18847785303E+03 -0.47414521324E+03  0.54583478489E+03  0.74717681757E+03  0.00000000000E+00 0.  1.
         -1    1    6    6    0  503 -0.10437844059E+03 -0.41977041993E+03  0.37901905178E+03  0.57511521100E+03  0.00000000000E+00 0. -1.
<mgrwt>
<rscale>  0 0.13289876E+04</rscale>
<asrwt>0</asrwt>
<pdfrwt beam="1">  1        2 0.62067490E+00 0.13289876E+04</pdfrwt>
<pdfrwt beam="2">  1       -2 0.22164389E+00 0.13289876E+04</pdfrwt>
<totfact> 0.30423003E-02</totfact>
</mgrwt>
</event>
<event>
12    1  0.1432447E-007  0.8114938E+03  0.7818608E-02  0.9543528E-01
         -4   -1    0    0    0  501 -0.00000000000E+00  0.00000000000E+00  0.24829877046E+03  0.24829877046E+03  0.00000000000E+00 0. -1.
          4   -1    0    0  501    0  0.00000000000E+00 -0.00000000000E+00 -0.31768829347E+04  0.31768829347E+04  0.00000000000E+00 0.  1.
         23    2    1    2    0    0  0.20996100523E+03  0.72849361641E+03 -0.16856943422E+04  0.18505285089E+04  0.90020964813E+02 0.  0.
    5000000    2    1    2    0    0 -0.20996100523E+03 -0.72849361641E+03 -0.12428898221E+04  0.15746531963E+04  0.59997583771E+03 0.  0.
         23    2    4    4    0    0 -0.28301854116E+02  0.99767528999E+01 -0.49451862404E+03  0.50390164653E+03  0.92019939705E+02 0.  0.
         23    2    4    4    0    0 -0.18165915112E+03 -0.73847036931E+03 -0.74837119803E+03  0.10707515497E+04  0.90060522386E+02 0.  0.
          4    1    3    3  502    0  0.18481862628E+01  0.11067313548E+03 -0.21515119186E+03  0.24195452892E+03  0.00000000000E+00 0. -1.
         -4    1    3    3    0  502  0.20811281897E+03  0.61782048093E+03 -0.14705431503E+04  0.16085739800E+04  0.00000000000E+00 0.  1.
         11    1    5    5    0    0 -0.56033193891E+02 -0.16247892150E+02 -0.31739612640E+03  0.32271351672E+03  0.00000000000E+00 0. -1.
        -11    1    5    5    0    0  0.27731339775E+02  0.26224645050E+02 -0.17712249764E+03  0.18118812981E+03  0.00000000000E+00 0.  1.
          4    1    6    6  503    0 -0.17905946616E+03 -0.61943457849E+03 -0.60272665940E+03  0.88263294488E+03  0.00000000000E+00 0. -1.
         -4    1    6    6    0  503 -0.25996849579E+01 -0.11903579082E+03 -0.14564453863E+03  0.18811860485E+03  0.00000000000E+00 0.  1.
<mgrwt>
<rscale>  0 0.81149379E+03</rscale>
<asrwt>0</asrwt>
<pdfrwt beam="1">  1        4 0.48875123E+00 0.81149379E+03</pdfrwt>
<pdfrwt beam="2">  1       -4 0.38199810E-01 0.81149379E+03</pdfrwt>
<totfact> 0.20863350E-02</totfact>
</mgrwt>
</event>
<event>
12    1  0.1432447E-007  0.1080963E+04  0.7818608E-02  0.9223948E-01
         -2   -1    0    0    0  501 -0.00000000000E+00  0.00000000000E+00  0.12283039667E+04  0.12283039667E+04  0.00000000000E+00 0. -1.
          2   -1    0    0  501    0  0.00000000000E+00 -0.00000000000E+00 -0.10123698729E+04  0.10123698729E+04  0.00000000000E+00 0.  1.
         23    2    1    2    0    0  0.98969935755E+03  0.16554931462E+03  0.34361356897E+03  0.10645582964E+04  0.91119085844E+02 0.  0.
    5000000    2    1    2    0    0 -0.98969935755E+03 -0.16554931462E+03 -0.12767947511E+03  0.11761155432E+04  0.60002860651E+03 0.  0.
         23    2    4    4    0    0 -0.69338655421E+03  0.16271795562E+03 -0.62986048870E+02  0.71996318591E+03  0.84366462911E+02 0.  0.
         23    2    4    4    0    0 -0.29631280334E+03 -0.32826727024E+03 -0.64693426237E+02  0.45615235727E+03  0.91263659323E+02 0.  0.
          4    1    3    3  502    0  0.93305955653E+03  0.14083120626E+03  0.30502994778E+03  0.99170400510E+03  0.00000000000E+00 0. -1.
         -4    1    3    3    0  502  0.56639801018E+02  0.24718108361E+02  0.38583621192E+02  0.72854291326E+02  0.00000000000E+00 0.  1.
         11    1    5    5    0    0 -0.36565872111E+02  0.16440262993E+02  0.14436825472E+02  0.42611819724E+02  0.00000000000E+00 0. -1.
        -11    1    5    5    0    0 -0.65682068210E+03  0.14627769263E+03 -0.77422874343E+02  0.67735136618E+03  0.00000000000E+00 0.  1.
          4    1    6    6  503    0 -0.23524328824E+03 -0.23912564304E+03 -0.11311916838E+02  0.33563140092E+03  0.00000000000E+00 0. -1.
         -4    1    6    6    0  503 -0.61069515101E+02 -0.89141627196E+02 -0.53381509399E+02  0.12052095635E+03  0.00000000000E+00 0.  1.
<mgrwt>
<rscale>  0 0.10809625E+04</rscale>
<asrwt>0</asrwt>
<pdfrwt beam="1">  1        2 0.15574921E+00 0.10809625E+04</pdfrwt>
<pdfrwt beam="2">  1       -2 0.18896984E+00 0.10809625E+04</pdfrwt>
<totfact> 0.38306437E+00</totfact>
</mgrwt>
</event>
<event>
12    1  0.1432447E-007  0.6560389E+03  0.7818608E-02  0.9795513E-01
          2   -1    0    0  501    0  0.00000000000E+00  0.00000000000E+00  0.15620301645E+04  0.15620301645E+04  0.00000000000E+00 0. -1.
         -2   -1    0    0    0  501 -0.00000000000E+00 -0.00000000000E+00 -0.44366176999E+03  0.44366176999E+03  0.00000000000E+00 0.  1.
         23    2    1    2    0    0 -0.58723296360E+03  0.24415216396E+03  0.78567146768E+02  0.64714614436E+03  0.90401896554E+02 0.  0.
    5000000    2    1    2    0    0  0.58723296360E+03 -0.24415216396E+03  0.10398012477E+04  0.13585457901E+04  0.60000599694E+03 0.  0.
         23    2    4    4    0    0  0.14301379048E+03  0.26696592346E+01 -0.21883798583E+02  0.17794608024E+03  0.10356560956E+03 0.  0.
         23    2    4    4    0    0  0.44421917312E+03 -0.24682182319E+03  0.10616850463E+04  0.11805997099E+04  0.91590672202E+02 0.  0.
          4    1    3    3  502    0 -0.24953959652E+03  0.12534700539E+03  0.74989245068E+02  0.28914575714E+03  0.00000000000E+00 0. -1.
         -4    1    3    3    0  502 -0.33769336708E+03  0.11880515856E+03  0.35779016999E+01  0.35800038722E+03  0.00000000000E+00 0.  1.
         13    1    5    5    0    0  0.23926664888E+02  0.32129201854E+02 -0.36761029399E+02  0.54370434861E+02  0.00000000000E+00 0.  1.
        -13    1    5    5    0    0  0.11908712559E+03 -0.29459542620E+02  0.14877230816E+02  0.12357564538E+03  0.00000000000E+00 0. -1.
          2    1    6    6  503    0  0.13946549257E+03 -0.44844844807E+02  0.37601942791E+03  0.40354961763E+03  0.00000000000E+00 0. -1.
         -2    1    6    6    0  503  0.30475368055E+03 -0.20197697838E+03  0.68566561839E+03  0.77705009224E+03  0.00000000000E+00 0.  1.
<mgrwt>
<rscale>  0 0.65603889E+03</rscale>
<asrwt>0</asrwt>
<pdfrwt beam="1">  1        2 0.24031233E+00 0.65603889E+03</pdfrwt>
<pdfrwt beam="2">  1       -2 0.68255658E-01 0.65603889E+03</pdfrwt>
<totfact> 0.23864843E+01</totfact>
</mgrwt>
</event>
<event>
12    1  0.1432447E-007  0.6058771E+03  0.7818608E-02  0.9893287E-01
          2   -1    0    0  501    0  0.00000000000E+00  0.00000000000E+00  0.14527777795E+04  0.14527777795E+04  0.00000000000E+00 0.  1.
         -2   -1    0    0    0  501 -0.00000000000E+00 -0.00000000000E+00 -0.34022895418E+03  0.34022895418E+03  0.00000000000E+00 0. -1.
         23    2    1    2    0    0 -0.19933836661E+03  0.43159756421E+03  0.55193729527E+02  0.48763848465E+03  0.93448927770E+02 0.  0.
    5000000    2    1    2    0    0  0.19933836661E+03 -0.43159756421E+03  0.10573550958E+04  0.13053682490E+04  0.59997852056E+03 0.  0.
         23    2    4    4    0    0  0.38013294995E+03 -0.23742119880E+03  0.47112114077E+03  0.65667882037E+03  0.91662743589E+02 0.  0.
         23    2    4    4    0    0 -0.18079458334E+03 -0.19417636541E+03  0.58623395503E+03  0.64868942866E+03  0.82076687204E+02 0.  0.
          4    1    3    3  502    0 -0.13640117581E+03  0.25304445668E+03 -0.93495705787E+01  0.28761813623E+03  0.00000000000E+00 0. -1.
         -4    1    3    3    0  502 -0.62937190795E+02  0.17855310753E+03  0.64543300106E+02  0.20002034842E+03  0.00000000000E+00 0.  1.
         11    1    5    5    0    0  0.28855913649E+03 -0.22269749476E+03  0.36738454739E+03  0.51752483523E+03  0.00000000000E+00 0. -1.
        -11    1    5    5    0    0  0.91573813455E+02 -0.14723704039E+02  0.10373659339E+03  0.13915398514E+03  0.00000000000E+00 0.  1.
          2    1    6    6  503    0 -0.10453900461E+03 -0.16649329938E+03  0.41393252797E+03  0.45824508719E+03  0.00000000000E+00 0. -1.
         -2    1    6    6    0  503 -0.76255578730E+02 -0.27683066028E+02  0.17230142706E+03  0.19044434147E+03  0.00000000000E+00 0.  1.
<mgrwt>
<rscale>  0 0.60587707E+03</rscale>
<asrwt>0</asrwt>
<pdfrwt beam="1">  1        2 0.22350427E+00 0.60587707E+03</pdfrwt>
<pdfrwt beam="2">  1       -2 0.52342917E-01 0.60587707E+03</pdfrwt>
<totfact> 0.48292842E+01</totfact>
</mgrwt>
</event>
<event>
12    1  0.1432447E-007  0.5366060E+03  0.7818608E-02  0.1004643E+00
          1   -1    0    0  501    0  0.00000000000E+00  0.00000000000E+00  0.23025933671E+04  0.23025933671E+04  0.00000000000E+00 0. -1.
         -1   -1    0    0    0  501 -0.00000000000E+00 -0.00000000000E+00 -0.20254204768E+03  0.20254204768E+03  0.00000000000E+00 0.  1.
         23    2    1    2    0    0 -0.40275884256E+03  0.32928601628E+03  0.53747077826E+03  0.75237149293E+03  0.80895365252E+02 0.  0.
    5000000    2    1    2    0    0  0.40275884256E+03 -0.32928601628E+03  0.15625805412E+04  0.17527639219E+04  0.59989953522E+03 0.  0.
         23    2    4    4    0    0  0.35239701406E+03 -0.26399781518E+03  0.15652591638E+04  0.16285798711E+04  0.91420156649E+02 0.  0.
         23    2    4    4    0    0  0.50361828501E+02 -0.65288201102E+02 -0.26786225627E+01  0.12418405074E+03  0.92820474387E+02 0.  0.
          3    1    3    3  502    0 -0.19453964007E+03  0.15731592698E+03  0.31644395383E+03  0.40339899400E+03  0.00000000000E+00 0. -1.
         -3    1    3    3    0  502 -0.20821920248E+03  0.17197008930E+03  0.22102682443E+03  0.34897249893E+03  0.00000000000E+00 0.  1.
         13    1    5    5    0    0  0.14057039968E+03 -0.12130696095E+03  0.82042308150E+03  0.84117147402E+03  0.00000000000E+00 0.  1.
        -13    1    5    5    0    0  0.21182661437E+03 -0.14269085422E+03  0.74483608225E+03  0.78740839712E+03  0.00000000000E+00 0. -1.
          4    1    6    6  503    0  0.62816131238E+02 -0.21543092446E+02 -0.28066205018E+02  0.72094958492E+02  0.00000000000E+00 0. -1.
         -4    1    6    6    0  503 -0.12454302737E+02 -0.43745108656E+02  0.25387582455E+02  0.52089092245E+02  0.00000000000E+00 0.  1.
<mgrwt>
<rscale>  0 0.53660604E+03</rscale>
<asrwt>0</asrwt>
<pdfrwt beam="1">  1        1 0.35424512E+00 0.53660604E+03</pdfrwt>
<pdfrwt beam="2">  1       -1 0.31160317E-01 0.53660604E+03</pdfrwt>
<totfact> 0.19190893E+01</totfact>
</mgrwt>
</event>
<event>
12    1  0.1432447E-007  0.1217297E+04  0.7818608E-02  0.9097850E-01
          1   -1    0    0  501    0  0.00000000000E+00  0.00000000000E+00  0.16099385331E+04  0.16099385331E+04  0.00000000000E+00 0. -1.
         -1   -1    0    0    0  501 -0.00000000000E+00 -0.00000000000E+00 -0.95635656466E+03  0.95635656466E+03  0.00000000000E+00 0.  1.
         23    2    1    2    0    0  0.11525013106E+04  0.13596171034E+03  0.18691621153E+03  0.11790680278E+04  0.92297814832E+02 0.  0.
    5000000    2    1    2    0    0 -0.11525013106E+04 -0.13596171034E+03  0.46666575692E+03  0.13872270699E+04  0.59989762237E+03 0.  0.
         23    2    4    4    0    0 -0.23041769002E+02 -0.13165549600E+03 -0.72108350143E+01  0.15915455107E+03  0.86105065113E+02 0.  0.
         23    2    4    4    0    0 -0.11294595416E+04 -0.43062143335E+01  0.47387659193E+03  0.12280725189E+04  0.88913934148E+02 0.  0.
          4    1    3    3  502    0  0.27189250884E+03  0.58689410008E+01  0.14385318644E+02  0.27233603916E+03  0.00000000000E+00 0. -1.
         -4    1    3    3    0  502  0.88060880172E+03  0.13009276934E+03  0.17253089288E+03  0.90673198868E+03  0.00000000000E+00 0.  1.
         11    1    5    5    0    0 -0.28475119499E+02 -0.13201906294E+03  0.15369594852E+02  0.13592678124E+03  0.00000000000E+00 0.  1.
        -11    1    5    5    0    0  0.54333504966E+01  0.36356694123E+00 -0.22580429866E+02  0.23227769834E+02  0.00000000000E+00 0. -1.
          4    1    6    6  503    0 -0.82515543970E+03  0.30264448390E+02  0.36828767330E+03  0.90412015065E+03  0.00000000000E+00 0. -1.
         -4    1    6    6    0  503 -0.30430410185E+03 -0.34570662723E+02  0.10558891863E+03  0.32395236820E+03  0.00000000000E+00 0.  1.
<mgrwt>
<rscale>  0 0.12172972E+04</rscale>
<asrwt>0</asrwt>
<pdfrwt beam="1">  1        1 0.24768285E+00 0.12172972E+04</pdfrwt>
<pdfrwt beam="2">  1       -1 0.14713178E+00 0.12172972E+04</pdfrwt>
<totfact> 0.19770764E+00</totfact>
</mgrwt>
</event>
<event>
12    1  0.2054758E-007  0.1480609E+04  0.7818608E-02  0.8897451E-01
         -2   -1    0    0    0  501 -0.00000000000E+00  0.00000000000E+00  0.71589340692E+03  0.71589340692E+03  0.00000000000E+00 0.  1.
          2   -1    0    0  501    0  0.00000000000E+00 -0.00000000000E+00 -0.31041543052E+04  0.31041543052E+04  0.00000000000E+00 0. -1.
         23    2    1    2    0    0  0.11228434217E+04  0.87726121477E+03 -0.10127226741E+04  0.17506450625E+04  0.93735434411E+02 0.  0.
    5000000    2    1    2    0    0 -0.11228434217E+04 -0.87726121477E+03 -0.13755382241E+04  0.20694026496E+04  0.59996444197E+03 0.  0.
         23    2    4    4    0    0 -0.88953658236E+03 -0.92685110647E+03 -0.11579794490E+04  0.17319044254E+04  0.90819765019E+02 0.  0.
         23    2    4    4    0    0 -0.23330683929E+03  0.49589891697E+02 -0.21755877518E+03  0.33749822416E+03  0.98397113977E+02 0.  0.
          4    1    3    3  502    0  0.80273315410E+03  0.57994391092E+03 -0.67560783943E+03  0.11988166704E+04  0.00000000000E+00 0.  1.
         -4    1    3    3    0  502  0.32011026755E+03  0.29731730386E+03 -0.33711483471E+03  0.55182839212E+03  0.00000000000E+00 0. -1.
         13    1    5    5    0    0 -0.43869266570E+03 -0.44969050455E+03 -0.62699012685E+03  0.88757502443E+03  0.00000000000E+00 0. -1.
        -13    1    5    5    0    0 -0.45084391667E+03 -0.47716060192E+03 -0.53098932210E+03  0.84432940101E+03  0.00000000000E+00 0.  1.
          3    1    6    6  503    0 -0.41947184442E+02  0.39636347855E+02 -0.91341972585E+02  0.10804611196E+03  0.00000000000E+00 0. -1.
         -3    1    6    6    0  503 -0.19135965484E+03  0.99535438415E+01 -0.12621680260E+03  0.22945211220E+03  0.00000000000E+00 0.  1.
<mgrwt>
<rscale>  0 0.14806086E+04</rscale>
<asrwt>0</asrwt>
<pdfrwt beam="1">  1        2 0.47756219E+00 0.14806086E+04</pdfrwt>
<pdfrwt beam="2">  1       -2 0.11013745E+00 0.14806086E+04</pdfrwt>
<totfact> 0.93806217E-01</totfact>
</mgrwt>
</event>
<event>
12    1  0.1432447E-007  0.6573944E+03  0.7818608E-02  0.9793002E-01
         -1   -1    0    0    0  501 -0.00000000000E+00  0.00000000000E+00  0.69122043988E+03  0.69122043988E+03  0.00000000000E+00 0.  1.
          1   -1    0    0  501    0  0.00000000000E+00 -0.00000000000E+00 -0.78520568682E+03  0.78520568682E+03  0.00000000000E+00 0. -1.
         23    2    1    2    0    0  0.55257236773E+03  0.18043980536E+03  0.14744256125E+03  0.60659757393E+03  0.91250002163E+02 0.  0.
    5000000    2    1    2    0    0 -0.55257236773E+03 -0.18043980536E+03 -0.24142780819E+03  0.86982855276E+03  0.60034954792E+03 0.  0.
         23    2    4    4    0    0 -0.56082680117E+02 -0.20107716501E+03  0.11168647517E+03  0.25326948068E+03  0.89968148860E+02 0.  0.
         23    2    4    4    0    0 -0.49648968761E+03  0.20637359652E+02 -0.35311428337E+03  0.61655907208E+03  0.92344364859E+02 0.  0.
          4    1    3    3  502    0  0.77275543715E+02  0.87472397021E+01 -0.72202467631E+01  0.78103494302E+02  0.00000000000E+00 0. -1.
         -4    1    3    3    0  502  0.47529682402E+03  0.17169256566E+03  0.15466280802E+03  0.52849407963E+03  0.00000000000E+00 0.  1.
         13    1    5    5    0    0 -0.80681686166E+02 -0.16462032079E+03  0.90770793264E+02  0.20456960041E+03  0.00000000000E+00 0. -1.
        -13    1    5    5    0    0  0.24599006050E+02 -0.36456844220E+02  0.20915681910E+02  0.48699880276E+02  0.00000000000E+00 0.  1.
          1    1    6    6  503    0 -0.49771186120E+03  0.26450831183E+02 -0.35273736015E+03  0.61060657423E+03  0.00000000000E+00 0. -1.
         -1    1    6    6    0  503  0.12221735823E+01 -0.58134715303E+01 -0.37692321483E+00  0.59524978462E+01  0.00000000000E+00 0.  1.
<mgrwt>
<rscale>  0 0.65739442E+03</rscale>
<asrwt>0</asrwt>
<pdfrwt beam="1">  1        1 0.12080087E+00 0.65739442E+03</pdfrwt>
<pdfrwt beam="2">  1       -1 0.10634161E+00 0.65739442E+03</pdfrwt>
<totfact> 0.19570915E+01</totfact>
</mgrwt>
</event>
<event>
12    1  0.1432447E-007  0.1703366E+03  0.7818608E-02  0.1177497E+00
          2   -1    0    0  501    0  0.00000000000E+00  0.00000000000E+00  0.13512451915E+04  0.13512451915E+04  0.00000000000E+00 0. -1.
         -2   -1    0    0    0  501 -0.00000000000E+00 -0.00000000000E+00 -0.11255192089E+03  0.11255192089E+03  0.00000000000E+00 0.  1.
         23    2    1    2    0    0  0.74726909464E+02 -0.51852987802E+02  0.45563076217E+03  0.47308252665E+03  0.89077731488E+02 0.  0.
    5000000    2    1    2    0    0 -0.74726909464E+02  0.51852987802E+02  0.78306250841E+03  0.99071458570E+03  0.60004637729E+03 0.  0.
         23    2    4    4    0    0 -0.13116304987E+03  0.40755096551E+02 -0.32339319760E+02  0.16845487842E+03  0.92013536587E+02 0.  0.
         23    2    4    4    0    0  0.56436140410E+02  0.11097891252E+02  0.81540182817E+03  0.82225970727E+03  0.89009458425E+02 0.  0.
          3    1    3    3  502    0  0.35609922195E+02 -0.41881376388E+02  0.40310644946E+03  0.40683771438E+03  0.00000000000E+00 0. -1.
         -3    1    3    3    0  502  0.39116987269E+02 -0.99716114148E+01  0.52524312706E+02  0.66244812268E+02  0.00000000000E+00 0.  1.
         11    1    5    5    0    0 -0.90486642971E+02  0.62587536889E+02  0.33952011500E+01  0.11007524572E+03  0.00000000000E+00 0.  1.
        -11    1    5    5    0    0 -0.40676406902E+02 -0.21832440339E+02 -0.35734520910E+02  0.58379632701E+02  0.00000000000E+00 0. -1.
          4    1    6    6  503    0  0.38216656592E+02 -0.27081695743E+02  0.20025273775E+03  0.20565770120E+03  0.00000000000E+00 0.  1.
         -4    1    6    6    0  503  0.18219483818E+02  0.38179586994E+02  0.61514909042E+03  0.61660200608E+03  0.00000000000E+00 0. -1.
<mgrwt>
<rscale>  0 0.17033662E+03</rscale>
<asrwt>0</asrwt>
<pdfrwt beam="1">  1        2 0.20788386E+00 0.17033662E+03</pdfrwt>
<pdfrwt beam="2">  1       -2 0.17315681E-01 0.17033662E+03</pdfrwt>
<totfact> 0.45145512E+02</totfact>
</mgrwt>
</event>
<event>
12    1  0.1432447E-007  0.7067228E+03  0.7818608E-02  0.9705804E-01
         -2   -1    0    0    0  501 -0.00000000000E+00  0.00000000000E+00  0.44391483911E+03  0.44391483911E+03  0.00000000000E+00 0.  1.
          2   -1    0    0  501    0  0.00000000000E+00 -0.00000000000E+00 -0.13592408892E+04  0.13592408892E+04  0.00000000000E+00 0. -1.
         23    2    1    2    0    0 -0.46637215600E+03 -0.45051580323E+03 -0.27045029413E+03  0.70860426335E+03  0.92245127761E+02 0.  0.
    5000000    2    1    2    0    0  0.46637215600E+03  0.45051580323E+03 -0.64487575595E+03  0.10945514650E+04  0.60142388712E+03 0.  0.
         23    2    4    4    0    0  0.24291049101E+03 -0.13284192413E+02  0.57890200304E+01  0.25981683998E+03  0.91045599416E+02 0.  0.
         23    2    4    4    0    0  0.22346166499E+03  0.46379999564E+03 -0.65066477598E+03  0.83473462498E+03  0.91496949540E+02 0.  0.
          3    1    3    3  502    0 -0.83820724562E+02 -0.77795028649E+02 -0.11199065018E+02  0.11490604599E+03  0.00000000000E+00 0. -1.
         -3    1    3    3    0  502 -0.38255143143E+03 -0.37272077458E+03 -0.25925122912E+03  0.59369821736E+03  0.00000000000E+00 0.  1.
         13    1    5    5    0    0  0.13376826148E+03  0.15323258963E+02 -0.36205639262E+02  0.13942596013E+03  0.00000000000E+00 0. -1.
        -13    1    5    5    0    0  0.10914222953E+03 -0.28607451376E+02  0.41994659293E+02  0.12039087985E+03  0.00000000000E+00 0.  1.
          1    1    6    6  503    0  0.31793498836E+02  0.32125844335E+02 -0.96782834718E+02  0.10681672874E+03  0.00000000000E+00 0. -1.
         -1    1    6    6    0  503  0.19166816615E+03  0.43167415130E+03 -0.55388194126E+03  0.72791789624E+03  0.00000000000E+00 0.  1.
<mgrwt>
<rscale>  0 0.70672280E+03</rscale>
<asrwt>0</asrwt>
<pdfrwt beam="1">  1        2 0.20911398E+00 0.70672280E+03</pdfrwt>
<pdfrwt beam="2">  1       -2 0.68294591E-01 0.70672280E+03</pdfrwt>
<totfact> 0.30737875E+01</totfact>
</mgrwt>
</event>
<event>
12    1  0.1432447E-007  0.1298667E+04  0.7818608E-02  0.9030623E-01
          1   -1    0    0  501    0  0.00000000000E+00  0.00000000000E+00  0.13733267017E+04  0.13733267017E+04  0.00000000000E+00 0. -1.
         -1   -1    0    0    0  501 -0.00000000000E+00 -0.00000000000E+00 -0.17105805962E+04  0.17105805962E+04  0.00000000000E+00 0.  1.
         23    2    1    2    0    0  0.12005823127E+04 -0.32206858278E+03  0.63199151925E+03  0.13973136215E+04  0.89140421940E+02 0.  0.
    5000000    2    1    2    0    0 -0.12005823127E+04  0.32206858278E+03 -0.96924541374E+03  0.16865936765E+04  0.60002957906E+03 0.  0.
         23    2    4    4    0    0 -0.28232790254E+03  0.32652916620E+03 -0.19993515941E+03  0.48438358101E+03  0.91230722105E+02 0.  0.
         23    2    4    4    0    0 -0.91825441019E+03 -0.44605834145E+01 -0.76931025433E+03  0.12022100954E+04  0.10129060931E+03 0.  0.
          4    1    3    3  502    0  0.91309814920E+03 -0.21100276601E+03  0.45283958347E+03  0.10408333612E+04  0.00000000000E+00 0. -1.
         -4    1    3    3    0  502  0.28748416354E+03 -0.11106581677E+03  0.17915193578E+03  0.35648026037E+03  0.00000000000E+00 0.  1.
         11    1    5    5    0    0 -0.13448732957E+02  0.30713752121E+02  0.69890702293E+01  0.34249818834E+02  0.00000000000E+00 0.  1.
        -11    1    5    5    0    0 -0.26887916959E+03  0.29581541407E+03 -0.20692422964E+03  0.45013376218E+03  0.00000000000E+00 0. -1.
          3    1    6    6  503    0 -0.22705510066E+03  0.11053944441E+02 -0.24725333477E+03  0.33587262463E+03  0.00000000000E+00 0. -1.
         -3    1    6    6    0  503 -0.69119930954E+03 -0.15514527855E+02 -0.52205691956E+03  0.86633747081E+03  0.00000000000E+00 0.  1.
<mgrwt>
<rscale>  0 0.12986667E+04</rscale>
<asrwt>0</asrwt>
<pdfrwt beam="1">  1        1 0.21128103E+00 0.12986667E+04</pdfrwt>
<pdfrwt beam="2">  1       -1 0.26316624E+00 0.12986667E+04</pdfrwt>
<totfact> 0.44489292E-01</totfact>
</mgrwt>
</event>
<event>
12    1  0.1432447E-007  0.1312878E+04  0.7818608E-02  0.9019415E-01
         -2   -1    0    0    0  501 -0.00000000000E+00  0.00000000000E+00  0.17808561665E+04  0.17808561665E+04  0.00000000000E+00 0.  1.
          2   -1    0    0  501    0  0.00000000000E+00 -0.00000000000E+00 -0.11317171337E+04  0.11317171337E+04  0.00000000000E+00 0. -1.
         23    2    1    2    0    0 -0.75785322119E+03  0.10239801895E+04  0.78309825563E+03  0.14980960858E+04  0.90399507132E+02 0.  0.
    5000000    2    1    2    0    0  0.75785322119E+03 -0.10239801895E+04 -0.13395922286E+03  0.14144772144E+04  0.59993648275E+03 0.  0.
         23    2    4    4    0    0  0.78493734686E+03 -0.88372918268E+03  0.20616512050E+02  0.11856980312E+04  0.91383114892E+02 0.  0.
         23    2    4    4    0    0 -0.27084125673E+02 -0.14025100684E+03 -0.15457573491E+03  0.22877918327E+03  0.89679217721E+02 0.  0.
          4    1    3    3  502    0 -0.52023024414E+03  0.75632015185E+03  0.59274868020E+03  0.10927079559E+04  0.00000000000E+00 0. -1.
         -4    1    3    3    0  502 -0.23762297705E+03  0.26766003767E+03  0.19034957544E+03  0.40538812989E+03  0.00000000000E+00 0.  1.
         11    1    5    5    0    0  0.38506412464E+03 -0.41904082690E+03  0.54568941214E+02  0.57170566206E+03  0.00000000000E+00 0.  1.
        -11    1    5    5    0    0  0.39987322222E+03 -0.46468835578E+03 -0.33952429164E+02  0.61399236909E+03  0.00000000000E+00 0. -1.
          2    1    6    6  503    0  0.32367223353E+02 -0.44738409006E+02 -0.62509006474E+02  0.83405864772E+02  0.00000000000E+00 0. -1.
         -2    1    6    6    0  503 -0.59451349026E+02 -0.95512597832E+02 -0.92066728441E+02  0.14537331850E+03  0.00000000000E+00 0.  1.
<mgrwt>
<rscale>  0 0.13128781E+04</rscale>
<asrwt>0</asrwt>
<pdfrwt beam="1">  1        2 0.17411033E+00 0.13128781E+04</pdfrwt>
<pdfrwt beam="2">  1       -2 0.27397787E+00 0.13128781E+04</pdfrwt>
<totfact> 0.91906603E-01</totfact>
</mgrwt>
</event>
<event>
12    1  0.1432447E-007  0.6878278E+03  0.7818608E-02  0.9738278E-01
          1   -1    0    0  501    0  0.00000000000E+00  0.00000000000E+00  0.10881203823E+04  0.10881203823E+04  0.00000000000E+00 0. -1.
         -1   -1    0    0    0  501 -0.00000000000E+00 -0.00000000000E+00 -0.52773814151E+03  0.52773814151E+03  0.00000000000E+00 0.  1.
         23    2    1    2    0    0  0.51267896495E+03 -0.37209522305E+03  0.18735233974E+03  0.66692563011E+03  0.91620525953E+02 0.  0.
    5000000    2    1    2    0    0 -0.51267896495E+03  0.37209522305E+03  0.37302990103E+03  0.94893289369E+03  0.60002312751E+03 0.  0.
         23    2    4    4    0    0 -0.27159292333E+03  0.41327826745E+03  0.11324965188E+02  0.50297183553E+03  0.91053666298E+02 0.  0.
         23    2    4    4    0    0 -0.24108604162E+03 -0.41183044404E+02  0.36170493585E+03  0.44596105817E+03  0.90731924783E+02 0.  0.
          3    1    3    3  502    0  0.22189998825E+03 -0.18207071090E+03  0.12901508808E+03  0.31469706307E+03  0.00000000000E+00 0. -1.
         -3    1    3    3    0  502  0.29077897670E+03 -0.19002451215E+03  0.58337251656E+02  0.35222856704E+03  0.00000000000E+00 0.  1.
         11    1    5    5    0    0 -0.23320798426E+03  0.37549933528E+03  0.36483669334E+02  0.44352764609E+03  0.00000000000E+00 0. -1.
        -11    1    5    5    0    0 -0.38384939069E+02  0.37778932170E+02 -0.25158704147E+02  0.59444189435E+02  0.00000000000E+00 0.  1.
          4    1    6    6  503    0  0.64803663581E-01 -0.87524958706E+00  0.49053553561E+02  0.49061404162E+02  0.00000000000E+00 0. -1.
         -4    1    6    6    0  503 -0.24115084528E+03 -0.40307794817E+02  0.31265138228E+03  0.39689965400E+03  0.00000000000E+00 0.  1.
<mgrwt>
<rscale>  0 0.68782782E+03</rscale>
<asrwt>0</asrwt>
<pdfrwt beam="1">  1        1 0.16740314E+00 0.68782782E+03</pdfrwt>
<pdfrwt beam="2">  1       -1 0.81190484E-01 0.68782782E+03</pdfrwt>
<totfact> 0.20310243E+01</totfact>
</mgrwt>
</event>
<event>
12    1  0.1432447E-007  0.4638122E+03  0.7818608E-02  0.1023681E+00
          1   -1    0    0  501    0  0.00000000000E+00  0.00000000000E+00  0.46935548299E+03  0.46935548299E+03  0.00000000000E+00 0. -1.
         -1   -1    0    0    0  501 -0.00000000000E+00 -0.00000000000E+00 -0.64265185718E+03  0.64265185718E+03  0.00000000000E+00 0.  1.
         23    2    1    2    0    0 -0.22552925475E+03 -0.27350330421E+03 -0.19834331756E+03  0.41462982742E+03  0.83128334524E+02 0.  0.
    5000000    2    1    2    0    0  0.22552925475E+03  0.27350330421E+03  0.25046943368E+02  0.69737751275E+03  0.60003378551E+03 0.  0.
         23    2    4    4    0    0  0.33088741091E+03  0.11819962151E+03 -0.17990741139E+03  0.40513706776E+03  0.91168732428E+02 0.  0.
         23    2    4    4    0    0 -0.10535815616E+03  0.15530368270E+03  0.20495435475E+03  0.29224044499E+03  0.90435696641E+02 0.  0.
          2    1    3    3  502    0 -0.65811618690E+02 -0.13977943191E+03 -0.67204858523E+02  0.16848130979E+03  0.00000000000E+00 0.  1.
         -2    1    3    3    0  502 -0.15971763606E+03 -0.13372387231E+03 -0.13113845903E+03  0.24614851763E+03  0.00000000000E+00 0. -1.
         13    1    5    5    0    0  0.28921486275E+03  0.13238312457E+03 -0.14831031963E+03  0.35095082193E+03  0.00000000000E+00 0.  1.
        -13    1    5    5    0    0  0.41672548166E+02 -0.14183503052E+02 -0.31597091760E+02  0.54186245831E+02  0.00000000000E+00 0. -1.
          3    1    6    6  503    0 -0.11064092792E+03  0.10627366742E+03  0.12317145561E+03  0.19674022160E+03  0.00000000000E+00 0. -1.
         -3    1    6    6    0  503  0.52827717594E+01  0.49030015285E+02  0.81782899142E+02  0.95500223394E+02  0.00000000000E+00 0.  1.
<mgrwt>
<rscale>  0 0.46381218E+03</rscale>
<asrwt>0</asrwt>
<pdfrwt beam="1">  1        1 0.72208536E-01 0.46381218E+03</pdfrwt>
<pdfrwt beam="2">  1       -1 0.98869517E-01 0.46381218E+03</pdfrwt>
<totfact> 0.49789769E+01</totfact>
</mgrwt>
</event>
<event>
12    1  0.1432447E-007  0.1042019E+04  0.7818608E-02  0.9263623E-01
          1   -1    0    0  501    0  0.00000000000E+00  0.00000000000E+00  0.14885290371E+04  0.14885290371E+04  0.00000000000E+00 0. -1.
         -1   -1    0    0    0  501 -0.00000000000E+00 -0.00000000000E+00 -0.81662508764E+03  0.81662508764E+03  0.00000000000E+00 0.  1.
         23    2    1    2    0    0  0.11160037065E+03 -0.95669313235E+03  0.65383028671E+03  0.11704632674E+04  0.12154762124E+03 0.  0.
    5000000    2    1    2    0    0 -0.11160037065E+03  0.95669313235E+03  0.18073662765E+02  0.11346908574E+04  0.59956675386E+03 0.  0.
         23    2    4    4    0    0  0.22546628494E+03  0.33043731167E+03 -0.55818697783E+02  0.41394248325E+03  0.90602372088E+02 0.  0.
         23    2    4    4    0    0 -0.33706665559E+03  0.62625582068E+03  0.73892360548E+02  0.72074837414E+03  0.90597210892E+02 0.  0.
          1    1    3    3  502    0  0.11877333009E+03 -0.51285485190E+03  0.33608604589E+03  0.62456467503E+03  0.00000000000E+00 0.  1.
         -1    1    3    3    0  502 -0.71729594409E+01 -0.44383828046E+03  0.31774424082E+03  0.54589859234E+03  0.00000000000E+00 0. -1.
         13    1    5    5    0    0  0.10096307683E+03  0.15697828293E+03  0.19206308811E+02  0.18762890633E+03  0.00000000000E+00 0. -1.
        -13    1    5    5    0    0  0.12450320811E+03  0.17345902874E+03 -0.75025006594E+02  0.22631357692E+03  0.00000000000E+00 0.  1.
          3    1    6    6  503    0 -0.20940021914E+03  0.44550995109E+03  0.83280427000E+02  0.49926265414E+03  0.00000000000E+00 0. -1.
         -3    1    6    6    0  503 -0.12766643645E+03  0.18074586959E+03 -0.93880664518E+01  0.22148571999E+03  0.00000000000E+00 0.  1.
<mgrwt>
<rscale>  0 0.10420194E+04</rscale>
<asrwt>0</asrwt>
<pdfrwt beam="1">  1        1 0.22900447E+00 0.10420194E+04</pdfrwt>
<pdfrwt beam="2">  1       -1 0.12563463E+00 0.10420194E+04</pdfrwt>
<totfact> 0.36820003E+00</totfact>
</mgrwt>
</event>
<event>
12    1  0.1432447E-007  0.7975857E+03  0.7818608E-02  0.9563518E-01
         -1   -1    0    0    0  501 -0.00000000000E+00  0.00000000000E+00  0.58855469916E+03  0.58855469916E+03  0.00000000000E+00 0.  1.
          1   -1    0    0  501    0  0.00000000000E+00 -0.00000000000E+00 -0.11150495765E+04  0.11150495765E+04  0.00000000000E+00 0. -1.
         23    2    1    2    0    0 -0.32880716900E+03 -0.61265516794E+03 -0.20698933533E+03  0.73118270803E+03  0.91230797397E+02 0.  0.
    5000000    2    1    2    0    0  0.32880716900E+03  0.61265516794E+03 -0.31950554201E+03  0.97242156764E+03  0.60004950183E+03 0.  0.
         23    2    4    4    0    0  0.11261474989E+03 -0.89775215306E+02 -0.11292726444E+03  0.20339739043E+03  0.88748296909E+02 0.  0.
         23    2    4    4    0    0  0.21619241912E+03  0.70243038324E+03 -0.20657827757E+03  0.76902417721E+03  0.92606668151E+02 0.  0.
          2    1    3    3  502    0 -0.21057843899E+03 -0.38015056114E+03 -0.83238655991E+02  0.44247757226E+03  0.00000000000E+00 0. -1.
         -2    1    3    3    0  502 -0.11822873001E+03 -0.23250460679E+03 -0.12375067934E+03  0.28870513577E+03  0.00000000000E+00 0.  1.
         13    1    5    5    0    0 -0.12325934109E+02 -0.34209308801E+01  0.19852354065E+01  0.12944982787E+02  0.00000000000E+00 0.  1.
        -13    1    5    5    0    0  0.12494068399E+03 -0.86354284425E+02 -0.11491249984E+03  0.19045240764E+03  0.00000000000E+00 0. -1.
          1    1    6    6  503    0  0.17044761338E+03  0.53319111238E+03 -0.19708753249E+03  0.59345483963E+03  0.00000000000E+00 0. -1.
         -1    1    6    6    0  503  0.45744805734E+02  0.16923927087E+03 -0.94907450880E+01  0.17556933758E+03  0.00000000000E+00 0.  1.
<mgrwt>
<rscale>  0 0.79758574E+03</rscale>
<asrwt>0</asrwt>
<pdfrwt beam="1">  1        1 0.17154609E+00 0.79758574E+03</pdfrwt>
<pdfrwt beam="2">  1       -1 0.90546877E-01 0.79758574E+03</pdfrwt>
<totfact> 0.15097382E+01</totfact>
</mgrwt>
</event>
<event>
12    1  0.1432447E-007  0.4128702E+03  0.7818608E-02  0.1039412E+00
          1   -1    0    0  501    0  0.00000000000E+00  0.00000000000E+00  0.35335471630E+04  0.35335471630E+04  0.00000000000E+00 0. -1.
         -1   -1    0    0    0  501 -0.00000000000E+00 -0.00000000000E+00 -0.84133251143E+02  0.84133251143E+02  0.00000000000E+00 0.  1.
         23    2    1    2    0    0  0.17233167477E+03 -0.15436579053E+03  0.21859302141E+04  0.21999950208E+04  0.90333754810E+02 0.  0.
    5000000    2    1    2    0    0 -0.17233167477E+03  0.15436579053E+03  0.12634836977E+04  0.14176853933E+04  0.59992817617E+03 0.  0.
         23    2    4    4    0    0 -0.32893260329E+03  0.23076135889E+03  0.10509298397E+04  0.11287012548E+04  0.89808308956E+02 0.  0.
         23    2    4    4    0    0  0.15660092852E+03 -0.76395568366E+02  0.21255385806E+03  0.28898413854E+03  0.89289171062E+02 0.  0.
          3    1    3    3  502    0  0.46529306880E+02 -0.87267610683E+02  0.11594466965E+04  0.11636568456E+04  0.00000000000E+00 0. -1.
         -3    1    3    3    0  502  0.12580236788E+03 -0.67098179844E+02  0.10264835176E+04  0.10363381752E+04  0.00000000000E+00 0.  1.
         11    1    5    5    0    0 -0.28780849859E+03  0.21386214857E+03  0.84331768047E+03  0.91638172213E+03  0.00000000000E+00 0.  1.
        -11    1    5    5    0    0 -0.41124104695E+02  0.16899210326E+02  0.20761215921E+03  0.21231953266E+03  0.00000000000E+00 0. -1.
          1    1    6    6  503    0  0.64414863824E+02 -0.59148097343E+02  0.48461700723E+02  0.99981540986E+02  0.00000000000E+00 0. -1.
         -1    1    6    6    0  503  0.92186064697E+02 -0.17247471022E+02  0.16409215734E+03  0.18900259755E+03  0.00000000000E+00 0.  1.
<mgrwt>
<rscale>  0 0.41287022E+03</rscale>
<asrwt>0</asrwt>
<pdfrwt beam="1">  1        1 0.54362253E+00 0.41287022E+03</pdfrwt>
<pdfrwt beam="2">  1       -1 0.12943580E-01 0.41287022E+03</pdfrwt>
<totfact> 0.11418959E+01</totfact>
</mgrwt>
</event>
<event>
12    1  0.1432447E-007  0.1117747E+04  0.7818608E-02  0.9188065E-01
         -4   -1    0    0    0  501 -0.00000000000E+00  0.00000000000E+00  0.60292378207E+03  0.60292378207E+03  0.00000000000E+00 0.  1.
          4   -1    0    0  501    0  0.00000000000E+00 -0.00000000000E+00 -0.21565458554E+04  0.21565458554E+04  0.00000000000E+00 0. -1.
         23    2    1    2    0    0  0.23123138020E+02 -0.10462901078E+04 -0.91820902201E+03  0.13960170145E+04  0.10245988163E+03 0.  0.
    5000000    2    1    2    0    0 -0.23123138020E+02  0.10462901078E+04 -0.63541305130E+03  0.13634526230E+04  0.59999636682E+03 0.  0.
         23    2    4    4    0    0 -0.21133393191E+03  0.13409751766E+03 -0.19452783539E+03  0.32981714501E+03  0.91071924225E+02 0.  0.
         23    2    4    4    0    0  0.18821079389E+03  0.91219259015E+03 -0.44088521591E+03  0.10336354780E+04  0.80646781084E+02 0.  0.
          4    1    3    3  502    0 -0.23403551557E+02 -0.73435643000E+03 -0.67537467740E+03  0.99797697738E+03  0.00000000000E+00 0. -1.
         -4    1    3    3    0  502  0.46526689578E+02 -0.31193367780E+03 -0.24283434461E+03  0.39804003707E+03  0.00000000000E+00 0.  1.
         13    1    5    5    0    0 -0.47855728064E+02  0.42701686244E+02 -0.65667733577E+01  0.64472685914E+02  0.00000000000E+00 0. -1.
        -13    1    5    5    0    0 -0.16347820385E+03  0.91395831414E+02 -0.18796106203E+03  0.26534445909E+03  0.00000000000E+00 0.  1.
          1    1    6    6  503    0  0.10950835777E+03  0.68055255411E+03 -0.34556663964E+03  0.77107727353E+03  0.00000000000E+00 0. -1.
         -1    1    6    6    0  503  0.78702436119E+02  0.23164003604E+03 -0.95318576269E+02  0.26255820446E+03  0.00000000000E+00 0.  1.
<mgrwt>
<rscale>  0 0.11177475E+04</rscale>
<asrwt>0</asrwt>
<pdfrwt beam="1">  1        4 0.33177629E+00 0.11177475E+04</pdfrwt>
<pdfrwt beam="2">  1       -4 0.92757503E-01 0.11177475E+04</pdfrwt>
<totfact> 0.37281047E-02</totfact>
</mgrwt>
</event>
<event>
12    1  0.1432447E-007  0.6725956E+03  0.7818608E-02  0.9765280E-01
         -2   -1    0    0    0  501 -0.00000000000E+00  0.00000000000E+00  0.13173090838E+03  0.13173090838E+03  0.00000000000E+00 0.  1.
          2   -1    0    0  501    0  0.00000000000E+00 -0.00000000000E+00 -0.37717511306E+04  0.37717511306E+04  0.00000000000E+00 0. -1.
         23    2    1    2    0    0  0.32921943635E+03  0.45397146483E+03 -0.18197748036E+04  0.19065346507E+04  0.93906924328E+02 0.  0.
    5000000    2    1    2    0    0 -0.32921943635E+03 -0.45397146483E+03 -0.18202454186E+04  0.19969473883E+04  0.60002496560E+03 0.  0.
         23    2    4    4    0    0 -0.46500411018E+03 -0.36421652189E+03 -0.16028817596E+04  0.17105739336E+04  0.89166977032E+02 0.  0.
         23    2    4    4    0    0  0.13578467383E+03 -0.89754942935E+02 -0.21736365903E+03  0.28637345466E+03  0.90936064562E+02 0.  0.
          2    1    3    3  502    0  0.44448204587E+02  0.25879494221E+02 -0.23014225553E+03  0.23581952611E+03  0.00000000000E+00 0. -1.
         -2    1    3    3    0  502  0.28477123177E+03  0.42809197060E+03 -0.15896325481E+04  0.16707151246E+04  0.00000000000E+00 0.  1.
         11    1    5    5    0    0 -0.39885844489E+03 -0.28389038785E+03 -0.12425798571E+04  0.13355472708E+04  0.00000000000E+00 0. -1.
        -11    1    5    5    0    0 -0.66145665298E+02 -0.80326134044E+02 -0.36030190251E+03  0.37502666279E+03  0.00000000000E+00 0.  1.
          1    1    6    6  503    0  0.10821859818E+03 -0.10802022205E+03 -0.18618674052E+03  0.24092558127E+03  0.00000000000E+00 0. -1.
         -1    1    6    6    0  503  0.27566075647E+02  0.18265279117E+02 -0.31176918508E+02  0.45447873387E+02  0.00000000000E+00 0.  1.
<mgrwt>
<rscale>  0 0.67259556E+03</rscale>
<asrwt>0</asrwt>
<pdfrwt beam="1">  1        2 0.58026934E+00 0.67259556E+03</pdfrwt>
<pdfrwt beam="2">  1       -2 0.20266296E-01 0.67259556E+03</pdfrwt>
<totfact> 0.11915886E+01</totfact>
</mgrwt>
</event>
<event>
12    1  0.1432447E-007  0.8491716E+03  0.7818608E-02  0.9491449E-01
         -1   -1    0    0    0  501 -0.00000000000E+00  0.00000000000E+00  0.50845169832E+03  0.50845169832E+03  0.00000000000E+00 0.  1.
          1   -1    0    0  501    0  0.00000000000E+00 -0.00000000000E+00 -0.14666795378E+04  0.14666795378E+04  0.00000000000E+00 0. -1.
         23    2    1    2    0    0  0.38191537428E+03  0.65253997681E+03 -0.39964528554E+03  0.85991815908E+03  0.89861624848E+02 0.  0.
    5000000    2    1    2    0    0 -0.38191537428E+03 -0.65253997681E+03 -0.55858255394E+03  0.11152130770E+04  0.60001496915E+03 0.  0.
         23    2    4    4    0    0 -0.14907982359E+03 -0.67192900254E+03 -0.30604903397E+03  0.75901609542E+03  0.93413294822E+02 0.  0.
         23    2    4    4    0    0 -0.23283555069E+03  0.19389025734E+02 -0.25253351997E+03  0.35619698162E+03  0.92275581970E+02 0.  0.
          1    1    3    3  502    0  0.10923567651E+03  0.27294763124E+03 -0.15823831803E+03  0.33387453888E+03  0.00000000000E+00 0.  1.
         -1    1    3    3    0  502  0.27267969776E+03  0.37959234557E+03 -0.24140696751E+03  0.52604362020E+03  0.00000000000E+00 0. -1.
         11    1    5    5    0    0 -0.69140470530E+02 -0.40513258655E+03 -0.13705152319E+03  0.43323889179E+03  0.00000000000E+00 0. -1.
        -11    1    5    5    0    0 -0.79939353060E+02 -0.26679641600E+03 -0.16899751078E+03  0.32577720363E+03  0.00000000000E+00 0.  1.
          4    1    6    6  503    0 -0.43870906634E+02 -0.28763798230E+02 -0.30472155310E+02  0.60667658491E+02  0.00000000000E+00 0. -1.
         -4    1    6    6    0  503 -0.18896464405E+03  0.48152823964E+02 -0.22206136466E+03  0.29552932313E+03  0.00000000000E+00 0.  1.
<mgrwt>
<rscale>  0 0.84917165E+03</rscale>
<asrwt>0</asrwt>
<pdfrwt beam="1">  1        1 0.22564300E+00 0.84917165E+03</pdfrwt>
<pdfrwt beam="2">  1       -1 0.78223340E-01 0.84917165E+03</pdfrwt>
<totfact> 0.11553407E+01</totfact>
</mgrwt>
</event>
<event>
12    1  0.1432447E-007  0.7012795E+03  0.7818608E-02  0.9715047E-01
          2   -1    0    0  501    0  0.00000000000E+00  0.00000000000E+00  0.20498260229E+04  0.20498260229E+04  0.00000000000E+00 0. -1.
         -2   -1    0    0    0  501 -0.00000000000E+00 -0.00000000000E+00 -0.29380676196E+03  0.29380676196E+03  0.00000000000E+00 0.  1.
         23    2    1    2    0    0  0.39692925929E+03 -0.48342048992E+03  0.10522219093E+04  0.12271470139E+04  0.86432866536E+02 0.  0.
    5000000    2    1    2    0    0 -0.39692925929E+03  0.48342048992E+03  0.70379735164E+03  0.11164857709E+04  0.59996796380E+03 0.  0.
         23    2    4    4    0    0 -0.13430151175E+03  0.48506827829E+03  0.21721791837E+03  0.55525950237E+03  0.88325309245E+02 0.  0.
         23    2    4    4    0    0 -0.26262774753E+03 -0.16477883702E+01  0.48657943328E+03  0.56122626857E+03  0.96121437074E+02 0.  0.
          4    1    3    3  502    0  0.22441212156E+03 -0.33662599114E+03  0.69402825464E+03  0.80333870594E+03  0.00000000000E+00 0. -1.
         -4    1    3    3    0  502  0.17251713773E+03 -0.14679449878E+03  0.35819365463E+03  0.42380830797E+03  0.00000000000E+00 0.  1.
         13    1    5    5    0    0 -0.39356004864E+02  0.11857466898E+03  0.14398863475E+02  0.12576237320E+03  0.00000000000E+00 0. -1.
        -13    1    5    5    0    0 -0.94945506891E+02  0.36649360930E+03  0.20281905489E+03  0.42949712917E+03  0.00000000000E+00 0.  1.
          2    1    6    6  503    0 -0.20181665700E+03 -0.23812610600E+02  0.28885231055E+03  0.35317511347E+03  0.00000000000E+00 0. -1.
         -2    1    6    6    0  503 -0.60811090538E+02  0.22164822229E+02  0.19772712273E+03  0.20805115510E+03  0.00000000000E+00 0.  1.
<mgrwt>
<rscale>  0 0.70127952E+03</rscale>
<asrwt>0</asrwt>
<pdfrwt beam="1">  1        2 0.31535784E+00 0.70127952E+03</pdfrwt>
<pdfrwt beam="2">  1       -2 0.45201042E-01 0.70127952E+03</pdfrwt>
<totfact> 0.30266522E+01</totfact>
</mgrwt>
</event>
<event>
12    1  0.1432447E-007  0.8446635E+03  0.7818608E-02  0.9497527E-01
          2   -1    0    0  501    0  0.00000000000E+00  0.00000000000E+00  0.20824628085E+04  0.20824628085E+04  0.00000000000E+00 0. -1.
         -2   -1    0    0    0  501 -0.00000000000E+00 -0.00000000000E+00 -0.43680930535E+03  0.43680930535E+03  0.00000000000E+00 0.  1.
         23    2    1    2    0    0 -0.63262847215E+03  0.48261802045E+03  0.32366589795E+03  0.86372615331E+03  0.90134993078E+02 0.  0.
    5000000    2    1    2    0    0  0.63262847215E+03 -0.48261802045E+03  0.13219876052E+04  0.16555459605E+04  0.60003521707E+03 0.  0.
         23    2    4    4    0    0  0.56346526211E+03 -0.22231084402E+03  0.51863561145E+03  0.80269822776E+03  0.91795067463E+02 0.  0.
         23    2    4    4    0    0  0.69163210043E+02 -0.26030717643E+03  0.80335199373E+03  0.85284773277E+03  0.97115671914E+02 0.  0.
          4    1    3    3  502    0 -0.18964199194E+03  0.19503386014E+03  0.12603195376E+03  0.29981051529E+03  0.00000000000E+00 0.  1.
         -4    1    3    3    0  502 -0.44298648021E+03  0.28758416030E+03  0.19763394419E+03  0.56391563802E+03  0.00000000000E+00 0. -1.
         11    1    5    5    0    0  0.16696865297E+03 -0.76249658919E+02  0.21314472883E+03  0.28128849423E+03  0.00000000000E+00 0.  1.
        -11    1    5    5    0    0  0.39649660914E+03 -0.14606118510E+03  0.30549088262E+03  0.52140973352E+03  0.00000000000E+00 0. -1.
          2    1    6    6  503    0  0.72312571455E+02 -0.10379502843E+03  0.42389475878E+03  0.44236781352E+03  0.00000000000E+00 0.  1.
         -2    1    6    6    0  503 -0.31493614116E+01 -0.15651214800E+03  0.37945723495E+03  0.41047991925E+03  0.00000000000E+00 0. -1.
<mgrwt>
<rscale>  0 0.84466354E+03</rscale>
<asrwt>0</asrwt>
<pdfrwt beam="1">  1        2 0.32037889E+00 0.84466354E+03</pdfrwt>
<pdfrwt beam="2">  1       -2 0.67201433E-01 0.84466354E+03</pdfrwt>
<totfact> 0.12494595E+01</totfact>
</mgrwt>
</event>
<event>
12    1  0.1432447E-007  0.4285291E+03  0.7818608E-02  0.1034326E+00
         -2   -1    0    0    0  501 -0.00000000000E+00  0.00000000000E+00  0.43203483975E+03  0.43203483975E+03  0.00000000000E+00 0.  1.
          2   -1    0    0  501    0  0.00000000000E+00 -0.00000000000E+00 -0.11517939626E+04  0.11517939626E+04  0.00000000000E+00 0. -1.
         23    2    1    2    0    0  0.21705586400E+03 -0.12072425591E+03  0.28441837504E+03  0.38799644725E+03  0.89217918371E+02 0.  0.
    5000000    2    1    2    0    0 -0.21705586400E+03  0.12072425591E+03 -0.10041774978E+04  0.11958323551E+04  0.59996248229E+03 0.  0.
         23    2    4    4    0    0 -0.19163829994E+03  0.31576623861E+03 -0.84402483522E+03  0.92589417589E+03  0.92024708741E+02 0.  0.
         23    2    4    4    0    0 -0.25417564061E+02 -0.19504198270E+03 -0.16015266262E+03  0.26993817917E+03  0.92359718762E+02 0.  0.
          1    1    3    3  502    0  0.11928085241E+03 -0.11335574393E+03  0.15923023879E+03  0.22897972701E+03  0.00000000000E+00 0.  1.
         -1    1    3    3    0  502  0.97775011596E+02 -0.73685119734E+01  0.12518813624E+03  0.15901672025E+03  0.00000000000E+00 0. -1.
         11    1    5    5    0    0 -0.11096978761E+03  0.25630097221E+03 -0.65167063922E+03  0.70899866300E+03  0.00000000000E+00 0. -1.
        -11    1    5    5    0    0 -0.80668512331E+02  0.59465266401E+02 -0.19235419600E+03  0.21689551289E+03  0.00000000000E+00 0.  1.
          3    1    6    6  503    0  0.30094121106E+02 -0.10442648101E+03 -0.61147425401E+02  0.12469784960E+03  0.00000000000E+00 0. -1.
         -3    1    6    6    0  503 -0.55511685167E+02 -0.90615501690E+02 -0.99005237220E+02  0.14524032957E+03  0.00000000000E+00 0.  1.
<mgrwt>
<rscale>  0 0.42852914E+03</rscale>
<asrwt>0</asrwt>
<pdfrwt beam="1">  1        2 0.17719907E+00 0.42852914E+03</pdfrwt>
<pdfrwt beam="2">  1       -2 0.66466900E-01 0.42852914E+03</pdfrwt>
<totfact> 0.44625880E+01</totfact>
</mgrwt>
</event>
<event>
12    1  0.1432447E-007  0.1428656E+04  0.7818608E-02  0.8933333E-01
         -2   -1    0    0    0  501 -0.00000000000E+00  0.00000000000E+00  0.60537018313E+03  0.60537018313E+03  0.00000000000E+00 0.  1.
          2   -1    0    0  501    0  0.00000000000E+00 -0.00000000000E+00 -0.36065706876E+04  0.36065706876E+04  0.00000000000E+00 0. -1.
         23    2    1    2    0    0  0.81175927295E+03  0.11348087327E+04 -0.17786981671E+04  0.22625314329E+04  0.92397718123E+02 0.  0.
    5000000    2    1    2    0    0 -0.81175927295E+03 -0.11348087327E+04 -0.12225023374E+04  0.19494094379E+04  0.59911702893E+03 0.  0.
         23    2    4    4    0    0 -0.53306335205E+03 -0.10096768036E+04 -0.71508362085E+03  0.13500843322E+04  0.88200533637E+02 0.  0.
         23    2    4    4    0    0 -0.27869592090E+03 -0.12513192905E+03 -0.50741871660E+03  0.59932510566E+03  0.91582816785E+02 0.  0.
          3    1    3    3  502    0  0.67730989242E+03  0.89911552615E+03 -0.14706524389E+04  0.18520194426E+04  0.00000000000E+00 0. -1.
         -3    1    3    3    0  502  0.13444938053E+03  0.23569320655E+03 -0.30804572817E+03  0.41051199030E+03  0.00000000000E+00 0.  1.
         13    1    5    5    0    0 -0.22424466555E+03 -0.41885413132E+03 -0.24675310671E+03  0.53536113888E+03  0.00000000000E+00 0.  1.
        -13    1    5    5    0    0 -0.30881868651E+03 -0.59082267232E+03 -0.46833051413E+03  0.81472319332E+03  0.00000000000E+00 0. -1.
          4    1    6    6  503    0 -0.13979616820E+03 -0.13741413631E+02 -0.23899646969E+03  0.27722032324E+03  0.00000000000E+00 0. -1.
         -4    1    6    6    0  503 -0.13889975269E+03 -0.11139051542E+03 -0.26842224691E+03  0.32210478243E+03  0.00000000000E+00 0.  1.
<mgrwt>
<rscale>  0 0.14286557E+04</rscale>
<asrwt>0</asrwt>
<pdfrwt beam="1">  1        2 0.55485704E+00 0.14286557E+04</pdfrwt>
<pdfrwt beam="2">  1       -2 0.93133872E-01 0.14286557E+04</pdfrwt>
<totfact> 0.64887125E-01</totfact>
</mgrwt>
</event>
<event>
12    1  0.1432447E-007  0.8040880E+03  0.7818608E-02  0.9554119E-01
         -1   -1    0    0    0  501 -0.00000000000E+00  0.00000000000E+00  0.83453971404E+03  0.83453971404E+03  0.00000000000E+00 0.  1.
          1   -1    0    0  501    0  0.00000000000E+00 -0.00000000000E+00 -0.10352413667E+04  0.10352413667E+04  0.00000000000E+00 0. -1.
         23    2    1    2    0    0 -0.31893463267E+03  0.68855055087E+03  0.24809488267E+03  0.80342605153E+03  0.90117636693E+02 0.  0.
    5000000    2    1    2    0    0  0.31893463267E+03 -0.68855055087E+03 -0.44879653535E+03  0.10663550292E+04  0.59989462176E+03 0.  0.
         23    2    4    4    0    0  0.17341254720E+03 -0.41273512793E+02 -0.33397201525E+03  0.38694207247E+03  0.80071506096E+02 0.  0.
         23    2    4    4    0    0  0.14552208547E+03 -0.64727703808E+03 -0.11482452010E+03  0.67941295677E+03  0.90956330352E+02 0.  0.
          4    1    3    3  502    0 -0.22917044561E+03  0.45349321149E+03  0.12472010586E+03  0.52319240324E+03  0.00000000000E+00 0. -1.
         -4    1    3    3    0  502 -0.89764187059E+02  0.23505733939E+03  0.12337477681E+03  0.28023364828E+03  0.00000000000E+00 0.  1.
         11    1    5    5    0    0  0.11585279632E+03 -0.51061251082E+02 -0.16375455737E+03  0.20698955732E+03  0.00000000000E+00 0. -1.
        -11    1    5    5    0    0  0.57559750879E+02  0.97877382894E+01 -0.17021745788E+03  0.17995251515E+03  0.00000000000E+00 0.  1.
          3    1    6    6  503    0  0.16567025402E+02 -0.65470745800E+02 -0.40812293729E+02  0.78908353207E+02  0.00000000000E+00 0. -1.
         -3    1    6    6    0  503  0.12895506007E+03 -0.58180629228E+03 -0.74012226368E+02  0.60050460357E+03  0.00000000000E+00 0.  1.
<mgrwt>
<rscale>  0 0.80408799E+03</rscale>
<asrwt>0</asrwt>
<pdfrwt beam="1">  1        1 0.15926790E+00 0.80408799E+03</pdfrwt>
<pdfrwt beam="2">  1       -1 0.12839073E+00 0.80408799E+03</pdfrwt>
<totfact> 0.76316270E+00</totfact>
</mgrwt>
</event>
<event>
12    1  0.1432447E-007  0.1547863E+04  0.7818608E-02  0.8853234E-01
         -2   -1    0    0    0  501 -0.00000000000E+00  0.00000000000E+00  0.16448327892E+04  0.16448327892E+04  0.00000000000E+00 0.  1.
          2   -1    0    0  501    0  0.00000000000E+00 -0.00000000000E+00 -0.17030738492E+04  0.17030738492E+04  0.00000000000E+00 0. -1.
         23    2    1    2    0    0  0.68926247564E+03 -0.13245292464E+04 -0.65314827250E+03  0.16322769783E+04  0.90911952189E+02 0.  0.
    5000000    2    1    2    0    0 -0.68926247564E+03  0.13245292464E+04  0.59490721251E+03  0.17156296602E+04  0.60000837879E+03 0.  0.
         23    2    4    4    0    0 -0.11563395389E+03  0.83605171307E+03  0.35644939921E+03  0.91997455622E+03  0.83326656357E+02 0.  0.
         23    2    4    4    0    0 -0.57362852174E+03  0.48847753332E+03  0.23845781329E+03  0.79565510399E+03  0.92438813655E+02 0.  0.
          2    1    3    3  502    0  0.35965523411E+03 -0.69149762290E+03 -0.29134657096E+03  0.83210797034E+03  0.00000000000E+00 0. -1.
         -2    1    3    3    0  502  0.32960724153E+03 -0.63303162349E+03 -0.36180170155E+03  0.80016900793E+03  0.00000000000E+00 0.  1.
         13    1    5    5    0    0 -0.34831272718E+02  0.17142773322E+03  0.40036479569E+02  0.17945362903E+03  0.00000000000E+00 0. -1.
        -13    1    5    5    0    0 -0.80802681175E+02  0.66462397985E+03  0.31641291964E+03  0.74052092718E+03  0.00000000000E+00 0.  1.
          2    1    6    6  503    0 -0.47053590807E+03  0.44003519000E+03  0.18824198844E+03  0.67117066044E+03  0.00000000000E+00 0. -1.
         -2    1    6    6    0  503 -0.10309261367E+03  0.48442343314E+02  0.50215824856E+02  0.12448444355E+03  0.00000000000E+00 0.  1.
<mgrwt>
<rscale>  0 0.15478625E+04</rscale>
<asrwt>0</asrwt>
<pdfrwt beam="1">  1        2 0.26201136E+00 0.15478625E+04</pdfrwt>
<pdfrwt beam="2">  1       -2 0.25305120E+00 0.15478625E+04</pdfrwt>
<totfact> 0.56168065E-01</totfact>
</mgrwt>
</event>
<event>
12    1  0.1432447E-007  0.1499423E+04  0.7818608E-02  0.8884837E-01
         -1   -1    0    0    0  501 -0.00000000000E+00  0.00000000000E+00  0.28246933599E+04  0.28246933599E+04  0.00000000000E+00 0.  1.
          1   -1    0    0  501    0  0.00000000000E+00 -0.00000000000E+00 -0.89600162466E+03  0.89600162466E+03  0.00000000000E+00 0. -1.
         23    2    1    2    0    0 -0.10929802791E+04  0.98669008959E+03  0.43274033022E+03  0.15375103926E+04  0.92253946659E+02 0.  0.
    5000000    2    1    2    0    0  0.10929802791E+04 -0.98669008959E+03  0.14959514050E+04  0.21831845919E+04  0.60021757133E+03 0.  0.
         23    2    4    4    0    0  0.46144097927E+02 -0.16351645108E+03  0.20341817007E+02  0.19324062605E+03  0.89784422322E+02 0.  0.
         23    2    4    4    0    0  0.10468361812E+04 -0.82317363851E+03  0.14756095880E+04  0.19899439659E+04  0.94723290661E+02 0.  0.
          4    1    3    3  502    0 -0.35127330974E+03  0.27027206863E+03  0.10509499709E+03  0.45550509068E+03  0.00000000000E+00 0. -1.
         -4    1    3    3    0  502 -0.74170696935E+03  0.71641802096E+03  0.32764533313E+03  0.10820053020E+04  0.00000000000E+00 0.  1.
         13    1    5    5    0    0  0.73504648936E+02 -0.12206296257E+03  0.14136685043E+02  0.14318570498E+03  0.00000000000E+00 0. -1.
        -13    1    5    5    0    0 -0.27360551009E+02 -0.41453488510E+02  0.62051319632E+01  0.50054921075E+02  0.00000000000E+00 0.  1.
          3    1    6    6  503    0  0.45422877607E+03 -0.38136416186E+03  0.72144054612E+03  0.93393729262E+03  0.00000000000E+00 0.  1.
         -3    1    6    6    0  503  0.59260740509E+03 -0.44180947665E+03  0.75416904190E+03  0.10560066733E+04  0.00000000000E+00 0. -1.
<mgrwt>
<rscale>  0 0.14994229E+04</rscale>
<asrwt>0</asrwt>
<pdfrwt beam="1">  1        1 0.13784640E+00 0.14994229E+04</pdfrwt>
<pdfrwt beam="2">  1       -1 0.43456821E+00 0.14994229E+04</pdfrwt>
<totfact> 0.72329386E-02</totfact>
</mgrwt>
</event>
<event>
12    1  0.1432447E-007  0.5459552E+03  0.7818608E-02  0.1002435E+00
          1   -1    0    0  501    0  0.00000000000E+00  0.00000000000E+00  0.13470472301E+04  0.13470472301E+04  0.00000000000E+00 0. -1.
         -1   -1    0    0    0  501 -0.00000000000E+00 -0.00000000000E+00 -0.33793162299E+03  0.33793162299E+03  0.00000000000E+00 0.  1.
         23    2    1    2    0    0  0.53005921386E+03 -0.76683695985E+01  0.51308259858E+03  0.74312641851E+03  0.89227500455E+02 0.  0.
    5000000    2    1    2    0    0 -0.53005921386E+03  0.76683695985E+01  0.49603300850E+03  0.94185243454E+03  0.60001307389E+03 0.  0.
         23    2    4    4    0    0 -0.17934404107E+03 -0.81131750929E+01 -0.11440720944E+03  0.23078045816E+03  0.89109492316E+02 0.  0.
         23    2    4    4    0    0 -0.35071517279E+03  0.15781544691E+02  0.61044021794E+03  0.71107197638E+03  0.98670696421E+02 0.  0.
          1    1    3    3  502    0  0.26481309646E+03 -0.31540616347E+02  0.20837649024E+03  0.33843987386E+03  0.00000000000E+00 0. -1.
         -1    1    3    3    0  502  0.26524611740E+03  0.23872246749E+02  0.30470610835E+03  0.40468654466E+03  0.00000000000E+00 0.  1.
         11    1    5    5    0    0 -0.64524336784E+02 -0.39172393319E+02 -0.17824509257E+02  0.77560167393E+02  0.00000000000E+00 0.  1.
        -11    1    5    5    0    0 -0.11481970428E+03  0.31059218226E+02 -0.96582700185E+02  0.15322029077E+03  0.00000000000E+00 0. -1.
          3    1    6    6  503    0 -0.57041402509E+02  0.40208865050E+02  0.10791558971E+03  0.12851555910E+03  0.00000000000E+00 0. -1.
         -3    1    6    6    0  503 -0.29367377028E+03 -0.24427320358E+02  0.50252462824E+03  0.58255641728E+03  0.00000000000E+00 0.  1.
<mgrwt>
<rscale>  0 0.54595516E+03</rscale>
<asrwt>0</asrwt>
<pdfrwt beam="1">  1        1 0.20723803E+00 0.54595516E+03</pdfrwt>
<pdfrwt beam="2">  1       -1 0.51989481E-01 0.54595516E+03</pdfrwt>
<totfact> 0.33036558E+01</totfact>
</mgrwt>
</event>
<event>
12    1  0.1432447E-007  0.7956447E+03  0.7818608E-02  0.9566343E-01
         -2   -1    0    0    0  501 -0.00000000000E+00  0.00000000000E+00  0.40220701134E+03  0.40220701134E+03  0.00000000000E+00 0.  1.
          2   -1    0    0  501    0  0.00000000000E+00 -0.00000000000E+00 -0.28358236867E+04  0.28358236867E+04  0.00000000000E+00 0. -1.
         23    2    1    2    0    0 -0.43106032102E+03  0.60770808639E+03 -0.20915229010E+04  0.22220555367E+04  0.89110291109E+02 0.  0.
    5000000    2    1    2    0    0  0.43106032102E+03 -0.60770808639E+03 -0.34209377434E+03  0.10159751614E+04  0.60004604776E+03 0.  0.
         23    2    4    4    0    0 -0.45824697318E+02  0.16068649261E+01 -0.19821807284E+03  0.22371870581E+03  0.93043914526E+02 0.  0.
         23    2    4    4    0    0  0.47688501834E+03 -0.60931495132E+03 -0.14387570150E+03  0.79225645555E+03  0.91027705993E+02 0.  0.
          4    1    3    3  502    0 -0.35394313835E+03  0.52481642017E+03 -0.16820933628E+04  0.17972607216E+04  0.00000000000E+00 0. -1.
         -4    1    3    3    0  502 -0.77117182672E+02  0.82891666222E+02 -0.40942953823E+03  0.42479481513E+03  0.00000000000E+00 0.  1.
         13    1    5    5    0    0 -0.14663428778E+02  0.25074527485E+02 -0.88372428995E+01  0.30361899384E+02  0.00000000000E+00 0. -1.
        -13    1    5    5    0    0 -0.31161268540E+02 -0.23467662559E+02 -0.18938082994E+03  0.19335680643E+03  0.00000000000E+00 0.  1.
          3    1    6    6  503    0  0.27797360919E+03 -0.29760906490E+03 -0.46478018680E+02  0.40987887129E+03  0.00000000000E+00 0. -1.
         -3    1    6    6    0  503  0.19891140916E+03 -0.31170588643E+03 -0.97397682822E+02  0.38237758426E+03  0.00000000000E+00 0.  1.
<mgrwt>
<rscale>  0 0.79564471E+03</rscale>
<asrwt>0</asrwt>
<pdfrwt beam="1">  1        2 0.43628056E+00 0.79564471E+03</pdfrwt>
<pdfrwt beam="2">  1       -2 0.61878003E-01 0.79564471E+03</pdfrwt>
<totfact> 0.56103346E+00</totfact>
</mgrwt>
</event>
<event>
12    1  0.1432447E-007  0.1261791E+04  0.7818608E-02  0.9060427E-01
          2   -1    0    0  501    0  0.00000000000E+00  0.00000000000E+00  0.97827267190E+03  0.97827267190E+03  0.00000000000E+00 0.  1.
         -2   -1    0    0    0  501 -0.00000000000E+00 -0.00000000000E+00 -0.18154601787E+04  0.18154601787E+04  0.00000000000E+00 0. -1.
         23    2    1    2    0    0  0.12412957090E+04 -0.20875153420E+03 -0.51387008058E+03  0.13623446349E+04  0.86765224822E+02 0.  0.
    5000000    2    1    2    0    0 -0.12412957090E+04  0.20875153420E+03 -0.32331742618E+03  0.14313882157E+04  0.59995485298E+03 0.  0.
         23    2    4    4    0    0 -0.40120045854E+03  0.94615617754E+02  0.16172750112E+03  0.45029524441E+03  0.81829697942E+02 0.  0.
         23    2    4    4    0    0 -0.84009525049E+03  0.11413591644E+03 -0.48504492730E+03  0.98109297126E+03  0.92129253982E+02 0.  0.
          3    1    3    3  502    0  0.83405331327E+03 -0.11518553481E+03 -0.37828319513E+03  0.92304431775E+03  0.00000000000E+00 0. -1.
         -3    1    3    3    0  502  0.40724239575E+03 -0.93565999384E+02 -0.13558688546E+03  0.43930031715E+03  0.00000000000E+00 0.  1.
         13    1    5    5    0    0 -0.26435258146E+03  0.88573860877E+02  0.13869812934E+03  0.31139169424E+03  0.00000000000E+00 0. -1.
        -13    1    5    5    0    0 -0.13684787707E+03  0.60417568771E+01  0.23029371779E+02  0.13890355017E+03  0.00000000000E+00 0.  1.
          2    1    6    6  503    0 -0.43295318164E+03  0.67325921327E+02 -0.30260424242E+03  0.53249466167E+03  0.00000000000E+00 0. -1.
         -2    1    6    6    0  503 -0.40714206884E+03  0.46809995115E+02 -0.18244068488E+03  0.44859830959E+03  0.00000000000E+00 0.  1.
<mgrwt>
<rscale>  0 0.12617905E+04</rscale>
<asrwt>0</asrwt>
<pdfrwt beam="1">  1        2 0.15050349E+00 0.12617905E+04</pdfrwt>
<pdfrwt beam="2">  1       -2 0.27930157E+00 0.12617905E+04</pdfrwt>
<totfact> 0.10732467E+00</totfact>
</mgrwt>
</event>
<event>
12    1  0.1432447E-007  0.1096145E+04  0.7818608E-02  0.9208958E-01
          1   -1    0    0  501    0  0.00000000000E+00  0.00000000000E+00  0.10490187273E+04  0.10490187273E+04  0.00000000000E+00 0. -1.
         -1   -1    0    0    0  501 -0.00000000000E+00 -0.00000000000E+00 -0.11923991350E+04  0.11923991350E+04  0.00000000000E+00 0.  1.
         23    2    1    2    0    0 -0.23033262667E+02 -0.10324458754E+04  0.14253258163E+02  0.10367073640E+04  0.89910991626E+02 0.  0.
    5000000    2    1    2    0    0  0.23033262667E+02  0.10324458754E+04 -0.15763366586E+03  0.12047104984E+04  0.60000332957E+03 0.  0.
         23    2    4    4    0    0 -0.22801383678E+03  0.69782473251E+03 -0.22020980101E+03  0.77181719173E+03  0.90883188392E+02 0.  0.
         23    2    4    4    0    0  0.25104709944E+03  0.33462114287E+03  0.62576135151E+02  0.43289330664E+03  0.92113445530E+02 0.  0.
          2    1    3    3  502    0 -0.42229193526E+02 -0.73666979179E+03  0.41594843186E+02  0.73905061931E+03  0.00000000000E+00 0.  1.
         -2    1    3    3    0  502  0.19195930859E+02 -0.29577608360E+03 -0.27341585023E+02  0.29765674469E+03  0.00000000000E+00 0. -1.
         13    1    5    5    0    0 -0.18169671626E+03  0.58986589577E+03 -0.15080676958E+03  0.63537245254E+03  0.00000000000E+00 0. -1.
        -13    1    5    5    0    0 -0.46317120513E+02  0.10795883674E+03 -0.69403031427E+02  0.13644473920E+03  0.00000000000E+00 0.  1.
          3    1    6    6  503    0  0.23356860370E+03  0.33157081486E+03  0.73318835284E+02  0.41215185249E+03  0.00000000000E+00 0. -1.
         -3    1    6    6    0  503  0.17478495739E+02  0.30503280183E+01 -0.10742700133E+02  0.20741454155E+02  0.00000000000E+00 0.  1.
<mgrwt>
<rscale>  0 0.10961446E+04</rscale>
<asrwt>0</asrwt>
<pdfrwt beam="1">  1        1 0.16138750E+00 0.10961446E+04</pdfrwt>
<pdfrwt beam="2">  1       -1 0.18344602E+00 0.10961446E+04</pdfrwt>
<totfact> 0.27042266E+00</totfact>
</mgrwt>
</event>
<event>
12    1  0.1432447E-007  0.4716313E+03  0.7818608E-02  0.1021461E+00
          2   -1    0    0  501    0  0.00000000000E+00  0.00000000000E+00  0.16450627611E+04  0.16450627611E+04  0.00000000000E+00 0. -1.
         -2   -1    0    0    0  501 -0.00000000000E+00 -0.00000000000E+00 -0.20183497859E+03  0.20183497859E+03  0.00000000000E+00 0.  1.
         23    2    1    2    0    0  0.30627958193E+03 -0.24444805464E+03  0.74367176534E+03  0.84543967310E+03  0.90324484756E+02 0.  0.
    5000000    2    1    2    0    0 -0.30627958193E+03  0.24444805464E+03  0.69955601719E+03  0.10014580666E+04  0.59998133660E+03 0.  0.
         23    2    4    4    0    0 -0.23313893491E+03  0.34413270925E+03  0.18446044867E+03  0.46376206724E+03  0.90931366081E+02 0.  0.
         23    2    4    4    0    0 -0.73140647022E+02 -0.99684654608E+02  0.51509556852E+03  0.53769599938E+03  0.92233174208E+02 0.  0.
          4    1    3    3  502    0  0.14723826219E+03 -0.62711467477E+02  0.31937680387E+03  0.35723014550E+03  0.00000000000E+00 0. -1.
         -4    1    3    3    0  502  0.15904131975E+03 -0.18173658717E+03  0.42429496148E+03  0.48820952760E+03  0.00000000000E+00 0.  1.
         11    1    5    5    0    0 -0.11147380204E+03  0.14403417279E+03  0.33635622531E+02  0.18521232836E+03  0.00000000000E+00 0. -1.
        -11    1    5    5    0    0 -0.12166513287E+03  0.20009853646E+03  0.15082482614E+03  0.27854973888E+03  0.00000000000E+00 0.  1.
          4    1    6    6  503    0 -0.38334628808E+02 -0.34778465857E+02  0.72884244072E+02  0.89393503607E+02  0.00000000000E+00 0. -1.
         -4    1    6    6    0  503 -0.34806018214E+02 -0.64906188751E+02  0.44221132445E+03  0.44830249577E+03  0.00000000000E+00 0.  1.
<mgrwt>
<rscale>  0 0.47163126E+03</rscale>
<asrwt>0</asrwt>
<pdfrwt beam="1">  1        2 0.25308657E+00 0.47163126E+03</pdfrwt>
<pdfrwt beam="2">  1       -2 0.31051536E-01 0.47163126E+03</pdfrwt>
<totfact> 0.10660635E+02</totfact>
</mgrwt>
</event>
<event>
12    1  0.1432447E-007  0.8466282E+03  0.7818608E-02  0.9494874E-01
          2   -1    0    0  501    0  0.00000000000E+00  0.00000000000E+00  0.71757803651E+03  0.71757803651E+03  0.00000000000E+00 0. -1.
         -2   -1    0    0    0  501 -0.00000000000E+00 -0.00000000000E+00 -0.15042886780E+04  0.15042886780E+04  0.00000000000E+00 0.  1.
         23    2    1    2    0    0  0.30106052927E+03  0.71395150558E+03 -0.94909740732E+03  0.12285657803E+04  0.90685132844E+02 0.  0.
    5000000    2    1    2    0    0 -0.30106052927E+03 -0.71395150558E+03  0.16238676581E+03  0.99330093424E+03  0.59992757033E+03 0.  0.
         23    2    4    4    0    0  0.63275804961E+02 -0.43046365389E+03  0.25525335042E+03  0.51245997244E+03  0.90322564414E+02 0.  0.
         23    2    4    4    0    0 -0.36433633423E+03 -0.28348785169E+03 -0.92866584602E+02  0.48084096180E+03  0.97352460213E+02 0.  0.
          3    1    3    3  502    0  0.75281794807E+02  0.28991757556E+03 -0.37780404533E+03  0.48213633540E+03  0.00000000000E+00 0. -1.
         -3    1    3    3    0  502  0.22577873447E+03  0.42403393002E+03 -0.57129336199E+03  0.74642944489E+03  0.00000000000E+00 0.  1.
         11    1    5    5    0    0  0.45187047902E+02 -0.88555885321E+02  0.81247918327E+02  0.12839485331E+03  0.00000000000E+00 0. -1.
        -11    1    5    5    0    0  0.18088757058E+02 -0.34190776856E+03  0.17400543209E+03  0.38406511913E+03  0.00000000000E+00 0.  1.
          3    1    6    6  503    0 -0.21587490496E+03 -0.22540401314E+03 -0.53835844953E+02  0.31671318560E+03  0.00000000000E+00 0. -1.
         -3    1    6    6    0  503 -0.14846142927E+03 -0.58083838551E+02 -0.39030739650E+02  0.16412777620E+03  0.00000000000E+00 0.  1.
<mgrwt>
<rscale>  0 0.84662822E+03</rscale>
<asrwt>0</asrwt>
<pdfrwt beam="1">  1        2 0.11039662E+00 0.84662822E+03</pdfrwt>
<pdfrwt beam="2">  1       -2 0.23142902E+00 0.84662822E+03</pdfrwt>
<totfact> 0.33704854E+00</totfact>
</mgrwt>
</event>
<event>
12    1  0.1432447E-007  0.5031180E+03  0.7818608E-02  0.1012968E+00
         -2   -1    0    0    0  501 -0.00000000000E+00  0.00000000000E+00  0.30231939000E+03  0.30231939000E+03  0.00000000000E+00 0.  1.
          2   -1    0    0  501    0  0.00000000000E+00 -0.00000000000E+00 -0.11662285081E+04  0.11662285081E+04  0.00000000000E+00 0. -1.
         23    2    1    2    0    0 -0.17524555166E+03  0.32360537909E+03 -0.34496755494E+02  0.38081169442E+03  0.91630102661E+02 0.  0.
    5000000    2    1    2    0    0  0.17524555166E+03 -0.32360537909E+03 -0.82941236260E+03  0.10877362037E+04  0.59984476059E+03 0.  0.
         23    2    4    4    0    0 -0.93205934062E+02  0.93508416983E+02 -0.37786456123E+03  0.41068288154E+03  0.91911002406E+02 0.  0.
         23    2    4    4    0    0  0.26845148572E+03 -0.41711379607E+03 -0.45154780137E+03  0.67705332214E+03  0.91954690147E+02 0.  0.
          1    1    3    3  502    0 -0.94026311656E+02  0.23122241273E+03 -0.56314546141E+02  0.25588294109E+03  0.00000000000E+00 0. -1.
         -1    1    3    3    0  502 -0.81219240002E+02  0.92382966360E+02  0.21817790647E+02  0.12492875333E+03  0.00000000000E+00 0.  1.
         13    1    5    5    0    0 -0.61471611569E+02  0.65391887474E+02 -0.12270203128E+03  0.15202186177E+03  0.00000000000E+00 0. -1.
        -13    1    5    5    0    0 -0.31734322493E+02  0.28116529508E+02 -0.25516252995E+03  0.25866101977E+03  0.00000000000E+00 0.  1.
          3    1    6    6  503    0  0.73409477909E+02 -0.18033852026E+03 -0.21195536403E+03  0.28781245574E+03  0.00000000000E+00 0.  1.
         -3    1    6    6    0  503  0.19504200781E+03 -0.23677527582E+03 -0.23959243733E+03  0.38924086640E+03  0.00000000000E+00 0. -1.
<mgrwt>
<rscale>  0 0.50311801E+03</rscale>
<asrwt>0</asrwt>
<pdfrwt beam="1">  1        2 0.17941977E+00 0.50311801E+03</pdfrwt>
<pdfrwt beam="2">  1       -2 0.46510675E-01 0.50311801E+03</pdfrwt>
<totfact> 0.90508971E+01</totfact>
</mgrwt>
</event>
<event>
12    1  0.1432447E-007  0.1081712E+04  0.7818608E-02  0.9223202E-01
          1   -1    0    0  501    0  0.00000000000E+00  0.00000000000E+00  0.95612649624E+03  0.95612649624E+03  0.00000000000E+00 0. -1.
         -1   -1    0    0    0  501 -0.00000000000E+00 -0.00000000000E+00 -0.13443663521E+04  0.13443663521E+04  0.00000000000E+00 0.  1.
         23    2    1    2    0    0  0.22143216609E+03 -0.98762422791E+03  0.11092116887E+03  0.10223614429E+04  0.92117286274E+02 0.  0.
    5000000    2    1    2    0    0 -0.22143216609E+03  0.98762422791E+03 -0.49916102470E+03  0.12781314054E+04  0.60002028405E+03 0.  0.
         23    2    4    4    0    0 -0.56253774660E+02  0.98240198039E+03 -0.43123513139E+03  0.10781806736E+04  0.90728651088E+02 0.  0.
         23    2    4    4    0    0 -0.16517839143E+03  0.52222475193E+01 -0.67925893319E+02  0.19995073186E+03  0.89750739955E+02 0.  0.
          1    1    3    3  502    0  0.90339759827E+02 -0.39226183099E+03  0.89505172916E+02  0.41236123998E+03  0.00000000000E+00 0. -1.
         -1    1    3    3    0  502  0.13109240626E+03 -0.59536239691E+03  0.21415995949E+02  0.61000020289E+03  0.00000000000E+00 0.  1.
         13    1    5    5    0    0 -0.49110137036E+02  0.33939464257E+03 -0.11595738056E+03  0.36200365063E+03  0.00000000000E+00 0. -1.
        -13    1    5    5    0    0 -0.71436376236E+01  0.64300733781E+03 -0.31527775083E+03  0.71617702295E+03  0.00000000000E+00 0.  1.
          1    1    6    6  503    0 -0.11286556169E+03  0.50755207590E+01  0.15398850536E+01  0.11299011980E+03  0.00000000000E+00 0. -1.
         -1    1    6    6    0  503 -0.52312829737E+02  0.14672676028E+00 -0.69465778372E+02  0.86960612053E+02  0.00000000000E+00 0.  1.
<mgrwt>
<rscale>  0 0.10817117E+04</rscale>
<asrwt>0</asrwt>
<pdfrwt beam="1">  1        1 0.14709638E+00 0.10817117E+04</pdfrwt>
<pdfrwt beam="2">  1       -1 0.20682559E+00 0.10817117E+04</pdfrwt>
<totfact> 0.22021828E+00</totfact>
</mgrwt>
</event>
<event>
12    1  0.1432447E-007  0.3971694E+03  0.7818608E-02  0.1044764E+00
          4   -1    0    0  501    0  0.00000000000E+00  0.00000000000E+00  0.37015592573E+03  0.37015592573E+03  0.00000000000E+00 0. -1.
         -4   -1    0    0    0  501 -0.00000000000E+00 -0.00000000000E+00 -0.59239979266E+03  0.59239979266E+03  0.00000000000E+00 0.  1.
         23    2    1    2    0    0  0.21670934260E+03  0.14952638210E+03 -0.10024339454E+03  0.29601210181E+03  0.90847939748E+02 0.  0.
    5000000    2    1    2    0    0 -0.21670934260E+03 -0.14952638210E+03 -0.12200047240E+03  0.66654361658E+03  0.60006266291E+03 0.  0.
         23    2    4    4    0    0 -0.24777953256E+03 -0.28127994726E+03 -0.24903068311E+03  0.45958546249E+03  0.93217008701E+02 0.  0.
         23    2    4    4    0    0  0.31070189960E+02  0.13175356517E+03  0.12703021071E+03  0.20695815409E+03  0.91491226212E+02 0.  0.
          4    1    3    3  502    0  0.19598438617E+03  0.13207667539E+03 -0.11745705302E+03  0.26391340836E+03  0.00000000000E+00 0. -1.
         -4    1    3    3    0  502  0.20724956427E+02  0.17449706710E+02  0.17213658483E+02  0.32098693455E+02  0.00000000000E+00 0.  1.
         13    1    5    5    0    0 -0.26900937429E+02 -0.87161235996E+02 -0.45287477858E+02  0.10184152957E+03  0.00000000000E+00 0. -1.
        -13    1    5    5    0    0 -0.22087859513E+03 -0.19411871127E+03 -0.20374320525E+03  0.35774393291E+03  0.00000000000E+00 0.  1.
          4    1    6    6  503    0 -0.27865376146E+01  0.97272002201E+02  0.12523773494E+03  0.15860043334E+03  0.00000000000E+00 0. -1.
         -4    1    6    6    0  503  0.33856727574E+02  0.34481562966E+02  0.17924757711E+01  0.48357720749E+02  0.00000000000E+00 0.  1.
<mgrwt>
<rscale>  0 0.39716942E+03</rscale>
<asrwt>0</asrwt>
<pdfrwt beam="1">  1        4 0.56947066E-01 0.39716942E+03</pdfrwt>
<pdfrwt beam="2">  1       -4 0.91138428E-01 0.39716942E+03</pdfrwt>
<totfact> 0.58045563E+00</totfact>
</mgrwt>
</event>
<event>
12    1  0.1432447E-007  0.4735166E+03  0.7818608E-02  0.1020932E+00
         -1   -1    0    0    0  501 -0.00000000000E+00  0.00000000000E+00  0.31703101890E+03  0.31703101890E+03  0.00000000000E+00 0.  1.
          1   -1    0    0  501    0  0.00000000000E+00 -0.00000000000E+00 -0.12357457619E+04  0.12357457619E+04  0.00000000000E+00 0. -1.
         23    2    1    2    0    0 -0.11071390583E+03  0.32057708364E+03 -0.77191511548E+03  0.84804083299E+03  0.91066313265E+02 0.  0.
    5000000    2    1    2    0    0  0.11071390583E+03 -0.32057708364E+03 -0.14679962757E+03  0.70473594785E+03  0.60006282174E+03 0.  0.
         23    2    4    4    0    0  0.86224156699E+02  0.12234475707E+03  0.87014073784E+02  0.19515992525E+03  0.90072762837E+02 0.  0.
         23    2    4    4    0    0  0.24489749134E+02 -0.44292184071E+03 -0.23381370135E+03  0.50957602260E+03  0.90660747166E+02 0.  0.
          2    1    3    3  502    0 -0.36128003777E+02  0.15706004927E+03 -0.26443282829E+03  0.30967371927E+03  0.00000000000E+00 0. -1.
         -2    1    3    3    0  502 -0.74585902056E+02  0.16351703437E+03 -0.50748228720E+03  0.53836711372E+03  0.00000000000E+00 0.  1.
         11    1    5    5    0    0  0.19504845602E+02  0.58108683057E+02  0.82041718050E+02  0.10241045625E+03  0.00000000000E+00 0. -1.
        -11    1    5    5    0    0  0.66719311097E+02  0.64236074017E+02  0.49723557341E+01  0.92749469001E+02  0.00000000000E+00 0.  1.
          2    1    6    6  503    0 -0.20342718359E+02 -0.33163260076E+03 -0.16074770624E+03  0.36909867670E+03  0.00000000000E+00 0. -1.
         -2    1    6    6    0  503  0.44832467493E+02 -0.11128923995E+03 -0.73065995109E+02  0.14047734590E+03  0.00000000000E+00 0.  1.
<mgrwt>
<rscale>  0 0.47351660E+03</rscale>
<asrwt>0</asrwt>
<pdfrwt beam="1">  1        1 0.19011473E+00 0.47351660E+03</pdfrwt>
<pdfrwt beam="2">  1       -1 0.48774003E-01 0.47351660E+03</pdfrwt>
<totfact> 0.45125355E+01</totfact>
</mgrwt>
</event>
<event>
12    1  0.1432447E-007  0.5665297E+03  0.7818608E-02  0.9977387E-01
         -2   -1    0    0    0  501 -0.00000000000E+00  0.00000000000E+00  0.15770291299E+03  0.15770291299E+03  0.00000000000E+00 0. -1.
          2   -1    0    0  501    0  0.00000000000E+00 -0.00000000000E+00 -0.27223508570E+04  0.27223508570E+04  0.00000000000E+00 0.  1.
         23    2    1    2    0    0  0.27290553185E+03  0.42898751141E+03 -0.11684851982E+04  0.12776357384E+04  0.92128754373E+02 0.  0.
    5000000    2    1    2    0    0 -0.27290553185E+03 -0.42898751141E+03 -0.13961627458E+04  0.16024180316E+04  0.59997118339E+03 0.  0.
         23    2    4    4    0    0  0.52633006198E+02 -0.23501310308E+03 -0.10517925406E+04  0.10820936559E+04  0.81594973976E+02 0.  0.
         23    2    4    4    0    0 -0.32553853805E+03 -0.19397440833E+03 -0.34437020523E+03  0.52032437568E+03  0.92440287930E+02 0.  0.
          3    1    3    3  502    0  0.13203487829E+03  0.23520211089E+03 -0.72546318658E+03  0.77398325378E+03  0.00000000000E+00 0. -1.
         -3    1    3    3    0  502  0.14087065357E+03  0.19378540052E+03 -0.44302201164E+03  0.50365248464E+03  0.00000000000E+00 0.  1.
         13    1    5    5    0    0  0.41111590166E+02 -0.21769429280E+03 -0.82100528934E+03  0.85037089149E+03  0.00000000000E+00 0.  1.
        -13    1    5    5    0    0  0.11521416032E+02 -0.17318810281E+02 -0.23078725122E+03  0.23172276440E+03  0.00000000000E+00 0. -1.
          4    1    6    6  503    0 -0.71281984327E+02 -0.22552585197E+02 -0.28284590030E+02  0.79935964508E+02  0.00000000000E+00 0. -1.
         -4    1    6    6    0  503 -0.25425655373E+03 -0.17142182313E+03 -0.31608561520E+03  0.44038841117E+03  0.00000000000E+00 0.  1.
<mgrwt>
<rscale>  0 0.56652973E+03</rscale>
<asrwt>0</asrwt>
<pdfrwt beam="1">  1        2 0.41882321E+00 0.56652973E+03</pdfrwt>
<pdfrwt beam="2">  1       -2 0.24261987E-01 0.56652973E+03</pdfrwt>
<totfact> 0.42077468E+01</totfact>
</mgrwt>
</event>
<event>
12    1  0.1432447E-007  0.1269548E+04  0.7818608E-02  0.9054068E-01
         -2   -1    0    0    0  501 -0.00000000000E+00  0.00000000000E+00  0.52819874479E+03  0.52819874479E+03  0.00000000000E+00 0.  1.
          2   -1    0    0  501    0  0.00000000000E+00 -0.00000000000E+00 -0.41956753550E+04  0.41956753550E+04  0.00000000000E+00 0. -1.
         23    2    1    2    0    0  0.10591532905E+04 -0.68150291064E+03 -0.69766976394E+03  0.14427313542E+04  0.92080133757E+02 0.  0.
    5000000    2    1    2    0    0 -0.10591532905E+04  0.68150291064E+03 -0.29698068462E+04  0.32811427455E+04  0.59991091227E+03 0.  0.
         23    2    4    4    0    0 -0.65199674113E+03  0.30131321342E+03 -0.10151431590E+04  0.12467069153E+04  0.88730470908E+02 0.  0.
         23    2    4    4    0    0 -0.40715654934E+03  0.38018969722E+03 -0.19546636872E+04  0.20344358302E+04  0.88872692116E+02 0.  0.
          4    1    3    3  502    0  0.31756200828E+03 -0.16399439464E+03 -0.17062039792E+03  0.39604432929E+03  0.00000000000E+00 0. -1.
         -4    1    3    3    0  502  0.74159128219E+03 -0.51750851600E+03 -0.52704936602E+03  0.10466870249E+04  0.00000000000E+00 0.  1.
         13    1    5    5    0    0 -0.34571587264E+03  0.13187253393E+03 -0.45880079584E+03  0.58941326763E+03  0.00000000000E+00 0. -1.
        -13    1    5    5    0    0 -0.30628086850E+03  0.16944067949E+03 -0.55634236315E+03  0.65729364771E+03  0.00000000000E+00 0.  1.
          3    1    6    6  503    0 -0.24974085360E+03  0.22138398873E+03 -0.13199066553E+04  0.13614459017E+04  0.00000000000E+00 0. -1.
         -3    1    6    6    0  503 -0.15741569573E+03  0.15880570849E+03 -0.63475703192E+03  0.67298992852E+03  0.00000000000E+00 0.  1.
<mgrwt>
<rscale>  0 0.12695485E+04</rscale>
<asrwt>0</asrwt>
<pdfrwt beam="1">  1        2 0.64548853E+00 0.12695485E+04</pdfrwt>
<pdfrwt beam="2">  1       -2 0.81261344E-01 0.12695485E+04</pdfrwt>
<totfact> 0.31635322E-01</totfact>
</mgrwt>
</event>
<event>
12    1  0.1432447E-007  0.9303366E+03  0.7818608E-02  0.9388434E-01
         -2   -1    0    0    0  501 -0.00000000000E+00  0.00000000000E+00  0.65519862147E+03  0.65519862147E+03  0.00000000000E+00 0.  1.
          2   -1    0    0  501    0  0.00000000000E+00 -0.00000000000E+00 -0.22522216160E+04  0.22522216160E+04  0.00000000000E+00 0. -1.
         23    2    1    2    0    0  0.76762894382E+03  0.33346644309E+03  0.17302613803E+03  0.85967136360E+03  0.92966364293E+02 0.  0.
    5000000    2    1    2    0    0 -0.76762894382E+03 -0.33346644309E+03 -0.17700491326E+04  0.20477488739E+04  0.59978950863E+03 0.  0.
         23    2    4    4    0    0  0.11589832426E+02  0.97516646932E+02 -0.21932740819E+03  0.25722969215E+03  0.91753920326E+02 0.  0.
         23    2    4    4    0    0 -0.77921877625E+03 -0.43098309002E+03 -0.15507217244E+04  0.17905191817E+04  0.91064529355E+02 0.  0.
          2    1    3    3  502    0  0.45830631351E+03  0.24428766037E+03  0.12510759975E+03  0.53420319124E+03  0.00000000000E+00 0. -1.
         -2    1    3    3    0  502  0.30932263031E+03  0.89178782727E+02  0.47918538279E+02  0.32546817237E+03  0.00000000000E+00 0.  1.
         11    1    5    5    0    0 -0.29742957980E+02  0.76564158881E+02 -0.10120369473E+03  0.13034148151E+03  0.00000000000E+00 0. -1.
        -11    1    5    5    0    0  0.41332790405E+02  0.20952488051E+02 -0.11812371346E+03  0.12688821064E+03  0.00000000000E+00 0.  1.
          3    1    6    6  503    0 -0.55419038575E+03 -0.32124420985E+03 -0.10339822134E+04  0.12163239880E+04  0.00000000000E+00 0. -1.
         -3    1    6    6    0  503 -0.22502839050E+03 -0.10973888018E+03 -0.51673951096E+03  0.57419519377E+03  0.00000000000E+00 0.  1.
<mgrwt>
<rscale>  0 0.93033661E+03</rscale>
<asrwt>0</asrwt>
<pdfrwt beam="1">  1        2 0.34649563E+00 0.93033661E+03</pdfrwt>
<pdfrwt beam="2">  1       -2 0.10079979E+00 0.93033661E+03</pdfrwt>
<totfact> 0.39643630E+00</totfact>
</mgrwt>
</event>
<event>
12    1  0.1432447E-007  0.8018102E+03  0.7818608E-02  0.9557401E-01
         -1   -1    0    0    0  501 -0.00000000000E+00  0.00000000000E+00  0.31057036387E+03  0.31057036387E+03  0.00000000000E+00 0.  1.
          1   -1    0    0  501    0  0.00000000000E+00 -0.00000000000E+00 -0.24951418221E+04  0.24951418221E+04  0.00000000000E+00 0. -1.
         23    2    1    2    0    0 -0.44815627888E+03 -0.52166686518E+03 -0.39869737947E+03  0.80020252713E+03  0.91564815792E+02 0.  0.
    5000000    2    1    2    0    0  0.44815627888E+03  0.52166686518E+03 -0.17858740788E+04  0.20055096589E+04  0.59978529327E+03 0.  0.
         23    2    4    4    0    0  0.57886412235E+03  0.36975190352E+03 -0.13349759412E+04  0.15040249442E+04  0.90167216273E+02 0.  0.
         23    2    4    4    0    0 -0.13070784347E+03  0.15191496166E+03 -0.45089813761E+03  0.50148471470E+03  0.89527049821E+02 0.  0.
          1    1    3    3  502    0 -0.29752328577E+03 -0.27764635954E+03 -0.24009691128E+03  0.47249776015E+03  0.00000000000E+00 0. -1.
         -1    1    3    3    0  502 -0.15063299311E+03 -0.24402050564E+03 -0.15860046819E+03  0.32770476698E+03  0.00000000000E+00 0.  1.
         11    1    5    5    0    0  0.54699778878E+02  0.10924332801E+02 -0.14005770343E+03  0.15075664876E+03  0.00000000000E+00 0. -1.
        -11    1    5    5    0    0  0.52416434348E+03  0.35882757072E+03 -0.11949182377E+04  0.13532682954E+04  0.00000000000E+00 0.  1.
          4    1    6    6  503    0 -0.42131131531E+02  0.11583429150E+03 -0.23546827593E+03  0.26577796052E+03  0.00000000000E+00 0.  1.
         -4    1    6    6    0  503 -0.88576711939E+02  0.36080670162E+02 -0.21542986169E+03  0.23570675418E+03  0.00000000000E+00 0. -1.
<mgrwt>
<rscale>  0 0.80181017E+03</rscale>
<asrwt>0</asrwt>
<pdfrwt beam="1">  1        1 0.38386797E+00 0.80181017E+03</pdfrwt>
<pdfrwt beam="2">  1       -1 0.47780056E-01 0.80181017E+03</pdfrwt>
<totfact> 0.62594481E+00</totfact>
</mgrwt>
</event>
<event>
12    1  0.1432447E-007  0.9982655E+03  0.7818608E-02  0.9310449E-01
         -1   -1    0    0    0  501 -0.00000000000E+00  0.00000000000E+00  0.44728390389E+03  0.44728390389E+03  0.00000000000E+00 0.  1.
          1   -1    0    0  501    0  0.00000000000E+00 -0.00000000000E+00 -0.22679480708E+04  0.22679480708E+04  0.00000000000E+00 0. -1.
         23    2    1    2    0    0 -0.52407356776E+03  0.74986823553E+03 -0.78765023202E+03  0.12106980291E+04  0.91876844279E+02 0.  0.
    5000000    2    1    2    0    0  0.52407356776E+03 -0.74986823553E+03 -0.10330139349E+04  0.15045339456E+04  0.59962415624E+03 0.  0.
         23    2    4    4    0    0  0.56212879437E+03 -0.32567538654E+03 -0.56776403287E+03  0.86752466427E+03  0.90497553793E+02 0.  0.
         23    2    4    4    0    0 -0.38055226608E+02 -0.42419284899E+03 -0.46524990200E+03  0.63700928133E+03  0.89081871234E+02 0.  0.
          1    1    3    3  502    0 -0.45379267760E+03  0.58825199829E+03 -0.62487810957E+03  0.97079393259E+03  0.00000000000E+00 0. -1.
         -1    1    3    3    0  502 -0.70280890158E+02  0.16161623724E+03 -0.16277212245E+03  0.23990409648E+03  0.00000000000E+00 0.  1.
         13    1    5    5    0    0  0.48779980198E+03 -0.27646469882E+03 -0.52706003228E+03  0.76952820230E+03  0.00000000000E+00 0. -1.
        -13    1    5    5    0    0  0.74328992386E+02 -0.49210687723E+02 -0.40704000593E+02  0.97996461975E+02  0.00000000000E+00 0.  1.
          1    1    6    6  503    0 -0.29622701614E+02 -0.40948547893E+03 -0.46465088486E+03  0.62004540697E+03  0.00000000000E+00 0. -1.
         -1    1    6    6    0  503 -0.84325249941E+01 -0.14707370054E+02 -0.59901714492E+00  0.16963874358E+02  0.00000000000E+00 0.  1.
<mgrwt>
<rscale>  0 0.99826552E+03</rscale>
<asrwt>0</asrwt>
<pdfrwt beam="1">  1        1 0.34891509E+00 0.99826552E+03</pdfrwt>
<pdfrwt beam="2">  1       -1 0.68812909E-01 0.99826552E+03</pdfrwt>
<totfact> 0.42479489E+00</totfact>
</mgrwt>
</event>
<event>
12    1  0.1432447E-007  0.7061853E+03  0.7818608E-02  0.9706713E-01
         -2   -1    0    0    0  501 -0.00000000000E+00  0.00000000000E+00  0.33258507495E+03  0.33258507495E+03  0.00000000000E+00 0.  1.
          2   -1    0    0  501    0  0.00000000000E+00 -0.00000000000E+00 -0.16367002904E+04  0.16367002904E+04  0.00000000000E+00 0. -1.
         23    2    1    2    0    0 -0.58208785397E+03 -0.18856918161E+02 -0.30028610590E+03  0.66280559374E+03  0.99788058402E+02 0.  0.
    5000000    2    1    2    0    0  0.58208785397E+03  0.18856918161E+02 -0.10038291096E+04  0.13064797716E+04  0.60002888211E+03 0.  0.
         23    2    4    4    0    0  0.93195309654E+02 -0.24033297334E+03 -0.35876843024E+03  0.45161106006E+03  0.93768114094E+02 0.  0.
         23    2    4    4    0    0  0.48889254431E+03  0.25918989150E+03 -0.64506067935E+03  0.85486871158E+03  0.92205825520E+02 0.  0.
          1    1    3    3  502    0 -0.16040731456E+03 -0.38688134501E+02 -0.11867459382E+03  0.20325092259E+03  0.00000000000E+00 0. -1.
         -1    1    3    3    0  502 -0.42168053941E+03  0.19831216339E+02 -0.18161151207E+03  0.45955467115E+03  0.00000000000E+00 0.  1.
         11    1    5    5    0    0  0.10331523232E+03 -0.17840589253E+03 -0.23338066059E+03  0.31139883182E+03  0.00000000000E+00 0. -1.
        -11    1    5    5    0    0 -0.10119922671E+02 -0.61927080808E+02 -0.12538776965E+03  0.14021222825E+03  0.00000000000E+00 0.  1.
          3    1    6    6  503    0  0.10916148801E+03  0.85887336009E+02 -0.21152373630E+03  0.25305168636E+03  0.00000000000E+00 0. -1.
         -3    1    6    6    0  503  0.37973105630E+03  0.17330255549E+03 -0.43353694305E+03  0.60181702522E+03  0.00000000000E+00 0.  1.
<mgrwt>
<rscale>  0 0.70618531E+03</rscale>
<asrwt>0</asrwt>
<pdfrwt beam="1">  1        2 0.25180004E+00 0.70618531E+03</pdfrwt>
<pdfrwt beam="2">  1       -2 0.51166935E-01 0.70618531E+03</pdfrwt>
<totfact> 0.39548835E+01</totfact>
</mgrwt>
</event>
<event>
12    1  0.1432447E-007  0.3986546E+03  0.7818608E-02  0.1044247E+00
          2   -1    0    0  501    0  0.00000000000E+00  0.00000000000E+00  0.25204412601E+04  0.25204412601E+04  0.00000000000E+00 0.  1.
         -2   -1    0    0    0  501 -0.00000000000E+00 -0.00000000000E+00 -0.13469631567E+03  0.13469631567E+03  0.00000000000E+00 0. -1.
         23    2    1    2    0    0 -0.26299295361E+03  0.19682390917E+03  0.14862279381E+04  0.15250965025E+04  0.95608121544E+02 0.  0.
    5000000    2    1    2    0    0  0.26299295361E+03 -0.19682390917E+03  0.89951700629E+03  0.11300410733E+04  0.59996419713E+03 0.  0.
         23    2    4    4    0    0  0.19251929843E+03  0.59649939305E+02  0.38415602544E+02  0.22416362258E+03  0.90287184270E+02 0.  0.
         23    2    4    4    0    0  0.70473655187E+02 -0.25647384848E+03  0.86110140375E+03  0.90587745071E+03  0.91503864069E+02 0.  0.
          2    1    3    3  502    0 -0.21730013046E+03  0.16587362119E+03  0.13619576184E+04  0.13891227300E+04  0.00000000000E+00 0. -1.
         -2    1    3    3    0  502 -0.45692823153E+02  0.30950287983E+02  0.12427031977E+03  0.13597377243E+03  0.00000000000E+00 0.  1.
         11    1    5    5    0    0  0.10796444118E+03  0.31754275929E+02 -0.24458231747E+02  0.11516448975E+03  0.00000000000E+00 0. -1.
        -11    1    5    5    0    0  0.84554857246E+02  0.27895663376E+02  0.62873834291E+02  0.10899913283E+03  0.00000000000E+00 0.  1.
          1    1    6    6  503    0 -0.68472303160E+00 -0.24951027104E+02  0.24717020465E+02  0.35127677120E+02  0.00000000000E+00 0. -1.
         -1    1    6    6    0  503  0.71158378218E+02 -0.23152282137E+03  0.83638438328E+03  0.87074977359E+03  0.00000000000E+00 0.  1.
<mgrwt>
<rscale>  0 0.39865458E+03</rscale>
<asrwt>0</asrwt>
<pdfrwt beam="1">  1        2 0.38776016E+00 0.39865458E+03</pdfrwt>
<pdfrwt beam="2">  1       -2 0.20722512E-01 0.39865458E+03</pdfrwt>
<totfact> 0.74993058E+01</totfact>
</mgrwt>
</event>
<event>
12    1  0.1432447E-007  0.1177390E+04  0.7818608E-02  0.9132881E-01
          2   -1    0    0  501    0  0.00000000000E+00  0.00000000000E+00  0.33403070140E+04  0.33403070140E+04  0.00000000000E+00 0. -1.
         -2   -1    0    0    0  501 -0.00000000000E+00 -0.00000000000E+00 -0.69386031639E+03  0.69386031639E+03  0.00000000000E+00 0.  1.
         23    2    1    2    0    0 -0.10098487481E+04  0.55566133876E+03  0.24642170088E+04  0.27219821903E+04  0.90926125837E+02 0.  0.
    5000000    2    1    2    0    0  0.10098487481E+04 -0.55566133876E+03  0.18222968873E+03  0.13121851400E+04  0.60005680123E+03 0.  0.
         23    2    4    4    0    0  0.65871608229E+02 -0.10402761374E+03 -0.14546831351E+03  0.21184710208E+03  0.92505952428E+02 0.  0.
         23    2    4    4    0    0  0.94397713990E+03 -0.45163372502E+03  0.32769800224E+03  0.11003380379E+04  0.91060171214E+02 0.  0.
          1    1    3    3  502    0 -0.14071521571E+03  0.65845604584E+02  0.26771320535E+03  0.30952669658E+03  0.00000000000E+00 0. -1.
         -1    1    3    3    0  502 -0.86913353243E+03  0.48981573418E+03  0.21965038035E+04  0.24124554938E+04  0.00000000000E+00 0.  1.
         11    1    5    5    0    0  0.89648392419E+02 -0.82942673727E+02 -0.11235841997E+03  0.16595401751E+03  0.00000000000E+00 0.  1.
        -11    1    5    5    0    0 -0.23776784190E+02 -0.21084940009E+02 -0.33109893544E+02  0.45893084578E+02  0.00000000000E+00 0. -1.
          3    1    6    6  503    0  0.35965587568E+03 -0.20141091790E+03  0.16653780551E+03  0.44458244165E+03  0.00000000000E+00 0. -1.
         -3    1    6    6    0  503  0.58432126422E+03 -0.25022280713E+03  0.16116019674E+03  0.65575559627E+03  0.00000000000E+00 0.  1.
<mgrwt>
<rscale>  0 0.11773898E+04</rscale>
<asrwt>0</asrwt>
<pdfrwt beam="1">  1        2 0.51389338E+00 0.11773898E+04</pdfrwt>
<pdfrwt beam="2">  1       -2 0.10674774E+00 0.11773898E+04</pdfrwt>
<totfact> 0.73892864E-01</totfact>
</mgrwt>
</event>
<event>
12    1  0.1432447E-007  0.5689748E+03  0.7818608E-02  0.9971950E-01
         -1   -1    0    0    0  501 -0.00000000000E+00  0.00000000000E+00  0.90128059446E+03  0.90128059446E+03  0.00000000000E+00 0.  1.
          1   -1    0    0  501    0  0.00000000000E+00 -0.00000000000E+00 -0.12194386637E+04  0.12194386637E+04  0.00000000000E+00 0. -1.
         23    2    1    2    0    0  0.14789512849E+02  0.41202684443E+03 -0.10237687170E+04  0.11068845935E+04  0.84298678050E+02 0.  0.
    5000000    2    1    2    0    0 -0.14789512849E+02 -0.41202684443E+03  0.70561064781E+03  0.10138346646E+04  0.59999124219E+03 0.  0.
         23    2    4    4    0    0  0.26089460239E+03 -0.10163637525E+03  0.22390527316E+03  0.37016035315E+03  0.92136688499E+02 0.  0.
         23    2    4    4    0    0 -0.27568411524E+03 -0.31039046918E+03  0.48170537466E+03  0.64367431149E+03  0.99662312595E+02 0.  0.
          2    1    3    3  502    0  0.40238463285E+02  0.13372501654E+03 -0.29547949089E+03  0.32681744677E+03  0.00000000000E+00 0. -1.
         -2    1    3    3    0  502 -0.25448950436E+02  0.27830182789E+03 -0.72828922615E+03  0.78006714673E+03  0.00000000000E+00 0.  1.
         13    1    5    5    0    0  0.48746837058E+02 -0.62123167821E+02  0.59508641309E+02  0.98877805870E+02  0.00000000000E+00 0.  1.
        -13    1    5    5    0    0  0.21214776533E+03 -0.39513207432E+02  0.16439663185E+03  0.27128254728E+03  0.00000000000E+00 0. -1.
          3    1    6    6  503    0 -0.16508618942E+03 -0.12071670362E+03  0.19524466690E+03  0.28274803699E+03  0.00000000000E+00 0. -1.
         -3    1    6    6    0  503 -0.11059792582E+03 -0.18967376556E+03  0.28646070776E+03  0.36092627450E+03  0.00000000000E+00 0.  1.
<mgrwt>
<rscale>  0 0.56897483E+03</rscale>
<asrwt>0</asrwt>
<pdfrwt beam="1">  1        1 0.18760595E+00 0.56897483E+03</pdfrwt>
<pdfrwt beam="2">  1       -1 0.13865855E+00 0.56897483E+03</pdfrwt>
<totfact> 0.47779978E+00</totfact>
</mgrwt>
</event>
<event>
12    1  0.1432447E-007  0.8308014E+03  0.7818608E-02  0.9516473E-01
          1   -1    0    0  501    0  0.00000000000E+00  0.00000000000E+00  0.14031349114E+04  0.14031349114E+04  0.00000000000E+00 0. -1.
         -1   -1    0    0    0  501 -0.00000000000E+00 -0.00000000000E+00 -0.85389244681E+03  0.85389244681E+03  0.00000000000E+00 0.  1.
         23    2    1    2    0    0 -0.76525231664E+02 -0.72223573321E+03 -0.46928722598E+03  0.86958272807E+03  0.91994864466E+02 0.  0.
    5000000    2    1    2    0    0  0.76525231664E+02  0.72223573321E+03  0.10185296906E+04  0.13874446302E+04  0.60009941321E+03 0.  0.
         23    2    4    4    0    0 -0.23048233700E+03  0.47106811317E+03  0.52482202065E+03  0.74751191530E+03  0.91151715487E+02 0.  0.
         23    2    4    4    0    0  0.30700756867E+03  0.25116762004E+03  0.49370766997E+03  0.63993271488E+03  0.91803026193E+02 0.  0.
          3    1    3    3  502    0 -0.21975759874E+02 -0.31630607227E+03 -0.25766940396E+03  0.40856576841E+03  0.00000000000E+00 0. -1.
         -3    1    3    3    0  502 -0.54549471790E+02 -0.40592966094E+03 -0.21161782202E+03  0.46101695967E+03  0.00000000000E+00 0.  1.
         13    1    5    5    0    0 -0.14494176330E+03  0.37578902812E+03  0.37364245168E+03  0.54939438485E+03  0.00000000000E+00 0.  1.
        -13    1    5    5    0    0 -0.85540573699E+02  0.95279085043E+02  0.15117956897E+03  0.19811753045E+03  0.00000000000E+00 0. -1.
          2    1    6    6  503    0  0.37408958184E+02  0.69860735961E+02  0.12996124328E+03  0.15221654751E+03  0.00000000000E+00 0. -1.
         -2    1    6    6    0  503  0.26959861048E+03  0.18130688408E+03  0.36374642669E+03  0.48771616737E+03  0.00000000000E+00 0.  1.
<mgrwt>
<rscale>  0 0.83080139E+03</rscale>
<asrwt>0</asrwt>
<pdfrwt beam="1">  1        1 0.21586691E+00 0.83080139E+03</pdfrwt>
<pdfrwt beam="2">  1       -1 0.13136807E+00 0.83080139E+03</pdfrwt>
<totfact> 0.38823765E+00</totfact>
</mgrwt>
</event>
<event>
12    1  0.1432447E-007  0.5785786E+03  0.7818608E-02  0.9950873E-01
         -2   -1    0    0    0  501 -0.00000000000E+00  0.00000000000E+00  0.27850344292E+03  0.27850344292E+03  0.00000000000E+00 0. -1.
          2   -1    0    0  501    0  0.00000000000E+00 -0.00000000000E+00 -0.12464565813E+04  0.12464565813E+04  0.00000000000E+00 0.  1.
         23    2    1    2    0    0  0.33343198588E+03 -0.27225449877E+03 -0.36471967864E+03  0.57144975490E+03  0.90746774481E+02 0.  0.
    5000000    2    1    2    0    0 -0.33343198588E+03  0.27225449877E+03 -0.60323345972E+03  0.95351026931E+03  0.59999318783E+03 0.  0.
         23    2    4    4    0    0 -0.19435011499E+03  0.44663473592E+03 -0.42145706959E+03  0.65040270784E+03  0.90238940169E+02 0.  0.
         23    2    4    4    0    0 -0.13908187088E+03 -0.17438023716E+03 -0.18177639014E+03  0.30310756147E+03  0.95285381313E+02 0.  0.
          4    1    3    3  502    0  0.10785426862E+03 -0.11887056069E+03 -0.88730374215E+02  0.18340074363E+03  0.00000000000E+00 0. -1.
         -4    1    3    3    0  502  0.22557771726E+03 -0.15338393808E+03 -0.27598930442E+03  0.38804901126E+03  0.00000000000E+00 0.  1.
         13    1    5    5    0    0 -0.15136838553E+03  0.25379966961E+03 -0.28287083463E+03  0.40907526143E+03  0.00000000000E+00 0. -1.
        -13    1    5    5    0    0 -0.42981729469E+02  0.19283506632E+03 -0.13858623496E+03  0.24132744641E+03  0.00000000000E+00 0.  1.
          4    1    6    6  503    0 -0.11726946441E+03 -0.10277524686E+03 -0.16374370877E+03  0.22611254015E+03  0.00000000000E+00 0. -1.
         -4    1    6    6    0  503 -0.21812406470E+02 -0.71604990299E+02 -0.18032681369E+02  0.76995021327E+02  0.00000000000E+00 0.  1.
<mgrwt>
<rscale>  0 0.57857860E+03</rscale>
<asrwt>0</asrwt>
<pdfrwt beam="1">  1        2 0.19176255E+00 0.57857860E+03</pdfrwt>
<pdfrwt beam="2">  1       -2 0.42846683E-01 0.57857860E+03</pdfrwt>
<totfact> 0.94768672E+01</totfact>
</mgrwt>
</event>
<event>
12    1  0.1432447E-007  0.8904956E+03  0.7818608E-02  0.9437541E-01
         -2   -1    0    0    0  501 -0.00000000000E+00  0.00000000000E+00  0.40068776695E+03  0.40068776695E+03  0.00000000000E+00 0.  1.
          2   -1    0    0  501    0  0.00000000000E+00 -0.00000000000E+00 -0.23811695205E+04  0.23811695205E+04  0.00000000000E+00 0. -1.
         23    2    1    2    0    0  0.52938485386E+03 -0.70512684019E+03 -0.92836544321E+03  0.12836552294E+04  0.91957422369E+02 0.  0.
    5000000    2    1    2    0    0 -0.52938485386E+03  0.70512684019E+03 -0.10521163103E+04  0.14982020580E+04  0.60017371820E+03 0.  0.
         23    2    4    4    0    0 -0.25016641784E+03  0.40031773035E+03 -0.94697313238E+03  0.10619840820E+04  0.90634182780E+02 0.  0.
         23    2    4    4    0    0 -0.27921843602E+03  0.30480910984E+03 -0.10514317792E+03  0.43621797604E+03  0.91430335802E+02 0.  0.
          3    1    3    3  502    0  0.24246313217E+03 -0.34677910738E+03 -0.38224889239E+03  0.57022656507E+03  0.00000000000E+00 0. -1.
         -3    1    3    3    0  502  0.28692172168E+03 -0.35834773281E+03 -0.54611655082E+03  0.71342866431E+03  0.00000000000E+00 0.  1.
         11    1    5    5    0    0 -0.13585047113E+03  0.15504732090E+03 -0.47768672020E+03  0.52026880060E+03  0.00000000000E+00 0. -1.
        -11    1    5    5    0    0 -0.11431594671E+03  0.24527040945E+03 -0.46928641217E+03  0.54171528138E+03  0.00000000000E+00 0.  1.
          3    1    6    6  503    0 -0.25158124323E+03  0.22474278389E+03 -0.70097029892E+02  0.34455193289E+03  0.00000000000E+00 0. -1.
         -3    1    6    6    0  503 -0.27637192790E+02  0.80066325949E+02 -0.35046148028E+02  0.91666043156E+02  0.00000000000E+00 0.  1.
<mgrwt>
<rscale>  0 0.89049556E+03</rscale>
<asrwt>0</asrwt>
<pdfrwt beam="1">  1        2 0.36633377E+00 0.89049556E+03</pdfrwt>
<pdfrwt beam="2">  1       -2 0.61644272E-01 0.89049556E+03</pdfrwt>
<totfact> 0.10201881E+01</totfact>
</mgrwt>
</event>
<event>
12    1  0.1432447E-007  0.7031993E+03  0.7818608E-02  0.9711777E-01
          1   -1    0    0  501    0  0.00000000000E+00  0.00000000000E+00  0.95326236925E+03  0.95326236925E+03  0.00000000000E+00 0. -1.
         -1   -1    0    0    0  501 -0.00000000000E+00 -0.00000000000E+00 -0.15332787123E+04  0.15332787123E+04  0.00000000000E+00 0.  1.
         23    2    1    2    0    0  0.15593818338E+03  0.58686523728E+03 -0.12553383839E+04  0.13980804078E+04  0.10013413408E+03 0.  0.
    5000000    2    1    2    0    0 -0.15593818338E+03 -0.58686523728E+03  0.67532204086E+03  0.10884606737E+04  0.59996604541E+03 0.  0.
         23    2    4    4    0    0  0.15413865307E+03 -0.39312870907E+03  0.53186844512E+03  0.68522762669E+03  0.91345230913E+02 0.  0.
         23    2    4    4    0    0 -0.31007683645E+03 -0.19373652821E+03  0.14345359575E+03  0.40323304705E+03  0.91304267349E+02 0.  0.
          4    1    3    3  502    0 -0.29920161771E+01  0.15546346918E+03 -0.33264162932E+03  0.36718972748E+03  0.00000000000E+00 0. -1.
         -4    1    3    3    0  502  0.15893019956E+03  0.43140176810E+03 -0.92269675462E+03  0.10308906804E+04  0.00000000000E+00 0.  1.
         11    1    5    5    0    0  0.12800827492E+03 -0.27705978303E+03  0.43717314215E+03  0.53316845184E+03  0.00000000000E+00 0. -1.
        -11    1    5    5    0    0  0.26130378147E+02 -0.11606892603E+03  0.94695302971E+02  0.15205917485E+03  0.00000000000E+00 0.  1.
          3    1    6    6  503    0 -0.17403906402E+03 -0.12706035139E+03  0.38415330658E+02  0.21888276846E+03  0.00000000000E+00 0. -1.
         -3    1    6    6    0  503 -0.13603777243E+03 -0.66676176822E+02  0.10503826509E+03  0.18435027859E+03  0.00000000000E+00 0.  1.
<mgrwt>
<rscale>  0 0.70319926E+03</rscale>
<asrwt>0</asrwt>
<pdfrwt beam="1">  1        1 0.14665575E+00 0.70319926E+03</pdfrwt>
<pdfrwt beam="2">  1       -1 0.23588903E+00 0.70319926E+03</pdfrwt>
<totfact> 0.15031804E+00</totfact>
</mgrwt>
</event>
<event>
12    1  0.1432447E-007  0.5019038E+03  0.7818608E-02  0.1013283E+00
          1   -1    0    0  501    0  0.00000000000E+00  0.00000000000E+00  0.20361602295E+04  0.20361602295E+04  0.00000000000E+00 0. -1.
         -1   -1    0    0    0  501 -0.00000000000E+00 -0.00000000000E+00 -0.22124566857E+03  0.22124566857E+03  0.00000000000E+00 0.  1.
         23    2    1    2    0    0 -0.26902768404E+03 -0.39645843094E+03  0.34217017979E+03  0.59646624710E+03  0.95584359359E+02 0.  0.
    5000000    2    1    2    0    0  0.26902768404E+03  0.39645843094E+03  0.14727443811E+04  0.16609396509E+04  0.60015775401E+03 0.  0.
         23    2    4    4    0    0  0.24165780675E+03  0.18864180592E+03  0.22338509796E+03  0.39070540329E+03  0.93624695784E+02 0.  0.
         23    2    4    4    0    0  0.27369877285E+02  0.20781662502E+03  0.12493592832E+04  0.12702342476E+04  0.93056787362E+02 0.  0.
          4    1    3    3  502    0 -0.25336374553E+03 -0.37043530243E+03  0.28474417586E+03  0.53150234856E+03  0.00000000000E+00 0. -1.
         -4    1    3    3    0  502 -0.15663938511E+02 -0.26023128509E+02  0.57426003930E+02  0.64963898547E+02  0.00000000000E+00 0.  1.
         13    1    5    5    0    0  0.15686212883E+03  0.10142126228E+03  0.81465066761E+02  0.20378556623E+03  0.00000000000E+00 0. -1.
        -13    1    5    5    0    0  0.84795677923E+02  0.87220543647E+02  0.14192003120E+03  0.18691983706E+03  0.00000000000E+00 0.  1.
          2    1    6    6  503    0 -0.28686230920E+01  0.15729439635E+03  0.10688224479E+04  0.10803384568E+04  0.00000000000E+00 0. -1.
         -2    1    6    6    0  503  0.30238500377E+02  0.50522228667E+02  0.18053683523E+03  0.18989579082E+03  0.00000000000E+00 0.  1.
<mgrwt>
<rscale>  0 0.50190382E+03</rscale>
<asrwt>0</asrwt>
<pdfrwt beam="1">  1        1 0.31325541E+00 0.50190382E+03</pdfrwt>
<pdfrwt beam="2">  1       -1 0.34037796E-01 0.50190382E+03</pdfrwt>
<totfact> 0.24896854E+01</totfact>
</mgrwt>
</event>
<event>
12    1  0.1432447E-007  0.3837233E+03  0.7818608E-02  0.1049566E+00
         -1   -1    0    0    0  501 -0.00000000000E+00  0.00000000000E+00  0.61491341206E+03  0.61491341206E+03  0.00000000000E+00 0.  1.
          1   -1    0    0  501    0  0.00000000000E+00 -0.00000000000E+00 -0.56504227329E+03  0.56504227329E+03  0.00000000000E+00 0. -1.
         23    2    1    2    0    0 -0.33112812239E+03  0.82817356467E+02 -0.24432385489E+03  0.42965062959E+03  0.91656802621E+02 0.  0.
    5000000    2    1    2    0    0  0.33112812239E+03 -0.82817356467E+02  0.29419499366E+03  0.75030505575E+03  0.59991868984E+03 0.  0.
         23    2    4    4    0    0  0.28006754449E+03 -0.15329126067E+03  0.44483618132E+03  0.55450605506E+03  0.87531119068E+02 0.  0.
         23    2    4    4    0    0  0.51060577900E+02  0.70473904204E+02 -0.15064118766E+03  0.19579900070E+03  0.89837227606E+02 0.  0.
          4    1    3    3  502    0 -0.18667224350E+03  0.63534554544E+02 -0.88009783104E+02  0.21593723171E+03  0.00000000000E+00 0. -1.
         -4    1    3    3    0  502 -0.14445587889E+03  0.19282801923E+02 -0.15631407179E+03  0.21371339788E+03  0.00000000000E+00 0.  1.
         13    1    5    5    0    0  0.20296860928E+03 -0.73321826900E+02  0.25029343387E+03  0.33048320637E+03  0.00000000000E+00 0.  1.
        -13    1    5    5    0    0  0.77098935212E+02 -0.79969433771E+02  0.19454274745E+03  0.22402284869E+03  0.00000000000E+00 0. -1.
          3    1    6    6  503    0  0.53730437875E+02  0.39857721610E+02 -0.33741707289E+02  0.74927303014E+02  0.00000000000E+00 0. -1.
         -3    1    6    6    0  503 -0.26698599746E+01  0.30616182594E+02 -0.11689948037E+03  0.12087169768E+03  0.00000000000E+00 0.  1.
<mgrwt>
<rscale>  0 0.38372327E+03</rscale>
<asrwt>0</asrwt>
<pdfrwt beam="1">  1        1 0.86929580E-01 0.38372327E+03</pdfrwt>
<pdfrwt beam="2">  1       -1 0.94602064E-01 0.38372327E+03</pdfrwt>
<totfact> 0.43196512E+01</totfact>
</mgrwt>
</event>
<event>
12    1  0.1432447E-007  0.6198722E+03  0.7818608E-02  0.9865014E-01
          2   -1    0    0  501    0  0.00000000000E+00  0.00000000000E+00  0.18853751887E+04  0.18853751887E+04  0.00000000000E+00 0. -1.
         -2   -1    0    0    0  501 -0.00000000000E+00 -0.00000000000E+00 -0.41718294206E+03  0.41718294206E+03  0.00000000000E+00 0.  1.
         23    2    1    2    0    0 -0.48764145996E+03 -0.18610716943E+02  0.14460073312E+04  0.15288233394E+04  0.90681028595E+02 0.  0.
    5000000    2    1    2    0    0  0.48764145996E+03  0.18610716943E+02  0.22184915449E+02  0.77373479137E+03  0.60002733659E+03 0.  0.
         23    2    4    4    0    0  0.76074578962E+02 -0.24315926811E+03 -0.39828624250E+02  0.27360593563E+03  0.91433678002E+02 0.  0.
         23    2    4    4    0    0  0.41156688100E+03  0.26176998505E+03  0.62013539698E+02  0.50012885574E+03  0.91500659204E+02 0.  0.
          3    1    3    3  502    0 -0.11844216256E+03  0.16917903262E+01  0.48183446534E+03  0.49618127737E+03  0.00000000000E+00 0. -1.
         -3    1    3    3    0  502 -0.36919929740E+03 -0.20302507269E+02  0.96417286587E+03  0.10326420620E+04  0.00000000000E+00 0.  1.
         11    1    5    5    0    0  0.49922116719E+02 -0.73279808919E+02  0.21278008700E+02  0.91186083297E+02  0.00000000000E+00 0. -1.
        -11    1    5    5    0    0  0.26152462243E+02 -0.16987945919E+03 -0.61106632949E+02  0.18241985233E+03  0.00000000000E+00 0.  1.
          1    1    6    6  503    0  0.11280547780E+03  0.43149147744E+02  0.47056307537E+02  0.12961952342E+03  0.00000000000E+00 0. -1.
         -1    1    6    6    0  503  0.29876140320E+03  0.21862083731E+03  0.14957232161E+02  0.37050933232E+03  0.00000000000E+00 0.  1.
<mgrwt>
<rscale>  0 0.61987223E+03</rscale>
<asrwt>0</asrwt>
<pdfrwt beam="1">  1        2 0.29005772E+00 0.61987223E+03</pdfrwt>
<pdfrwt beam="2">  1       -2 0.64181992E-01 0.61987223E+03</pdfrwt>
<totfact> 0.18264048E+01</totfact>
</mgrwt>
</event>
<event>
12    1  0.1432447E-007  0.5698345E+03  0.7818608E-02  0.9970045E-01
          1   -1    0    0  501    0  0.00000000000E+00  0.00000000000E+00  0.52407100047E+03  0.52407100047E+03  0.00000000000E+00 0. -1.
         -1   -1    0    0    0  501 -0.00000000000E+00 -0.00000000000E+00 -0.69400491708E+03  0.69400491708E+03  0.00000000000E+00 0.  1.
         23    2    1    2    0    0  0.58487596077E+02 -0.44097775254E+03 -0.10528168184E+02  0.45455191609E+03  0.92867782206E+02 0.  0.
    5000000    2    1    2    0    0 -0.58487596077E+02  0.44097775254E+03 -0.15940574842E+03  0.76352400146E+03  0.59973038196E+03 0.  0.
         23    2    4    4    0    0  0.19530390224E+03  0.34722144736E+03 -0.23016950438E+03  0.46876784054E+03  0.89771598191E+02 0.  0.
         23    2    4    4    0    0 -0.25379149832E+03  0.93756305172E+02  0.70763755962E+02  0.29475616091E+03  0.93130638681E+02 0.  0.
          4    1    3    3  502    0  0.79793671409E+02 -0.31298149420E+03 -0.25163801340E+02  0.32397170031E+03  0.00000000000E+00 0. -1.
         -4    1    3    3    0  502 -0.21306075333E+02 -0.12799625834E+03  0.14635633155E+02  0.13058021578E+03  0.00000000000E+00 0.  1.
         11    1    5    5    0    0 -0.66889748086E+01  0.40731233345E+02 -0.24883360859E+02  0.48197068390E+02  0.00000000000E+00 0. -1.
        -11    1    5    5    0    0  0.20199287705E+03  0.30649021402E+03 -0.20528614352E+03  0.42057077215E+03  0.00000000000E+00 0.  1.
          4    1    6    6  503    0 -0.28421842729E+02  0.36104369898E+02 -0.12596543232E+02  0.47644512499E+02  0.00000000000E+00 0. -1.
         -4    1    6    6    0  503 -0.22536965559E+03  0.57651935273E+02  0.83360299193E+02  0.24711164841E+03  0.00000000000E+00 0.  1.
<mgrwt>
<rscale>  0 0.56983454E+03</rscale>
<asrwt>0</asrwt>
<pdfrwt beam="1">  1        1 0.80626307E-01 0.56983454E+03</pdfrwt>
<pdfrwt beam="2">  1       -1 0.10676999E+00 0.56983454E+03</pdfrwt>
<totfact> 0.35460292E+01</totfact>
</mgrwt>
</event>
<event>
12    1  0.1432447E-007  0.7015756E+03  0.7818608E-02  0.9714542E-01
         -2   -1    0    0    0  501 -0.00000000000E+00  0.00000000000E+00  0.47434360553E+03  0.47434360553E+03  0.00000000000E+00 0.  1.
          2   -1    0    0  501    0  0.00000000000E+00 -0.00000000000E+00 -0.19298888919E+04  0.19298888919E+04  0.00000000000E+00 0. -1.
         23    2    1    2    0    0  0.35502745738E+03  0.57876060660E+03  0.53680922863E+01  0.68518696989E+03  0.91891414420E+02 0.  0.
    5000000    2    1    2    0    0 -0.35502745738E+03 -0.57876060660E+03 -0.14609133787E+04  0.17190455275E+04  0.59986772755E+03 0.  0.
         23    2    4    4    0    0 -0.14396534965E+03 -0.41230085658E+03 -0.13361409467E+04  0.14089130188E+04  0.95106503026E+02 0.  0.
         23    2    4    4    0    0 -0.21106210773E+03 -0.16645975002E+03 -0.12477243196E+03  0.31013250872E+03  0.91421832679E+02 0.  0.
          4    1    3    3  502    0  0.93020853727E+02  0.23043971595E+03 -0.13955100701E+02  0.24889774356E+03  0.00000000000E+00 0. -1.
         -4    1    3    3    0  502  0.26200660365E+03  0.34832089066E+03  0.19323192987E+02  0.43628922633E+03  0.00000000000E+00 0.  1.
         11    1    5    5    0    0 -0.42712851796E+02 -0.23893336664E+03 -0.81737014575E+03  0.85264734595E+03  0.00000000000E+00 0. -1.
        -11    1    5    5    0    0 -0.10125249785E+03 -0.17336748994E+03 -0.51877080095E+03  0.55626567286E+03  0.00000000000E+00 0.  1.
          3    1    6    6  503    0 -0.97122244795E+02 -0.39895525446E+02 -0.11544555980E+02  0.10562982608E+03  0.00000000000E+00 0. -1.
         -3    1    6    6    0  503 -0.11393986294E+03 -0.12656422457E+03 -0.11322787598E+03  0.20450268264E+03  0.00000000000E+00 0.  1.
<mgrwt>
<rscale>  0 0.70157556E+03</rscale>
<asrwt>0</asrwt>
<pdfrwt beam="1">  1        2 0.29690597E+00 0.70157556E+03</pdfrwt>
<pdfrwt beam="2">  1       -2 0.72975941E-01 0.70157556E+03</pdfrwt>
<totfact> 0.12906354E+01</totfact>
</mgrwt>
</event>
<event>
12    1  0.1432447E-007  0.6906113E+03  0.7818608E-02  0.9733424E-01
          1   -1    0    0  501    0  0.00000000000E+00  0.00000000000E+00  0.12501441793E+04  0.12501441793E+04  0.00000000000E+00 0. -1.
         -1   -1    0    0    0  501 -0.00000000000E+00 -0.00000000000E+00 -0.15510201761E+04  0.15510201761E+04  0.00000000000E+00 0.  1.
         23    2    1    2    0    0  0.50538143466E+03  0.39620992675E+03  0.10234287954E+04  0.12115188204E+04  0.89323302334E+02 0.  0.
    5000000    2    1    2    0    0 -0.50538143466E+03 -0.39620992675E+03 -0.13243047923E+04  0.15896455350E+04  0.60066383569E+03 0.  0.
         23    2    4    4    0    0 -0.45181846150E+01 -0.18499836081E+03 -0.66310352415E+02  0.21633804282E+03  0.90334259501E+02 0.  0.
         23    2    4    4    0    0 -0.50086325004E+03 -0.21121156594E+03 -0.12579944399E+04  0.13733074922E+04  0.89157929971E+02 0.  0.
          3    1    3    3  502    0  0.92194069330E+02  0.41885679185E+02  0.12255552529E+03  0.15897802779E+03  0.00000000000E+00 0. -1.
         -3    1    3    3    0  502  0.41318736533E+03  0.35432424757E+03  0.90087327014E+03  0.10525407926E+04  0.00000000000E+00 0.  1.
         13    1    5    5    0    0  0.17771571225E+02 -0.30579271960E+02  0.17250229444E+02  0.39350870808E+02  0.00000000000E+00 0. -1.
        -13    1    5    5    0    0 -0.22289755840E+02 -0.15441908885E+03 -0.83560581859E+02  0.17698717201E+03  0.00000000000E+00 0.  1.
          4    1    6    6  503    0 -0.39912390512E+03 -0.18009050073E+03 -0.91852353229E+03  0.10175548926E+04  0.00000000000E+00 0. -1.
         -4    1    6    6    0  503 -0.10173934493E+03 -0.31121065213E+02 -0.33947090760E+03  0.35575259958E+03  0.00000000000E+00 0.  1.
<mgrwt>
<rscale>  0 0.69061125E+03</rscale>
<asrwt>0</asrwt>
<pdfrwt beam="1">  1        1 0.19232987E+00 0.69061125E+03</pdfrwt>
<pdfrwt beam="2">  1       -1 0.23861849E+00 0.69061125E+03</pdfrwt>
<totfact> 0.86844102E-01</totfact>
</mgrwt>
</event>
<event>
12    1  0.1432447E-007  0.5095006E+03  0.7818608E-02  0.1011328E+00
         -2   -1    0    0    0  501 -0.00000000000E+00  0.00000000000E+00  0.12967960777E+04  0.12967960777E+04  0.00000000000E+00 0.  1.
          2   -1    0    0  501    0  0.00000000000E+00 -0.00000000000E+00 -0.29548985877E+03  0.29548985877E+03  0.00000000000E+00 0. -1.
         23    2    1    2    0    0 -0.93867452503E+01 -0.44323720179E+03  0.57926285728E+03  0.73524667029E+03  0.92167675022E+02 0.  0.
    5000000    2    1    2    0    0  0.93867452503E+01  0.44323720179E+03  0.42204336161E+03  0.85703926614E+03  0.59987363385E+03 0.  0.
         23    2    4    4    0    0  0.16371421175E+03  0.21609278263E+03 -0.62416960334E+02  0.29282053505E+03  0.91375899319E+02 0.  0.
         23    2    4    4    0    0 -0.15432746650E+03  0.22714441916E+03  0.48446032195E+03  0.56421873109E+03  0.90716144645E+02 0.  0.
          2    1    3    3  502    0  0.16976246893E+02 -0.72953224053E+02  0.15051510162E+03  0.16812246035E+03  0.00000000000E+00 0. -1.
         -2    1    3    3    0  502 -0.26362992144E+02 -0.37028397773E+03  0.42874775566E+03  0.56712420995E+03  0.00000000000E+00 0.  1.
         11    1    5    5    0    0  0.13122340565E+03  0.21431630021E+03 -0.43066649438E+02  0.25496234039E+03  0.00000000000E+00 0.  1.
        -11    1    5    5    0    0  0.32490806100E+02  0.17764824202E+01 -0.19350310896E+02  0.37858194656E+02  0.00000000000E+00 0. -1.
          4    1    6    6  503    0 -0.31760768859E+02  0.95352091424E+00  0.47455622443E+02  0.57111222559E+02  0.00000000000E+00 0. -1.
         -4    1    6    6    0  503 -0.12256669764E+03  0.22619089825E+03  0.43700469951E+03  0.50710750853E+03  0.00000000000E+00 0.  1.
<mgrwt>
<rscale>  0 0.50950055E+03</rscale>
<asrwt>0</asrwt>
<pdfrwt beam="1">  1        2 0.45459979E-01 0.50950055E+03</pdfrwt>
<pdfrwt beam="2">  1       -2 0.19950709E+00 0.50950055E+03</pdfrwt>
<totfact> 0.15621309E+01</totfact>
</mgrwt>
</event>
<event>
12    1  0.1432447E-007  0.8206515E+03  0.7818608E-02  0.9530597E-01
         -2   -1    0    0    0  501 -0.00000000000E+00  0.00000000000E+00  0.71526247833E+03  0.71526247833E+03  0.00000000000E+00 0.  1.
          2   -1    0    0  501    0  0.00000000000E+00 -0.00000000000E+00 -0.14034611943E+04  0.14034611943E+04  0.00000000000E+00 0. -1.
         23    2    1    2    0    0 -0.43431381353E+03  0.63152917853E+03  0.20409894331E+03  0.79819218058E+03  0.89424753379E+02 0.  0.
    5000000    2    1    2    0    0  0.43431381353E+03 -0.63152917853E+03 -0.89229765932E+03  0.13205314921E+04  0.60012558418E+03 0.  0.
         23    2    4    4    0    0  0.18078676863E+03 -0.58254991629E+03 -0.34195071881E+03  0.70514415775E+03  0.90828015735E+02 0.  0.
         23    2    4    4    0    0  0.25352704491E+03 -0.48979262248E+02 -0.55034694050E+03  0.61538733433E+03  0.95628895717E+02 0.  0.
          1    1    3    3  502    0 -0.38290105269E+02  0.62743480006E+02 -0.65965024662E+01  0.73799663208E+02  0.00000000000E+00 0. -1.
         -1    1    3    3    0  502 -0.39602370826E+03  0.56878569853E+03  0.21069544578E+03  0.72439251737E+03  0.00000000000E+00 0.  1.
         11    1    5    5    0    0  0.14217516077E+03 -0.34875329806E+03 -0.17511311499E+03  0.41533991175E+03  0.00000000000E+00 0. -1.
        -11    1    5    5    0    0  0.38611607859E+02 -0.23379661822E+03 -0.16683760382E+03  0.28980424600E+03  0.00000000000E+00 0.  1.
          4    1    6    6  503    0  0.82478609876E+02 -0.34755032155E+02 -0.29046330352E+03  0.30394006653E+03  0.00000000000E+00 0.  1.
         -4    1    6    6    0  503  0.17104843503E+03 -0.14224230093E+02 -0.25988363698E+03  0.31144726780E+03  0.00000000000E+00 0. -1.
<mgrwt>
<rscale>  0 0.82065154E+03</rscale>
<asrwt>0</asrwt>
<pdfrwt beam="1">  1        2 0.21591711E+00 0.82065154E+03</pdfrwt>
<pdfrwt beam="2">  1       -2 0.11004038E+00 0.82065154E+03</pdfrwt>
<totfact> 0.95868557E+00</totfact>
</mgrwt>
</event>
<event>
12    1  0.1540779E-007  0.8819459E+03  0.7818608E-02  0.9448436E-01
          1   -1    0    0  501    0  0.00000000000E+00  0.00000000000E+00  0.23512859137E+04  0.23512859137E+04  0.00000000000E+00 0. -1.
         -1   -1    0    0    0  501 -0.00000000000E+00 -0.00000000000E+00 -0.53320163180E+03  0.53320163180E+03  0.00000000000E+00 0.  1.
         23    2    1    2    0    0 -0.76218963625E+03 -0.26255702066E+03  0.16857768429E+04  0.18708780970E+04  0.92043789054E+02 0.  0.
    5000000    2    1    2    0    0  0.76218963625E+03  0.26255702066E+03  0.13230743902E+03  0.10136094485E+04  0.60002468697E+03 0.  0.
         23    2    4    4    0    0 -0.58498050976E+01 -0.99009086460E+02 -0.49966559199E+02  0.14044915602E+03  0.85978421519E+02 0.  0.
         23    2    4    4    0    0  0.76803944135E+03  0.36156610712E+03  0.18227399822E+03  0.87316029248E+03  0.92576739299E+02 0.  0.
          1    1    3    3  502    0 -0.60397986051E+03 -0.23933005082E+03  0.13007889873E+04  0.14540022471E+04  0.00000000000E+00 0. -1.
         -1    1    3    3    0  502 -0.15820977574E+03 -0.23226969841E+02  0.38498785557E+03  0.41687584987E+03  0.00000000000E+00 0.  1.
         11    1    5    5    0    0  0.14455368837E+02 -0.55831393884E+02 -0.68248271327E+02  0.89352833029E+02  0.00000000000E+00 0. -1.
        -11    1    5    5    0    0 -0.20305173934E+02 -0.43177692576E+02  0.18281712129E+02  0.51096322990E+02  0.00000000000E+00 0.  1.
          3    1    6    6  503    0  0.35397380701E+03  0.16209299889E+03  0.36696674879E+02  0.39104762150E+03  0.00000000000E+00 0. -1.
         -3    1    6    6    0  503  0.41406563434E+03  0.19947310824E+03  0.14557732334E+03  0.48211267098E+03  0.00000000000E+00 0.  1.
<mgrwt>
<rscale>  0 0.88194592E+03</rscale>
<asrwt>0</asrwt>
<pdfrwt beam="1">  1        1 0.36173629E+00 0.88194592E+03</pdfrwt>
<pdfrwt beam="2">  1       -1 0.82031022E-01 0.88194592E+03</pdfrwt>
<totfact> 0.26257574E+00</totfact>
</mgrwt>
</event>
<event>
12    1  0.1432447E-007  0.5395989E+03  0.7818608E-02  0.1003930E+00
          2   -1    0    0  501    0  0.00000000000E+00  0.00000000000E+00  0.21879067999E+04  0.21879067999E+04  0.00000000000E+00 0.  1.
         -2   -1    0    0    0  501 -0.00000000000E+00 -0.00000000000E+00 -0.16044544502E+03  0.16044544502E+03  0.00000000000E+00 0. -1.
         23    2    1    2    0    0 -0.38419411579E+02  0.37207631026E+03  0.11980834050E+04  0.12584538328E+04  0.91571677765E+02 0.  0.
    5000000    2    1    2    0    0  0.38419411579E+02 -0.37207631026E+03  0.82937794988E+03  0.10898984121E+04  0.60007827247E+03 0.  0.
         23    2    4    4    0    0 -0.10482612989E+03  0.12160315803E+03  0.20183037780E+03  0.27352818343E+03  0.91139015646E+02 0.  0.
         23    2    4    4    0    0  0.14324554147E+03 -0.49367946829E+03  0.62754757208E+03  0.81637022867E+03  0.91682563604E+02 0.  0.
          3    1    3    3  502    0 -0.14300571657E+02  0.32563382502E+03  0.93415950418E+03  0.98939166845E+03  0.00000000000E+00 0. -1.
         -3    1    3    3    0  502 -0.24118839921E+02  0.46442485245E+02  0.26392390080E+03  0.26906216435E+03  0.00000000000E+00 0.  1.
         13    1    5    5    0    0 -0.11464781649E+02  0.80277566194E+02  0.72684372211E+02  0.10889879162E+03  0.00000000000E+00 0.  1.
        -13    1    5    5    0    0 -0.93361348243E+02  0.41325591838E+02  0.12914600559E+03  0.16462939181E+03  0.00000000000E+00 0. -1.
          2    1    6    6  503    0  0.70522505041E+02 -0.34599090182E+03  0.37661754753E+03  0.51625953257E+03  0.00000000000E+00 0. -1.
         -2    1    6    6    0  503  0.72723036430E+02 -0.14768856648E+03  0.25093002455E+03  0.30011069610E+03  0.00000000000E+00 0.  1.
<mgrwt>
<rscale>  0 0.53959889E+03</rscale>
<asrwt>0</asrwt>
<pdfrwt beam="1">  1        2 0.33660103E+00 0.53959889E+03</pdfrwt>
<pdfrwt beam="2">  1       -2 0.24683916E-01 0.53959889E+03</pdfrwt>
<totfact> 0.81636793E+01</totfact>
</mgrwt>
</event>
<event>
12    1  0.1432447E-007  0.8214492E+03  0.7818608E-02  0.9529479E-01
         -2   -1    0    0    0  501 -0.00000000000E+00  0.00000000000E+00  0.17752389064E+03  0.17752389064E+03  0.00000000000E+00 0. -1.
          2   -1    0    0  501    0  0.00000000000E+00 -0.00000000000E+00 -0.38263939702E+04  0.38263939702E+04  0.00000000000E+00 0.  1.
         23    2    1    2    0    0 -0.49415414631E+03 -0.51153538902E+03 -0.15251117026E+04  0.16852520229E+04  0.90839973793E+02 0.  0.
    5000000    2    1    2    0    0  0.49415414631E+03  0.51153538902E+03 -0.21237583770E+04  0.23186658379E+04  0.60000404135E+03 0.  0.
         23    2    4    4    0    0  0.61557547513E+03  0.39961935924E+03 -0.16695712839E+04  0.18260589282E+04  0.91619535867E+02 0.  0.
         23    2    4    4    0    0 -0.12142132882E+03  0.11191602978E+03 -0.45418709304E+03  0.49260690969E+03  0.95432254413E+02 0.  0.
          2    1    3    3  502    0 -0.17708981973E+03 -0.22452875109E+03 -0.53243406110E+03  0.60436743272E+03  0.00000000000E+00 0. -1.
         -2    1    3    3    0  502 -0.31706432658E+03 -0.28700663793E+03 -0.99267764152E+03  0.10808845902E+04  0.00000000000E+00 0.  1.
         11    1    5    5    0    0  0.39753723536E+03  0.20809888456E+03 -0.10520717899E+04  0.11437639837E+04  0.00000000000E+00 0.  1.
        -11    1    5    5    0    0  0.21803823977E+03  0.19152047468E+03 -0.61749949404E+03  0.68229494455E+03  0.00000000000E+00 0. -1.
          1    1    6    6  503    0 -0.11831221386E+02  0.73153269632E+02 -0.19210801178E+03  0.20590499471E+03  0.00000000000E+00 0. -1.
         -1    1    6    6    0  503 -0.10959010743E+03  0.38762760151E+02 -0.26207908126E+03  0.28670191498E+03  0.00000000000E+00 0.  1.
<mgrwt>
<rscale>  0 0.82144921E+03</rscale>
<asrwt>0</asrwt>
<pdfrwt beam="1">  1        2 0.58867604E+00 0.82144921E+03</pdfrwt>
<pdfrwt beam="2">  1       -2 0.27311366E-01 0.82144921E+03</pdfrwt>
<totfact> 0.61762596E+00</totfact>
</mgrwt>
</event>
<event>
12    1  0.1432447E-007  0.7704201E+03  0.7818608E-02  0.9603848E-01
         -2   -1    0    0    0  501 -0.00000000000E+00  0.00000000000E+00  0.29008912136E+03  0.29008912136E+03  0.00000000000E+00 0.  1.
          2   -1    0    0  501    0  0.00000000000E+00 -0.00000000000E+00 -0.27859696249E+04  0.27859696249E+04  0.00000000000E+00 0. -1.
         23    2    1    2    0    0 -0.54183870323E+02  0.75672434185E+03 -0.15241082567E+04  0.17050133910E+04  0.92720354693E+02 0.  0.
    5000000    2    1    2    0    0  0.54183870323E+02 -0.75672434185E+03 -0.97177224692E+03  0.13710453553E+04  0.59988035892E+03 0.  0.
         23    2    4    4    0    0  0.80706443989E+02 -0.55612619428E+03 -0.99728419786E+03  0.11483466205E+04  0.91292472407E+02 0.  0.
         23    2    4    4    0    0 -0.26522573667E+02 -0.20059814757E+03  0.25511950942E+02  0.22269873475E+03  0.89447208446E+02 0.  0.
          4    1    3    3  502    0  0.24385666816E+02  0.16368268993E+03 -0.30323674736E+03  0.34545507477E+03  0.00000000000E+00 0. -1.
         -4    1    3    3    0  502 -0.78569537138E+02  0.59304165192E+03 -0.12208715093E+04  0.13595583163E+04  0.00000000000E+00 0.  1.
         13    1    5    5    0    0  0.74593641701E+02 -0.52117457948E+03 -0.87658566711E+03  0.10225407500E+04  0.00000000000E+00 0.  1.
        -13    1    5    5    0    0  0.61128022886E+01 -0.34951614806E+02 -0.12069853075E+03  0.12580587051E+03  0.00000000000E+00 0. -1.
          1    1    6    6  503    0 -0.45926999872E+02 -0.18393569956E+03  0.39342647998E+02  0.19362198956E+03  0.00000000000E+00 0. -1.
         -1    1    6    6    0  503  0.19404426205E+02 -0.16662448007E+02 -0.13830697056E+02  0.29076745193E+02  0.00000000000E+00 0.  1.
<mgrwt>
<rscale>  0 0.77042011E+03</rscale>
<asrwt>0</asrwt>
<pdfrwt beam="1">  1        2 0.42861071E+00 0.77042011E+03</pdfrwt>
<pdfrwt beam="2">  1       -2 0.44629096E-01 0.77042011E+03</pdfrwt>
<totfact> 0.11816102E+01</totfact>
</mgrwt>
</event>
<event>
12    1  0.1432447E-007  0.1548977E+04  0.7818608E-02  0.8852521E-01
          2   -1    0    0  501    0  0.00000000000E+00  0.00000000000E+00  0.15383953903E+04  0.15383953903E+04  0.00000000000E+00 0.  1.
         -2   -1    0    0    0  501 -0.00000000000E+00 -0.00000000000E+00 -0.18838630517E+04  0.18838630517E+04  0.00000000000E+00 0. -1.
         23    2    1    2    0    0  0.51574681383E+03  0.14574737176E+04  0.40657905755E+03  0.16013315869E+04  0.93444676900E+02 0.  0.
    5000000    2    1    2    0    0 -0.51574681383E+03 -0.14574737176E+04 -0.75204671888E+03  0.18209268551E+04  0.59997994215E+03 0.  0.
         23    2    4    4    0    0 -0.32604567639E+03 -0.93327517742E+03 -0.16495057885E+03  0.10063432421E+04  0.90607326277E+02 0.  0.
         23    2    4    4    0    0 -0.18970113744E+03 -0.52419854016E+03 -0.58709614002E+03  0.81458361304E+03  0.89966404561E+02 0.  0.
          4    1    3    3  502    0  0.35668744042E+03  0.10144054572E+04  0.23807266368E+03  0.11013278145E+04  0.00000000000E+00 0.  1.
         -4    1    3    3    0  502  0.15905937341E+03  0.44306826036E+03  0.16850639387E+03  0.50000377237E+03  0.00000000000E+00 0. -1.
         11    1    5    5    0    0 -0.18522138859E+03 -0.65666162920E+03 -0.10863047679E+03  0.69087773053E+03  0.00000000000E+00 0. -1.
        -11    1    5    5    0    0 -0.14082428780E+03 -0.27661354822E+03 -0.56320102067E+02  0.31546551157E+03  0.00000000000E+00 0.  1.
          1    1    6    6  503    0 -0.19110727937E+03 -0.50452525602E+03 -0.53908815065E+03  0.76268195229E+03  0.00000000000E+00 0. -1.
         -1    1    6    6    0  503  0.14061419290E+01 -0.19673284143E+02 -0.48007989378E+02  0.51901660746E+02  0.00000000000E+00 0.  1.
<mgrwt>
<rscale>  0 0.15489769E+04</rscale>
<asrwt>0</asrwt>
<pdfrwt beam="1">  1        2 0.23667621E+00 0.15489769E+04</pdfrwt>
<pdfrwt beam="2">  1       -2 0.28982509E+00 0.15489769E+04</pdfrwt>
<totfact> 0.41440457E-01</totfact>
</mgrwt>
</event>
<event>
12    1  0.1432447E-007  0.5992872E+03  0.7818608E-02  0.9906886E-01
         -2   -1    0    0    0  501 -0.00000000000E+00  0.00000000000E+00  0.15224356500E+04  0.15224356500E+04  0.00000000000E+00 0.  1.
          2   -1    0    0  501    0  0.00000000000E+00 -0.00000000000E+00 -0.35721874154E+03  0.35721874154E+03  0.00000000000E+00 0. -1.
         23    2    1    2    0    0 -0.24382302107E+03  0.50934384197E+03  0.78772698856E+03  0.97347035361E+03  0.90828992542E+02 0.  0.
    5000000    2    1    2    0    0  0.24382302107E+03 -0.50934384197E+03  0.37748991994E+03  0.90618403797E+03  0.59982502119E+03 0.  0.
         23    2    4    4    0    0  0.14915833024E+03 -0.73935504568E+02  0.40863463459E+03  0.45054205179E+03  0.91056079027E+02 0.  0.
         23    2    4    4    0    0  0.94664690829E+02 -0.43540833740E+03 -0.31144714649E+02  0.45564198618E+03  0.89987789988E+02 0.  0.
          2    1    3    3  502    0 -0.68715924306E+02  0.94853305255E+02  0.11510029664E+03  0.16421664367E+03  0.00000000000E+00 0. -1.
         -2    1    3    3    0  502 -0.17510709676E+03  0.41449053672E+03  0.67262669192E+03  0.80925370994E+03  0.00000000000E+00 0.  1.
         11    1    5    5    0    0  0.61131272040E+02  0.12519885718E+02  0.96623765972E+02  0.11502144196E+03  0.00000000000E+00 0.  1.
        -11    1    5    5    0    0  0.88027058199E+02 -0.86455390286E+02  0.31201086862E+03  0.33552060983E+03  0.00000000000E+00 0. -1.
          1    1    6    6  503    0  0.28181370653E+02 -0.10834009810E+03 -0.47222959135E+02  0.12149804269E+03  0.00000000000E+00 0. -1.
         -1    1    6    6    0  503  0.66483320176E+02 -0.32706823931E+03  0.16078244486E+02  0.33414394349E+03  0.00000000000E+00 0.  1.
<mgrwt>
<rscale>  0 0.59928720E+03</rscale>
<asrwt>0</asrwt>
<pdfrwt beam="1">  1        2 0.54956730E-01 0.59928720E+03</pdfrwt>
<pdfrwt beam="2">  1       -2 0.23422087E+00 0.59928720E+03</pdfrwt>
<totfact> 0.75874670E+00</totfact>
</mgrwt>
</event>
<event>
12    1  0.1432447E-007  0.9801868E+03  0.7818608E-02  0.9330547E-01
         -2   -1    0    0    0  501 -0.00000000000E+00  0.00000000000E+00  0.94670511308E+03  0.94670511308E+03  0.00000000000E+00 0.  1.
          2   -1    0    0  501    0  0.00000000000E+00 -0.00000000000E+00 -0.11787933910E+04  0.11787933910E+04  0.00000000000E+00 0. -1.
         23    2    1    2    0    0  0.87212138108E+03  0.36474562076E+03  0.10670633882E+03  0.95572649059E+03  0.91606827617E+02 0.  0.
    5000000    2    1    2    0    0 -0.87212138108E+03 -0.36474562076E+03 -0.33879461670E+03  0.11697720134E+04  0.59995808181E+03 0.  0.
         23    2    4    4    0    0 -0.40679410604E+03 -0.34636914486E+03  0.66400961909E+02  0.54574689097E+03  0.89317143036E+02 0.  0.
         23    2    4    4    0    0 -0.46532727504E+03 -0.18376475897E+02 -0.40519557861E+03  0.62402512247E+03  0.91415145312E+02 0.  0.
          2    1    3    3  502    0  0.58198501141E+03  0.20113186542E+03  0.89088295523E+02  0.62217144357E+03  0.00000000000E+00 0. -1.
         -2    1    3    3    0  502  0.29013636967E+03  0.16361375534E+03  0.17618043296E+02  0.33355504702E+03  0.00000000000E+00 0.  1.
         11    1    5    5    0    0 -0.21094145324E+03 -0.13023442479E+03  0.54537329864E+02  0.25383384811E+03  0.00000000000E+00 0.  1.
        -11    1    5    5    0    0 -0.19585265280E+03 -0.21613472007E+03  0.11863632045E+02  0.29191304287E+03  0.00000000000E+00 0. -1.
          3    1    6    6  503    0 -0.42913959192E+03 -0.37931981369E+02 -0.38675759945E+03  0.57894824060E+03  0.00000000000E+00 0. -1.
         -3    1    6    6    0  503 -0.36187683117E+02  0.19555505472E+02 -0.18437979157E+02  0.45076881869E+02  0.00000000000E+00 0.  1.
<mgrwt>
<rscale>  0 0.98018679E+03</rscale>
<asrwt>0</asrwt>
<pdfrwt beam="1">  1        2 0.18135283E+00 0.98018679E+03</pdfrwt>
<pdfrwt beam="2">  1       -2 0.14564694E+00 0.98018679E+03</pdfrwt>
<totfact> 0.62754137E+00</totfact>
</mgrwt>
</event>
<event>
12    1  0.1432447E-007  0.5157803E+03  0.7818608E-02  0.1009740E+00
         -2   -1    0    0    0  501 -0.00000000000E+00  0.00000000000E+00  0.32654347475E+03  0.32654347475E+03  0.00000000000E+00 0. -1.
          2   -1    0    0  501    0  0.00000000000E+00 -0.00000000000E+00 -0.19682009911E+04  0.19682009911E+04  0.00000000000E+00 0.  1.
         23    2    1    2    0    0 -0.13975751981E+03  0.37515554263E+03  0.88972192948E+02  0.41981498781E+03  0.89748132939E+02 0.  0.
    5000000    2    1    2    0    0  0.13975751981E+03 -0.37515554263E+03 -0.17306297093E+04  0.18749294780E+04  0.60000625948E+03 0.  0.
         23    2    4    4    0    0 -0.16280153134E+03 -0.52537133853E+02 -0.19733667883E+03  0.27647543676E+03  0.90732647264E+02 0.  0.
         23    2    4    4    0    0  0.30255905115E+03 -0.32261840878E+03 -0.15332930304E+04  0.15984540413E+04  0.91886820057E+02 0.  0.
          3    1    3    3  502    0  0.39245953866E-01  0.10040756556E+03  0.38015012970E+02  0.10736303821E+03  0.00000000000E+00 0. -1.
         -3    1    3    3    0  502 -0.13979676576E+03  0.27474797707E+03  0.50957179977E+02  0.31245194960E+03  0.00000000000E+00 0.  1.
         11    1    5    5    0    0 -0.13832736503E+03 -0.32277658398E+02 -0.99015673284E+02  0.17314852210E+03  0.00000000000E+00 0. -1.
        -11    1    5    5    0    0 -0.24474166308E+02 -0.20259475455E+02 -0.98321005546E+02  0.10332691466E+03  0.00000000000E+00 0.  1.
          1    1    6    6  503    0  0.13149325319E+03 -0.86109754035E+02 -0.62218489633E+03  0.64173157207E+03  0.00000000000E+00 0. -1.
         -1    1    6    6    0  503  0.17106579796E+03 -0.23650865474E+03 -0.91110813411E+03  0.95672246918E+03  0.00000000000E+00 0.  1.
<mgrwt>
<rscale>  0 0.51578034E+03</rscale>
<asrwt>0</asrwt>
<pdfrwt beam="1">  1        2 0.30280015E+00 0.51578034E+03</pdfrwt>
<pdfrwt beam="2">  1       -2 0.50237458E-01 0.51578034E+03</pdfrwt>
<totfact> 0.27944357E+01</totfact>
</mgrwt>
</event>
<event>
12    1  0.1432447E-007  0.7625533E+03  0.7818608E-02  0.9615860E-01
         -2   -1    0    0    0  501 -0.00000000000E+00  0.00000000000E+00  0.50847199649E+03  0.50847199649E+03  0.00000000000E+00 0.  1.
          2   -1    0    0  501    0  0.00000000000E+00 -0.00000000000E+00 -0.14099305680E+04  0.14099305680E+04  0.00000000000E+00 0. -1.
         23    2    1    2    0    0 -0.13976527976E+03  0.72144006168E+03 -0.45730196780E+03  0.87075326871E+03  0.95268406028E+02 0.  0.
    5000000    2    1    2    0    0  0.13976527976E+03 -0.72144006168E+03 -0.44415660373E+03  0.10476492958E+04  0.60023650532E+03 0.  0.
         23    2    4    4    0    0 -0.37183083372E+02 -0.49239931073E+03 -0.53185584057E+03  0.73189810983E+03  0.94681281877E+02 0.  0.
         23    2    4    4    0    0  0.17694836314E+03 -0.22904075096E+03  0.87699236840E+02  0.31575118596E+03  0.90759387835E+02 0.  0.
          4    1    3    3  502    0 -0.96386783028E+02  0.31874672426E+03 -0.24533344387E+03  0.41361622895E+03  0.00000000000E+00 0. -1.
         -4    1    3    3    0  502 -0.43378496736E+02  0.40269333743E+03 -0.21196852393E+03  0.45713703976E+03  0.00000000000E+00 0.  1.
         11    1    5    5    0    0 -0.24007296762E+02 -0.12244793107E+03 -0.19430718453E+03  0.23092234210E+03  0.00000000000E+00 0. -1.
        -11    1    5    5    0    0 -0.13175786609E+02 -0.36995137966E+03 -0.33754865604E+03  0.50097576773E+03  0.00000000000E+00 0.  1.
          2    1    6    6  503    0  0.68608976867E+02 -0.12109349697E+03 -0.54635479797E+00  0.13918018975E+03  0.00000000000E+00 0. -1.
         -2    1    6    6    0  503  0.10833938627E+03 -0.10794725398E+03  0.88245591638E+02  0.17657099621E+03  0.00000000000E+00 0.  1.
<mgrwt>
<rscale>  0 0.76255328E+03</rscale>
<asrwt>0</asrwt>
<pdfrwt beam="1">  1        2 0.21691240E+00 0.76255328E+03</pdfrwt>
<pdfrwt beam="2">  1       -2 0.78226461E-01 0.76255328E+03</pdfrwt>
<totfact> 0.21194389E+01</totfact>
</mgrwt>
</event>
<event>
12    1  0.1432447E-007  0.4323055E+03  0.7818608E-02  0.1033134E+00
          1   -1    0    0  501    0  0.00000000000E+00  0.00000000000E+00  0.41342885259E+03  0.41342885259E+03  0.00000000000E+00 0. -1.
         -1   -1    0    0    0  501 -0.00000000000E+00 -0.00000000000E+00 -0.11877251597E+04  0.11877251597E+04  0.00000000000E+00 0.  1.
         23    2    1    2    0    0  0.79986020933E+02  0.21402468512E+03  0.27786595168E+03  0.36870022443E+03  0.80783903164E+02 0.  0.
    5000000    2    1    2    0    0 -0.79986020933E+02 -0.21402468512E+03 -0.10521622587E+04  0.12324537878E+04  0.59974377110E+03 0.  0.
         23    2    4    4    0    0 -0.24204957024E+03  0.92707435457E+02 -0.53479393151E+03  0.60302268929E+03  0.10222109163E+03 0.  0.
         23    2    4    4    0    0  0.16206354931E+03 -0.30673212057E+03 -0.51736832723E+03  0.62943109851E+03  0.90356703979E+02 0.  0.
          3    1    3    3  502    0  0.11176734699E+02  0.34795041892E+02  0.10196882058E+03  0.10832014913E+03  0.00000000000E+00 0. -1.
         -3    1    3    3    0  502  0.68809286235E+02  0.17922964322E+03  0.17589713111E+03  0.26038007530E+03  0.00000000000E+00 0.  1.
         13    1    5    5    0    0 -0.64092435842E+02  0.76494097366E+02 -0.20071337501E+03  0.22415406793E+03  0.00000000000E+00 0. -1.
        -13    1    5    5    0    0 -0.17795713440E+03  0.16213338091E+02 -0.33408055651E+03  0.37886862136E+03  0.00000000000E+00 0.  1.
          2    1    6    6  503    0  0.11463316442E+03 -0.12428159468E+03 -0.22247470361E+03  0.27943097700E+03  0.00000000000E+00 0. -1.
         -2    1    6    6    0  503  0.47430384885E+02 -0.18245052590E+03 -0.29489362361E+03  0.35000012151E+03  0.00000000000E+00 0.  1.
<mgrwt>
<rscale>  0 0.43230554E+03</rscale>
<asrwt>0</asrwt>
<pdfrwt beam="1">  1        1 0.63604439E-01 0.43230554E+03</pdfrwt>
<pdfrwt beam="2">  1       -1 0.18272695E+00 0.43230554E+03</pdfrwt>
<totfact> 0.12354483E+01</totfact>
</mgrwt>
</event>
<event>
12    1  0.1432447E-007  0.4176695E+03  0.7818608E-02  0.1037827E+00
         -2   -1    0    0    0  501 -0.00000000000E+00  0.00000000000E+00  0.64111769222E+03  0.64111769222E+03  0.00000000000E+00 0. -1.
          2   -1    0    0  501    0  0.00000000000E+00 -0.00000000000E+00 -0.64144384266E+03  0.64144384266E+03  0.00000000000E+00 0.  1.
         23    2    1    2    0    0  0.11568606599E+03  0.38424247628E+03 -0.29151603099E+03  0.50419367563E+03  0.90576596225E+02 0.  0.
    5000000    2    1    2    0    0 -0.11568606599E+03 -0.38424247628E+03  0.29118988055E+03  0.77836785924E+03  0.60003285854E+03 0.  0.
         23    2    4    4    0    0 -0.23179519785E+02 -0.11482955962E+03  0.42499826461E+03  0.45040093706E+03  0.92273296710E+02 0.  0.
         23    2    4    4    0    0 -0.92506546204E+02 -0.26941291667E+03 -0.13380838406E+03  0.32796692218E+03  0.92286714330E+02 0.  0.
          3    1    3    3  502    0  0.81477068431E+02  0.14578618368E+03 -0.15193445261E+03  0.22577909983E+03  0.00000000000E+00 0. -1.
         -3    1    3    3    0  502  0.34208997558E+02  0.23845629260E+03 -0.13958157838E+03  0.27841457580E+03  0.00000000000E+00 0.  1.
         13    1    5    5    0    0 -0.40246237640E+02 -0.18010762918E+02  0.20097786317E+03  0.20575774277E+03  0.00000000000E+00 0. -1.
        -13    1    5    5    0    0  0.17066717855E+02 -0.96818796697E+02  0.22402040143E+03  0.24464319429E+03  0.00000000000E+00 0.  1.
          4    1    6    6  503    0 -0.54362080637E+02 -0.14294793307E+03 -0.21216450754E+02  0.15440040532E+03  0.00000000000E+00 0.  1.
         -4    1    6    6    0  503 -0.38144465567E+02 -0.12646498360E+03 -0.11259193331E+03  0.17356651686E+03  0.00000000000E+00 0. -1.
<mgrwt>
<rscale>  0 0.41766954E+03</rscale>
<asrwt>0</asrwt>
<pdfrwt beam="1">  1        2 0.98683668E-01 0.41766954E+03</pdfrwt>
<pdfrwt beam="2">  1       -2 0.98633491E-01 0.41766954E+03</pdfrwt>
<totfact> 0.40854129E+01</totfact>
</mgrwt>
</event>
<event>
12    1  0.1432447E-007  0.5631668E+03  0.7818608E-02  0.9984915E-01
         -1   -1    0    0    0  501 -0.00000000000E+00  0.00000000000E+00  0.63304780677E+03  0.63304780677E+03  0.00000000000E+00 0.  1.
          1   -1    0    0  501    0  0.00000000000E+00 -0.00000000000E+00 -0.89603268995E+03  0.89603268995E+03  0.00000000000E+00 0. -1.
         23    2    1    2    0    0  0.23460581804E+03  0.43348674231E+03  0.28733640788E+03  0.57738689941E+03  0.88672288188E+02 0.  0.
    5000000    2    1    2    0    0 -0.23460581804E+03 -0.43348674231E+03 -0.55032129106E+03  0.95169359731E+03  0.59993044109E+03 0.  0.
         23    2    4    4    0    0 -0.10321067222E+03 -0.47781976174E+03 -0.15179526466E+03  0.51991640825E+03  0.91143302676E+02 0.  0.
         23    2    4    4    0    0 -0.13139514582E+03  0.44333019430E+02 -0.39852602640E+03  0.43177718906E+03  0.91533853394E+02 0.  0.
          2    1    3    3  502    0  0.76794195661E+02  0.21110289305E+03  0.96127680829E+02  0.24434056348E+03  0.00000000000E+00 0.  1.
         -2    1    3    3    0  502  0.15781162238E+03  0.22238384926E+03  0.19120872705E+03  0.33304633592E+03  0.00000000000E+00 0. -1.
         13    1    5    5    0    0 -0.58145324559E+02 -0.27886337918E+03 -0.41066537019E+02  0.28780570439E+03  0.00000000000E+00 0. -1.
        -13    1    5    5    0    0 -0.45065347661E+02 -0.19895638256E+03 -0.11072872764E+03  0.23211070386E+03  0.00000000000E+00 0.  1.
          3    1    6    6  503    0 -0.92376922270E+02  0.40758911208E+02 -0.36941437090E+03  0.38296443965E+03  0.00000000000E+00 0. -1.
         -3    1    6    6    0  503 -0.39018223554E+02  0.35741082216E+01 -0.29111655502E+02  0.48812749410E+02  0.00000000000E+00 0.  1.
<mgrwt>
<rscale>  0 0.56316680E+03</rscale>
<asrwt>0</asrwt>
<pdfrwt beam="1">  1        1 0.13785118E+00 0.56316680E+03</pdfrwt>
<pdfrwt beam="2">  1       -1 0.97391970E-01 0.56316680E+03</pdfrwt>
<totfact> 0.19585554E+01</totfact>
</mgrwt>
</event>
<event>
12    1  0.1432447E-007  0.4312780E+03  0.7818608E-02  0.1033457E+00
          4   -1    0    0  501    0  0.00000000000E+00  0.00000000000E+00  0.68204195634E+03  0.68204195634E+03  0.00000000000E+00 0. -1.
         -4   -1    0    0    0  501 -0.00000000000E+00 -0.00000000000E+00 -0.32191436774E+03  0.32191436774E+03  0.00000000000E+00 0.  1.
         23    2    1    2    0    0 -0.24622332347E+03  0.82710443187E+02  0.48656189619E+02  0.27990502630E+03  0.92262974821E+02 0.  0.
    5000000    2    1    2    0    0  0.24622332347E+03 -0.82710443187E+02  0.31147139898E+03  0.72405129778E+03  0.59980739158E+03 0.  0.
         23    2    4    4    0    0  0.25818343401E+03  0.18480799307E+03  0.29130542819E+03  0.44057274860E+03  0.91830356714E+02 0.  0.
         23    2    4    4    0    0 -0.11960110537E+02 -0.26751843625E+03  0.20165970795E+02  0.28347854918E+03  0.90797926680E+02 0.  0.
          3    1    3    3  502    0 -0.12699359711E+03  0.69400916803E+02  0.65328412038E+02  0.15878180746E+03  0.00000000000E+00 0. -1.
         -3    1    3    3    0  502 -0.11922972637E+03  0.13309526384E+02 -0.16672222419E+02  0.12112321884E+03  0.00000000000E+00 0.  1.
         13    1    5    5    0    0  0.25087369570E+03  0.14540104033E+03  0.24784276755E+03  0.38145132213E+03  0.00000000000E+00 0. -1.
        -13    1    5    5    0    0  0.73097383077E+01  0.39406952735E+02  0.43462660635E+02  0.59121426467E+02  0.00000000000E+00 0.  1.
          4    1    6    6  503    0 -0.11058829418E+02 -0.20518225259E+03  0.54122021508E+02  0.21248822955E+03  0.00000000000E+00 0. -1.
         -4    1    6    6    0  503 -0.90128111914E+00 -0.62336183664E+02 -0.33956050712E+02  0.70990319632E+02  0.00000000000E+00 0.  1.
<mgrwt>
<rscale>  0 0.43127804E+03</rscale>
<asrwt>0</asrwt>
<pdfrwt beam="1">  1        4 0.10492953E+00 0.43127804E+03</pdfrwt>
<pdfrwt beam="2">  1       -4 0.49525287E-01 0.43127804E+03</pdfrwt>
<totfact> 0.56046173E+00</totfact>
</mgrwt>
</event>
<event>
12    1  0.1432447E-007  0.4940877E+03  0.7818608E-02  0.1015334E+00
         -1   -1    0    0    0  501 -0.00000000000E+00  0.00000000000E+00  0.22817033253E+03  0.22817033253E+03  0.00000000000E+00 0.  1.
          1   -1    0    0  501    0  0.00000000000E+00 -0.00000000000E+00 -0.14826471678E+04  0.14826471678E+04  0.00000000000E+00 0. -1.
         23    2    1    2    0    0  0.13241177687E+03  0.35089625858E+03 -0.18351818165E+03  0.42723050514E+03  0.90476066376E+02 0.  0.
    5000000    2    1    2    0    0 -0.13241177687E+03 -0.35089625858E+03 -0.10709586536E+04  0.12835869952E+04  0.59998506108E+03 0.  0.
         23    2    4    4    0    0 -0.29624721569E+03 -0.28628830385E+03 -0.97807240393E+03  0.10646871387E+04  0.84909777238E+02 0.  0.
         23    2    4    4    0    0  0.16383543882E+03 -0.64607954728E+02 -0.92886249654E+02  0.21889985645E+03  0.90956324436E+02 0.  0.
          3    1    3    3  502    0  0.53843026550E+02  0.14840258231E+03 -0.12748871400E+03  0.20291813655E+03  0.00000000000E+00 0. -1.
         -3    1    3    3    0  502  0.78568750322E+02  0.20249367627E+03 -0.56029467649E+02  0.22431236859E+03  0.00000000000E+00 0.  1.
         13    1    5    5    0    0 -0.16665403323E+02 -0.40316962543E+02 -0.61902511958E+02  0.75730536267E+02  0.00000000000E+00 0. -1.
        -13    1    5    5    0    0 -0.27958181237E+03 -0.24597134131E+03 -0.91616989198E+03  0.98895660244E+03  0.00000000000E+00 0.  1.
          2    1    6    6  503    0  0.14724204230E+03 -0.18873942448E+02 -0.59667566868E+02  0.15998957235E+03  0.00000000000E+00 0.  1.
         -2    1    6    6    0  503  0.16593396512E+02 -0.45734012280E+02 -0.33218682786E+02  0.58910284102E+02  0.00000000000E+00 0. -1.
<mgrwt>
<rscale>  0 0.49408766E+03</rscale>
<asrwt>0</asrwt>
<pdfrwt beam="1">  1        1 0.22809957E+00 0.49408766E+03</pdfrwt>
<pdfrwt beam="2">  1       -1 0.35103126E-01 0.49408766E+03</pdfrwt>
<totfact> 0.55156543E+01</totfact>
</mgrwt>
</event>
<event>
12    1  0.1432447E-007  0.9993807E+03  0.7818608E-02  0.9309224E-01
         -1   -1    0    0    0  501 -0.00000000000E+00  0.00000000000E+00  0.49555259766E+03  0.49555259766E+03  0.00000000000E+00 0.  1.
          1   -1    0    0  501    0  0.00000000000E+00 -0.00000000000E+00 -0.22876256542E+04  0.22876256542E+04  0.00000000000E+00 0. -1.
         23    2    1    2    0    0  0.57129662587E+03 -0.74313868787E+03 -0.46129786766E+03  0.10484933287E+04  0.88924650837E+02 0.  0.
    5000000    2    1    2    0    0 -0.57129662587E+03  0.74313868787E+03 -0.13307751888E+04  0.17346849231E+04  0.59961173693E+03 0.  0.
         23    2    4    4    0    0  0.24142776061E+02  0.33795298846E+03 -0.24025663271E+03  0.42458835062E+03  0.88073389135E+02 0.  0.
         23    2    4    4    0    0 -0.59543940193E+03  0.40518569940E+03 -0.10905185561E+04  0.13100965725E+04  0.91644833971E+02 0.  0.
          2    1    3    3  502    0  0.20483910341E+03 -0.31314915938E+03 -0.14734939005E+03  0.40216078508E+03  0.00000000000E+00 0. -1.
         -2    1    3    3    0  502  0.36645752246E+03 -0.42998952848E+03 -0.31394847761E+03  0.64633254364E+03  0.00000000000E+00 0.  1.
         11    1    5    5    0    0  0.69186115436E+00  0.14168797032E+03 -0.50038397790E+02  0.15026576742E+03  0.00000000000E+00 0.  1.
        -11    1    5    5    0    0  0.23450914907E+02  0.19626501814E+03 -0.19021823492E+03  0.27432258320E+03  0.00000000000E+00 0. -1.
          1    1    6    6  503    0 -0.18828759133E+03  0.13180337631E+03 -0.42809519104E+03  0.48589076926E+03  0.00000000000E+00 0. -1.
         -1    1    6    6    0  503 -0.40715181061E+03  0.27338232309E+03 -0.66242336508E+03  0.82420580322E+03  0.00000000000E+00 0.  1.
<mgrwt>
<rscale>  0 0.99938068E+03</rscale>
<asrwt>0</asrwt>
<pdfrwt beam="1">  1        1 0.35194241E+00 0.99938068E+03</pdfrwt>
<pdfrwt beam="2">  1       -1 0.76238862E-01 0.99938068E+03</pdfrwt>
<totfact> 0.33294417E+00</totfact>
</mgrwt>
</event>
<event>
12    1  0.1432447E-007  0.4871966E+03  0.7818608E-02  0.1017176E+00
         -2   -1    0    0    0  501 -0.00000000000E+00  0.00000000000E+00  0.15784321744E+03  0.15784321744E+03  0.00000000000E+00 0.  1.
          2   -1    0    0  501    0  0.00000000000E+00 -0.00000000000E+00 -0.19007408777E+04  0.19007408777E+04  0.00000000000E+00 0. -1.
         23    2    1    2    0    0  0.37614525990E+03  0.24562368330E+02 -0.52021034932E+03  0.64541006870E+03  0.62022437555E+02 0.  0.
    5000000    2    1    2    0    0 -0.37614525990E+03 -0.24562368330E+02 -0.12226873109E+04  0.14131740264E+04  0.60000666844E+03 0.  0.
         23    2    4    4    0    0 -0.17466850703E+03 -0.23454482758E+03 -0.25358626473E+03  0.39730126888E+03  0.89565289612E+02 0.  0.
         23    2    4    4    0    0 -0.20147675287E+03  0.20998245925E+03 -0.96910104621E+03  0.10158727576E+04  0.90305629062E+02 0.  0.
          3    1    3    3  502    0  0.19622446285E+03 -0.73416093283E+01 -0.22948140737E+03  0.30202591839E+03  0.00000000000E+00 0. -1.
         -3    1    3    3    0  502  0.17992079705E+03  0.31903977658E+02 -0.29072894194E+03  0.34338415031E+03  0.00000000000E+00 0.  1.
         11    1    5    5    0    0  0.81876147424E+01 -0.85554670533E+01 -0.47786314391E+00  0.11851641441E+02  0.00000000000E+00 0. -1.
        -11    1    5    5    0    0 -0.18285612177E+03 -0.22598936052E+03 -0.25310840159E+03  0.38544962744E+03  0.00000000000E+00 0.  1.
          4    1    6    6  503    0 -0.97942234458E+02  0.79208153680E+02 -0.28264315828E+03  0.30944105710E+03  0.00000000000E+00 0.  1.
         -4    1    6    6    0  503 -0.10353451841E+03  0.13077430557E+03 -0.68645788794E+03  0.70643170046E+03  0.00000000000E+00 0. -1.
<mgrwt>
<rscale>  0 0.48719655E+03</rscale>
<asrwt>0</asrwt>
<pdfrwt beam="1">  1        2 0.29242167E+00 0.48719655E+03</pdfrwt>
<pdfrwt beam="2">  1       -2 0.24283572E-01 0.48719655E+03</pdfrwt>
<totfact> 0.12112726E+02</totfact>
</mgrwt>
</event>
<event>
12    1  0.1432447E-007  0.9155291E+03  0.7818608E-02  0.9406375E-01
          2   -1    0    0  501    0  0.00000000000E+00  0.00000000000E+00  0.21841284479E+04  0.21841284479E+04  0.00000000000E+00 0.  1.
         -2   -1    0    0    0  501 -0.00000000000E+00 -0.00000000000E+00 -0.51601459432E+03  0.51601459432E+03  0.00000000000E+00 0. -1.
         23    2    1    2    0    0  0.32117969893E+03 -0.81304869848E+03  0.13169440352E+04  0.15832751743E+04  0.90631676758E+02 0.  0.
    5000000    2    1    2    0    0 -0.32117969893E+03  0.81304869848E+03  0.35116981841E+03  0.11168678679E+04  0.59989082992E+03 0.  0.
         23    2    4    4    0    0 -0.31368926535E+03  0.27117995898E+03 -0.61575371562E+02  0.42880627334E+03  0.90242829766E+02 0.  0.
         23    2    4    4    0    0 -0.74904335709E+01  0.54186873949E+03  0.41274518997E+03  0.68806159452E+03  0.96914026740E+02 0.  0.
          3    1    3    3  502    0  0.80994333043E+01 -0.22886769630E+02  0.15234388143E+02  0.28661675214E+02  0.00000000000E+00 0. -1.
         -3    1    3    3    0  502  0.31308026562E+03 -0.79016192885E+03  0.13017096470E+04  0.15546134991E+04  0.00000000000E+00 0.  1.
         11    1    5    5    0    0 -0.48508987336E+02  0.49183311368E+02 -0.45255984464E+02  0.82584648085E+02  0.00000000000E+00 0. -1.
        -11    1    5    5    0    0 -0.26518027802E+03  0.22199664762E+03 -0.16319387097E+02  0.34622162526E+03  0.00000000000E+00 0.  1.
          3    1    6    6  503    0 -0.53939717731E+01  0.23947253151E+03  0.12306076871E+03  0.26929563879E+03  0.00000000000E+00 0. -1.
         -3    1    6    6    0  503 -0.20964617978E+01  0.30239620799E+03  0.28968442126E+03  0.41876595573E+03  0.00000000000E+00 0.  1.
<mgrwt>
<rscale>  0 0.91552914E+03</rscale>
<asrwt>0</asrwt>
<pdfrwt beam="1">  1        2 0.33601976E+00 0.91552914E+03</pdfrwt>
<pdfrwt beam="2">  1       -2 0.79386862E-01 0.91552914E+03</pdfrwt>
<totfact> 0.75287823E+00</totfact>
</mgrwt>
</event>
<event>
12    1  0.1432447E-007  0.8938414E+03  0.7818608E-02  0.9433313E-01
          2   -1    0    0  501    0  0.00000000000E+00  0.00000000000E+00  0.15396593219E+04  0.15396593219E+04  0.00000000000E+00 0.  1.
         -2   -1    0    0    0  501 -0.00000000000E+00 -0.00000000000E+00 -0.59634659053E+03  0.59634659053E+03  0.00000000000E+00 0. -1.
         23    2    1    2    0    0 -0.53748669907E+03  0.64410036502E+03  0.20675924164E+03  0.86871791260E+03  0.90355939308E+02 0.  0.
    5000000    2    1    2    0    0  0.53748669907E+03 -0.64410036502E+03  0.73655348976E+03  0.12672879999E+04  0.59979213018E+03 0.  0.
         23    2    4    4    0    0  0.43319357268E+03 -0.19726033077E+03  0.61417450762E+03  0.78321484873E+03  0.98218450172E+02 0.  0.
         23    2    4    4    0    0  0.10429312639E+03 -0.44684003425E+03  0.12237898215E+03  0.48407315114E+03  0.93846299642E+02 0.  0.
          4    1    3    3  502    0 -0.77209943138E+02  0.55421789206E+02  0.39768873436E+02  0.10302676027E+03  0.00000000000E+00 0. -1.
         -4    1    3    3    0  502 -0.46027675593E+03  0.58867857581E+03  0.16699036821E+03  0.76569115232E+03  0.00000000000E+00 0.  1.
         11    1    5    5    0    0  0.24449596538E+03 -0.16095708877E+03  0.39671424187E+03  0.49301891567E+03  0.00000000000E+00 0.  1.
        -11    1    5    5    0    0  0.18869760730E+03 -0.36303242001E+02  0.21746026575E+03  0.29019593305E+03  0.00000000000E+00 0. -1.
          2    1    6    6  503    0  0.34399064032E+02 -0.23310337079E+03  0.18465079676E+02  0.23635024064E+03  0.00000000000E+00 0. -1.
         -2    1    6    6    0  503  0.69894062356E+02 -0.21373666346E+03  0.10391390247E+03  0.24772291050E+03  0.00000000000E+00 0.  1.
<mgrwt>
<rscale>  0 0.89384138E+03</rscale>
<asrwt>0</asrwt>
<pdfrwt beam="1">  1        2 0.23687066E+00 0.89384138E+03</pdfrwt>
<pdfrwt beam="2">  1       -2 0.91745630E-01 0.89384138E+03</pdfrwt>
<totfact> 0.12278815E+01</totfact>
</mgrwt>
</event>
<event>
12    1  0.1432447E-007  0.1064323E+04  0.7818608E-02  0.9240680E-01
          2   -1    0    0  501    0  0.00000000000E+00  0.00000000000E+00  0.18970345412E+04  0.18970345412E+04  0.00000000000E+00 0. -1.
         -2   -1    0    0    0  501 -0.00000000000E+00 -0.00000000000E+00 -0.95390529310E+03  0.95390529310E+03  0.00000000000E+00 0.  1.
         23    2    1    2    0    0 -0.88619033432E+03  0.54424409525E+03 -0.33601508597E+03  0.10965668762E+04  0.89542347870E+02 0.  0.
    5000000    2    1    2    0    0  0.88619033432E+03 -0.54424409525E+03  0.12791443341E+04  0.17543729581E+04  0.60006608385E+03 0.  0.
         23    2    4    4    0    0  0.50812703671E+03 -0.46200537655E+03  0.11366048327E+04  0.13311538308E+04  0.91966961237E+02 0.  0.
         23    2    4    4    0    0  0.37806329760E+03 -0.82238718696E+02  0.14253950134E+03  0.42321912737E+03  0.95403650265E+02 0.  0.
          1    1    3    3  502    0 -0.32806124355E+03  0.17708969877E+03 -0.16009399164E+03  0.40572777461E+03  0.00000000000E+00 0. -1.
         -1    1    3    3    0  502 -0.55812909076E+03  0.36715439648E+03 -0.17592109433E+03  0.69083910156E+03  0.00000000000E+00 0.  1.
         11    1    5    5    0    0  0.33474454450E+03 -0.25813539096E+03  0.63943075599E+03  0.76652428653E+03  0.00000000000E+00 0. -1.
        -11    1    5    5    0    0  0.17338249221E+03 -0.20386998559E+03  0.49717407673E+03  0.56462954422E+03  0.00000000000E+00 0.  1.
          4    1    6    6  503    0  0.26113673714E+03 -0.12820672665E+02  0.10830082165E+03  0.28299440471E+03  0.00000000000E+00 0.  1.
         -4    1    6    6    0  503  0.11692656047E+03 -0.69418046030E+02  0.34238679686E+02  0.14022472266E+03  0.00000000000E+00 0. -1.
<mgrwt>
<rscale>  0 0.10643228E+04</rscale>
<asrwt>0</asrwt>
<pdfrwt beam="1">  1        2 0.29185147E+00 0.10643228E+04</pdfrwt>
<pdfrwt beam="2">  1       -2 0.14675466E+00 0.10643228E+04</pdfrwt>
<totfact> 0.23916856E+00</totfact>
</mgrwt>
</event>
<event>
12    1  0.1432447E-007  0.1061116E+04  0.7818608E-02  0.9243942E-01
         -2   -1    0    0    0  501 -0.00000000000E+00  0.00000000000E+00  0.16373844485E+04  0.16373844485E+04  0.00000000000E+00 0.  1.
          2   -1    0    0  501    0  0.00000000000E+00 -0.00000000000E+00 -0.10909555168E+04  0.10909555168E+04  0.00000000000E+00 0. -1.
         23    2    1    2    0    0  0.44666976947E+03  0.95098432111E+03 -0.46380748348E+03  0.11520563452E+04  0.90726946373E+02 0.  0.
    5000000    2    1    2    0    0 -0.44666976947E+03 -0.95098432111E+03  0.10102364152E+04  0.15762836202E+04  0.60017278727E+03 0.  0.
         23    2    4    4    0    0 -0.88881539272E+02 -0.33596485124E+03  0.27469047615E+02  0.35982887071E+03  0.89162538838E+02 0.  0.
         23    2    4    4    0    0 -0.35778823020E+03 -0.61501946987E+03  0.98276736761E+03  0.12164547494E+04  0.87573355657E+02 0.  0.
          1    1    3    3  502    0  0.20152852867E+03  0.37920423820E+03 -0.14678681584E+03  0.45382372287E+03  0.00000000000E+00 0. -1.
         -1    1    3    3    0  502  0.24514124080E+03  0.57178008290E+03 -0.31702066764E+03  0.69823262231E+03  0.00000000000E+00 0.  1.
         13    1    5    5    0    0 -0.86968747348E+02 -0.15466483799E+03  0.11288952223E+02  0.17779824400E+03  0.00000000000E+00 0. -1.
        -13    1    5    5    0    0 -0.19127919238E+01 -0.18130001325E+03  0.16180095392E+02  0.18203062672E+03  0.00000000000E+00 0.  1.
          4    1    6    6  503    0 -0.32560539564E+03 -0.57244106598E+03  0.86508576543E+03  0.10872354985E+04  0.00000000000E+00 0. -1.
         -4    1    6    6    0  503 -0.32182834561E+02 -0.42578403884E+02  0.11768160218E+03  0.12921925092E+03  0.00000000000E+00 0.  1.
<mgrwt>
<rscale>  0 0.10611157E+04</rscale>
<asrwt>0</asrwt>
<pdfrwt beam="1">  1        2 0.16783931E+00 0.10611157E+04</pdfrwt>
<pdfrwt beam="2">  1       -2 0.25190530E+00 0.10611157E+04</pdfrwt>
<totfact> 0.13655919E+00</totfact>
</mgrwt>
</event>
<event>
12    1  0.1432447E-007  0.9454465E+03  0.7818608E-02  0.9370489E-01
         -2   -1    0    0    0  501 -0.00000000000E+00  0.00000000000E+00  0.44658716276E+03  0.44658716276E+03  0.00000000000E+00 0.  1.
          2   -1    0    0  501    0  0.00000000000E+00 -0.00000000000E+00 -0.24083850513E+04  0.24083850513E+04  0.00000000000E+00 0. -1.
         23    2    1    2    0    0 -0.55412987006E+03 -0.72627571001E+03 -0.55225194611E+03  0.10713430832E+04  0.90870623189E+02 0.  0.
    5000000    2    1    2    0    0  0.55412987006E+03  0.72627571001E+03 -0.14095459424E+04  0.17836291308E+04  0.59998066025E+03 0.  0.
         23    2    4    4    0    0  0.17247064617E+03  0.26687470988E+02 -0.45981403576E+02  0.20165922060E+03  0.89965587186E+02 0.  0.
         23    2    4    4    0    0  0.38165922388E+03  0.69958823903E+03 -0.13635645388E+04  0.15819699102E+04  0.90736309720E+02 0.  0.
          2    1    3    3  502    0 -0.43534595298E+03 -0.55193442766E+03 -0.38068199880E+03  0.79942260127E+03  0.00000000000E+00 0. -1.
         -2    1    3    3    0  502 -0.11878391708E+03 -0.17434128236E+03 -0.17156994732E+03  0.27192048196E+03  0.00000000000E+00 0.  1.
         13    1    5    5    0    0  0.14346829551E+03  0.11983802013E+02 -0.71102750389E+02  0.16056887756E+03  0.00000000000E+00 0. -1.
        -13    1    5    5    0    0  0.29002350661E+02  0.14703668976E+02  0.25121346813E+02  0.41090343037E+02  0.00000000000E+00 0.  1.
          1    1    6    6  503    0  0.13607822383E+03  0.17875709166E+03 -0.33913497608E+03  0.40679713964E+03  0.00000000000E+00 0. -1.
         -1    1    6    6    0  503  0.24558100005E+03  0.52083114737E+03 -0.10244295627E+04  0.11751727706E+04  0.00000000000E+00 0.  1.
<mgrwt>
<rscale>  0 0.94544649E+03</rscale>
<asrwt>0</asrwt>
<pdfrwt beam="1">  1        2 0.37052078E+00 0.94544649E+03</pdfrwt>
<pdfrwt beam="2">  1       -2 0.68705718E-01 0.94544649E+03</pdfrwt>
<totfact> 0.77385919E+00</totfact>
</mgrwt>
</event>
<event>
12    1  0.1432447E-007  0.6279145E+03  0.7818608E-02  0.9849127E-01
         -2   -1    0    0    0  501 -0.00000000000E+00  0.00000000000E+00  0.26707333072E+03  0.26707333072E+03  0.00000000000E+00 0.  1.
          2   -1    0    0  501    0  0.00000000000E+00 -0.00000000000E+00 -0.16892622132E+04  0.16892622132E+04  0.00000000000E+00 0. -1.
         23    2    1    2    0    0  0.11778822998E+03  0.47648148857E+03 -0.26449196493E+03  0.56338338466E+03  0.80846536894E+02 0.  0.
    5000000    2    1    2    0    0 -0.11778822998E+03 -0.47648148857E+03 -0.11576969175E+04  0.13929521592E+04  0.59928698383E+03 0.  0.
         23    2    4    4    0    0 -0.34874561669E+03 -0.25654009651E+03 -0.63374738828E+03  0.77287157083E+03  0.90875665396E+02 0.  0.
         23    2    4    4    0    0  0.23095738671E+03 -0.21994139205E+03 -0.52394952925E+03  0.62008058841E+03  0.90891674557E+02 0.  0.
          4    1    3    3  502    0  0.50019773133E+02  0.20870946345E+03 -0.70691334926E+02  0.22596212663E+03  0.00000000000E+00 0. -1.
         -4    1    3    3    0  502  0.67768456846E+02  0.26777202511E+03 -0.19380063000E+03  0.33742125802E+03  0.00000000000E+00 0.  1.
         11    1    5    5    0    0 -0.28964686874E+03 -0.24089565402E+03 -0.50206825675E+03  0.62769304531E+03  0.00000000000E+00 0.  1.
        -11    1    5    5    0    0 -0.59098747948E+02 -0.15644442495E+02 -0.13167913154E+03  0.14517852552E+03  0.00000000000E+00 0. -1.
          2    1    6    6  503    0  0.21709715265E+03 -0.17126667611E+03 -0.40076142719E+03  0.48690160152E+03  0.00000000000E+00 0.  1.
         -2    1    6    6    0  503  0.13860234060E+02 -0.48674715939E+02 -0.12318810207E+03  0.13317898689E+03  0.00000000000E+00 0. -1.
<mgrwt>
<rscale>  0 0.62791455E+03</rscale>
<asrwt>0</asrwt>
<pdfrwt beam="1">  1        2 0.25988649E+00 0.62791455E+03</pdfrwt>
<pdfrwt beam="2">  1       -2 0.41088205E-01 0.62791455E+03</pdfrwt>
<totfact> 0.57946434E+01</totfact>
</mgrwt>
</event>
<event>
12    1  0.1432447E-007  0.5657484E+03  0.7818608E-02  0.9979131E-01
          1   -1    0    0  501    0  0.00000000000E+00  0.00000000000E+00  0.51823405694E+03  0.51823405694E+03  0.00000000000E+00 0. -1.
         -1   -1    0    0    0  501 -0.00000000000E+00 -0.00000000000E+00 -0.69844739099E+03  0.69844739099E+03  0.00000000000E+00 0.  1.
         23    2    1    2    0    0  0.38147135869E+03 -0.16849305305E+03 -0.22878508473E+03  0.48446320462E+03  0.91932993060E+02 0.  0.
    5000000    2    1    2    0    0 -0.38147135869E+03  0.16849305305E+03  0.48571750672E+02  0.73221824330E+03  0.59989501951E+03 0.  0.
         23    2    4    4    0    0 -0.30566381726E+03 -0.17254895714E+03 -0.29632198030E+02  0.36248879561E+03  0.85536822421E+02 0.  0.
         23    2    4    4    0    0 -0.75807541430E+02  0.34104201018E+03  0.78203948703E+02  0.36972944769E+03  0.92344847442E+02 0.  0.
          3    1    3    3  502    0  0.58715245107E+02 -0.86118804348E+00 -0.58470980372E+02  0.82867829695E+02  0.00000000000E+00 0. -1.
         -3    1    3    3    0  502  0.32275611359E+03 -0.16763186500E+03 -0.17031410436E+03  0.40159537493E+03  0.00000000000E+00 0.  1.
         13    1    5    5    0    0 -0.33357589102E+02  0.36813501896E+01  0.11628112473E+02  0.35517518066E+02  0.00000000000E+00 0. -1.
        -13    1    5    5    0    0 -0.27230622816E+03 -0.17623030733E+03 -0.41260310503E+02  0.32697127754E+03  0.00000000000E+00 0.  1.
          3    1    6    6  503    0 -0.20503561553E+02  0.38590294271E+02  0.41174662357E+02  0.60041316346E+02  0.00000000000E+00 0. -1.
         -3    1    6    6    0  503 -0.55303979877E+02  0.30245171591E+03  0.37029286345E+02  0.30968813135E+03  0.00000000000E+00 0.  1.
<mgrwt>
<rscale>  0 0.56574836E+03</rscale>
<asrwt>0</asrwt>
<pdfrwt beam="1">  1        1 0.79728317E-01 0.56574836E+03</pdfrwt>
<pdfrwt beam="2">  1       -1 0.10745344E+00 0.56574836E+03</pdfrwt>
<totfact> 0.35499178E+01</totfact>
</mgrwt>
</event>
<event>
12    1  0.1432447E-007  0.9361546E+03  0.7818608E-02  0.9381482E-01
          2   -1    0    0  501    0  0.00000000000E+00  0.00000000000E+00  0.48072050578E+03  0.48072050578E+03  0.00000000000E+00 0. -1.
         -2   -1    0    0    0  501 -0.00000000000E+00 -0.00000000000E+00 -0.18858598744E+04  0.18858598744E+04  0.00000000000E+00 0.  1.
         23    2    1    2    0    0 -0.28643766303E+03  0.80138801883E+03 -0.73453661648E+03  0.11280589539E+04  0.93293467232E+02 0.  0.
    5000000    2    1    2    0    0  0.28643766303E+03 -0.80138801883E+03 -0.67060275217E+03  0.12385214263E+04  0.59996498284E+03 0.  0.
         23    2    4    4    0    0  0.98169069712E+02  0.60143704675E+02 -0.15773108911E+03  0.21434667906E+03  0.88379697282E+02 0.  0.
         23    2    4    4    0    0  0.18826859332E+03 -0.86153172350E+03 -0.51287166306E+03  0.10241747472E+04  0.90634409932E+02 0.  0.
          1    1    3    3  502    0 -0.22997706942E+03  0.58844981173E+03 -0.49491254210E+03  0.80255906805E+03  0.00000000000E+00 0. -1.
         -1    1    3    3    0  502 -0.56460593610E+02  0.21293820710E+03 -0.23962407438E+03  0.32549988586E+03  0.00000000000E+00 0.  1.
         11    1    5    5    0    0  0.10375913162E+03  0.36953932566E+02 -0.89041751765E+02  0.14163327323E+03  0.00000000000E+00 0. -1.
        -11    1    5    5    0    0 -0.55900619130E+01  0.23189772109E+02 -0.68689337349E+02  0.72713405835E+02  0.00000000000E+00 0.  1.
          3    1    6    6  503    0  0.14303958211E+03 -0.44936788183E+03 -0.25993058334E+03  0.53847536938E+03  0.00000000000E+00 0. -1.
         -3    1    6    6    0  503  0.45229011207E+02 -0.41216384167E+03 -0.25294107972E+03  0.48569937785E+03  0.00000000000E+00 0.  1.
<mgrwt>
<rscale>  0 0.93615463E+03</rscale>
<asrwt>0</asrwt>
<pdfrwt beam="1">  1        2 0.73957000E-01 0.93615463E+03</pdfrwt>
<pdfrwt beam="2">  1       -2 0.29013229E+00 0.93615463E+03</pdfrwt>
<totfact> 0.23853366E+00</totfact>
</mgrwt>
</event>
<event>
12    1  0.1432447E-007  0.1091109E+04  0.7818608E-02  0.9213901E-01
          2   -1    0    0  501    0  0.00000000000E+00  0.00000000000E+00  0.22458605077E+04  0.22458605077E+04  0.00000000000E+00 0. -1.
         -2   -1    0    0    0  501 -0.00000000000E+00 -0.00000000000E+00 -0.13972493741E+04  0.13972493741E+04  0.00000000000E+00 0.  1.
         23    2    1    2    0    0 -0.53085124976E+03 -0.87982334581E+03  0.18299031912E+04  0.21007642046E+04  0.93661011265E+02 0.  0.
    5000000    2    1    2    0    0  0.53085124976E+03  0.87982334581E+03 -0.98129205760E+03  0.15423456771E+04  0.60000326345E+03 0.  0.
         23    2    4    4    0    0  0.29817750933E+03  0.84355259040E+03 -0.91060689717E+03  0.12800889163E+04  0.94508796768E+02 0.  0.
         23    2    4    4    0    0  0.23267374043E+03  0.36270755414E+02 -0.70685160434E+02  0.26225676079E+03  0.91266529952E+02 0.  0.
          3    1    3    3  502    0 -0.44784825620E+03 -0.67388117449E+03  0.14042999559E+04  0.16207227598E+04  0.00000000000E+00 0. -1.
         -3    1    3    3    0  502 -0.83002993561E+02 -0.20594217132E+03  0.42560323530E+03  0.48004144484E+03  0.00000000000E+00 0.  1.
         13    1    5    5    0    0  0.15626593716E+03  0.31233511445E+03 -0.37639925182E+03  0.51346729556E+03  0.00000000000E+00 0. -1.
        -13    1    5    5    0    0  0.14191157217E+03  0.53121747594E+03 -0.53420764535E+03  0.76662162076E+03  0.00000000000E+00 0.  1.
          1    1    6    6  503    0  0.10102035896E+03  0.60994328947E+02 -0.42061044352E+02  0.12527790125E+03  0.00000000000E+00 0. -1.
         -1    1    6    6    0  503  0.13165338146E+03 -0.24723573533E+02 -0.28624116082E+02  0.13697885954E+03  0.00000000000E+00 0.  1.
<mgrwt>
<rscale>  0 0.10911087E+04</rscale>
<asrwt>0</asrwt>
<pdfrwt beam="1">  1        2 0.34551700E+00 0.10911087E+04</pdfrwt>
<pdfrwt beam="2">  1       -2 0.21496144E+00 0.10911087E+04</pdfrwt>
<totfact> 0.51191384E-01</totfact>
</mgrwt>
</event>
<event>
12    1  0.1432447E-007  0.5045160E+03  0.7818608E-02  0.1012607E+00
         -1   -1    0    0    0  501 -0.00000000000E+00  0.00000000000E+00  0.10633018780E+04  0.10633018780E+04  0.00000000000E+00 0.  1.
          1   -1    0    0  501    0  0.00000000000E+00 -0.00000000000E+00 -0.27172712789E+03  0.27172712789E+03  0.00000000000E+00 0. -1.
         23    2    1    2    0    0 -0.14773059555E+03  0.30197717391E+03  0.10685090571E+03  0.36455619164E+03  0.92030203684E+02 0.  0.
    5000000    2    1    2    0    0  0.14773059555E+03 -0.30197717391E+03  0.68472384437E+03  0.97047281421E+03  0.59996349693E+03 0.  0.
         23    2    4    4    0    0  0.36092530847E+03 -0.18856368025E+03  0.33190718047E+03  0.53320813845E+03  0.91242548508E+02 0.  0.
         23    2    4    4    0    0 -0.21319471292E+03 -0.11341349366E+03  0.35281666389E+03  0.43726467576E+03  0.91685288808E+02 0.  0.
          1    1    3    3  502    0 -0.31976337050E+02  0.15561200263E+03  0.25123142698E+02  0.16083766285E+03  0.00000000000E+00 0. -1.
         -1    1    3    3    0  502 -0.11575425850E+03  0.14636517128E+03  0.81727763013E+02  0.20371852879E+03  0.00000000000E+00 0.  1.
         13    1    5    5    0    0  0.28028073025E+03 -0.16414161962E+03  0.21663774318E+03  0.39042498743E+03  0.00000000000E+00 0.  1.
        -13    1    5    5    0    0  0.80644578220E+02 -0.24422060633E+02  0.11526943729E+03  0.14278315102E+03  0.00000000000E+00 0. -1.
          3    1    6    6  503    0 -0.12859416702E+03 -0.22932769159E+02  0.21835021323E+03  0.25443896579E+03  0.00000000000E+00 0. -1.
         -3    1    6    6    0  503 -0.84600545902E+02 -0.90480724497E+02  0.13446645066E+03  0.18282570997E+03  0.00000000000E+00 0.  1.
<mgrwt>
<rscale>  0 0.50451604E+03</rscale>
<asrwt>0</asrwt>
<pdfrwt beam="1">  1        1 0.41804174E-01 0.50451604E+03</pdfrwt>
<pdfrwt beam="2">  1       -1 0.16358490E+00 0.50451604E+03</pdfrwt>
<totfact> 0.28813762E+01</totfact>
</mgrwt>
</event>
<event>
12    1  0.1432447E-007  0.5056032E+03  0.7818608E-02  0.1012327E+00
          2   -1    0    0  501    0  0.00000000000E+00  0.00000000000E+00  0.13446899887E+04  0.13446899887E+04  0.00000000000E+00 0.  1.
         -2   -1    0    0    0  501 -0.00000000000E+00 -0.00000000000E+00 -0.23567865106E+03  0.23567865106E+03  0.00000000000E+00 0. -1.
         23    2    1    2    0    0  0.24816920460E+03 -0.27218696245E+03  0.19901009044E+03  0.42977741263E+03  0.97107732288E+02 0.  0.
    5000000    2    1    2    0    0 -0.24816920460E+03  0.27218696245E+03  0.91000124724E+03  0.11505912272E+04  0.60007016708E+03 0.  0.
         23    2    4    4    0    0 -0.33546907421E+03  0.72531204661E+01  0.25054194394E+03  0.42891347061E+03  0.92754472049E+02 0.  0.
         23    2    4    4    0    0  0.87299869616E+02  0.26493384199E+03  0.65945930329E+03  0.72167775656E+03  0.90116611945E+02 0.  0.
          2    1    3    3  502    0  0.18487092745E+03 -0.16185139894E+03  0.17147644159E+03  0.29962861208E+03  0.00000000000E+00 0. -1.
         -2    1    3    3    0  502  0.63298277143E+02 -0.11033556351E+03  0.27533648844E+02  0.13014880055E+03  0.00000000000E+00 0.  1.
         11    1    5    5    0    0 -0.34107439443E+03  0.53429522365E+01  0.24092110199E+03  0.41761617193E+03  0.00000000000E+00 0. -1.
        -11    1    5    5    0    0  0.56053202214E+01  0.19101682295E+01  0.96208419524E+01  0.11297298674E+02  0.00000000000E+00 0.  1.
          3    1    6    6  503    0  0.36231076265E+02  0.22081843560E+03  0.53896657514E+03  0.58357385266E+03  0.00000000000E+00 0. -1.
         -3    1    6    6    0  503  0.51068793351E+02  0.44115406383E+02  0.12049272815E+03  0.13810390390E+03  0.00000000000E+00 0.  1.
<mgrwt>
<rscale>  0 0.50560317E+03</rscale>
<asrwt>0</asrwt>
<pdfrwt beam="1">  1        2 0.20687538E+00 0.50560317E+03</pdfrwt>
<pdfrwt beam="2">  1       -2 0.36258255E-01 0.50560317E+03</pdfrwt>
<totfact> 0.11602340E+02</totfact>
</mgrwt>
</event>
<event>
12    1  0.1432447E-007  0.4829723E+03  0.7818608E-02  0.1018321E+00
          1   -1    0    0  501    0  0.00000000000E+00  0.00000000000E+00  0.11573355057E+04  0.11573355057E+04  0.00000000000E+00 0. -1.
         -1   -1    0    0    0  501 -0.00000000000E+00 -0.00000000000E+00 -0.27746940657E+03  0.27746940657E+03  0.00000000000E+00 0.  1.
         23    2    1    2    0    0  0.30567111658E+03 -0.24432196216E+03  0.43224316922E+03  0.59016271358E+03  0.91267839098E+02 0.  0.
    5000000    2    1    2    0    0 -0.30567111658E+03  0.24432196216E+03  0.44762292987E+03  0.84464219864E+03  0.59993841658E+03 0.  0.
         23    2    4    4    0    0 -0.31611354509E+02 -0.11034983284E+03  0.34663293048E+03  0.37631573508E+03  0.91009783177E+02 0.  0.
         23    2    4    4    0    0 -0.27405976207E+03  0.35467179500E+03  0.10098999939E+03  0.46832646357E+03  0.90718582155E+02 0.  0.
          1    1    3    3  502    0  0.14065550692E+03 -0.85406747716E+02  0.12368428529E+03  0.20585452779E+03  0.00000000000E+00 0. -1.
         -1    1    3    3    0  502  0.16501560966E+03 -0.15891521445E+03  0.30855888393E+03  0.38430818579E+03  0.00000000000E+00 0.  1.
         13    1    5    5    0    0 -0.28981687977E+02 -0.74266240789E+02  0.10420229800E+03  0.13120034935E+03  0.00000000000E+00 0. -1.
        -13    1    5    5    0    0 -0.26296665320E+01 -0.36083592049E+02  0.24243063247E+03  0.24511538573E+03  0.00000000000E+00 0.  1.
          2    1    6    6  503    0 -0.19214599217E+03  0.17917794015E+03  0.43487982260E+02  0.26630062175E+03  0.00000000000E+00 0. -1.
         -2    1    6    6    0  503 -0.81913769901E+02  0.17549385485E+03  0.57502017130E+02  0.20202584182E+03  0.00000000000E+00 0.  1.
<mgrwt>
<rscale>  0 0.48297235E+03</rscale>
<asrwt>0</asrwt>
<pdfrwt beam="1">  1        1 0.17805161E+00 0.48297235E+03</pdfrwt>
<pdfrwt beam="2">  1       -1 0.42687602E-01 0.48297235E+03</pdfrwt>
<totfact> 0.65565861E+01</totfact>
</mgrwt>
</event>
<event>
12    1  0.1432447E-007  0.5183758E+03  0.7818608E-02  0.1009091E+00
         -2   -1    0    0    0  501 -0.00000000000E+00  0.00000000000E+00  0.30762015935E+03  0.30762015935E+03  0.00000000000E+00 0.  1.
          2   -1    0    0  501    0  0.00000000000E+00 -0.00000000000E+00 -0.16288967019E+04  0.16288967019E+04  0.00000000000E+00 0. -1.
         23    2    1    2    0    0  0.39127735230E+03  0.29030592165E+02 -0.11233320629E+04  0.11934382966E+04  0.92083128147E+02 0.  0.
    5000000    2    1    2    0    0 -0.39127735230E+03 -0.29030592165E+02 -0.19794447966E+03  0.74307856469E+03  0.59920196476E+03 0.  0.
         23    2    4    4    0    0  0.79764697053E+02 -0.11108493061E+03 -0.19679886140E+03  0.25659679368E+03  0.91705255992E+02 0.  0.
         23    2    4    4    0    0 -0.47104204935E+03  0.82054338446E+02 -0.11456182609E+01  0.48648177101E+03  0.89719977543E+02 0.  0.
          4    1    3    3  502    0  0.24019594493E+03  0.37632645750E+02 -0.80601392455E+03  0.84188405055E+03  0.00000000000E+00 0.  1.
         -4    1    3    3    0  502  0.15108140737E+03 -0.86020535853E+01 -0.31731813835E+03  0.35155424603E+03  0.00000000000E+00 0. -1.
         13    1    5    5    0    0  0.58380700831E+02 -0.12475660194E+03 -0.15213938357E+03  0.20522891607E+03  0.00000000000E+00 0. -1.
        -13    1    5    5    0    0  0.21383996221E+02  0.13671671325E+02 -0.44659477828E+02  0.51367877619E+02  0.00000000000E+00 0.  1.
          4    1    6    6  503    0 -0.11460231540E+03  0.33825739833E+02 -0.36807012364E+02  0.12503050640E+03  0.00000000000E+00 0. -1.
         -4    1    6    6    0  503 -0.35643973395E+03  0.48228598613E+02  0.35661394103E+02  0.36145126461E+03  0.00000000000E+00 0.  1.
<mgrwt>
<rscale>  0 0.51837583E+03</rscale>
<asrwt>0</asrwt>
<pdfrwt beam="1">  1        2 0.25059949E+00 0.51837583E+03</pdfrwt>
<pdfrwt beam="2">  1       -2 0.47326178E-01 0.51837583E+03</pdfrwt>
<totfact> 0.48002407E+01</totfact>
</mgrwt>
</event>
<event>
12    1  0.1432447E-007  0.8787474E+03  0.7818608E-02  0.9452545E-01
         -2   -1    0    0    0  501 -0.00000000000E+00  0.00000000000E+00  0.73002023974E+03  0.73002023974E+03  0.00000000000E+00 0.  1.
          2   -1    0    0  501    0  0.00000000000E+00 -0.00000000000E+00 -0.15339688547E+04  0.15339688547E+04  0.00000000000E+00 0. -1.
         23    2    1    2    0    0  0.30172874713E+03 -0.74666331164E+03  0.20929989592E+03  0.83714184519E+03  0.91943921706E+02 0.  0.
    5000000    2    1    2    0    0 -0.30172874713E+03  0.74666331164E+03 -0.10132485109E+04  0.14268472492E+04  0.60056156230E+03 0.  0.
         23    2    4    4    0    0 -0.12620507331E+03  0.75834258489E+03 -0.93580634755E+03  0.12144429923E+04  0.90150234548E+02 0.  0.
         23    2    4    4    0    0 -0.17552367382E+03 -0.11679273244E+02 -0.77442163313E+02  0.21240425697E+03  0.90406383762E+02 0.  0.
          1    1    3    3  502    0  0.11171947312E+03 -0.34507606088E+03  0.13323674346E+03  0.38640750287E+03  0.00000000000E+00 0. -1.
         -1    1    3    3    0  502  0.19000927401E+03 -0.40158725077E+03  0.76063152458E+02  0.45073434232E+03  0.00000000000E+00 0.  1.
         11    1    5    5    0    0  0.38488477973E+01  0.22501429165E+03 -0.27747767353E+03  0.35726755294E+03  0.00000000000E+00 0. -1.
        -11    1    5    5    0    0 -0.13005392111E+03  0.53332829324E+03 -0.65832867402E+03  0.85717543934E+03  0.00000000000E+00 0.  1.
          3    1    6    6  503    0 -0.74933534872E+02 -0.12196058617E+02  0.13128860389E+02  0.77046385180E+02  0.00000000000E+00 0. -1.
         -3    1    6    6    0  503 -0.10059013895E+03  0.51678537238E+00 -0.90571023702E+02  0.13535787179E+03  0.00000000000E+00 0.  1.
<mgrwt>
<rscale>  0 0.87874743E+03</rscale>
<asrwt>0</asrwt>
<pdfrwt beam="1">  1        2 0.23599521E+00 0.87874743E+03</pdfrwt>
<pdfrwt beam="2">  1       -2 0.11231081E+00 0.87874743E+03</pdfrwt>
<totfact> 0.76511519E+00</totfact>
</mgrwt>
</event>
<event>
12    1  0.1432447E-007  0.8706305E+03  0.7818608E-02  0.9463058E-01
          2   -1    0    0  501    0  0.00000000000E+00  0.00000000000E+00  0.16191897137E+04  0.16191897137E+04  0.00000000000E+00 0. -1.
         -2   -1    0    0    0  501 -0.00000000000E+00 -0.00000000000E+00 -0.62146293353E+03  0.62146293353E+03  0.00000000000E+00 0.  1.
         23    2    1    2    0    0 -0.53738388717E+03  0.59787171697E+03 -0.22553216271E+02  0.80983960558E+03  0.95391336381E+02 0.  0.
    5000000    2    1    2    0    0  0.53738388717E+03 -0.59787171697E+03  0.10202799964E+04  0.14308130416E+04  0.60001888040E+03 0.  0.
         23    2    4    4    0    0 -0.67431783545E+02 -0.10799088726E+03  0.16209690531E+02  0.15702657426E+03  0.90473829330E+02 0.  0.
         23    2    4    4    0    0  0.60481567071E+03 -0.48988082971E+03  0.10040703059E+04  0.12737864673E+04  0.92679892133E+02 0.  0.
          1    1    3    3  502    0 -0.65991176943E+02  0.11152131602E+03  0.20356459195E+02  0.13117250014E+03  0.00000000000E+00 0. -1.
         -1    1    3    3    0  502 -0.47139271022E+03  0.48635040095E+03 -0.42909675466E+02  0.67866710544E+03  0.00000000000E+00 0.  1.
         13    1    5    5    0    0  0.18296334397E+02 -0.31097562093E+02 -0.12773606462E+02  0.38275047257E+02  0.00000000000E+00 0.  1.
        -13    1    5    5    0    0 -0.85728117942E+02 -0.76893325168E+02  0.28983296993E+02  0.11875152700E+03  0.00000000000E+00 0. -1.
          2    1    6    6  503    0  0.44413596188E+03 -0.40660601999E+03  0.79414206353E+03  0.99661769259E+03  0.00000000000E+00 0. -1.
         -2    1    6    6    0  503  0.16067970883E+03 -0.83274809719E+02  0.20992824234E+03  0.27716877475E+03  0.00000000000E+00 0.  1.
<mgrwt>
<rscale>  0 0.87063049E+03</rscale>
<asrwt>0</asrwt>
<pdfrwt beam="1">  1        2 0.24910611E+00 0.87063049E+03</pdfrwt>
<pdfrwt beam="2">  1       -2 0.95609682E-01 0.87063049E+03</pdfrwt>
<totfact> 0.10099855E+01</totfact>
</mgrwt>
</event>
<event>
12    1  0.1432447E-007  0.3354165E+03  0.7818608E-02  0.1068765E+00
          2   -1    0    0  501    0  0.00000000000E+00  0.00000000000E+00  0.37840418161E+04  0.37840418161E+04  0.00000000000E+00 0. -1.
         -2   -1    0    0    0  501 -0.00000000000E+00 -0.00000000000E+00 -0.64274753647E+02  0.64274753647E+02  0.00000000000E+00 0.  1.
         23    2    1    2    0    0 -0.17032276016E+03  0.15322643614E+03  0.40263161439E+03  0.46957869539E+03  0.76835869900E+02 0.  0.
    5000000    2    1    2    0    0  0.17032276016E+03 -0.15322643614E+03  0.33171354480E+04  0.33787378743E+04  0.59999488284E+03 0.  0.
         23    2    4    4    0    0  0.34093561858E+02 -0.24705698612E+03  0.29847488947E+04  0.29963655515E+04  0.85328943215E+02 0.  0.
         23    2    4    4    0    0  0.13622919830E+03  0.93830549979E+02  0.33238655331E+03  0.38237232278E+03  0.91461499178E+02 0.  0.
          2    1    3    3  502    0 -0.32669008296E+02  0.66890092938E+02  0.86416148269E+02  0.11405831543E+03  0.00000000000E+00 0.  1.
         -2    1    3    3    0  502 -0.13765375186E+03  0.86336343199E+02  0.31621546612E+03  0.35552037997E+03  0.00000000000E+00 0. -1.
         11    1    5    5    0    0  0.50681944321E+02 -0.17384646492E+03  0.17520365728E+04  0.17613697526E+04  0.00000000000E+00 0. -1.
        -11    1    5    5    0    0 -0.16588382463E+02 -0.73210521195E+02  0.12327123219E+04  0.12349957989E+04  0.00000000000E+00 0.  1.
          2    1    6    6  503    0  0.11232538293E+03  0.10275731344E+03  0.31921183351E+03  0.35365555526E+03  0.00000000000E+00 0. -1.
         -2    1    6    6    0  503  0.23903815370E+02 -0.89267634572E+01  0.13174719796E+02  0.28716767519E+02  0.00000000000E+00 0.  1.
<mgrwt>
<rscale>  0 0.33541655E+03</rscale>
<asrwt>0</asrwt>
<pdfrwt beam="1">  1        2 0.58216011E+00 0.33541655E+03</pdfrwt>
<pdfrwt beam="2">  1       -2 0.98884266E-02 0.33541655E+03</pdfrwt>
<totfact> 0.42598205E+01</totfact>
</mgrwt>
</event>
<event>
12    1  0.1432447E-007  0.7589809E+03  0.7818608E-02  0.9621365E-01
         -2   -1    0    0    0  501 -0.00000000000E+00  0.00000000000E+00  0.98372171120E+03  0.98372171120E+03  0.00000000000E+00 0.  1.
          2   -1    0    0  501    0  0.00000000000E+00 -0.00000000000E+00 -0.97994038042E+03  0.97994038042E+03  0.00000000000E+00 0. -1.
         23    2    1    2    0    0  0.50487656654E+03 -0.54005977173E+03  0.49349761319E+03  0.89296725932E+03  0.85356473211E+02 0.  0.
    5000000    2    1    2    0    0 -0.50487656654E+03  0.54005977173E+03 -0.48971628241E+03  0.10706948323E+04  0.60000040180E+03 0.  0.
         23    2    4    4    0    0 -0.10589005012E+03  0.26406999419E+03  0.85198555181E+02  0.31280785062E+03  0.98205361654E+02 0.  0.
         23    2    4    4    0    0 -0.39898651642E+03  0.27598977755E+03 -0.57491483759E+03  0.75788698168E+03  0.92222605256E+02 0.  0.
          2    1    3    3  502    0  0.20937410977E+03 -0.27338764821E+03  0.19787075302E+03  0.39715382276E+03  0.00000000000E+00 0.  1.
         -2    1    3    3    0  502  0.29550245677E+03 -0.26667212352E+03  0.29562686017E+03  0.49581343656E+03  0.00000000000E+00 0. -1.
         13    1    5    5    0    0 -0.38515001284E+02  0.91345297617E+02 -0.17799957657E+02  0.10071845518E+03  0.00000000000E+00 0. -1.
        -13    1    5    5    0    0 -0.67375048837E+02  0.17272469657E+03  0.10299851284E+03  0.21208939544E+03  0.00000000000E+00 0.  1.
          3    1    6    6  503    0 -0.25904285295E+02  0.45909165083E+02 -0.89394147183E+02  0.10377859599E+03  0.00000000000E+00 0. -1.
         -3    1    6    6    0  503 -0.37308223112E+03  0.23008061246E+03 -0.48552069041E+03  0.65410838568E+03  0.00000000000E+00 0.  1.
<mgrwt>
<rscale>  0 0.75898089E+03</rscale>
<asrwt>0</asrwt>
<pdfrwt beam="1">  1        2 0.15076006E+00 0.75898089E+03</pdfrwt>
<pdfrwt beam="2">  1       -2 0.15134180E+00 0.75898089E+03</pdfrwt>
<totfact> 0.77241716E+00</totfact>
</mgrwt>
</event>
<event>
12    1  0.1432447E-007  0.6648209E+03  0.7818608E-02  0.9779359E-01
          1   -1    0    0  501    0  0.00000000000E+00  0.00000000000E+00  0.98037202829E+03  0.98037202829E+03  0.00000000000E+00 0. -1.
         -1   -1    0    0    0  501 -0.00000000000E+00 -0.00000000000E+00 -0.65279835153E+03  0.65279835153E+03  0.00000000000E+00 0.  1.
         23    2    1    2    0    0  0.33447779034E+03 -0.44235835056E+03 -0.26725586000E+03  0.62249626544E+03  0.92301696833E+02 0.  0.
    5000000    2    1    2    0    0 -0.33447779034E+03  0.44235835056E+03  0.59482953676E+03  0.10106741144E+04  0.60006973357E+03 0.  0.
         23    2    4    4    0    0 -0.41941105701E+03  0.13245553396E+03  0.19403522454E+03  0.48939426238E+03  0.91689543981E+02 0.  0.
         23    2    4    4    0    0  0.84933266670E+02  0.30990281661E+03  0.40079431222E+03  0.52127985200E+03  0.88561774299E+02 0.  0.
          4    1    3    3  502    0  0.21033827107E+03 -0.27665891140E+03 -0.11710011093E+03  0.36673529625E+03  0.00000000000E+00 0. -1.
         -4    1    3    3    0  502  0.12413951926E+03 -0.16569943917E+03 -0.15015574907E+03  0.25576096919E+03  0.00000000000E+00 0.  1.
         13    1    5    5    0    0 -0.16630442092E+03  0.20392008747E+02  0.38619894172E+02  0.17194327747E+03  0.00000000000E+00 0.  1.
        -13    1    5    5    0    0 -0.25310663608E+03  0.11206352521E+03  0.15541533037E+03  0.31745098492E+03  0.00000000000E+00 0. -1.
          4    1    6    6  503    0 -0.19609135008E+01  0.13869665956E+03  0.20072089243E+03  0.24398664966E+03  0.00000000000E+00 0. -1.
         -4    1    6    6    0  503  0.86894180170E+02  0.17120615705E+03  0.20007341980E+03  0.27729320235E+03  0.00000000000E+00 0.  1.
<mgrwt>
<rscale>  0 0.66482093E+03</rscale>
<asrwt>0</asrwt>
<pdfrwt beam="1">  1        1 0.15082647E+00 0.66482093E+03</pdfrwt>
<pdfrwt beam="2">  1       -1 0.10043052E+00 0.66482093E+03</pdfrwt>
<totfact> 0.15421797E+01</totfact>
</mgrwt>
</event>
<event>
12    1  0.1663421E-007  0.1174592E+04  0.7818608E-02  0.9135392E-01
          2   -1    0    0  501    0  0.00000000000E+00  0.00000000000E+00  0.15345638273E+04  0.15345638273E+04  0.00000000000E+00 0. -1.
         -2   -1    0    0    0  501 -0.00000000000E+00 -0.00000000000E+00 -0.10024146245E+04  0.10024146245E+04  0.00000000000E+00 0.  1.
         23    2    1    2    0    0  0.79586938531E+03 -0.82270323268E+03  0.47723041781E+03  0.12434754900E+04  0.90739931296E+02 0.  0.
    5000000    2    1    2    0    0 -0.79586938531E+03  0.82270323268E+03  0.54918784968E+02  0.12935029618E+04  0.59990428548E+03 0.  0.
         23    2    4    4    0    0 -0.69721053833E+03  0.49365897639E+03 -0.16656299004E+03  0.87506660545E+03  0.90535156639E+02 0.  0.
         23    2    4    4    0    0 -0.98658846976E+02  0.32904425628E+03  0.22148177501E+03  0.41843635636E+03  0.89616499489E+02 0.  0.
          1    1    3    3  502    0  0.44688351632E+03 -0.49001816401E+03  0.31981391998E+03  0.73627686479E+03  0.00000000000E+00 0. -1.
         -1    1    3    3    0  502  0.34898586899E+03 -0.33268506866E+03  0.15741649783E+03  0.50719862525E+03  0.00000000000E+00 0.  1.
         13    1    5    5    0    0 -0.18531593572E+03  0.16161400342E+03 -0.81312325768E+02  0.25898412394E+03  0.00000000000E+00 0.  1.
        -13    1    5    5    0    0 -0.51189460261E+03  0.33204497298E+03 -0.85250664276E+02  0.61608248151E+03  0.00000000000E+00 0. -1.
          1    1    6    6  503    0 -0.96618023613E+02  0.23985292802E+03  0.12560987955E+03  0.28747575795E+03  0.00000000000E+00 0. -1.
         -1    1    6    6    0  503 -0.20408233629E+01  0.89191328266E+02  0.95871895457E+02  0.13096059841E+03  0.00000000000E+00 0.  1.
<mgrwt>
<rscale>  0 0.11745918E+04</rscale>
<asrwt>0</asrwt>
<pdfrwt beam="1">  1        2 0.23608674E+00 0.11745918E+04</pdfrwt>
<pdfrwt beam="2">  1       -2 0.15421763E+00 0.11745918E+04</pdfrwt>
<totfact> 0.32899768E+00</totfact>
</mgrwt>
</event>
<event>
12    1  0.1432447E-007  0.6465019E+03  0.7818608E-02  0.9813365E-01
          2   -1    0    0  501    0  0.00000000000E+00  0.00000000000E+00  0.18508287164E+04  0.18508287164E+04  0.00000000000E+00 0. -1.
         -2   -1    0    0    0  501 -0.00000000000E+00 -0.00000000000E+00 -0.32769928555E+03  0.32769928555E+03  0.00000000000E+00 0.  1.
         23    2    1    2    0    0  0.57836525381E+03  0.14335562346E+03  0.25325593845E+03  0.65273035543E+03  0.82832028563E+02 0.  0.
    5000000    2    1    2    0    0 -0.57836525381E+03 -0.14335562346E+03  0.12698734924E+04  0.15257976466E+04  0.60035203828E+03 0.  0.
         23    2    4    4    0    0 -0.51574152576E+03  0.13234414933E+02  0.47155779979E+03  0.70485424651E+03  0.91039986542E+02 0.  0.
         23    2    4    4    0    0 -0.62623728046E+02 -0.15659003839E+03  0.79831569264E+03  0.82094340004E+03  0.90542528783E+02 0.  0.
          1    1    3    3  502    0  0.28555606275E+03  0.57265896355E+02  0.81103989482E+02  0.30232351045E+03  0.00000000000E+00 0. -1.
         -1    1    3    3    0  502  0.29280919105E+03  0.86089727106E+02  0.17215194897E+03  0.35040684499E+03  0.00000000000E+00 0.  1.
         11    1    5    5    0    0 -0.27091216892E+03 -0.27574789596E+02  0.28638613612E+03  0.39518450280E+03  0.00000000000E+00 0.  1.
        -11    1    5    5    0    0 -0.24482935684E+03  0.40809204528E+02  0.18517166367E+03  0.30966974371E+03  0.00000000000E+00 0. -1.
          1    1    6    6  503    0 -0.71992356989E+01 -0.85957321599E+02  0.55355673739E+03  0.56023704951E+03  0.00000000000E+00 0. -1.
         -1    1    6    6    0  503 -0.55424492347E+02 -0.70632716796E+02  0.24475895525E+03  0.26070635053E+03  0.00000000000E+00 0.  1.
<mgrwt>
<rscale>  0 0.64650192E+03</rscale>
<asrwt>0</asrwt>
<pdfrwt beam="1">  1        2 0.28474287E+00 0.64650192E+03</pdfrwt>
<pdfrwt beam="2">  1       -2 0.50415276E-01 0.64650192E+03</pdfrwt>
<totfact> 0.31409575E+01</totfact>
</mgrwt>
</event>
<event>
12    1  0.1432447E-007  0.3037745E+04  0.7818608E-02  0.8233034E-01
          2   -1    0    0  501    0  0.00000000000E+00  0.00000000000E+00  0.38946076022E+04  0.38946076022E+04  0.00000000000E+00 0.  1.
         -2   -1    0    0    0  501 -0.00000000000E+00 -0.00000000000E+00 -0.24349552854E+04  0.24349552854E+04  0.00000000000E+00 0. -1.
         23    2    1    2    0    0 -0.29328193171E+04 -0.70705347895E+03  0.26532353877E+03  0.30298986601E+04  0.92387992524E+02 0.  0.
    5000000    2    1    2    0    0  0.29328193171E+04  0.70705347895E+03  0.11943287780E+04  0.32996642276E+04  0.60000751299E+03 0.  0.
         23    2    4    4    0    0  0.46202452737E+03  0.30472588551E+03  0.11751824763E+03  0.57295976520E+03  0.90265302437E+02 0.  0.
         23    2    4    4    0    0  0.24707947898E+04  0.40232759344E+03  0.10768105304E+04  0.27267044624E+04  0.93284088424E+02 0.  0.
          1    1    3    3  502    0 -0.87232626135E+03 -0.24130482935E+03  0.10945141251E+03  0.91168017342E+03  0.00000000000E+00 0. -1.
         -1    1    3    3    0  502 -0.20604930558E+04 -0.46574864960E+03  0.15587212626E+03  0.21182184867E+04  0.00000000000E+00 0.  1.
         11    1    5    5    0    0  0.73035360513E+02  0.51901771839E+02 -0.14141207862E+02  0.90707946537E+02  0.00000000000E+00 0. -1.
        -11    1    5    5    0    0  0.38898916686E+03  0.25282411367E+03  0.13165945549E+03  0.48225181867E+03  0.00000000000E+00 0.  1.
          4    1    6    6  503    0  0.21229910175E+04  0.31988551695E+03  0.94510225157E+03  0.23457697821E+04  0.00000000000E+00 0. -1.
         -4    1    6    6    0  503  0.34780377223E+03  0.82442076489E+02  0.13170827885E+03  0.38093468032E+03  0.00000000000E+00 0.  1.
<mgrwt>
<rscale>  0 0.30377445E+04</rscale>
<asrwt>0</asrwt>
<pdfrwt beam="1">  1        2 0.59917040E+00 0.30377445E+04</pdfrwt>
<pdfrwt beam="2">  1       -2 0.37460851E+00 0.30377445E+04</pdfrwt>
<totfact> 0.35609165E-03</totfact>
</mgrwt>
</event>
<event>
12    1  0.1432447E-007  0.6263423E+03  0.7818608E-02  0.9852213E-01
          2   -1    0    0  501    0  0.00000000000E+00  0.00000000000E+00  0.21466153446E+04  0.21466153446E+04  0.00000000000E+00 0.  1.
         -2   -1    0    0    0  501 -0.00000000000E+00 -0.00000000000E+00 -0.20612752327E+03  0.20612752327E+03  0.00000000000E+00 0. -1.
         23    2    1    2    0    0 -0.31179345367E+03 -0.37504679617E+03  0.42958562222E+03  0.65543763072E+03  0.84731481029E+02 0.  0.
    5000000    2    1    2    0    0  0.31179345367E+03  0.37504679617E+03  0.15109021992E+04  0.16973052372E+04  0.60012028439E+03 0.  0.
         23    2    4    4    0    0  0.26460070855E+02  0.45301460584E+03  0.87350905626E+03  0.98861789315E+03  0.91787247709E+02 0.  0.
         23    2    4    4    0    0  0.28533338281E+03 -0.77967809670E+02  0.63739314290E+03  0.70868734405E+03  0.92052236827E+02 0.  0.
          3    1    3    3  502    0 -0.10170353654E+03 -0.18287347966E+03  0.20323021715E+03  0.29169991442E+03  0.00000000000E+00 0. -1.
         -3    1    3    3    0  502 -0.21008991713E+03 -0.19217331652E+03  0.22635540506E+03  0.36373771630E+03  0.00000000000E+00 0.  1.
         13    1    5    5    0    0  0.57110480719E+02  0.21071192228E+03  0.39109240096E+03  0.44789997465E+03  0.00000000000E+00 0.  1.
        -13    1    5    5    0    0 -0.30650409864E+02  0.24230268356E+03  0.48241665530E+03  0.54071791851E+03  0.00000000000E+00 0. -1.
          1    1    6    6  503    0  0.10989846438E+03 -0.37477485421E+02  0.35751747520E+03  0.37590022540E+03  0.00000000000E+00 0. -1.
         -1    1    6    6    0  503  0.17543491844E+03 -0.40490324249E+02  0.27987566770E+03  0.33278711865E+03  0.00000000000E+00 0.  1.
<mgrwt>
<rscale>  0 0.62634230E+03</rscale>
<asrwt>0</asrwt>
<pdfrwt beam="1">  1        2 0.33024850E+00 0.62634230E+03</pdfrwt>
<pdfrwt beam="2">  1       -2 0.31711928E-01 0.62634230E+03</pdfrwt>
<totfact> 0.53661562E+01</totfact>
</mgrwt>
</event>
<event>
12    1  0.1432447E-007  0.1184993E+04  0.7818608E-02  0.9126094E-01
          2   -1    0    0  501    0  0.00000000000E+00  0.00000000000E+00  0.12425572461E+04  0.12425572461E+04  0.00000000000E+00 0. -1.
         -2   -1    0    0    0  501 -0.00000000000E+00 -0.00000000000E+00 -0.11963703854E+04  0.11963703854E+04  0.00000000000E+00 0.  1.
         23    2    1    2    0    0 -0.44541523057E+03 -0.10492372752E+04 -0.70329146553E+02  0.11456261614E+04  0.90661599013E+02 0.  0.
    5000000    2    1    2    0    0  0.44541523057E+03  0.10492372752E+04  0.11651600724E+03  0.12933014701E+04  0.59979923755E+03 0.  0.
         23    2    4    4    0    0  0.46655237905E+03  0.56053769463E+03  0.25256076885E+03  0.77726389263E+03  0.92079244863E+02 0.  0.
         23    2    4    4    0    0 -0.21137148477E+02  0.48869958059E+03 -0.13604476161E+03  0.51603757749E+03  0.92263454910E+02 0.  0.
          1    1    3    3  502    0 -0.13890428128E+03 -0.42371068683E+03 -0.43170809943E+01  0.44591903153E+03  0.00000000000E+00 0. -1.
         -1    1    3    3    0  502 -0.30651094929E+03 -0.62552658838E+03 -0.66012065559E+02  0.69970712988E+03  0.00000000000E+00 0.  1.
         11    1    5    5    0    0  0.33459723221E+03  0.45495331755E+03  0.21392987726E+03  0.60390712973E+03  0.00000000000E+00 0. -1.
        -11    1    5    5    0    0  0.13195514684E+03  0.10558437708E+03  0.38630891593E+02  0.17335676291E+03  0.00000000000E+00 0.  1.
          2    1    6    6  503    0  0.24309030788E+02  0.20592934767E+03 -0.24984613334E+02  0.20885893831E+03  0.00000000000E+00 0. -1.
         -2    1    6    6    0  503 -0.45446179265E+02  0.28277023292E+03 -0.11106014828E+03  0.30717863918E+03  0.00000000000E+00 0.  1.
<mgrwt>
<rscale>  0 0.11849930E+04</rscale>
<asrwt>0</asrwt>
<pdfrwt beam="1">  1        2 0.19116265E+00 0.11849930E+04</pdfrwt>
<pdfrwt beam="2">  1       -2 0.18405698E+00 0.11849930E+04</pdfrwt>
<totfact> 0.29548046E+00</totfact>
</mgrwt>
</event>
<event>
12    1  0.1432447E-007  0.6729879E+03  0.7818608E-02  0.9764575E-01
         -2   -1    0    0    0  501 -0.00000000000E+00  0.00000000000E+00  0.26619084454E+03  0.26619084454E+03  0.00000000000E+00 0. -1.
          2   -1    0    0  501    0  0.00000000000E+00 -0.00000000000E+00 -0.20926767760E+04  0.20926767760E+04  0.00000000000E+00 0.  1.
         23    2    1    2    0    0 -0.18770273745E+03  0.51650785940E+03 -0.12290715101E+04  0.13494487848E+04  0.91556317002E+02 0.  0.
    5000000    2    1    2    0    0  0.18770273745E+03 -0.51650785940E+03 -0.59741442135E+03  0.10094188358E+04  0.60000809059E+03 0.  0.
         23    2    4    4    0    0  0.38704955725E+03 -0.37941000132E+03 -0.45836937007E+03  0.71558383521E+03  0.90545220370E+02 0.  0.
         23    2    4    4    0    0 -0.19934681980E+03 -0.13709785808E+03 -0.13904505129E+03  0.29383500059E+03  0.92035341209E+02 0.  0.
          1    1    3    3  502    0 -0.12902721842E+03  0.34684049687E+03 -0.92583145217E+03  0.99705076660E+03  0.00000000000E+00 0. -1.
         -1    1    3    3    0  502 -0.58675519030E+02  0.16966736253E+03 -0.30324005798E+03  0.35239801816E+03  0.00000000000E+00 0.  1.
         13    1    5    5    0    0  0.13830986258E+03 -0.11579879162E+03 -0.10169327091E+03  0.20707607196E+03  0.00000000000E+00 0. -1.
        -13    1    5    5    0    0  0.24873969467E+03 -0.26361120970E+03 -0.35667609916E+03  0.50850776326E+03  0.00000000000E+00 0.  1.
          3    1    6    6  503    0 -0.10330355014E+03 -0.25652002479E+02 -0.88010436501E+02  0.13811403128E+03  0.00000000000E+00 0.  1.
         -3    1    6    6    0  503 -0.96043269657E+02 -0.11144585560E+03 -0.51034614786E+02  0.15572096931E+03  0.00000000000E+00 0. -1.
<mgrwt>
<rscale>  0 0.67298791E+03</rscale>
<asrwt>0</asrwt>
<pdfrwt beam="1">  1        2 0.32195029E+00 0.67298791E+03</pdfrwt>
<pdfrwt beam="2">  1       -2 0.40952436E-01 0.67298791E+03</pdfrwt>
<totfact> 0.34993809E+01</totfact>
</mgrwt>
</event>
<event>
12    1  0.1432447E-007  0.7758971E+03  0.7818608E-02  0.9595576E-01
          1   -1    0    0  501    0  0.00000000000E+00  0.00000000000E+00  0.22752448714E+04  0.22752448714E+04  0.00000000000E+00 0. -1.
         -1   -1    0    0    0  501 -0.00000000000E+00 -0.00000000000E+00 -0.39336747339E+03  0.39336747339E+03  0.00000000000E+00 0.  1.
         23    2    1    2    0    0 -0.51822024010E+03  0.56780219840E+03  0.34277177902E+03  0.84657891704E+03  0.90839509760E+02 0.  0.
    5000000    2    1    2    0    0  0.51822024010E+03 -0.56780219840E+03  0.15391056190E+04  0.18220334277E+04  0.60000679299E+03 0.  0.
         23    2    4    4    0    0  0.32483839766E+03 -0.40231114238E+03  0.14396284829E+04  0.15324444716E+04  0.92095873011E+02 0.  0.
         23    2    4    4    0    0  0.19338184244E+03 -0.16549105602E+03  0.99477136034E+02  0.28958895611E+03  0.95823986031E+02 0.  0.
          1    1    3    3  502    0 -0.26131461221E+03  0.33640292919E+03  0.15627195632E+03  0.45373250010E+03  0.00000000000E+00 0. -1.
         -1    1    3    3    0  502 -0.25690562789E+03  0.23139926921E+03  0.18649982270E+03  0.39284641694E+03  0.00000000000E+00 0.  1.
         11    1    5    5    0    0  0.12935695885E+03 -0.23349477355E+03  0.73047758851E+03  0.77772137646E+03  0.00000000000E+00 0.  1.
        -11    1    5    5    0    0  0.19548143881E+03 -0.16881636883E+03  0.70915089442E+03  0.75472309516E+03  0.00000000000E+00 0. -1.
          3    1    6    6  503    0  0.13269846318E+03 -0.10561089505E+03  0.16126119220E+02  0.17036019196E+03  0.00000000000E+00 0. -1.
         -3    1    6    6    0  503  0.60683379254E+02 -0.59880160968E+02  0.83351016814E+02  0.11922876414E+03  0.00000000000E+00 0.  1.
<mgrwt>
<rscale>  0 0.77589710E+03</rscale>
<asrwt>0</asrwt>
<pdfrwt beam="1">  1        1 0.35003766E+00 0.77589710E+03</pdfrwt>
<pdfrwt beam="2">  1       -1 0.60518074E-01 0.77589710E+03</pdfrwt>
<totfact> 0.56227426E+00</totfact>
</mgrwt>
</event>
<event>
12    1  0.1432447E-007  0.4671657E+03  0.7818608E-02  0.1022723E+00
          1   -1    0    0  501    0  0.00000000000E+00  0.00000000000E+00  0.22984010430E+04  0.22984010430E+04  0.00000000000E+00 0. -1.
         -1   -1    0    0    0  501 -0.00000000000E+00 -0.00000000000E+00 -0.12417490527E+03  0.12417490527E+03  0.00000000000E+00 0.  1.
         23    2    1    2    0    0 -0.24998175876E+03 -0.23927493021E+03  0.52745894079E+03  0.63607179521E+03  0.81431090525E+02 0.  0.
    5000000    2    1    2    0    0  0.24998175876E+03  0.23927493021E+03  0.16467671969E+04  0.17865041531E+04  0.60000959660E+03 0.  0.
         23    2    4    4    0    0 -0.13389128569E+03  0.62419834712E+02  0.15445590000E+03  0.23286757606E+03  0.92453073429E+02 0.  0.
         23    2    4    4    0    0  0.38387304445E+03  0.17685509550E+03  0.14923112970E+04  0.15536365770E+04  0.90318145073E+02 0.  0.
          2    1    3    3  502    0 -0.24745495104E+02 -0.65945675006E+02  0.87976596413E+02  0.11269894896E+03  0.00000000000E+00 0. -1.
         -2    1    3    3    0  502 -0.22523626366E+03 -0.17332925520E+03  0.43948234438E+03  0.52337284625E+03  0.00000000000E+00 0.  1.
         13    1    5    5    0    0 -0.12249104221E+02 -0.87556967566E+01 -0.86042453689E+01  0.17341736311E+02  0.00000000000E+00 0.  1.
        -13    1    5    5    0    0 -0.12164218147E+03  0.71175531469E+02  0.16306014537E+03  0.21552583975E+03  0.00000000000E+00 0. -1.
          3    1    6    6  503    0  0.37803286151E+03  0.16947271747E+03  0.14850353912E+04  0.15417392644E+04  0.00000000000E+00 0. -1.
         -3    1    6    6    0  503  0.58401829381E+01  0.73823780297E+01  0.72759057574E+01  0.11897312584E+02  0.00000000000E+00 0.  1.
<mgrwt>
<rscale>  0 0.46716573E+03</rscale>
<asrwt>0</asrwt>
<pdfrwt beam="1">  1        1 0.35360013E+00 0.46716573E+03</pdfrwt>
<pdfrwt beam="2">  1       -1 0.19103833E-01 0.46716573E+03</pdfrwt>
<totfact> 0.44774852E+01</totfact>
</mgrwt>
</event>
<event>
12    1  0.1432447E-007  0.1627478E+04  0.7818608E-02  0.8803843E-01
          2   -1    0    0  501    0  0.00000000000E+00  0.00000000000E+00  0.25908408971E+04  0.25908408971E+04  0.00000000000E+00 0.  1.
         -2   -1    0    0    0  501 -0.00000000000E+00 -0.00000000000E+00 -0.10910613593E+04  0.10910613593E+04  0.00000000000E+00 0. -1.
         23    2    1    2    0    0 -0.16246712321E+04 -0.68430977817E+01  0.80913892989E+03  0.18173458205E+04  0.91850873349E+02 0.  0.
    5000000    2    1    2    0    0  0.16246712321E+04  0.68430977817E+01  0.69064060797E+03  0.18645564360E+04  0.59998567751E+03 0.  0.
         23    2    4    4    0    0  0.64642178053E+03  0.19004756494E+02 -0.17928355463E+02  0.65327392419E+03  0.90681282381E+02 0.  0.
         23    2    4    4    0    0  0.97824945155E+03 -0.12161658712E+02  0.70856896343E+03  0.12112825118E+04  0.89529056898E+02 0.  0.
          3    1    3    3  502    0 -0.48002758867E+03 -0.16002918798E+02  0.19548783619E+03  0.51855382883E+03  0.00000000000E+00 0. -1.
         -3    1    3    3    0  502 -0.11446436434E+04  0.91598210163E+01  0.61365109370E+03  0.12987919916E+04  0.00000000000E+00 0.  1.
         11    1    5    5    0    0  0.61747395398E+03  0.29895524135E+02 -0.32569910865E+02  0.61905462223E+03  0.00000000000E+00 0. -1.
        -11    1    5    5    0    0  0.28947826554E+02 -0.10890767640E+02  0.14641555402E+02  0.34219301959E+02  0.00000000000E+00 0.  1.
          4    1    6    6  503    0  0.59914059608E+03  0.26870995253E+02  0.46623529936E+03  0.75964916812E+03  0.00000000000E+00 0. -1.
         -4    1    6    6    0  503  0.37910885547E+03 -0.39032653966E+02  0.24233366407E+03  0.45163334367E+03  0.00000000000E+00 0.  1.
<mgrwt>
<rscale>  0 0.16274782E+04</rscale>
<asrwt>0</asrwt>
<pdfrwt beam="1">  1        2 0.39859091E+00 0.16274782E+04</pdfrwt>
<pdfrwt beam="2">  1       -2 0.16785559E+00 0.16274782E+04</pdfrwt>
<totfact> 0.63316472E-01</totfact>
</mgrwt>
</event>
<event>
12    1  0.1432447E-007  0.4710178E+03  0.7818608E-02  0.1021633E+00
          2   -1    0    0  501    0  0.00000000000E+00  0.00000000000E+00  0.29781207879E+04  0.29781207879E+04  0.00000000000E+00 0.  1.
         -2   -1    0    0    0  501 -0.00000000000E+00 -0.00000000000E+00 -0.13502016783E+03  0.13502016783E+03  0.00000000000E+00 0. -1.
         23    2    1    2    0    0 -0.27808919090E+03 -0.22764861240E+03  0.19177414212E+04  0.19531691696E+04  0.89331729170E+02 0.  0.
    5000000    2    1    2    0    0  0.27808919090E+03  0.22764861240E+03  0.92535919890E+03  0.11599717861E+04  0.60007283624E+03 0.  0.
         23    2    4    4    0    0 -0.50625235548E+02 -0.94679365460E+02  0.52377711837E+03  0.54231868251E+03  0.90774373885E+02 0.  0.
         23    2    4    4    0    0  0.32871442644E+03  0.32232797786E+03  0.40158208053E+03  0.61765310361E+03  0.90987304250E+02 0.  0.
          1    1    3    3  502    0 -0.19421448129E+03 -0.19196375473E+03  0.15758849303E+04  0.15993694574E+04  0.00000000000E+00 0. -1.
         -1    1    3    3    0  502 -0.83874709606E+02 -0.35684857670E+02  0.34185649090E+03  0.35379971220E+03  0.00000000000E+00 0.  1.
         13    1    5    5    0    0  0.62993572052E+01 -0.23818842867E+02  0.29676866529E+03  0.29778962352E+03  0.00000000000E+00 0.  1.
        -13    1    5    5    0    0 -0.56924592753E+02 -0.70860522593E+02  0.22700845307E+03  0.24452905899E+03  0.00000000000E+00 0. -1.
          3    1    6    6  503    0  0.89139802316E+02  0.62554070447E+02  0.52374198518E+02  0.12083862279E+03  0.00000000000E+00 0. -1.
         -3    1    6    6    0  503  0.23957462413E+03  0.25977390742E+03  0.34920788201E+03  0.49681448083E+03  0.00000000000E+00 0.  1.
<mgrwt>
<rscale>  0 0.47101778E+03</rscale>
<asrwt>0</asrwt>
<pdfrwt beam="1">  1        2 0.45817238E+00 0.47101778E+03</pdfrwt>
<pdfrwt beam="2">  1       -2 0.20772336E-01 0.47101778E+03</pdfrwt>
<totfact> 0.39931982E+01</totfact>
</mgrwt>
</event>
<event>
12    1  0.1437973E-007  0.1412301E+04  0.7818608E-02  0.8944962E-01
         -2   -1    0    0    0  501 -0.00000000000E+00  0.00000000000E+00  0.94295718803E+03  0.94295718803E+03  0.00000000000E+00 0.  1.
          2   -1    0    0  501    0  0.00000000000E+00 -0.00000000000E+00 -0.30541190227E+04  0.30541190227E+04  0.00000000000E+00 0. -1.
         23    2    1    2    0    0  0.49290702860E+03 -0.13139722477E+04 -0.20287835208E+04  0.24686147242E+04  0.92820664522E+02 0.  0.
    5000000    2    1    2    0    0 -0.49290702860E+03  0.13139722477E+04 -0.82378313917E+02  0.15284614866E+04  0.59993993267E+03 0.  0.
         23    2    4    4    0    0 -0.98845370963E+02  0.45732278229E+03  0.23263524622E+03  0.52989744282E+03  0.88077281765E+02 0.  0.
         23    2    4    4    0    0 -0.39406165764E+03  0.85664946539E+03 -0.31501356014E+03  0.99856404375E+03  0.93614688082E+02 0.  0.
          3    1    3    3  502    0  0.35857454597E+03 -0.88241354239E+03 -0.13136870071E+04  0.16226530490E+04  0.00000000000E+00 0.  1.
         -3    1    3    3    0  502  0.13433248263E+03 -0.43155870529E+03 -0.71509651372E+03  0.84596167522E+03  0.00000000000E+00 0. -1.
         11    1    5    5    0    0 -0.36061534045E+02  0.34620805421E+03  0.16057794445E+03  0.38333500659E+03  0.00000000000E+00 0. -1.
        -11    1    5    5    0    0 -0.62783836918E+02  0.11111472808E+03  0.72057301771E+02  0.14656243623E+03  0.00000000000E+00 0.  1.
          1    1    6    6  503    0 -0.20033192004E+03  0.49831804030E+03 -0.13872512361E+03  0.55470569440E+03  0.00000000000E+00 0. -1.
         -1    1    6    6    0  503 -0.19372973760E+03  0.35833142509E+03 -0.17628843652E+03  0.44385834935E+03  0.00000000000E+00 0.  1.
<mgrwt>
<rscale>  0 0.14123011E+04</rscale>
<asrwt>0</asrwt>
<pdfrwt beam="1">  1        2 0.46986446E+00 0.14123011E+04</pdfrwt>
<pdfrwt beam="2">  1       -2 0.14507034E+00 0.14123011E+04</pdfrwt>
<totfact> 0.50508600E-01</totfact>
</mgrwt>
</event>
<event>
12    1  0.1432447E-007  0.6182208E+03  0.7818608E-02  0.9868308E-01
          1   -1    0    0  501    0  0.00000000000E+00  0.00000000000E+00  0.15014178191E+04  0.15014178191E+04  0.00000000000E+00 0. -1.
         -1   -1    0    0    0  501 -0.00000000000E+00 -0.00000000000E+00 -0.37834741066E+03  0.37834741066E+03  0.00000000000E+00 0.  1.
         23    2    1    2    0    0 -0.58728745327E+03 -0.57061982233E+02  0.75139670192E+03  0.95985431027E+03  0.92523892663E+02 0.  0.
    5000000    2    1    2    0    0  0.58728745327E+03  0.57061982233E+02  0.37167370654E+03  0.91991091950E+03  0.59994344158E+03 0.  0.
         23    2    4    4    0    0  0.58875726897E+02 -0.82737906874E+01  0.36443265444E+03  0.37970787538E+03  0.88499176157E+02 0.  0.
         23    2    4    4    0    0  0.52841172637E+03  0.65335772920E+02  0.72410521079E+01  0.54020304412E+03  0.90990000812E+02 0.  0.
          4    1    3    3  502    0 -0.42730390371E+03 -0.51920243895E+01  0.57127240578E+03  0.71341975361E+03  0.00000000000E+00 0. -1.
         -4    1    3    3    0  502 -0.15998354956E+03 -0.51869957844E+02  0.18012429614E+03  0.24643455666E+03  0.00000000000E+00 0.  1.
         11    1    5    5    0    0  0.29895211395E+02 -0.48005376885E+02  0.21906654129E+03  0.22624851245E+03  0.00000000000E+00 0.  1.
        -11    1    5    5    0    0  0.28980515502E+02  0.39731586198E+02  0.14536611315E+03  0.15345936293E+03  0.00000000000E+00 0. -1.
          1    1    6    6  503    0  0.87620849236E+02  0.31479022244E+02 -0.26575043932E+02  0.96822389055E+02  0.00000000000E+00 0. -1.
         -1    1    6    6    0  503  0.44079087713E+03  0.33856750676E+02  0.33816096040E+02  0.44338065506E+03  0.00000000000E+00 0.  1.
<mgrwt>
<rscale>  0 0.61822082E+03</rscale>
<asrwt>0</asrwt>
<pdfrwt beam="1">  1        1 0.23098735E+00 0.61822082E+03</pdfrwt>
<pdfrwt beam="2">  1       -1 0.58207295E-01 0.61822082E+03</pdfrwt>
<totfact> 0.20583492E+01</totfact>
</mgrwt>
</event>
<event>
12    1  0.1432447E-007  0.5754902E+03  0.7818608E-02  0.9957603E-01
         -2   -1    0    0    0  501 -0.00000000000E+00  0.00000000000E+00  0.27684677323E+03  0.27684677323E+03  0.00000000000E+00 0.  1.
          2   -1    0    0  501    0  0.00000000000E+00 -0.00000000000E+00 -0.14348413621E+04  0.14348413621E+04  0.00000000000E+00 0. -1.
         23    2    1    2    0    0  0.41788307041E+03 -0.20308863723E+03 -0.63354226542E+03  0.78936404087E+03  0.76475694385E+02 0.  0.
    5000000    2    1    2    0    0 -0.41788307041E+03  0.20308863723E+03 -0.52445232349E+03  0.92232409451E+03  0.59980016721E+03 0.  0.
         23    2    4    4    0    0 -0.36066304478E+03 -0.95985405998E+02 -0.45815216422E+03  0.59761823285E+03  0.89180247894E+02 0.  0.
         23    2    4    4    0    0 -0.57220025632E+02  0.29907404323E+03 -0.66300159270E+02  0.32470586166E+03  0.91207295841E+02 0.  0.
          1    1    3    3  502    0  0.24419412271E+03 -0.11456836098E+03 -0.30343901978E+03  0.40599497242E+03  0.00000000000E+00 0. -1.
         -1    1    3    3    0  502  0.17368894770E+03 -0.88520276247E+02 -0.33010324564E+03  0.38336906844E+03  0.00000000000E+00 0.  1.
         13    1    5    5    0    0 -0.12570511289E+03 -0.71365874034E+02 -0.13897137555E+03  0.20051909287E+03  0.00000000000E+00 0. -1.
        -13    1    5    5    0    0 -0.23495793189E+03 -0.24619531963E+02 -0.31918078867E+03  0.39709913997E+03  0.00000000000E+00 0.  1.
          1    1    6    6  503    0 -0.52897335515E+02  0.21834915081E+03 -0.87546404654E+02  0.24111999654E+03  0.00000000000E+00 0. -1.
         -1    1    6    6    0  503 -0.43226901174E+01  0.80724892413E+02  0.21246245384E+02  0.83585865120E+02  0.00000000000E+00 0.  1.
<mgrwt>
<rscale>  0 0.57549022E+03</rscale>
<asrwt>0</asrwt>
<pdfrwt beam="1">  1        2 0.22074483E+00 0.57549022E+03</pdfrwt>
<pdfrwt beam="2">  1       -2 0.42591810E-01 0.57549022E+03</pdfrwt>
<totfact> 0.75008361E+01</totfact>
</mgrwt>
</event>
<event>
12    1  0.1432447E-007  0.4696097E+03  0.7818608E-02  0.1022030E+00
          2   -1    0    0  501    0  0.00000000000E+00  0.00000000000E+00  0.48585487775E+03  0.48585487775E+03  0.00000000000E+00 0. -1.
         -2   -1    0    0    0  501 -0.00000000000E+00 -0.00000000000E+00 -0.95322857715E+03  0.95322857715E+03  0.00000000000E+00 0.  1.
         23    2    1    2    0    0  0.40555609330E+03  0.15624011102E+03 -0.53522295204E+03  0.69547910684E+03  0.91328322854E+02 0.  0.
    5000000    2    1    2    0    0 -0.40555609330E+03 -0.15624011102E+03  0.67849252636E+02  0.74360434806E+03  0.59954748624E+03 0.  0.
         23    2    4    4    0    0 -0.36488252572E+02 -0.57203826723E+01 -0.22163230286E+03  0.24330268096E+03  0.93333817745E+02 0.  0.
         23    2    4    4    0    0 -0.36906784073E+03 -0.15051972834E+03  0.28948155550E+03  0.50030166710E+03  0.87378071879E+02 0.  0.
          1    1    3    3  502    0  0.27744068073E+03  0.14875263169E+03 -0.40054098166E+03  0.50944455513E+03  0.00000000000E+00 0. -1.
         -1    1    3    3    0  502  0.12811541258E+03  0.74874793221E+01 -0.13468197038E+03  0.18603455171E+03  0.00000000000E+00 0.  1.
         13    1    5    5    0    0 -0.24636215997E+02 -0.46419288534E+02 -0.82145263356E+02  0.97516858945E+02  0.00000000000E+00 0. -1.
        -13    1    5    5    0    0 -0.11852036575E+02  0.40698905862E+02 -0.13948703951E+03  0.14578582201E+03  0.00000000000E+00 0.  1.
          4    1    6    6  503    0 -0.16967585287E+03 -0.93617724337E+02  0.18581177481E+03  0.26847753913E+03  0.00000000000E+00 0.  1.
         -4    1    6    6    0  503 -0.19939198786E+03 -0.56902004007E+02  0.10366978069E+03  0.23182412797E+03  0.00000000000E+00 0. -1.
<mgrwt>
<rscale>  0 0.46960966E+03</rscale>
<asrwt>0</asrwt>
<pdfrwt beam="1">  1        2 0.74746905E-01 0.46960966E+03</pdfrwt>
<pdfrwt beam="2">  1       -2 0.14665055E+00 0.46960966E+03</pdfrwt>
<totfact> 0.21145345E+01</totfact>
</mgrwt>
</event>
<event>
12    1  0.1432447E-007  0.1052333E+04  0.7818608E-02  0.9252939E-01
          2   -1    0    0  501    0  0.00000000000E+00  0.00000000000E+00  0.19280036796E+04  0.19280036796E+04  0.00000000000E+00 0. -1.
         -2   -1    0    0    0  501 -0.00000000000E+00 -0.00000000000E+00 -0.11270033536E+04  0.11270033536E+04  0.00000000000E+00 0.  1.
         23    2    1    2    0    0  0.70208753979E+03  0.69240738931E+03 -0.66210966847E+03  0.11914423665E+04  0.93759230225E+02 0.  0.
    5000000    2    1    2    0    0 -0.70208753979E+03 -0.69240738931E+03  0.14631099945E+04  0.18635646667E+04  0.59985623680E+03 0.  0.
         23    2    4    4    0    0 -0.75767583207E+03 -0.53513753050E+03  0.13534866379E+04  0.16434460893E+04  0.92434444364E+02 0.  0.
         23    2    4    4    0    0  0.55588292284E+02 -0.15726985882E+03  0.10962335662E+03  0.22011857743E+03  0.92795695390E+02 0.  0.
          4    1    3    3  502    0  0.62288115038E+03  0.56858858289E+03 -0.57165267251E+03  0.10188526302E+04  0.00000000000E+00 0. -1.
         -4    1    3    3    0  502  0.79206389405E+02  0.12381880643E+03 -0.90456995953E+02  0.17258973626E+03  0.00000000000E+00 0.  1.
         13    1    5    5    0    0 -0.21473870936E+03 -0.19874812162E+03  0.45919327193E+03  0.54449241512E+03  0.00000000000E+00 0. -1.
        -13    1    5    5    0    0 -0.54293712271E+03 -0.33638940888E+03  0.89429336595E+03  0.10989536742E+04  0.00000000000E+00 0.  1.
          2    1    6    6  503    0  0.56584761750E+02 -0.16540432912E+03  0.11594319746E+03  0.20976952207E+03  0.00000000000E+00 0. -1.
         -2    1    6    6    0  503 -0.99646946554E+00  0.81344703029E+01 -0.63198408430E+01  0.10349055357E+02  0.00000000000E+00 0.  1.
<mgrwt>
<rscale>  0 0.10523327E+04</rscale>
<asrwt>0</asrwt>
<pdfrwt beam="1">  1        2 0.29661595E+00 0.10523327E+04</pdfrwt>
<pdfrwt beam="2">  1       -2 0.17338513E+00 0.10523327E+04</pdfrwt>
<totfact> 0.14622060E+00</totfact>
</mgrwt>
</event>
<event>
12    1  0.1432447E-007  0.8629843E+03  0.7818608E-02  0.9473074E-01
         -1   -1    0    0    0  501 -0.00000000000E+00  0.00000000000E+00  0.30269783429E+03  0.30269783429E+03  0.00000000000E+00 0.  1.
          1   -1    0    0  501    0  0.00000000000E+00 -0.00000000000E+00 -0.27644713316E+04  0.27644713316E+04  0.00000000000E+00 0. -1.
         23    2    1    2    0    0 -0.28286075059E+03 -0.72185058729E+03 -0.68996957530E+03  0.10422465343E+04  0.95610401730E+02 0.  0.
    5000000    2    1    2    0    0  0.28286075059E+03  0.72185058729E+03 -0.17718039220E+04  0.20249226316E+04  0.59995337414E+03 0.  0.
         23    2    4    4    0    0 -0.98693158455E+02  0.48052544608E+03 -0.11255091246E+04  0.12311345055E+04  0.90974375943E+02 0.  0.
         23    2    4    4    0    0  0.38155390904E+03  0.24132514122E+03 -0.64629479739E+03  0.79378812609E+03  0.92635925572E+02 0.  0.
          2    1    3    3  502    0 -0.16597250414E+03 -0.33600260337E+03 -0.28509623219E+03  0.47087629290E+03  0.00000000000E+00 0. -1.
         -2    1    3    3    0  502 -0.11688824645E+03 -0.38584798392E+03 -0.40487334311E+03  0.57137024145E+03  0.00000000000E+00 0.  1.
         13    1    5    5    0    0 -0.44064545577E+02  0.37103449913E+03 -0.90193856658E+03  0.97626915429E+03  0.00000000000E+00 0.  1.
        -13    1    5    5    0    0 -0.54628612878E+02  0.10949094695E+03 -0.22357055807E+03  0.25486535120E+03  0.00000000000E+00 0. -1.
          1    1    6    6  503    0  0.71600090447E+01  0.86795257226E+01  0.28309434799E+00  0.11255222730E+02  0.00000000000E+00 0. -1.
         -1    1    6    6    0  503  0.37439390000E+03  0.23264561549E+03 -0.64657789174E+03  0.78253290336E+03  0.00000000000E+00 0.  1.
<mgrwt>
<rscale>  0 0.86298429E+03</rscale>
<asrwt>0</asrwt>
<pdfrwt beam="1">  1        1 0.42530330E+00 0.86298429E+03</pdfrwt>
<pdfrwt beam="2">  1       -1 0.46568896E-01 0.86298429E+03</pdfrwt>
<totfact> 0.42349709E+00</totfact>
</mgrwt>
</event>
<event>
12    1  0.1432447E-007  0.5577850E+03  0.7818608E-02  0.9997079E-01
         -2   -1    0    0    0  501 -0.00000000000E+00  0.00000000000E+00  0.20351934531E+03  0.20351934531E+03  0.00000000000E+00 0.  1.
          2   -1    0    0  501    0  0.00000000000E+00 -0.00000000000E+00 -0.22604417902E+04  0.22604417902E+04  0.00000000000E+00 0. -1.
         23    2    1    2    0    0 -0.40731575009E+03 -0.72550778222E+02 -0.20827310546E+03  0.47686415413E+03  0.11336665888E+03 0.  0.
    5000000    2    1    2    0    0  0.40731575009E+03  0.72550778222E+02 -0.18486493394E+04  0.19870969814E+04  0.59990023965E+03 0.  0.
         23    2    4    4    0    0  0.29154638663E+03  0.30741228152E+03 -0.13349152843E+04  0.14035112321E+04  0.91341973984E+02 0.  0.
         23    2    4    4    0    0  0.11576936346E+03 -0.23486150330E+03 -0.51373405516E+03  0.58358574923E+03  0.89928727467E+02 0.  0.
          2    1    3    3  502    0 -0.17693192308E+03  0.13160056095E+02 -0.49360414812E+02  0.18415901561E+03  0.00000000000E+00 0. -1.
         -2    1    3    3    0  502 -0.23038382701E+03 -0.85710834318E+02 -0.15891269064E+03  0.29270513852E+03  0.00000000000E+00 0.  1.
         11    1    5    5    0    0  0.10538193636E+03  0.14663313730E+03 -0.44542019161E+03  0.48063060302E+03  0.00000000000E+00 0. -1.
        -11    1    5    5    0    0  0.18616445027E+03  0.16077914422E+03 -0.88949509264E+03  0.92288062912E+03  0.00000000000E+00 0.  1.
          3    1    6    6  503    0  0.22321409415E+02 -0.94919665175E+02 -0.11485173516E+03  0.15066157182E+03  0.00000000000E+00 0. -1.
         -3    1    6    6    0  503  0.93447954049E+02 -0.13994183812E+03 -0.39888232000E+03  0.43292417740E+03  0.00000000000E+00 0.  1.
<mgrwt>
<rscale>  0 0.55778496E+03</rscale>
<asrwt>0</asrwt>
<pdfrwt beam="1">  1        2 0.34776027E+00 0.55778496E+03</pdfrwt>
<pdfrwt beam="2">  1       -2 0.31310669E-01 0.55778496E+03</pdfrwt>
<totfact> 0.48136040E+01</totfact>
</mgrwt>
</event>
<event>
12    1  0.1432447E-007  0.7770831E+03  0.7818608E-02  0.9593794E-01
         -1   -1    0    0    0  501 -0.00000000000E+00  0.00000000000E+00  0.90122028651E+03  0.90122028651E+03  0.00000000000E+00 0.  1.
          1   -1    0    0  501    0  0.00000000000E+00 -0.00000000000E+00 -0.11017415825E+04  0.11017415825E+04  0.00000000000E+00 0. -1.
         23    2    1    2    0    0 -0.71631576534E+03  0.10898007057E+03 -0.63389180157E+03  0.96717357040E+03  0.92849166491E+02 0.  0.
    5000000    2    1    2    0    0  0.71631576534E+03 -0.10898007057E+03  0.43337050557E+03  0.10357882986E+04  0.60005205861E+03 0.  0.
         23    2    4    4    0    0  0.41721084676E+03  0.13209221159E+03 -0.41681199347E+01  0.44658651596E+03  0.88931996488E+02 0.  0.
         23    2    4    4    0    0  0.29910491857E+03 -0.24107228216E+03  0.43753862550E+03  0.58920178267E+03  0.90216929425E+02 0.  0.
          2    1    3    3  502    0 -0.29267328231E+03  0.24286753257E+02 -0.31153697061E+03  0.42813873992E+03  0.00000000000E+00 0. -1.
         -2    1    3    3    0  502 -0.42364248302E+03  0.84693317317E+02 -0.32235483096E+03  0.53903483047E+03  0.00000000000E+00 0.  1.
         13    1    5    5    0    0  0.28471110582E+03  0.12057137482E+03 -0.31559359522E+02  0.31079553307E+03  0.00000000000E+00 0.  1.
        -13    1    5    5    0    0  0.13249974094E+03  0.11520836772E+02  0.27391239587E+02  0.13579098289E+03  0.00000000000E+00 0. -1.
          3    1    6    6  503    0  0.17773130434E+03 -0.11748271540E+03  0.18044627455E+03  0.27919789211E+03  0.00000000000E+00 0. -1.
         -3    1    6    6    0  503  0.12137361424E+03 -0.12358956677E+03  0.25709235096E+03  0.31000389057E+03  0.00000000000E+00 0.  1.
<mgrwt>
<rscale>  0 0.77708312E+03</rscale>
<asrwt>0</asrwt>
<pdfrwt beam="1">  1        1 0.16949870E+00 0.77708312E+03</pdfrwt>
<pdfrwt beam="2">  1       -1 0.13864927E+00 0.77708312E+03</pdfrwt>
<totfact> 0.56103852E+00</totfact>
</mgrwt>
</event>
<event>
12    1  0.1432447E-007  0.5573976E+03  0.7818608E-02  0.9997960E-01
         -1   -1    0    0    0  501 -0.00000000000E+00  0.00000000000E+00  0.63364396988E+03  0.63364396988E+03  0.00000000000E+00 0.  1.
          1   -1    0    0  501    0  0.00000000000E+00 -0.00000000000E+00 -0.18793092700E+04  0.18793092700E+04  0.00000000000E+00 0. -1.
         23    2    1    2    0    0  0.45721856275E+03 -0.17315173276E+03 -0.15899259326E+04  0.16658710715E+04  0.90728270738E+02 0.  0.
    5000000    2    1    2    0    0 -0.45721856275E+03  0.17315173276E+03  0.34426063253E+03  0.84708216830E+03  0.60000206671E+03 0.  0.
         23    2    4    4    0    0 -0.31169957745E+03  0.29022356565E+03 -0.91030457817E+01  0.43565718144E+03  0.91257710135E+02 0.  0.
         23    2    4    4    0    0 -0.14551898530E+03 -0.11707183289E+03  0.35336367831E+03  0.41142498685E+03  0.97586072361E+02 0.  0.
          2    1    3    3  502    0  0.33362669617E+03 -0.10821575152E+03 -0.10025782383E+04  0.10621584370E+04  0.00000000000E+00 0.  1.
         -2    1    3    3    0  502  0.12359186657E+03 -0.64935981237E+02 -0.58734769431E+03  0.60371263458E+03  0.00000000000E+00 0. -1.
         11    1    5    5    0    0 -0.22968840653E+03  0.18802951903E+03  0.31437974340E+02  0.29849658348E+03  0.00000000000E+00 0.  1.
        -11    1    5    5    0    0 -0.82011170928E+02  0.10219404662E+03 -0.40541020122E+02  0.13716059797E+03  0.00000000000E+00 0. -1.
          2    1    6    6  503    0 -0.25351215799E+02  0.43750234897E+01  0.11690373046E+03  0.11970090713E+03  0.00000000000E+00 0. -1.
         -2    1    6    6    0  503 -0.12016776950E+03 -0.12144685638E+03  0.23645994786E+03  0.29172407972E+03  0.00000000000E+00 0.  1.
<mgrwt>
<rscale>  0 0.55739761E+03</rscale>
<asrwt>0</asrwt>
<pdfrwt beam="1">  1        1 0.28912450E+00 0.55739761E+03</pdfrwt>
<pdfrwt beam="2">  1       -1 0.97483688E-01 0.55739761E+03</pdfrwt>
<totfact> 0.39712409E+00</totfact>
</mgrwt>
</event>
<event>
12    1  0.1432447E-007  0.1735014E+04  0.7818608E-02  0.8741643E-01
          2   -1    0    0  501    0  0.00000000000E+00  0.00000000000E+00  0.21578655006E+04  0.21578655006E+04  0.00000000000E+00 0. -1.
         -2   -1    0    0    0  501 -0.00000000000E+00 -0.00000000000E+00 -0.15152707556E+04  0.15152707556E+04  0.00000000000E+00 0.  1.
         23    2    1    2    0    0 -0.10789366696E+03  0.16979208203E+04 -0.13302109669E+03  0.17093088103E+04  0.97292554564E+02 0.  0.
    5000000    2    1    2    0    0  0.10789366696E+03 -0.16979208203E+04  0.77561584173E+03  0.19638274459E+04  0.60038499967E+03 0.  0.
         23    2    4    4    0    0  0.26088490560E+03 -0.62069473332E+03  0.48345975097E+03  0.83381746775E+03  0.90528187672E+02 0.  0.
         23    2    4    4    0    0 -0.15299123864E+03 -0.10772260870E+04  0.29215609075E+03  0.11300099782E+04  0.88005725464E+02 0.  0.
          1    1    3    3  502    0 -0.58201985238E+02  0.12427632127E+04 -0.13512538244E+03  0.12514418656E+04  0.00000000000E+00 0. -1.
         -1    1    3    3    0  502 -0.49691681724E+02  0.45515760764E+03  0.21042857501E+01  0.45786694470E+03  0.00000000000E+00 0.  1.
         11    1    5    5    0    0  0.18928145563E+03 -0.52497057954E+03  0.37446406718E+03  0.67204532320E+03  0.00000000000E+00 0. -1.
        -11    1    5    5    0    0  0.71603449968E+02 -0.95724153782E+02  0.10899568380E+03  0.16177214455E+03  0.00000000000E+00 0.  1.
          3    1    6    6  503    0 -0.11887171178E+03 -0.58025903065E+03  0.18441490292E+03  0.62035464287E+03  0.00000000000E+00 0. -1.
         -3    1    6    6    0  503 -0.34119526856E+02 -0.49696705638E+03  0.10774118783E+03  0.50965533529E+03  0.00000000000E+00 0.  1.
<mgrwt>
<rscale>  0 0.17350137E+04</rscale>
<asrwt>0</asrwt>
<pdfrwt beam="1">  1        2 0.33197931E+00 0.17350137E+04</pdfrwt>
<pdfrwt beam="2">  1       -2 0.23311858E+00 0.17350137E+04</pdfrwt>
<totfact> 0.40809931E-01</totfact>
</mgrwt>
</event>
<event>
12    1  0.1432447E-007  0.1071648E+04  0.7818608E-02  0.9233275E-01
          1   -1    0    0  501    0  0.00000000000E+00  0.00000000000E+00  0.11074242812E+04  0.11074242812E+04  0.00000000000E+00 0. -1.
         -1   -1    0    0    0  501 -0.00000000000E+00 -0.00000000000E+00 -0.12127087908E+04  0.12127087908E+04  0.00000000000E+00 0.  1.
         23    2    1    2    0    0 -0.98680698598E+03  0.20687683577E+03 -0.43423446939E+03  0.11015599308E+04  0.91042044973E+02 0.  0.
    5000000    2    1    2    0    0  0.98680698598E+03 -0.20687683577E+03  0.32894995981E+03  0.12185731413E+04  0.60010530060E+03 0.  0.
         23    2    4    4    0    0  0.60901393737E+03  0.12669502207E+03  0.32293823022E+03  0.70670439876E+03  0.90511889606E+02 0.  0.
         23    2    4    4    0    0  0.37779304862E+03 -0.33357185784E+03  0.60117295937E+01  0.51186874252E+03  0.89306756449E+02 0.  0.
          2    1    3    3  502    0 -0.43339657444E+03  0.90379170813E+02 -0.24004669732E+03  0.50361036739E+03  0.00000000000E+00 0. -1.
         -2    1    3    3    0  502 -0.55341041154E+03  0.11649766495E+03 -0.19418777208E+03  0.59794956340E+03  0.00000000000E+00 0.  1.
         11    1    5    5    0    0  0.41652476727E+03  0.12913752918E+03  0.22624119097E+03  0.49127839326E+03  0.00000000000E+00 0. -1.
        -11    1    5    5    0    0  0.19248917009E+03 -0.24425071032E+01  0.96697039253E+02  0.21542600550E+03  0.00000000000E+00 0.  1.
          1    1    6    6  503    0  0.22531433045E+03 -0.23094908053E+03 -0.31827247084E+02  0.32421751798E+03  0.00000000000E+00 0. -1.
         -1    1    6    6    0  503  0.15247871816E+03 -0.10262277730E+03  0.37838976678E+02  0.18765122454E+03  0.00000000000E+00 0.  1.
<mgrwt>
<rscale>  0 0.10716482E+04</rscale>
<asrwt>0</asrwt>
<pdfrwt beam="1">  1        1 0.17037297E+00 0.10716482E+04</pdfrwt>
<pdfrwt beam="2">  1       -1 0.18657058E+00 0.10716482E+04</pdfrwt>
<totfact> 0.23266049E+00</totfact>
</mgrwt>
</event>
<event>
12    1  0.1432447E-007  0.1149863E+04  0.7818608E-02  0.9157910E-01
         -2   -1    0    0    0  501 -0.00000000000E+00  0.00000000000E+00  0.98285011441E+03  0.98285011441E+03  0.00000000000E+00 0.  1.
          2   -1    0    0  501    0  0.00000000000E+00 -0.00000000000E+00 -0.17033283254E+04  0.17033283254E+04  0.00000000000E+00 0. -1.
         23    2    1    2    0    0  0.11237650382E+04 -0.18408669605E+03  0.12039525169E+03  0.11487534830E+04  0.91672108414E+02 0.  0.
    5000000    2    1    2    0    0 -0.11237650382E+04  0.18408669605E+03 -0.84087346263E+03  0.15374249567E+04  0.59989294440E+03 0.  0.
         23    2    4    4    0    0 -0.88752056905E+03  0.14743861568E+03 -0.89796158385E+03  0.12744559351E+04  0.92043568294E+02 0.  0.
         23    2    4    4    0    0 -0.23624446913E+03  0.36648080369E+02  0.57088121223E+02  0.26296902167E+03  0.93483270075E+02 0.  0.
          3    1    3    3  502    0  0.63853899570E+03 -0.11760767186E+03  0.24803310925E+02  0.64975288975E+03  0.00000000000E+00 0. -1.
         -3    1    3    3    0  502  0.48522604248E+03 -0.66479024188E+02  0.95591940762E+02  0.49900059328E+03  0.00000000000E+00 0.  1.
         13    1    5    5    0    0 -0.34218903443E+03  0.10244237270E+03 -0.35548948562E+03  0.50394498647E+03  0.00000000000E+00 0. -1.
        -13    1    5    5    0    0 -0.54533153462E+03  0.44996242988E+02 -0.54247209824E+03  0.77051094859E+03  0.00000000000E+00 0.  1.
          1    1    6    6  503    0 -0.10239933428E+03  0.62533275521E+02  0.19509393040E+02  0.12155924739E+03  0.00000000000E+00 0. -1.
         -1    1    6    6    0  503 -0.13384513485E+03 -0.25885195152E+02  0.37578728183E+02  0.14140977428E+03  0.00000000000E+00 0.  1.
<mgrwt>
<rscale>  0 0.11498630E+04</rscale>
<asrwt>0</asrwt>
<pdfrwt beam="1">  1        2 0.26205051E+00 0.11498630E+04</pdfrwt>
<pdfrwt beam="2">  1       -2 0.15120771E+00 0.11498630E+04</pdfrwt>
<totfact> 0.27989197E+00</totfact>
</mgrwt>
</event>
<event>
12    1  0.1432447E-007  0.1105074E+04  0.7818608E-02  0.9200260E-01
          2   -1    0    0  501    0  0.00000000000E+00  0.00000000000E+00  0.33007598434E+04  0.33007598434E+04  0.00000000000E+00 0. -1.
         -2   -1    0    0    0  501 -0.00000000000E+00 -0.00000000000E+00 -0.54872738118E+03  0.54872738118E+03  0.00000000000E+00 0.  1.
         23    2    1    2    0    0  0.89911307168E+03  0.62400530473E+03  0.36716545010E+03  0.11577619686E+04  0.88404594026E+02 0.  0.
    5000000    2    1    2    0    0 -0.89911307168E+03 -0.62400530473E+03  0.23848670121E+04  0.26917252560E+04  0.60000604338E+03 0.  0.
         23    2    4    4    0    0 -0.14689330848E+03 -0.11888328506E+03  0.10177120520E+03  0.23372106363E+03  0.92505555675E+02 0.  0.
         23    2    4    4    0    0 -0.75221976320E+03 -0.50512201967E+03  0.22830958069E+04  0.24580041924E+04  0.90968780785E+02 0.  0.
          4    1    3    3  502    0  0.28846935691E+03  0.23675016311E+03  0.15597424568E+03  0.40446653128E+03  0.00000000000E+00 0. -1.
         -4    1    3    3    0  502  0.61064371477E+03  0.38725514162E+03  0.21119120441E+03  0.75329543735E+03  0.00000000000E+00 0.  1.
         13    1    5    5    0    0  0.90767633621E+01  0.32278034181E+01 -0.23806646606E+01  0.99234022524E+01  0.00000000000E+00 0.  1.
        -13    1    5    5    0    0 -0.15597007185E+03 -0.12211108848E+03  0.10415186987E+03  0.22379766137E+03  0.00000000000E+00 0. -1.
          3    1    6    6  503    0 -0.57740643104E+03 -0.38155478170E+03  0.16342495448E+04  0.17747545782E+04  0.00000000000E+00 0. -1.
         -3    1    6    6    0  503 -0.17481333216E+03 -0.12356723797E+03  0.64884626211E+03  0.68324961417E+03  0.00000000000E+00 0.  1.
<mgrwt>
<rscale>  0 0.11050741E+04</rscale>
<asrwt>0</asrwt>
<pdfrwt beam="1">  1        2 0.50780920E+00 0.11050741E+04</pdfrwt>
<pdfrwt beam="2">  1       -2 0.84419599E-01 0.11050741E+04</pdfrwt>
<totfact> 0.13780298E+00</totfact>
</mgrwt>
</event>
<event>
12    1  0.1432447E-007  0.9090837E+03  0.7818608E-02  0.9414297E-01
          2   -1    0    0  501    0  0.00000000000E+00  0.00000000000E+00  0.18280071439E+04  0.18280071439E+04  0.00000000000E+00 0. -1.
         -2   -1    0    0    0  501 -0.00000000000E+00 -0.00000000000E+00 -0.55443075349E+03  0.55443075349E+03  0.00000000000E+00 0.  1.
         23    2    1    2    0    0 -0.61098000779E+03  0.54670733706E+03  0.10620050984E+04  0.13446975000E+04  0.90393889838E+02 0.  0.
    5000000    2    1    2    0    0  0.61098000779E+03 -0.54670733706E+03  0.21157129203E+03  0.10377403974E+04  0.59996436425E+03 0.  0.
         23    2    4    4    0    0  0.48751616014E+03 -0.56051041579E+02  0.70040023060E+02  0.50448411994E+03  0.93727780222E+02 0.  0.
         23    2    4    4    0    0  0.12346384765E+03 -0.49065629549E+03  0.14153126897E+03  0.53325627741E+03  0.91346786086E+02 0.  0.
          2    1    3    3  502    0 -0.83627930592E+02  0.97889374262E+02  0.12384694702E+03  0.17864497378E+03  0.00000000000E+00 0. -1.
         -2    1    3    3    0  502 -0.52735207720E+03  0.44881796280E+03  0.93815815134E+03  0.11660525263E+04  0.00000000000E+00 0.  1.
         11    1    5    5    0    0  0.23034807864E+03 -0.23378882529E+02 -0.14034174411E+02  0.23195639145E+03  0.00000000000E+00 0.  1.
        -11    1    5    5    0    0  0.25716808150E+03 -0.32672159050E+02  0.84074197471E+02  0.27252772849E+03  0.00000000000E+00 0. -1.
          1    1    6    6  503    0  0.98137396112E+02 -0.41230644328E+03  0.15198860524E+03  0.45025335958E+03  0.00000000000E+00 0. -1.
         -1    1    6    6    0  503  0.25326451539E+02 -0.78349852202E+02 -0.10457336265E+02  0.83002917837E+02  0.00000000000E+00 0.  1.
<mgrwt>
<rscale>  0 0.90908371E+03</rscale>
<asrwt>0</asrwt>
<pdfrwt beam="1">  1        2 0.28123187E+00 0.90908371E+03</pdfrwt>
<pdfrwt beam="2">  1       -2 0.85297040E-01 0.90908371E+03</pdfrwt>
<totfact> 0.10051107E+01</totfact>
</mgrwt>
</event>
<event>
12    1  0.1432447E-007  0.3154085E+03  0.7818608E-02  0.1077782E+00
         -2   -1    0    0    0  501 -0.00000000000E+00  0.00000000000E+00  0.65050435358E+02  0.65050435358E+02  0.00000000000E+00 0.  1.
          2   -1    0    0  501    0  0.00000000000E+00 -0.00000000000E+00 -0.19085308933E+04  0.19085308933E+04  0.00000000000E+00 0. -1.
         23    2    1    2    0    0  0.13498458835E+02  0.27686635311E+02 -0.36872532275E+03  0.38115329913E+03  0.91491615107E+02 0.  0.
    5000000    2    1    2    0    0 -0.13498458835E+02 -0.27686635311E+02 -0.14747551352E+04  0.15924280295E+04  0.59997963489E+03 0.  0.
         23    2    4    4    0    0  0.20828141711E+03  0.14373267406E+03 -0.43327050975E+03  0.50992223997E+03  0.90868728871E+02 0.  0.
         23    2    4    4    0    0 -0.22177987594E+03 -0.17141930937E+03 -0.10414846254E+04  0.10825057895E+04  0.92507655930E+02 0.  0.
          1    1    3    3  502    0 -0.31568188861E+02  0.18423573981E+02 -0.26721299017E+03  0.26970124349E+03  0.00000000000E+00 0. -1.
         -1    1    3    3    0  502  0.45066647697E+02  0.92630613296E+01 -0.10151233258E+03  0.11145205564E+03  0.00000000000E+00 0.  1.
         11    1    5    5    0    0  0.14906955940E+03  0.55396819047E+02 -0.21828255364E+03  0.27007001745E+03  0.00000000000E+00 0. -1.
        -11    1    5    5    0    0  0.59211857707E+02  0.88335855014E+02 -0.21498795611E+03  0.23985222252E+03  0.00000000000E+00 0.  1.
          2    1    6    6  503    0 -0.14467299598E+03 -0.88232160302E+02 -0.76723644344E+03  0.78572702004E+03  0.00000000000E+00 0.  1.
         -2    1    6    6    0  503 -0.77106879962E+02 -0.83187149070E+02 -0.27424818198E+03  0.29677876951E+03  0.00000000000E+00 0. -1.
<mgrwt>
<rscale>  0 0.31540846E+03</rscale>
<asrwt>0</asrwt>
<pdfrwt beam="1">  1        2 0.29362014E+00 0.31540846E+03</pdfrwt>
<pdfrwt beam="2">  1       -2 0.10007759E-01 0.31540846E+03</pdfrwt>
<totfact> 0.54746169E+02</totfact>
</mgrwt>
</event>
<event>
12    1  0.1432447E-007  0.7009553E+03  0.7818608E-02  0.9715600E-01
         -2   -1    0    0    0  501 -0.00000000000E+00  0.00000000000E+00  0.28688467864E+03  0.28688467864E+03  0.00000000000E+00 0.  1.
          2   -1    0    0  501    0  0.00000000000E+00 -0.00000000000E+00 -0.18392250976E+04  0.18392250976E+04  0.00000000000E+00 0. -1.
         23    2    1    2    0    0 -0.36617357570E+03  0.44564849066E+03 -0.88039751513E+03  0.10564733647E+04  0.91381184227E+02 0.  0.
    5000000    2    1    2    0    0  0.36617357570E+03 -0.44564849066E+03 -0.67194290383E+03  0.10696364116E+04  0.59994093226E+03 0.  0.
         23    2    4    4    0    0  0.49566144980E+03 -0.44734254100E+03 -0.55743340397E+03  0.87466066731E+03  0.92215298549E+02 0.  0.
         23    2    4    4    0    0 -0.12948787410E+03  0.16940503383E+01 -0.11450949986E+03  0.19497574426E+03  0.90183900712E+02 0.  0.
          3    1    3    3  502    0 -0.22434168843E+03  0.28597308979E+03 -0.63033839954E+03  0.72762373463E+03  0.00000000000E+00 0. -1.
         -3    1    3    3    0  502 -0.14183188727E+03  0.15967540086E+03 -0.25005911559E+03  0.32884963004E+03  0.00000000000E+00 0.  1.
         13    1    5    5    0    0  0.24286252873E+03 -0.28017336748E+03 -0.29714272439E+03  0.47515589270E+03  0.00000000000E+00 0.  1.
        -13    1    5    5    0    0  0.25279892106E+03 -0.16716917351E+03 -0.26029067958E+03  0.39950477461E+03  0.00000000000E+00 0. -1.
          1    1    6    6  503    0 -0.57923425169E+01  0.24552356274E+02 -0.44141367993E+02  0.50841221452E+02  0.00000000000E+00 0. -1.
         -1    1    6    6    0  503 -0.12369553158E+03 -0.22858305936E+02 -0.70368131866E+02  0.14413452281E+03  0.00000000000E+00 0.  1.
<mgrwt>
<rscale>  0 0.70095528E+03</rscale>
<asrwt>0</asrwt>
<pdfrwt beam="1">  1        2 0.28295772E+00 0.70095528E+03</pdfrwt>
<pdfrwt beam="2">  1       -2 0.44136102E-01 0.70095528E+03</pdfrwt>
<totfact> 0.41322531E+01</totfact>
</mgrwt>
</event>
<event>
12    1  0.1432447E-007  0.6769347E+03  0.7818608E-02  0.9757511E-01
          2   -1    0    0  501    0  0.00000000000E+00  0.00000000000E+00  0.27226761550E+04  0.27226761550E+04  0.00000000000E+00 0. -1.
         -2   -1    0    0    0  501 -0.00000000000E+00 -0.00000000000E+00 -0.21330049373E+03  0.21330049373E+03  0.00000000000E+00 0.  1.
         23    2    1    2    0    0  0.29464585480E+03 -0.47134936891E+03  0.16766650601E+04  0.17687557061E+04  0.91129668995E+02 0.  0.
    5000000    2    1    2    0    0 -0.29464585480E+03  0.47134936891E+03  0.83271060115E+03  0.11672209427E+04  0.60000948025E+03 0.  0.
         23    2    4    4    0    0  0.16442268314E+03  0.72257960378E+02  0.19717403477E+03  0.28282919568E+03  0.94120786087E+02 0.  0.
         23    2    4    4    0    0 -0.45906853794E+03  0.39909140853E+03  0.63553656638E+03  0.88439174698E+03  0.90687154680E+02 0.  0.
          2    1    3    3  502    0  0.17159808567E+03 -0.34880029179E+03  0.11117916055E+04  0.11777895061E+04  0.00000000000E+00 0. -1.
         -2    1    3    3    0  502  0.12304776913E+03 -0.12254907712E+03  0.56487345466E+03  0.59096620002E+03  0.00000000000E+00 0.  1.
         11    1    5    5    0    0  0.29398428039E+02  0.23800398763E+02  0.10674873870E+03  0.11325201882E+03  0.00000000000E+00 0.  1.
        -11    1    5    5    0    0  0.13502425510E+03  0.48457561614E+02  0.90425296071E+02  0.16957717686E+03  0.00000000000E+00 0. -1.
          2    1    6    6  503    0 -0.43405991422E+03  0.39017779601E+03  0.57996540041E+03  0.82280410020E+03  0.00000000000E+00 0. -1.
         -2    1    6    6    0  503 -0.25008623728E+02  0.89136125222E+01  0.55571165965E+02  0.61587646778E+02  0.00000000000E+00 0.  1.
<mgrwt>
<rscale>  0 0.67693469E+03</rscale>
<asrwt>0</asrwt>
<pdfrwt beam="1">  1        2 0.41887323E+00 0.67693469E+03</pdfrwt>
<pdfrwt beam="2">  1       -2 0.32815462E-01 0.67693469E+03</pdfrwt>
<totfact> 0.23700946E+01</totfact>
</mgrwt>
</event>
<event>
12    1  0.1432447E-007  0.1042430E+04  0.7818608E-02  0.9263195E-01
         -1   -1    0    0    0  501 -0.00000000000E+00  0.00000000000E+00  0.54795565768E+03  0.54795565768E+03  0.00000000000E+00 0.  1.
          1   -1    0    0  501    0  0.00000000000E+00 -0.00000000000E+00 -0.22904846077E+04  0.22904846077E+04  0.00000000000E+00 0. -1.
         23    2    1    2    0    0  0.42734673249E+03  0.87864583948E+03 -0.12524632811E+04  0.15911412917E+04  0.91774716317E+02 0.  0.
    5000000    2    1    2    0    0 -0.42734673249E+03 -0.87864583948E+03 -0.49006566892E+03  0.12472989737E+04  0.60078833958E+03 0.  0.
         23    2    4    4    0    0 -0.26457783111E+03 -0.84348305668E+02  0.69795536994E+01  0.29223300061E+03  0.90748813184E+02 0.  0.
         23    2    4    4    0    0 -0.16276890138E+03 -0.79429753381E+03 -0.49704522262E+03  0.95506597311E+03  0.87719850538E+02 0.  0.
          4    1    3    3  502    0  0.16942803786E+03  0.44818610783E+03 -0.63457560559E+03  0.79514957491E+03  0.00000000000E+00 0. -1.
         -4    1    3    3    0  502  0.25791869463E+03  0.43045973165E+03 -0.61788767555E+03  0.79599171680E+03  0.00000000000E+00 0.  1.
         13    1    5    5    0    0 -0.25469046794E+03 -0.96990617764E+02 -0.43827524784E+01  0.27256856553E+03  0.00000000000E+00 0. -1.
        -13    1    5    5    0    0 -0.98873631650E+01  0.12642312096E+02  0.11362306178E+02  0.19664435084E+02  0.00000000000E+00 0.  1.
          2    1    6    6  503    0 -0.12693688752E+03 -0.40618393885E+03 -0.24849498415E+03  0.49279622841E+03  0.00000000000E+00 0. -1.
         -2    1    6    6    0  503 -0.35832013858E+02 -0.38811359497E+03 -0.24855023847E+03  0.46226974469E+03  0.00000000000E+00 0.  1.
<mgrwt>
<rscale>  0 0.10424297E+04</rscale>
<asrwt>0</asrwt>
<pdfrwt beam="1">  1        1 0.35238226E+00 0.10424297E+04</pdfrwt>
<pdfrwt beam="2">  1       -1 0.84300868E-01 0.10424297E+04</pdfrwt>
<totfact> 0.26582124E+00</totfact>
</mgrwt>
</event>
<event>
12    1  0.1432447E-007  0.7306362E+03  0.7818608E-02  0.9666229E-01
         -3   -1    0    0    0  501 -0.00000000000E+00  0.00000000000E+00  0.11358339630E+04  0.11358339630E+04  0.00000000000E+00 0.  1.
          3   -1    0    0  501    0  0.00000000000E+00 -0.00000000000E+00 -0.69108004482E+03  0.69108004482E+03  0.00000000000E+00 0. -1.
         23    2    1    2    0    0 -0.38880391022E+03  0.57121926292E+03 -0.17854511176E+03  0.71966340916E+03  0.92612842629E+02 0.  0.
    5000000    2    1    2    0    0  0.38880391022E+03 -0.57121926292E+03  0.62329902999E+03  0.11072505987E+04  0.60003523283E+03 0.  0.
         23    2    4    4    0    0  0.41015019252E+02 -0.33460961766E+03 -0.84890669809E+00  0.34918964534E+03  0.91032190678E+02 0.  0.
         23    2    4    4    0    0  0.34778889096E+03 -0.23660964526E+03  0.62414793669E+03  0.75806095337E+03  0.90302409968E+02 0.  0.
          1    1    3    3  502    0 -0.19158648679E+03  0.27692559427E+03 -0.39335484989E+02  0.33902868177E+03  0.00000000000E+00 0. -1.
         -1    1    3    3    0  502 -0.19721742343E+03  0.29429366865E+03 -0.13920962677E+03  0.38063472739E+03  0.00000000000E+00 0.  1.
         11    1    5    5    0    0  0.13025728663E+01 -0.22411920613E+03  0.34067368812E+02  0.22669737729E+03  0.00000000000E+00 0. -1.
        -11    1    5    5    0    0  0.39712446386E+02 -0.11049041153E+03 -0.34916275510E+02  0.12249226805E+03  0.00000000000E+00 0.  1.
          1    1    6    6  503    0  0.93540539638E+02 -0.11097830866E+03  0.24185811145E+03  0.28206623978E+03  0.00000000000E+00 0. -1.
         -1    1    6    6    0  503  0.25424835133E+03 -0.12563133661E+03  0.38228982524E+03  0.47599471359E+03  0.00000000000E+00 0.  1.
<mgrwt>
<rscale>  0 0.73063617E+03</rscale>
<asrwt>0</asrwt>
<pdfrwt beam="1">  1        3 0.10632001E+00 0.73063617E+03</pdfrwt>
<pdfrwt beam="2">  1       -3 0.17474369E+00 0.73063617E+03</pdfrwt>
<totfact> 0.42175398E-01</totfact>
</mgrwt>
</event>
<event>
12    1  0.1432447E-007  0.3666799E+03  0.7818608E-02  0.1055970E+00
         -2   -1    0    0    0  501 -0.00000000000E+00  0.00000000000E+00  0.62662816561E+02  0.62662816561E+02  0.00000000000E+00 0.  1.
          2   -1    0    0  501    0  0.00000000000E+00 -0.00000000000E+00 -0.28355017729E+04  0.28355017729E+04  0.00000000000E+00 0. -1.
         23    2    1    2    0    0  0.17917315765E+03  0.48211563728E+02 -0.85977667702E+03  0.88438308999E+03  0.92141956898E+02 0.  0.
    5000000    2    1    2    0    0 -0.17917315765E+03 -0.48211563728E+02 -0.19130622793E+04  0.20137814994E+04  0.60090038087E+03 0.  0.
         23    2    4    4    0    0 -0.11680589875E+03  0.22294500272E+03 -0.13815136675E+04  0.14071246909E+04  0.89843140993E+02 0.  0.
         23    2    4    4    0    0 -0.62367258903E+02 -0.27115656645E+03 -0.53154861183E+03  0.60665680859E+03  0.89849864569E+02 0.  0.
          1    1    3    3  502    0  0.96172020041E+02  0.16665883760E+02 -0.63913216513E+03  0.64654213600E+03  0.00000000000E+00 0. -1.
         -1    1    3    3    0  502  0.83001137614E+02  0.31545679968E+02 -0.22064451188E+03  0.23784095399E+03  0.00000000000E+00 0.  1.
         13    1    5    5    0    0 -0.11551782410E+03  0.14901408191E+03 -0.11010911852E+04  0.11171174344E+04  0.00000000000E+00 0. -1.
        -13    1    5    5    0    0 -0.12880746508E+01  0.73930920806E+02 -0.28042248230E+03  0.29000725641E+03  0.00000000000E+00 0.  1.
          2    1    6    6  503    0 -0.37301188931E+02 -0.52601227755E+02 -0.68897284164E+02  0.94366856587E+02  0.00000000000E+00 0. -1.
         -2    1    6    6    0  503 -0.25066069972E+02 -0.21855533869E+03 -0.46265132766E+03  0.51228995200E+03  0.00000000000E+00 0.  1.
<mgrwt>
<rscale>  0 0.36667990E+03</rscale>
<asrwt>0</asrwt>
<pdfrwt beam="1">  1        2 0.43623087E+00 0.36667990E+03</pdfrwt>
<pdfrwt beam="2">  1       -2 0.96404372E-02 0.36667990E+03</pdfrwt>
<totfact> 0.17866682E+02</totfact>
</mgrwt>
</event>
<event>
12    1  0.1432447E-007  0.2028854E+03  0.7818608E-02  0.1147327E+00
         -2   -1    0    0    0  501 -0.00000000000E+00  0.00000000000E+00  0.53282191935E+02  0.53282191935E+02  0.00000000000E+00 0.  1.
          2   -1    0    0  501    0  0.00000000000E+00 -0.00000000000E+00 -0.36846811571E+04  0.36846811571E+04  0.00000000000E+00 0. -1.
         23    2    1    2    0    0  0.83692225769E+02  0.11051031965E+03 -0.23905928636E+03  0.29016877048E+03  0.88496630232E+02 0.  0.
    5000000    2    1    2    0    0 -0.83692225769E+02 -0.11051031965E+03 -0.33923396788E+04  0.34477945785E+04  0.60008502740E+03 0.  0.
         23    2    4    4    0    0  0.37326197243E+02 -0.15455869221E+02 -0.31197611753E+04  0.31214963397E+04  0.95903486718E+02 0.  0.
         23    2    4    4    0    0 -0.12101842301E+03 -0.95054450431E+02 -0.27257850341E+03  0.32629823879E+03  0.92144955705E+02 0.  0.
          3    1    3    3  502    0  0.32263717595E+02  0.18115624552E+02 -0.14163020132E+03  0.14638386951E+03  0.00000000000E+00 0. -1.
         -3    1    3    3    0  502  0.51428508174E+02  0.92394695100E+02 -0.97429085039E+02  0.14378490097E+03  0.00000000000E+00 0.  1.
         11    1    5    5    0    0  0.11024439806E+02 -0.50297296184E+02 -0.22976920820E+04  0.22982689703E+04  0.00000000000E+00 0. -1.
        -11    1    5    5    0    0  0.26301757437E+02  0.34841426963E+02 -0.82206909333E+03  0.82322736937E+03  0.00000000000E+00 0.  1.
          4    1    6    6  503    0 -0.74818480067E+01 -0.41817638887E+02 -0.26384974049E+02  0.50008597533E+02  0.00000000000E+00 0. -1.
         -4    1    6    6    0  503 -0.11353657501E+03 -0.53236811545E+02 -0.24619352936E+03  0.27628964126E+03  0.00000000000E+00 0.  1.
<mgrwt>
<rscale>  0 0.20288536E+03</rscale>
<asrwt>0</asrwt>
<pdfrwt beam="1">  1        2 0.56687409E+00 0.20288536E+03</pdfrwt>
<pdfrwt beam="2">  1       -2 0.81972594E-02 0.20288536E+03</pdfrwt>
<totfact> 0.71709572E+01</totfact>
</mgrwt>
</event>
<event>
12    1  0.1432447E-007  0.1181980E+04  0.7818608E-02  0.9128778E-01
         -2   -1    0    0    0  501 -0.00000000000E+00  0.00000000000E+00  0.41510231693E+03  0.41510231693E+03  0.00000000000E+00 0.  1.
          2   -1    0    0  501    0  0.00000000000E+00 -0.00000000000E+00 -0.35158308134E+04  0.35158308134E+04  0.00000000000E+00 0. -1.
         23    2    1    2    0    0  0.11241242397E+04  0.73883272621E+02 -0.12806670189E+04  0.17079279849E+04  0.88294644457E+02 0.  0.
    5000000    2    1    2    0    0 -0.11241242397E+04 -0.73883272621E+02 -0.18200614776E+04  0.22230051454E+04  0.60001170808E+03 0.  0.
         23    2    4    4    0    0 -0.10259189187E+04 -0.22164806691E+03 -0.16576398070E+04  0.19641039619E+04  0.91088692432E+02 0.  0.
         23    2    4    4    0    0 -0.98205321029E+02  0.14776479429E+03 -0.16242167062E+03  0.25890118355E+03  0.95761705530E+02 0.  0.
          4    1    3    3  502    0  0.91222723235E+02 -0.30894122382E+01 -0.72595123906E+02  0.11662410436E+03  0.00000000000E+00 0.  1.
         -4    1    3    3    0  502  0.10329015165E+04  0.76972684859E+02 -0.12080718950E+04  0.15913038806E+04  0.00000000000E+00 0. -1.
         13    1    5    5    0    0 -0.71408995012E+03 -0.11384219816E+03 -0.11657215983E+04  0.13717840018E+04  0.00000000000E+00 0.  1.
        -13    1    5    5    0    0 -0.31182896858E+03 -0.10780586875E+03 -0.49191820875E+03  0.59231996006E+03  0.00000000000E+00 0. -1.
          2    1    6    6  503    0 -0.10269352983E+02  0.55393886016E+02 -0.53764795466E+01  0.56593716532E+02  0.00000000000E+00 0. -1.
         -2    1    6    6    0  503 -0.87935968046E+02  0.92370908274E+02 -0.15704519107E+03  0.20230746701E+03  0.00000000000E+00 0.  1.
<mgrwt>
<rscale>  0 0.11819796E+04</rscale>
<asrwt>0</asrwt>
<pdfrwt beam="1">  1        2 0.54089706E+00 0.11819796E+04</pdfrwt>
<pdfrwt beam="2">  1       -2 0.63861894E-01 0.11819796E+04</pdfrwt>
<totfact> 0.18128187E+00</totfact>
</mgrwt>
</event>
<event>
12    1  0.1432447E-007  0.1750419E+04  0.7818608E-02  0.8733120E-01
          2   -1    0    0  501    0  0.00000000000E+00  0.00000000000E+00  0.36265800900E+04  0.36265800900E+04  0.00000000000E+00 0. -1.
         -2   -1    0    0    0  501 -0.00000000000E+00 -0.00000000000E+00 -0.85289549125E+03  0.85289549125E+03  0.00000000000E+00 0.  1.
         23    2    1    2    0    0 -0.16918968025E+04  0.20664167440E+03  0.12439991556E+04  0.21119471182E+04  0.87012406029E+02 0.  0.
    5000000    2    1    2    0    0  0.16918968025E+04 -0.20664167440E+03  0.15296854431E+04  0.23675284630E+04  0.60003157944E+03 0.  0.
         23    2    4    4    0    0  0.13222668876E+04  0.70736506470E+02  0.10238094260E+04  0.16764106618E+04  0.93667448150E+02 0.  0.
         23    2    4    4    0    0  0.36962991491E+03 -0.27737818087E+03  0.50587601710E+03  0.69111780119E+03  0.90378875995E+02 0.  0.
          1    1    3    3  502    0 -0.15695943519E+03  0.20607913012E+02  0.85568158683E+02  0.17995238302E+03  0.00000000000E+00 0. -1.
         -1    1    3    3    0  502 -0.15349373674E+04  0.18603376139E+03  0.11584309970E+04  0.19319947352E+04  0.00000000000E+00 0.  1.
         11    1    5    5    0    0  0.52317681653E+03  0.68919050310E+02  0.43351249536E+03  0.68293257389E+03  0.00000000000E+00 0. -1.
        -11    1    5    5    0    0  0.79909007110E+03  0.18174561600E+01  0.59029693061E+03  0.99347808792E+03  0.00000000000E+00 0.  1.
          3    1    6    6  503    0 -0.28276643157E+01  0.24246751824E+01  0.10350257041E+02  0.11000116183E+02  0.00000000000E+00 0. -1.
         -3    1    6    6    0  503  0.37245757922E+03 -0.27980285605E+03  0.49552576006E+03  0.68011768501E+03  0.00000000000E+00 0.  1.
<mgrwt>
<rscale>  0 0.17504190E+04</rscale>
<asrwt>0</asrwt>
<pdfrwt beam="1">  1        2 0.55793539E+00 0.17504190E+04</pdfrwt>
<pdfrwt beam="2">  1       -2 0.13121469E+00 0.17504190E+04</pdfrwt>
<totfact> 0.26069980E-01</totfact>
</mgrwt>
</event>
<event>
12    1  0.1432447E-007  0.1888466E+04  0.7818608E-02  0.8660619E-01
          2   -1    0    0  501    0  0.00000000000E+00  0.00000000000E+00  0.44729800180E+04  0.44729800180E+04  0.00000000000E+00 0. -1.
         -2   -1    0    0    0  501 -0.00000000000E+00 -0.00000000000E+00 -0.86539530687E+03  0.86539530687E+03  0.00000000000E+00 0.  1.
         23    2    1    2    0    0 -0.18007966737E+04 -0.53351957244E+03  0.12182769213E+04  0.22405922326E+04  0.92428901126E+02 0.  0.
    5000000    2    1    2    0    0  0.18007966737E+04  0.53351957244E+03  0.23893077898E+04  0.30977830922E+04  0.59996381341E+03 0.  0.
         23    2    4    4    0    0  0.62349397846E+03  0.29376558722E+03  0.49687517542E+03  0.85437788670E+03  0.89630753166E+02 0.  0.
         23    2    4    4    0    0  0.11773026953E+04  0.23975398522E+03  0.18924326144E+04  0.22434052055E+04  0.89677791124E+02 0.  0.
          1    1    3    3  502    0 -0.13895133674E+04 -0.43203603876E+03  0.90325705862E+03  0.17126808958E+04  0.00000000000E+00 0. -1.
         -1    1    3    3    0  502 -0.41128330632E+03 -0.10148353368E+03  0.31501986263E+03  0.52791133679E+03  0.00000000000E+00 0.  1.
         13    1    5    5    0    0  0.31136987503E+03  0.19516824488E+03  0.25181821179E+03  0.44548204753E+03  0.00000000000E+00 0.  1.
        -13    1    5    5    0    0  0.31212410343E+03  0.98597342335E+02  0.24505696363E+03  0.40889583916E+03  0.00000000000E+00 0. -1.
          1    1    6    6  503    0  0.52168296895E+03  0.71936481892E+02  0.77417567750E+03  0.93630975492E+03  0.00000000000E+00 0. -1.
         -1    1    6    6    0  503  0.65561972632E+03  0.16781750333E+03  0.11182569369E+04  0.13070954506E+04  0.00000000000E+00 0.  1.
<mgrwt>
<rscale>  0 0.18884661E+04</rscale>
<asrwt>0</asrwt>
<pdfrwt beam="1">  1        2 0.68815076E+00 0.18884661E+04</pdfrwt>
<pdfrwt beam="2">  1       -2 0.13313774E+00 0.18884661E+04</pdfrwt>
<totfact> 0.49398395E-02</totfact>
</mgrwt>
</event>
<event>
12    1  0.1432447E-007  0.1080776E+04  0.7818608E-02  0.9224134E-01
         -1   -1    0    0    0  501 -0.00000000000E+00  0.00000000000E+00  0.48925815487E+03  0.48925815487E+03  0.00000000000E+00 0.  1.
          1   -1    0    0  501    0  0.00000000000E+00 -0.00000000000E+00 -0.25035309319E+04  0.25035309319E+04  0.00000000000E+00 0. -1.
         23    2    1    2    0    0 -0.39218316192E+03 -0.92289142502E+03 -0.12104738911E+04  0.15744938512E+04  0.90816471976E+02 0.  0.
    5000000    2    1    2    0    0  0.39218316192E+03  0.92289142502E+03 -0.80379888593E+03  0.14182952356E+04  0.59994375677E+03 0.  0.
         23    2    4    4    0    0 -0.96594000196E+02  0.46353639620E+03 -0.42251560620E+03  0.64124994288E+03  0.92117643734E+02 0.  0.
         23    2    4    4    0    0  0.48877716211E+03  0.45935502882E+03 -0.38128327973E+03  0.77704529267E+03  0.92262076443E+02 0.  0.
          1    1    3    3  502    0 -0.26595832010E+03 -0.52936026727E+03 -0.67539427790E+03  0.89839498619E+03  0.00000000000E+00 0. -1.
         -1    1    3    3    0  502 -0.12622484182E+03 -0.39353115776E+03 -0.53507961317E+03  0.67609886500E+03  0.00000000000E+00 0.  1.
         13    1    5    5    0    0 -0.71034208757E+02  0.44189742246E+03 -0.37999540589E+03  0.58712494351E+03  0.00000000000E+00 0. -1.
        -13    1    5    5    0    0 -0.25559791439E+02  0.21638973740E+02 -0.42520200306E+02  0.54124999372E+02  0.00000000000E+00 0.  1.
          2    1    6    6  503    0  0.31570721260E+03  0.24699780990E+03 -0.19502159681E+03  0.44577167407E+03  0.00000000000E+00 0.  1.
         -2    1    6    6    0  503  0.17306994951E+03  0.21235721892E+03 -0.18626168293E+03  0.33127361860E+03  0.00000000000E+00 0. -1.
<mgrwt>
<rscale>  0 0.10807762E+04</rscale>
<asrwt>0</asrwt>
<pdfrwt beam="1">  1        1 0.38515861E+00 0.10807762E+04</pdfrwt>
<pdfrwt beam="2">  1       -1 0.75270484E-01 0.10807762E+04</pdfrwt>
<totfact> 0.24083401E+00</totfact>
</mgrwt>
</event>
<event>
12    1  0.1432447E-007  0.5950251E+03  0.7818608E-02  0.9915781E-01
          2   -1    0    0  501    0  0.00000000000E+00  0.00000000000E+00  0.17573064027E+04  0.17573064027E+04  0.00000000000E+00 0. -1.
         -2   -1    0    0    0  501 -0.00000000000E+00 -0.00000000000E+00 -0.30818643026E+03  0.30818643026E+03  0.00000000000E+00 0.  1.
         23    2    1    2    0    0  0.46784327618E+03 -0.12152400872E+03  0.11286864210E+04  0.12312208736E+04  0.91249037620E+02 0.  0.
    5000000    2    1    2    0    0 -0.46784327618E+03  0.12152400872E+03  0.32043355138E+03  0.83427195930E+03  0.59973879770E+03 0.  0.
         23    2    4    4    0    0 -0.62351048942E+02  0.25250677833E+03 -0.26529113886E+02  0.27700336892E+03  0.91540953147E+02 0.  0.
         23    2    4    4    0    0 -0.40549222724E+03 -0.13098276961E+03  0.34696266527E+03  0.55726859039E+03  0.92653971585E+02 0.  0.
          3    1    3    3  502    0  0.16534917020E+03 -0.84553536594E+02  0.38239720437E+03  0.42510853973E+03  0.00000000000E+00 0. -1.
         -3    1    3    3    0  502  0.30249410598E+03 -0.36970472123E+02  0.74628921664E+03  0.80611233389E+03  0.00000000000E+00 0.  1.
         13    1    5    5    0    0  0.24634028209E+01  0.15051476393E+03  0.96951192877E+01  0.15084680259E+03  0.00000000000E+00 0. -1.
        -13    1    5    5    0    0 -0.64814451763E+02  0.10199201440E+03 -0.36224233173E+02  0.12615656633E+03  0.00000000000E+00 0.  1.
          4    1    6    6  503    0 -0.82474677650E+02 -0.91417144547E+01  0.11312832826E+03  0.14029847487E+03  0.00000000000E+00 0. -1.
         -4    1    6    6    0  503 -0.32301754959E+03 -0.12184105516E+03  0.23383433701E+03  0.41697011551E+03  0.00000000000E+00 0.  1.
<mgrwt>
<rscale>  0 0.59502513E+03</rscale>
<asrwt>0</asrwt>
<pdfrwt beam="1">  1        2 0.27035482E+00 0.59502513E+03</pdfrwt>
<pdfrwt beam="2">  1       -2 0.47413298E-01 0.59502513E+03</pdfrwt>
<totfact> 0.40262235E+01</totfact>
</mgrwt>
</event>
<event>
12    1  0.1432447E-007  0.8448766E+03  0.7818608E-02  0.9497239E-01
          2   -1    0    0  501    0  0.00000000000E+00  0.00000000000E+00  0.22161872073E+04  0.22161872073E+04  0.00000000000E+00 0. -1.
         -2   -1    0    0    0  501 -0.00000000000E+00 -0.00000000000E+00 -0.10771141457E+04  0.10771141457E+04  0.00000000000E+00 0.  1.
         23    2    1    2    0    0  0.33792595366E+02 -0.78448574640E+03 -0.79524197590E+03  0.11211680121E+04  0.89711121223E+02 0.  0.
    5000000    2    1    2    0    0 -0.33792595366E+02  0.78448574640E+03  0.19343150375E+04  0.21721333410E+04  0.60002396693E+03 0.  0.
         23    2    4    4    0    0 -0.18998412250E+03  0.65209503304E+03  0.17611016984E+04  0.18897663741E+04  0.91737983015E+02 0.  0.
         23    2    4    4    0    0  0.15619152713E+03  0.13239071336E+03  0.17321333907E+03  0.28236696688E+03  0.88346754471E+02 0.  0.
          4    1    3    3  502    0 -0.23032622626E+02 -0.37771878361E+03 -0.41204466650E+03  0.55944864678E+03  0.00000000000E+00 0.  1.
         -4    1    3    3    0  502  0.56825217992E+02 -0.40676696279E+03 -0.38319730940E+03  0.56171936530E+03  0.00000000000E+00 0. -1.
         13    1    5    5    0    0 -0.13185318038E+03  0.43424117500E+03  0.10529104108E+04  0.11465474227E+04  0.00000000000E+00 0.  1.
        -13    1    5    5    0    0 -0.58130942111E+02  0.21785385805E+03  0.70819128761E+03  0.74321895141E+03  0.00000000000E+00 0. -1.
          1    1    6    6  503    0  0.24485417351E+02 -0.10808198653E+02  0.33312022096E+02  0.42732231829E+02  0.00000000000E+00 0. -1.
         -1    1    6    6    0  503  0.13170610978E+03  0.14319891201E+03  0.13990131697E+03  0.23963473506E+03  0.00000000000E+00 0.  1.
<mgrwt>
<rscale>  0 0.84487661E+03</rscale>
<asrwt>0</asrwt>
<pdfrwt beam="1">  1        2 0.34095188E+00 0.84487661E+03</pdfrwt>
<pdfrwt beam="2">  1       -2 0.16570987E+00 0.84487661E+03</pdfrwt>
<totfact> 0.11874790E+00</totfact>
</mgrwt>
</event>
<event>
12    1  0.1432447E-007  0.6491469E+03  0.7818608E-02  0.9808381E-01
          2   -1    0    0  501    0  0.00000000000E+00  0.00000000000E+00  0.45125064995E+03  0.45125064995E+03  0.00000000000E+00 0.  1.
         -2   -1    0    0    0  501 -0.00000000000E+00 -0.00000000000E+00 -0.12245472868E+04  0.12245472868E+04  0.00000000000E+00 0. -1.
         23    2    1    2    0    0 -0.60249523693E+03  0.12275166739E+03 -0.25087948567E+03  0.67020130056E+03  0.90337060919E+02 0.  0.
    5000000    2    1    2    0    0  0.60249523693E+03 -0.12275166739E+03 -0.52241715113E+03  0.10055966361E+04  0.60019699471E+03 0.  0.
         23    2    4    4    0    0  0.36178723089E+03  0.55819491116E+02 -0.57435460194E+03  0.68729931715E+03  0.92148394186E+02 0.  0.
         23    2    4    4    0    0  0.24070800604E+03 -0.17857115851E+03  0.51937450813E+02  0.31829731900E+03  0.93742635236E+02 0.  0.
          2    1    3    3  502    0 -0.94636830716E+02  0.53587084949E+02 -0.49947895722E+02  0.11967663802E+03  0.00000000000E+00 0.  1.
         -2    1    3    3    0  502 -0.50785840621E+03  0.69164582446E+02 -0.20093158995E+03  0.55052466254E+03  0.00000000000E+00 0. -1.
         11    1    5    5    0    0  0.98918814616E+02  0.31463871903E+02 -0.98381588094E+02  0.14301693605E+03  0.00000000000E+00 0. -1.
        -11    1    5    5    0    0  0.26286841628E+03  0.24355619213E+02 -0.47597301385E+03  0.54428238110E+03  0.00000000000E+00 0.  1.
          1    1    6    6  503    0  0.17480763555E+03 -0.84037035334E+02  0.54448029272E+01  0.19403499332E+03  0.00000000000E+00 0. -1.
         -1    1    6    6    0  503  0.65900370491E+02 -0.94534123176E+02  0.46492647886E+02  0.12426232568E+03  0.00000000000E+00 0.  1.
<mgrwt>
<rscale>  0 0.64914693E+03</rscale>
<asrwt>0</asrwt>
<pdfrwt beam="1">  1        2 0.69423178E-01 0.64914693E+03</pdfrwt>
<pdfrwt beam="2">  1       -2 0.18839189E+00 0.64914693E+03</pdfrwt>
<totfact> 0.11330880E+01</totfact>
</mgrwt>
</event>
<event>
12    1  0.1432447E-007  0.1136508E+04  0.7818608E-02  0.9170322E-01
         -4   -1    0    0    0  501 -0.00000000000E+00  0.00000000000E+00  0.27012968513E+04  0.27012968513E+04  0.00000000000E+00 0.  1.
          4   -1    0    0  501    0  0.00000000000E+00 -0.00000000000E+00 -0.58312921351E+03  0.58312921351E+03  0.00000000000E+00 0. -1.
         23    2    1    2    0    0 -0.10762580598E+04 -0.33676762159E+03  0.14612035164E+04  0.18479848379E+04  0.90489791561E+02 0.  0.
    5000000    2    1    2    0    0  0.10762580598E+04  0.33676762159E+03  0.65696412132E+03  0.14364412269E+04  0.60001474929E+03 0.  0.
         23    2    4    4    0    0  0.89586988618E+03  0.31332896228E+03  0.75062988313E+03  0.12134647037E+04  0.91068513034E+02 0.  0.
         23    2    4    4    0    0  0.18038817363E+03  0.23438659305E+02 -0.93665761803E+02  0.22297652322E+03  0.88634028661E+02 0.  0.
          2    1    3    3  502    0 -0.57307964825E+03 -0.17844008292E+03  0.85115081263E+03  0.10414983688E+04  0.00000000000E+00 0. -1.
         -2    1    3    3    0  502 -0.50317841156E+03 -0.15832753867E+03  0.61005270379E+03  0.80648646905E+03  0.00000000000E+00 0.  1.
         13    1    5    5    0    0  0.47860238860E+03  0.15051059830E+03  0.34221899472E+03  0.60731172137E+03  0.00000000000E+00 0. -1.
        -13    1    5    5    0    0  0.41726749758E+03  0.16281836398E+03  0.40841088841E+03  0.60615298230E+03  0.00000000000E+00 0.  1.
          2    1    6    6  503    0  0.18727438702E+03  0.21375980629E+02 -0.10001862616E+03  0.21338311592E+03  0.00000000000E+00 0. -1.
         -2    1    6    6    0  503 -0.68862133842E+01  0.20626786769E+01  0.63528643579E+01  0.95934073011E+01  0.00000000000E+00 0.  1.
<mgrwt>
<rscale>  0 0.11365078E+04</rscale>
<asrwt>0</asrwt>
<pdfrwt beam="1">  1        4 0.89712188E-01 0.11365078E+04</pdfrwt>
<pdfrwt beam="2">  1       -4 0.41558412E+00 0.11365078E+04</pdfrwt>
<totfact> 0.11050149E-02</totfact>
</mgrwt>
</event>
<event>
12    1  0.1432447E-007  0.3932681E+03  0.7818608E-02  0.1046136E+00
         -2   -1    0    0    0  501 -0.00000000000E+00  0.00000000000E+00  0.98993983271E+02  0.98993983271E+02  0.00000000000E+00 0. -1.
          2   -1    0    0  501    0  0.00000000000E+00 -0.00000000000E+00 -0.17212608913E+04  0.17212608913E+04  0.00000000000E+00 0.  1.
         23    2    1    2    0    0 -0.27162193927E+02 -0.17674262428E+03 -0.50850577497E+03  0.54256799040E+03  0.61855969898E+02 0.  0.
    5000000    2    1    2    0    0  0.27162193927E+02  0.17674262428E+03 -0.11137611331E+04  0.12776868842E+04  0.60003680926E+03 0.  0.
         23    2    4    4    0    0  0.14688619156E+03 -0.17389400835E+03 -0.41246488986E+03  0.47946302578E+03  0.89122546602E+02 0.  0.
         23    2    4    4    0    0 -0.11972399763E+03  0.35063663262E+03 -0.70129624323E+03  0.79822385842E+03  0.89805476680E+02 0.  0.
          4    1    3    3  502    0 -0.21084857415E+02 -0.14258291884E+03 -0.32093054675E+03  0.35181085230E+03  0.00000000000E+00 0. -1.
         -4    1    3    3    0  502 -0.60773365118E+01 -0.34159705437E+02 -0.18757522822E+03  0.19075713810E+03  0.00000000000E+00 0.  1.
         13    1    5    5    0    0  0.14173327418E+03 -0.14789426169E+03 -0.29566005562E+03  0.35968861830E+03  0.00000000000E+00 0. -1.
        -13    1    5    5    0    0  0.51529173795E+01 -0.25999746661E+02 -0.11680483424E+03  0.11977440747E+03  0.00000000000E+00 0.  1.
          1    1    6    6  503    0 -0.34002905349E+02  0.20142870061E+03 -0.44333651044E+03  0.48813623149E+03  0.00000000000E+00 0. -1.
         -1    1    6    6    0  503 -0.85721092283E+02  0.14920793201E+03 -0.25795973279E+03  0.31008762693E+03  0.00000000000E+00 0.  1.
<mgrwt>
<rscale>  0 0.39326815E+03</rscale>
<asrwt>0</asrwt>
<pdfrwt beam="1">  1        2 0.26480934E+00 0.39326815E+03</pdfrwt>
<pdfrwt beam="2">  1       -2 0.15229845E-01 0.39326815E+03</pdfrwt>
<totfact> 0.34266676E+02</totfact>
</mgrwt>
</event>
<event>
12    1  0.1432447E-007  0.3781038E+03  0.7818608E-02  0.1051637E+00
          1   -1    0    0  501    0  0.00000000000E+00  0.00000000000E+00  0.38297004565E+03  0.38297004565E+03  0.00000000000E+00 0. -1.
         -1   -1    0    0    0  501 -0.00000000000E+00 -0.00000000000E+00 -0.65637131762E+03  0.65637131762E+03  0.00000000000E+00 0.  1.
         23    2    1    2    0    0 -0.23775753665E+02 -0.30686854119E+03 -0.31574752144E+02  0.32301575302E+03  0.92782669128E+02 0.  0.
    5000000    2    1    2    0    0  0.23775753665E+02  0.30686854119E+03 -0.24182651983E+03  0.71632561025E+03  0.59992393365E+03 0.  0.
         23    2    4    4    0    0  0.13847719408E+03  0.10541986242E+03  0.15314652473E+03  0.24898006378E+03  0.90818133941E+02 0.  0.
         23    2    4    4    0    0 -0.11470144041E+03  0.20144867878E+03 -0.39497304456E+03  0.46734554647E+03  0.93113711467E+02 0.  0.
          3    1    3    3  502    0  0.71149427410E+01 -0.21231942633E+03 -0.57776538652E+02  0.22015514899E+03  0.00000000000E+00 0. -1.
         -3    1    3    3    0  502 -0.30890696406E+02 -0.94549114866E+02  0.26201786509E+02  0.10286060404E+03  0.00000000000E+00 0.  1.
         13    1    5    5    0    0  0.13864784805E+03  0.60701103731E+02  0.11298840282E+03  0.18887622649E+03  0.00000000000E+00 0. -1.
        -13    1    5    5    0    0 -0.17065397475E+00  0.44718758685E+02  0.40158121913E+02  0.60103837287E+02  0.00000000000E+00 0.  1.
          4    1    6    6  503    0 -0.12136743492E+02  0.11045043261E+03 -0.15090861388E+03  0.18740333068E+03  0.00000000000E+00 0. -1.
         -4    1    6    6    0  503 -0.10256469692E+03  0.90998246171E+02 -0.24406443068E+03  0.27994221579E+03  0.00000000000E+00 0.  1.
<mgrwt>
<rscale>  0 0.37810379E+03</rscale>
<asrwt>0</asrwt>
<pdfrwt beam="1">  1        1 0.58918469E-01 0.37810379E+03</pdfrwt>
<pdfrwt beam="2">  1       -1 0.10098020E+00 0.37810379E+03</pdfrwt>
<totfact> 0.62807035E+01</totfact>
</mgrwt>
</event>
<event>
12    1  0.1432447E-007  0.1395755E+04  0.7818608E-02  0.8956897E-01
         -2   -1    0    0    0  501 -0.00000000000E+00  0.00000000000E+00  0.20831045486E+04  0.20831045486E+04  0.00000000000E+00 0.  1.
          2   -1    0    0  501    0  0.00000000000E+00 -0.00000000000E+00 -0.11171599326E+04  0.11171599326E+04  0.00000000000E+00 0. -1.
         23    2    1    2    0    0 -0.12209758962E+04  0.57974716619E+03 -0.12767425606E+03  0.13610372719E+04  0.96087586319E+02 0.  0.
    5000000    2    1    2    0    0  0.12209758962E+04 -0.57974716619E+03  0.10936188721E+04  0.18392272093E+04  0.59988796810E+03 0.  0.
         23    2    4    4    0    0  0.11905407191E+04 -0.43953237114E+03  0.10782055482E+04  0.16677450804E+04  0.90942509375E+02 0.  0.
         23    2    4    4    0    0  0.30435177055E+02 -0.14021479505E+03  0.15413323876E+02  0.17148212884E+03  0.92639414970E+02 0.  0.
          2    1    3    3  502    0 -0.79473390108E+03  0.40174843777E+03 -0.12406063782E+03  0.89910779255E+03  0.00000000000E+00 0. -1.
         -2    1    3    3    0  502 -0.42624199509E+03  0.17799872842E+03 -0.36136182337E+01  0.46192947940E+03  0.00000000000E+00 0.  1.
         13    1    5    5    0    0  0.30261195953E+03 -0.14405535288E+03  0.31919330656E+03  0.46282859646E+03  0.00000000000E+00 0. -1.
        -13    1    5    5    0    0  0.88792875958E+03 -0.29547701825E+03  0.75901224164E+03  0.12049164840E+04  0.00000000000E+00 0.  1.
          1    1    6    6  503    0 -0.30506746033E+02 -0.34003750104E+02 -0.91495262769E+01  0.46590024745E+02  0.00000000000E+00 0. -1.
         -1    1    6    6    0  503  0.60941923087E+02 -0.10621104495E+03  0.24562850153E+02  0.12489210410E+03  0.00000000000E+00 0.  1.
<mgrwt>
<rscale>  0 0.13957553E+04</rscale>
<asrwt>0</asrwt>
<pdfrwt beam="1">  1        2 0.17187076E+00 0.13957553E+04</pdfrwt>
<pdfrwt beam="2">  1       -2 0.32047762E+00 0.13957553E+04</pdfrwt>
<totfact> 0.48381601E-01</totfact>
</mgrwt>
</event>
<event>
12    1  0.1432447E-007  0.1803780E+04  0.7818608E-02  0.8704292E-01
          1   -1    0    0  501    0  0.00000000000E+00  0.00000000000E+00  0.30019870470E+04  0.30019870470E+04  0.00000000000E+00 0. -1.
         -1   -1    0    0    0  501 -0.00000000000E+00 -0.00000000000E+00 -0.12844223577E+04  0.12844223577E+04  0.00000000000E+00 0.  1.
         23    2    1    2    0    0  0.87694706804E+03 -0.15310154980E+04  0.22291542978E+02  0.17668828516E+04  0.91287913035E+02 0.  0.
    5000000    2    1    2    0    0 -0.87694706804E+03  0.15310154980E+04  0.16952731463E+04  0.25195265530E+04  0.60084806369E+03 0.  0.
         23    2    4    4    0    0 -0.81407021762E+03  0.15294793703E+04  0.14906673312E+04  0.22874920887E+04  0.92268629401E+02 0.  0.
         23    2    4    4    0    0 -0.62876850415E+02  0.15361276566E+01  0.20460581513E+03  0.23203446437E+03  0.89557775009E+02 0.  0.
          4    1    3    3  502    0  0.33056004378E+03 -0.65885681992E+03 -0.10072385479E+02  0.73719990820E+03  0.00000000000E+00 0. -1.
         -4    1    3    3    0  502  0.54638702426E+03 -0.87215867808E+03  0.32363928458E+02  0.10296829434E+04  0.00000000000E+00 0.  1.
         13    1    5    5    0    0 -0.52013937361E+03  0.10383432797E+04  0.95523544959E+03  0.15037208845E+04  0.00000000000E+00 0. -1.
        -13    1    5    5    0    0 -0.29393084401E+03  0.49113609068E+03  0.53543188159E+03  0.78377120415E+03  0.00000000000E+00 0.  1.
          1    1    6    6  503    0  0.10772920091E+02 -0.26605501556E+02  0.37158596549E+02  0.46953911635E+02  0.00000000000E+00 0. -1.
         -1    1    6    6    0  503 -0.73649770506E+02  0.28141629213E+02  0.16744721858E+03  0.18508055273E+03  0.00000000000E+00 0.  1.
<mgrwt>
<rscale>  0 0.18037803E+04</rscale>
<asrwt>0</asrwt>
<pdfrwt beam="1">  1        1 0.46184416E+00 0.18037803E+04</pdfrwt>
<pdfrwt beam="2">  1       -1 0.19760344E+00 0.18037803E+04</pdfrwt>
<totfact> 0.85104375E-02</totfact>
</mgrwt>
</event>
<event>
12    1  0.1432447E-007  0.7483306E+03  0.7818608E-02  0.9637973E-01
          1   -1    0    0  501    0  0.00000000000E+00  0.00000000000E+00  0.10748395814E+04  0.10748395814E+04  0.00000000000E+00 0. -1.
         -1   -1    0    0    0  501 -0.00000000000E+00 -0.00000000000E+00 -0.69090545958E+03  0.69090545958E+03  0.00000000000E+00 0.  1.
         23    2    1    2    0    0 -0.30060154703E+03 -0.67877417569E+03  0.33318697398E+02  0.74891636265E+03  0.93112356774E+02 0.  0.
    5000000    2    1    2    0    0  0.30060154703E+03  0.67877417569E+03  0.35061542443E+03  0.10168286783E+04  0.59992809036E+03 0.  0.
         23    2    4    4    0    0  0.24455248394E+03  0.49195353550E+03  0.50520001504E+03  0.75180989005E+03  0.90370664970E+02 0.  0.
         23    2    4    4    0    0  0.56049063094E+02  0.18682064019E+03 -0.15458459062E+03  0.26501878829E+03  0.91077513242E+02 0.  0.
          4    1    3    3  502    0 -0.16920082435E+03 -0.27400201688E+03 -0.17298777573E+00  0.32203424374E+03  0.00000000000E+00 0.  1.
         -4    1    3    3    0  502 -0.13140072268E+03 -0.40477215881E+03  0.33491685173E+02  0.42688211891E+03  0.00000000000E+00 0. -1.
         13    1    5    5    0    0  0.12944770968E+03  0.21552432437E+03  0.17657095820E+03  0.30722100712E+03  0.00000000000E+00 0. -1.
        -13    1    5    5    0    0  0.11510477426E+03  0.27642921113E+03  0.32862905685E+03  0.44458888293E+03  0.00000000000E+00 0.  1.
          2    1    6    6  503    0  0.59718989856E+02  0.15376468775E+03 -0.79948532149E+02  0.18330767780E+03  0.00000000000E+00 0. -1.
         -2    1    6    6    0  503 -0.36699267628E+01  0.33055952436E+02 -0.74636058467E+02  0.81711110490E+02  0.00000000000E+00 0.  1.
<mgrwt>
<rscale>  0 0.74833064E+03</rscale>
<asrwt>0</asrwt>
<pdfrwt beam="1">  1        1 0.16535994E+00 0.74833064E+03</pdfrwt>
<pdfrwt beam="2">  1       -1 0.10629315E+00 0.74833064E+03</pdfrwt>
<totfact> 0.11321140E+01</totfact>
</mgrwt>
</event>
<event>
12    1  0.1432447E-007  0.6379033E+03  0.7818608E-02  0.9829746E-01
         -2   -1    0    0    0  501 -0.00000000000E+00  0.00000000000E+00  0.41343668037E+03  0.41343668037E+03  0.00000000000E+00 0.  1.
          2   -1    0    0  501    0  0.00000000000E+00 -0.00000000000E+00 -0.12288975987E+04  0.12288975987E+04  0.00000000000E+00 0. -1.
         23    2    1    2    0    0 -0.38938487191E+03  0.32836927675E+03 -0.66242886582E+03  0.84066464694E+03  0.91967852884E+02 0.  0.
    5000000    2    1    2    0    0  0.38938487191E+03 -0.32836927675E+03 -0.15303205251E+03  0.80166963213E+03  0.59984033676E+03 0.  0.
         23    2    4    4    0    0  0.37026742362E+03 -0.47075030980E+03 -0.16963032616E+03  0.62915713734E+03  0.91435423872E+02 0.  0.
         23    2    4    4    0    0  0.19117448287E+02  0.14238103304E+03  0.16598273643E+02  0.17251249480E+03  0.94059676668E+02 0.  0.
          3    1    3    3  502    0 -0.18052476698E+03  0.15137070845E+03 -0.38164428825E+03  0.44850267070E+03  0.00000000000E+00 0. -1.
         -3    1    3    3    0  502 -0.20886010493E+03  0.17699856830E+03 -0.28078457757E+03  0.39216197625E+03  0.00000000000E+00 0.  1.
         11    1    5    5    0    0  0.16890388341E+03 -0.24809895706E+03 -0.12717722333E+03  0.32596880289E+03  0.00000000000E+00 0.  1.
        -11    1    5    5    0    0  0.20136354021E+03 -0.22265135274E+03 -0.42453102821E+02  0.30318833444E+03  0.00000000000E+00 0. -1.
          4    1    6    6  503    0  0.41526415815E+02  0.13687055987E+03 -0.17316850714E+01  0.14304192428E+03  0.00000000000E+00 0.  1.
         -4    1    6    6    0  503 -0.22408967528E+02  0.55104731760E+01  0.18329958714E+02  0.29470570520E+02  0.00000000000E+00 0. -1.
<mgrwt>
<rscale>  0 0.63790326E+03</rscale>
<asrwt>0</asrwt>
<pdfrwt beam="1">  1        2 0.18906117E+00 0.63790326E+03</pdfrwt>
<pdfrwt beam="2">  1       -2 0.63605643E-01 0.63790326E+03</pdfrwt>
<totfact> 0.42916490E+01</totfact>
</mgrwt>
</event>
<event>
12    1  0.1432447E-007  0.3388170E+03  0.7818608E-02  0.1067301E+00
          1   -1    0    0  501    0  0.00000000000E+00  0.00000000000E+00  0.14775691818E+04  0.14775691818E+04  0.00000000000E+00 0. -1.
         -1   -1    0    0    0  501 -0.00000000000E+00 -0.00000000000E+00 -0.31089687131E+03  0.31089687131E+03  0.00000000000E+00 0.  1.
         23    2    1    2    0    0 -0.82930703945E+02 -0.44388222593E+02 -0.23019554040E+03  0.26529270938E+03  0.92425206891E+02 0.  0.
    5000000    2    1    2    0    0  0.82930703945E+02  0.44388222593E+02  0.13968678509E+04  0.15231733437E+04  0.59997452133E+03 0.  0.
         23    2    4    4    0    0 -0.23658001052E+03  0.95135546653E+02  0.66597018589E+03  0.71887164563E+03  0.90770484083E+02 0.  0.
         23    2    4    4    0    0  0.31951071446E+03 -0.50747324059E+02  0.73089766502E+03  0.80430169812E+03  0.89595967061E+02 0.  0.
          2    1    3    3  502    0 -0.44704945597E+02 -0.12297564745E+02 -0.22224854197E+02  0.51416985555E+02  0.00000000000E+00 0. -1.
         -2    1    3    3    0  502 -0.38225758349E+02 -0.32090657849E+02 -0.20797068620E+03  0.21387572382E+03  0.00000000000E+00 0.  1.
         11    1    5    5    0    0 -0.19053267818E+03  0.90747797707E+02  0.43718275939E+03  0.48545507450E+03  0.00000000000E+00 0.  1.
        -11    1    5    5    0    0 -0.46047332338E+02  0.43877489457E+01  0.22878742650E+03  0.23341657113E+03  0.00000000000E+00 0. -1.
          3    1    6    6  503    0  0.18150616162E+03 -0.19377870665E+02  0.51270306119E+03  0.54422827704E+03  0.00000000000E+00 0. -1.
         -3    1    6    6    0  503  0.13800455285E+03 -0.31369453394E+02  0.21819460383E+03  0.26007342108E+03  0.00000000000E+00 0.  1.
<mgrwt>
<rscale>  0 0.33881702E+03</rscale>
<asrwt>0</asrwt>
<pdfrwt beam="1">  1        1 0.22731833E+00 0.33881702E+03</pdfrwt>
<pdfrwt beam="2">  1       -1 0.47830289E-01 0.33881702E+03</pdfrwt>
<totfact> 0.32859187E+01</totfact>
</mgrwt>
</event>
<event>
12    1  0.1432447E-007  0.7292455E+03  0.7818608E-02  0.9668486E-01
         -2   -1    0    0    0  501 -0.00000000000E+00  0.00000000000E+00  0.86056937760E+03  0.86056937760E+03  0.00000000000E+00 0. -1.
          2   -1    0    0  501    0  0.00000000000E+00 -0.00000000000E+00 -0.12295787986E+04  0.12295787986E+04  0.00000000000E+00 0.  1.
         23    2    1    2    0    0  0.65490796173E+03 -0.27391532128E+03  0.45485355515E+03  0.84804344230E+03  0.91388630657E+02 0.  0.
    5000000    2    1    2    0    0 -0.65490796173E+03  0.27391532128E+03 -0.82386297617E+03  0.12421047339E+04  0.60011659280E+03 0.  0.
         23    2    4    4    0    0 -0.44824194427E+03  0.81702467834E+02 -0.12103823186E+03  0.47999166997E+03  0.90253065407E+02 0.  0.
         23    2    4    4    0    0 -0.20666601746E+03  0.19221285345E+03 -0.70282474431E+03  0.76211306395E+03  0.84835589357E+02 0.  0.
          4    1    3    3  502    0  0.14846257918E+03 -0.49688225817E+02  0.14504836906E+03  0.21342231975E+03  0.00000000000E+00 0. -1.
         -4    1    3    3    0  502  0.50644538255E+03 -0.22422709546E+03  0.30980518609E+03  0.63462112254E+03  0.00000000000E+00 0.  1.
         11    1    5    5    0    0 -0.34188120403E+03  0.54174410808E+02 -0.13001830790E+03  0.36975990162E+03  0.00000000000E+00 0.  1.
        -11    1    5    5    0    0 -0.10636074024E+03  0.27528057027E+02  0.89800760430E+01  0.11023176835E+03  0.00000000000E+00 0. -1.
          1    1    6    6  503    0 -0.94488674014E+02  0.13855901829E+03 -0.45309335066E+03  0.48313589753E+03  0.00000000000E+00 0. -1.
         -1    1    6    6    0  503 -0.11217734344E+03  0.53653835154E+02 -0.24973139365E+03  0.27897716642E+03  0.00000000000E+00 0.  1.
<mgrwt>
<rscale>  0 0.72924550E+03</rscale>
<asrwt>0</asrwt>
<pdfrwt beam="1">  1        2 0.18916597E+00 0.72924550E+03</pdfrwt>
<pdfrwt beam="2">  1       -2 0.13239529E+00 0.72924550E+03</pdfrwt>
<totfact> 0.77186387E+00</totfact>
</mgrwt>
</event>
<event>
12    1  0.1432447E-007  0.3735506E+03  0.7818608E-02  0.1053344E+00
          2   -1    0    0  501    0  0.00000000000E+00  0.00000000000E+00  0.17908352728E+03  0.17908352728E+03  0.00000000000E+00 0. -1.
         -2   -1    0    0    0  501 -0.00000000000E+00 -0.00000000000E+00 -0.86281266570E+03  0.86281266570E+03  0.00000000000E+00 0.  1.
         23    2    1    2    0    0  0.90378002913E+02  0.84607635581E+02 -0.13420352932E+03  0.21889387321E+03  0.12073651080E+03 0.  0.
    5000000    2    1    2    0    0 -0.90378002913E+02 -0.84607635581E+02 -0.54952560911E+03  0.82300231977E+03  0.60002315612E+03 0.  0.
         23    2    4    4    0    0  0.19345587075E+03  0.10975423295E+03 -0.13279205211E+03  0.27490666067E+03  0.92025960446E+02 0.  0.
         23    2    4    4    0    0 -0.28383387367E+03 -0.19436186853E+03 -0.41673355699E+03  0.54809565910E+03  0.91672188929E+02 0.  0.
          1    1    3    3  502    0  0.11743008903E+03  0.80792498956E+02 -0.95708860335E+02  0.17168995208E+03  0.00000000000E+00 0. -1.
         -1    1    3    3    0  502 -0.27052086118E+02  0.38151366245E+01 -0.38494668981E+02  0.47203921137E+02  0.00000000000E+00 0.  1.
         11    1    5    5    0    0  0.12634579681E+03  0.67206737815E+02 -0.32147097468E+02  0.14667461217E+03  0.00000000000E+00 0.  1.
        -11    1    5    5    0    0  0.67110073943E+02  0.42547495138E+02 -0.10064495464E+03  0.12823204850E+03  0.00000000000E+00 0. -1.
          3    1    6    6  503    0 -0.73968332198E+02 -0.10047064455E+03 -0.12440342998E+03  0.17618705394E+03  0.00000000000E+00 0. -1.
         -3    1    6    6    0  503 -0.20986554147E+03 -0.93891223986E+02 -0.29233012701E+03  0.37190860517E+03  0.00000000000E+00 0.  1.
<mgrwt>
<rscale>  0 0.37355064E+03</rscale>
<asrwt>0</asrwt>
<pdfrwt beam="1">  1        2 0.27551311E-01 0.37355064E+03</pdfrwt>
<pdfrwt beam="2">  1       -2 0.13274041E+00 0.37355064E+03</pdfrwt>
<totfact> 0.83274346E+01</totfact>
</mgrwt>
</event>
<event>
12    1  0.1432447E-007  0.5456269E+03  0.7818608E-02  0.1002511E+00
          2   -1    0    0  501    0  0.00000000000E+00  0.00000000000E+00  0.16147768560E+04  0.16147768560E+04  0.00000000000E+00 0. -1.
         -2   -1    0    0    0  501 -0.00000000000E+00 -0.00000000000E+00 -0.34649702799E+03  0.34649702799E+03  0.00000000000E+00 0.  1.
         23    2    1    2    0    0 -0.93724213399E+02 -0.38627745591E+03  0.11647989079E+04  0.12341013064E+04  0.90857236709E+02 0.  0.
    5000000    2    1    2    0    0  0.93724213399E+02  0.38627745591E+03  0.10348092005E+03  0.72717257753E+03  0.60006429287E+03 0.  0.
         23    2    4    4    0    0  0.26422004828E+03  0.40491390933E+03 -0.26876765811E+02  0.49272481957E+03  0.91037791067E+02 0.  0.
         23    2    4    4    0    0 -0.17049583488E+03 -0.18636453419E+02  0.13035768586E+03  0.23444775796E+03  0.92501231567E+02 0.  0.
          2    1    3    3  502    0 -0.88743583895E+02 -0.19981101871E+03  0.69694737395E+03  0.73043515040E+03  0.00000000000E+00 0. -1.
         -2    1    3    3    0  502 -0.49806295048E+01 -0.18646643719E+03  0.46785153399E+03  0.50366615603E+03  0.00000000000E+00 0.  1.
         13    1    5    5    0    0  0.88644217955E+02  0.21523607883E+03 -0.26318341531E+02  0.23425845152E+03  0.00000000000E+00 0. -1.
        -13    1    5    5    0    0  0.17557583033E+03  0.18967783049E+03 -0.55842427977E+00  0.25846636805E+03  0.00000000000E+00 0.  1.
          4    1    6    6  503    0 -0.10035910931E+03  0.35282998526E+02  0.69597036323E+02  0.12712430245E+03  0.00000000000E+00 0. -1.
         -4    1    6    6    0  503 -0.70136725570E+02 -0.53919451945E+02  0.60760649534E+02  0.10732345551E+03  0.00000000000E+00 0.  1.
<mgrwt>
<rscale>  0 0.54562692E+03</rscale>
<asrwt>0</asrwt>
<pdfrwt beam="1">  1        2 0.24842720E+00 0.54562692E+03</pdfrwt>
<pdfrwt beam="2">  1       -2 0.53307236E-01 0.54562692E+03</pdfrwt>
<totfact> 0.38220727E+01</totfact>
</mgrwt>
</event>
<event>
12    1  0.1432447E-007  0.1242132E+04  0.7818608E-02  0.9076758E-01
          2   -1    0    0  501    0  0.00000000000E+00  0.00000000000E+00  0.28642973973E+04  0.28642973973E+04  0.00000000000E+00 0. -1.
         -2   -1    0    0    0  501 -0.00000000000E+00 -0.00000000000E+00 -0.89564533911E+03  0.89564533911E+03  0.00000000000E+00 0.  1.
         23    2    1    2    0    0  0.10891162997E+04  0.55420161179E+03  0.20582642105E+04  0.23955084228E+04  0.93248607669E+02 0.  0.
    5000000    2    1    2    0    0 -0.10891162997E+04 -0.55420161179E+03 -0.89612152369E+02  0.13644343135E+04  0.60028069873E+03 0.  0.
         23    2    4    4    0    0 -0.98780288832E+03 -0.54323637796E+03  0.95837201569E+02  0.11351871455E+04  0.92761940845E+02 0.  0.
         23    2    4    4    0    0 -0.10131341139E+03 -0.10965233829E+02 -0.18544935394E+03  0.22924716799E+03  0.88193863029E+02 0.  0.
          1    1    3    3  502    0  0.60937240001E+03  0.32735566457E+03  0.12492133708E+04  0.14279462521E+04  0.00000000000E+00 0. -1.
         -1    1    3    3    0  502  0.47974389970E+03  0.22684594722E+03  0.80905083971E+03  0.96756217077E+03  0.00000000000E+00 0.  1.
         11    1    5    5    0    0 -0.71652813033E+03 -0.42941996515E+03  0.97294949120E+02  0.84099962851E+03  0.00000000000E+00 0.  1.
        -11    1    5    5    0    0 -0.27127475798E+03 -0.11381641281E+03 -0.14577475516E+01  0.29418751702E+03  0.00000000000E+00 0. -1.
          2    1    6    6  503    0 -0.10273762041E+03 -0.34778093116E+02 -0.13294630329E+03  0.17157871070E+03  0.00000000000E+00 0. -1.
         -2    1    6    6    0  503  0.14242090170E+01  0.23812859287E+02 -0.52503050652E+02  0.57668457293E+02  0.00000000000E+00 0.  1.
<mgrwt>
<rscale>  0 0.12421316E+04</rscale>
<asrwt>0</asrwt>
<pdfrwt beam="1">  1        2 0.44066113E+00 0.12421316E+04</pdfrwt>
<pdfrwt beam="2">  1       -2 0.13779159E+00 0.12421316E+04</pdfrwt>
<totfact> 0.77363714E-01</totfact>
</mgrwt>
</event>
<event>
12    1  0.1432447E-007  0.1018031E+04  0.7818608E-02  0.9288987E-01
          1   -1    0    0  501    0  0.00000000000E+00  0.00000000000E+00  0.22153327135E+04  0.22153327135E+04  0.00000000000E+00 0. -1.
         -1   -1    0    0    0  501 -0.00000000000E+00 -0.00000000000E+00 -0.71480463035E+03  0.71480463035E+03  0.00000000000E+00 0.  1.
         23    2    1    2    0    0  0.65508659553E+03  0.76980295292E+03 -0.11228139513E+02  0.10151544188E+04  0.93152503759E+02 0.  0.
    5000000    2    1    2    0    0 -0.65508659553E+03 -0.76980295292E+03  0.15117562227E+04  0.19149829250E+04  0.60001474352E+03 0.  0.
         23    2    4    4    0    0 -0.25574044536E+03 -0.28076536203E+03  0.16530609300E+03  0.42499832666E+03  0.95210867931E+02 0.  0.
         23    2    4    4    0    0 -0.39934615017E+03 -0.48903759089E+03  0.13464501297E+04  0.14899845984E+04  0.92146832612E+02 0.  0.
          1    1    3    3  502    0  0.34140056502E+03  0.46112160166E+03  0.18602960902E+02  0.57405012627E+03  0.00000000000E+00 0. -1.
         -1    1    3    3    0  502  0.31368603050E+03  0.30868135126E+03 -0.29831100415E+02  0.44110429254E+03  0.00000000000E+00 0.  1.
         11    1    5    5    0    0 -0.20606260497E+02 -0.72936066781E+02  0.49358902522E+02  0.90446608932E+02  0.00000000000E+00 0. -1.
        -11    1    5    5    0    0 -0.23513418487E+03 -0.20782929525E+03  0.11594719048E+03  0.33455171773E+03  0.00000000000E+00 0.  1.
          3    1    6    6  503    0 -0.26390590836E+03 -0.29291790838E+03  0.93059108062E+03  0.10106666062E+04  0.00000000000E+00 0. -1.
         -3    1    6    6    0  503 -0.13544024181E+03 -0.19611968251E+03  0.41585904904E+03  0.47931799219E+03  0.00000000000E+00 0.  1.
<mgrwt>
<rscale>  0 0.10180306E+04</rscale>
<asrwt>0</asrwt>
<pdfrwt beam="1">  1        1 0.34082041E+00 0.10180306E+04</pdfrwt>
<pdfrwt beam="2">  1       -1 0.10996994E+00 0.10180306E+04</pdfrwt>
<totfact> 0.16424649E+00</totfact>
</mgrwt>
</event>
<event>
12    1  0.1432447E-007  0.1054800E+04  0.7818608E-02  0.9250402E-01
          2   -1    0    0  501    0  0.00000000000E+00  0.00000000000E+00  0.88117321141E+03  0.88117321141E+03  0.00000000000E+00 0. -1.
         -2   -1    0    0    0  501 -0.00000000000E+00 -0.00000000000E+00 -0.15395827062E+04  0.15395827062E+04  0.00000000000E+00 0.  1.
         23    2    1    2    0    0  0.10408489275E+04 -0.93465692699E+02 -0.61339153269E+03  0.12151816502E+04  0.91186321391E+02 0.  0.
    5000000    2    1    2    0    0 -0.10408489275E+04  0.93465692699E+02 -0.45017962058E+02  0.12055742673E+04  0.59940000971E+03 0.  0.
         23    2    4    4    0    0 -0.27713243578E+03 -0.20834584891E+02  0.23908176689E+03  0.37762506118E+03  0.90576645348E+02 0.  0.
         23    2    4    4    0    0 -0.76371649167E+03  0.11430027759E+03 -0.28409972894E+03  0.82794920615E+03  0.91977164934E+02 0.  0.
          2    1    3    3  502    0  0.72180753418E+03 -0.42529543671E+02 -0.46481210583E+03  0.85957266837E+03  0.00000000000E+00 0. -1.
         -2    1    3    3    0  502  0.31904139327E+03 -0.50936149028E+02 -0.14857942686E+03  0.35560898187E+03  0.00000000000E+00 0.  1.
         13    1    5    5    0    0 -0.27201789880E+03 -0.34321132407E+02  0.23816449841E+03  0.36317214334E+03  0.00000000000E+00 0.  1.
        -13    1    5    5    0    0 -0.51145369818E+01  0.13486547516E+02  0.91726847288E+00  0.14452917833E+02  0.00000000000E+00 0. -1.
          2    1    6    6  503    0 -0.45056229608E+03  0.35586306734E+02 -0.20027289789E+03  0.49435007991E+03  0.00000000000E+00 0. -1.
         -2    1    6    6    0  503 -0.31315419559E+03  0.78713970855E+02 -0.83826831054E+02  0.33359912624E+03  0.00000000000E+00 0.  1.
<mgrwt>
<rscale>  0 0.10548002E+04</rscale>
<asrwt>0</asrwt>
<pdfrwt beam="1">  1        2 0.13556511E+00 0.10548002E+04</pdfrwt>
<pdfrwt beam="2">  1       -2 0.23685888E+00 0.10548002E+04</pdfrwt>
<totfact> 0.23151151E+00</totfact>
</mgrwt>
</event>
<event>
12    1  0.1432447E-007  0.7216762E+03  0.7818608E-02  0.9680865E-01
         -1   -1    0    0    0  501 -0.00000000000E+00  0.00000000000E+00  0.33274233972E+03  0.33274233972E+03  0.00000000000E+00 0.  1.
          1   -1    0    0  501    0  0.00000000000E+00 -0.00000000000E+00 -0.27225536696E+04  0.27225536696E+04  0.00000000000E+00 0. -1.
         23    2    1    2    0    0 -0.54898969869E+03 -0.25827058349E+03 -0.20448966651E+04  0.21349529824E+04  0.91260519809E+02 0.  0.
    5000000    2    1    2    0    0  0.54898969869E+03  0.25827058349E+03 -0.34491466478E+03  0.92034302694E+03  0.59997648096E+03 0.  0.
         23    2    4    4    0    0  0.64245283246E+03  0.30073155764E+03 -0.30131239446E+03  0.77622106186E+03  0.92438445093E+02 0.  0.
         23    2    4    4    0    0 -0.93463133772E+02 -0.42460974148E+02 -0.43602270321E+02  0.14412196508E+03  0.91278097815E+02 0.  0.
          4    1    3    3  502    0 -0.84836259530E+02 -0.79082361212E+02 -0.39185045313E+03  0.40865387359E+03  0.00000000000E+00 0. -1.
         -4    1    3    3    0  502 -0.46415343916E+03 -0.17918822228E+03 -0.16530462120E+04  0.17262991088E+04  0.00000000000E+00 0.  1.
         13    1    5    5    0    0  0.73812751494E+02  0.48926324668E+01 -0.39068197954E+02  0.83657541364E+02  0.00000000000E+00 0.  1.
        -13    1    5    5    0    0  0.56864008097E+03  0.29583892517E+03 -0.26224419650E+03  0.69256352050E+03  0.00000000000E+00 0. -1.
          3    1    6    6  503    0 -0.43512424849E+02 -0.47788581291E+02  0.15593008090E+02  0.66484746517E+02  0.00000000000E+00 0. -1.
         -3    1    6    6    0  503 -0.49950708923E+02  0.53276071430E+01 -0.59195278411E+02  0.77637218562E+02  0.00000000000E+00 0.  1.
<mgrwt>
<rscale>  0 0.72167618E+03</rscale>
<asrwt>0</asrwt>
<pdfrwt beam="1">  1        1 0.41885441E+00 0.72167618E+03</pdfrwt>
<pdfrwt beam="2">  1       -1 0.51191130E-01 0.72167618E+03</pdfrwt>
<totfact> 0.38853809E+00</totfact>
</mgrwt>
</event>
<event>
12    1  0.1432447E-007  0.1113848E+04  0.7818608E-02  0.9191799E-01
          2   -1    0    0  501    0  0.00000000000E+00  0.00000000000E+00  0.28320170685E+04  0.28320170685E+04  0.00000000000E+00 0.  1.
         -2   -1    0    0    0  501 -0.00000000000E+00 -0.00000000000E+00 -0.53078732944E+03  0.53078732944E+03  0.00000000000E+00 0. -1.
         23    2    1    2    0    0 -0.98716659535E+03 -0.35520452127E+03  0.43619101667E+03  0.11404624111E+04  0.98609174074E+02 0.  0.
    5000000    2    1    2    0    0  0.98716659535E+03  0.35520452127E+03  0.18650387224E+04  0.22223419869E+04  0.59980524467E+03 0.  0.
         23    2    4    4    0    0  0.37268192811E+03  0.40347403914E+03  0.11229436104E+04  0.12534163508E+04  0.91471725462E+02 0.  0.
         23    2    4    4    0    0  0.61448466724E+03 -0.48269517870E+02  0.74209511202E+03  0.96892563604E+03  0.90500719718E+02 0.  0.
          4    1    3    3  502    0 -0.44358182298E+02  0.30477123466E+01  0.10243803000E+02  0.45627539789E+02  0.00000000000E+00 0. -1.
         -4    1    3    3    0  502 -0.94280841305E+03 -0.35825223362E+03  0.42594721367E+03  0.10948348713E+04  0.00000000000E+00 0.  1.
         11    1    5    5    0    0  0.10303005802E+03  0.16953481994E+03  0.35866730802E+03  0.40987740347E+03  0.00000000000E+00 0. -1.
        -11    1    5    5    0    0  0.26965187009E+03  0.23393921920E+03  0.76427630240E+03  0.84353894737E+03  0.00000000000E+00 0.  1.
          3    1    6    6  503    0  0.77970799151E+02 -0.26405897875E+02  0.65802685563E+02  0.10538837882E+03  0.00000000000E+00 0. -1.
         -3    1    6    6    0  503  0.53651386809E+03 -0.21863619995E+02  0.67629242645E+03  0.86353725722E+03  0.00000000000E+00 0.  1.
<mgrwt>
<rscale>  0 0.11138478E+04</rscale>
<asrwt>0</asrwt>
<pdfrwt beam="1">  1        2 0.43569493E+00 0.11138478E+04</pdfrwt>
<pdfrwt beam="2">  1       -2 0.81659591E-01 0.11138478E+04</pdfrwt>
<totfact> 0.29218663E+00</totfact>
</mgrwt>
</event>
<event>
12    1  0.1432447E-007  0.8752273E+03  0.7818608E-02  0.9457090E-01
         -1   -1    0    0    0  501 -0.00000000000E+00  0.00000000000E+00  0.42698448988E+03  0.42698448988E+03  0.00000000000E+00 0.  1.
          1   -1    0    0  501    0  0.00000000000E+00 -0.00000000000E+00 -0.20096326696E+04  0.20096326696E+04  0.00000000000E+00 0. -1.
         23    2    1    2    0    0  0.92372445707E+02  0.82074638268E+03 -0.74553778831E+03  0.11164423520E+04  0.91976290933E+02 0.  0.
    5000000    2    1    2    0    0 -0.92372445707E+02 -0.82074638268E+03 -0.83711039143E+03  0.13201748075E+04  0.59995868323E+03 0.  0.
         23    2    4    4    0    0  0.14947257755E+03 -0.46032949364E+03 -0.70025586495E+03  0.85598634933E+03  0.90050317605E+02 0.  0.
         23    2    4    4    0    0 -0.24184502325E+03 -0.36041688904E+03 -0.13685452648E+03  0.46418845819E+03  0.91391542968E+02 0.  0.
          4    1    3    3  502    0  0.82215304793E+02  0.47437092409E+03 -0.48034005264E+03  0.68008359496E+03  0.00000000000E+00 0. -1.
         -4    1    3    3    0  502  0.10157140914E+02  0.34637545859E+03 -0.26519773567E+03  0.43635875702E+03  0.00000000000E+00 0.  1.
         11    1    5    5    0    0  0.29077012924E+02 -0.30986820036E+02 -0.96296605127E+02  0.10525536497E+03  0.00000000000E+00 0.  1.
        -11    1    5    5    0    0  0.12039556462E+03 -0.42934267361E+03 -0.60395925982E+03  0.75073098436E+03  0.00000000000E+00 0. -1.
          1    1    6    6  503    0 -0.15555940734E+02 -0.26270235956E+02  0.13694846908E+02  0.33461342190E+02  0.00000000000E+00 0. -1.
         -1    1    6    6    0  503 -0.22628908252E+03 -0.33414665308E+03 -0.15054937339E+03  0.43072711600E+03  0.00000000000E+00 0.  1.
<mgrwt>
<rscale>  0 0.87522727E+03</rscale>
<asrwt>0</asrwt>
<pdfrwt beam="1">  1        1 0.30917425E+00 0.87522727E+03</pdfrwt>
<pdfrwt beam="2">  1       -1 0.65689924E-01 0.87522727E+03</pdfrwt>
<totfact> 0.70893279E+00</totfact>
</mgrwt>
</event>
<event>
12    1  0.1432447E-007  0.1243558E+04  0.7818608E-02  0.9075562E-01
         -1   -1    0    0    0  501 -0.00000000000E+00  0.00000000000E+00  0.93118801217E+03  0.93118801217E+03  0.00000000000E+00 0.  1.
          1   -1    0    0  501    0  0.00000000000E+00 -0.00000000000E+00 -0.21196613760E+04  0.21196613760E+04  0.00000000000E+00 0. -1.
         23    2    1    2    0    0 -0.12135654303E+04 -0.25602770848E+03 -0.11164547589E+04  0.16711531535E+04  0.89388996222E+02 0.  0.
    5000000    2    1    2    0    0  0.12135654303E+04  0.25602770848E+03 -0.72018604895E+02  0.13796962346E+04  0.60006981196E+03 0.  0.
         23    2    4    4    0    0  0.86537567475E+03  0.19507675767E+03 -0.30975663894E+03  0.94405948073E+03  0.91482938064E+02 0.  0.
         23    2    4    4    0    0  0.34818975557E+03  0.60950950808E+02  0.23773803405E+03  0.43563675390E+03  0.91153081265E+02 0.  0.
          2    1    3    3  502    0 -0.39160544296E+03 -0.43059681844E+02 -0.37438882647E+03  0.54348500674E+03  0.00000000000E+00 0. -1.
         -2    1    3    3    0  502 -0.82195998736E+03 -0.21296802664E+03 -0.74206593245E+03  0.11276681468E+04  0.00000000000E+00 0.  1.
         11    1    5    5    0    0  0.17508655649E+03  0.35923286008E+02 -0.10215519299E+03  0.20586759870E+03  0.00000000000E+00 0.  1.
        -11    1    5    5    0    0  0.69028911826E+03  0.15915347167E+03 -0.20760144596E+03  0.73819188203E+03  0.00000000000E+00 0. -1.
          1    1    6    6  503    0  0.14843784716E+03  0.12831244075E+01  0.54661873678E+02  0.15818774071E+03  0.00000000000E+00 0. -1.
         -1    1    6    6    0  503  0.19975190841E+03  0.59667826401E+02  0.18307616037E+03  0.27744901319E+03  0.00000000000E+00 0.  1.
<mgrwt>
<rscale>  0 0.12435583E+04</rscale>
<asrwt>0</asrwt>
<pdfrwt beam="1">  1        1 0.32610175E+00 0.12435583E+04</pdfrwt>
<pdfrwt beam="2">  1       -1 0.14325970E+00 0.12435583E+04</pdfrwt>
<totfact> 0.95392227E-01</totfact>
</mgrwt>
</event>
<event>
12    1  0.1432447E-007  0.7844827E+03  0.7818608E-02  0.9582753E-01
          2   -1    0    0  501    0  0.00000000000E+00  0.00000000000E+00  0.30995083513E+04  0.30995083513E+04  0.00000000000E+00 0. -1.
         -2   -1    0    0    0  501 -0.00000000000E+00 -0.00000000000E+00 -0.22660656607E+03  0.22660656607E+03  0.00000000000E+00 0.  1.
         23    2    1    2    0    0  0.71142203743E+03 -0.57922653822E+02  0.97381861411E+03  0.12104730682E+04  0.86290245783E+02 0.  0.
    5000000    2    1    2    0    0 -0.71142203743E+03  0.57922653822E+02  0.18990831711E+04  0.21156418491E+04  0.59995599329E+03 0.  0.
         23    2    4    4    0    0  0.53799827847E+02  0.40907174450E+02  0.77896034630E+02  0.13799427104E+03  0.91688648326E+02 0.  0.
         23    2    4    4    0    0 -0.76522186527E+03  0.17015479372E+02  0.18211871365E+04  0.19776475781E+04  0.92267694508E+02 0.  0.
          3    1    3    3  502    0  0.25815110522E+03  0.19261163575E+02  0.36792959113E+03  0.44987239255E+03  0.00000000000E+00 0. -1.
         -3    1    3    3    0  502  0.45327093220E+03 -0.77183817397E+02  0.60588902298E+03  0.76060067566E+03  0.00000000000E+00 0.  1.
         13    1    5    5    0    0  0.50185957592E+02  0.70014474477E+01 -0.24304963745E+01  0.50730246583E+02  0.00000000000E+00 0. -1.
        -13    1    5    5    0    0  0.36138702557E+01  0.33905727002E+02  0.80326531004E+02  0.87264024460E+02  0.00000000000E+00 0.  1.
          2    1    6    6  503    0 -0.23797439755E+02  0.28919162849E+01  0.26198507322E+02  0.35511168730E+02  0.00000000000E+00 0.  1.
         -2    1    6    6    0  503 -0.74142442552E+03  0.14123563087E+02  0.17949886291E+04  0.19421364094E+04  0.00000000000E+00 0. -1.
<mgrwt>
<rscale>  0 0.78448268E+03</rscale>
<asrwt>0</asrwt>
<pdfrwt beam="1">  1        2 0.47684741E+00 0.78448268E+03</pdfrwt>
<pdfrwt beam="2">  1       -2 0.34862551E-01 0.78448268E+03</pdfrwt>
<totfact> 0.12306008E+01</totfact>
</mgrwt>
</event>
<event>
12    1  0.1432447E-007  0.1000011E+04  0.7818608E-02  0.9308533E-01
          2   -1    0    0  501    0  0.00000000000E+00  0.00000000000E+00  0.32976349794E+04  0.32976349794E+04  0.00000000000E+00 0. -1.
         -2   -1    0    0    0  501 -0.00000000000E+00 -0.00000000000E+00 -0.66700470369E+03  0.66700470369E+03  0.00000000000E+00 0.  1.
         23    2    1    2    0    0  0.51597704584E+03 -0.83878639950E+03  0.26317497416E+04  0.28114410067E+04  0.91098275585E+02 0.  0.
    5000000    2    1    2    0    0 -0.51597704584E+03  0.83878639950E+03 -0.11194658987E+01  0.11531986764E+04  0.60005916224E+03 0.  0.
         23    2    4    4    0    0 -0.42366132932E+03  0.48527420775E+03  0.25420902532E+03  0.69849944660E+03  0.91100327516E+02 0.  0.
         23    2    4    4    0    0 -0.92315716517E+02  0.35351219175E+03 -0.25532849122E+03  0.45469922979E+03  0.89809186102E+02 0.  0.
          3    1    3    3  502    0  0.32451022585E+03 -0.46144520055E+03  0.15852009138E+04  0.16825874411E+04  0.00000000000E+00 0. -1.
         -3    1    3    3    0  502  0.19146681999E+03 -0.37734119895E+03  0.10465488277E+04  0.11288535655E+04  0.00000000000E+00 0.  1.
         13    1    5    5    0    0 -0.29074315111E+03  0.37248692043E+03  0.15173003707E+03  0.49628629838E+03  0.00000000000E+00 0.  1.
        -13    1    5    5    0    0 -0.13291817822E+03  0.11278728732E+03  0.10247898825E+03  0.20221314822E+03  0.00000000000E+00 0. -1.
          4    1    6    6  503    0 -0.55458105650E+02  0.24869863049E+03 -0.12618647158E+03  0.28434070391E+03  0.00000000000E+00 0. -1.
         -4    1    6    6    0  503 -0.36857610866E+02  0.10481356126E+03 -0.12914201964E+03  0.17035852588E+03  0.00000000000E+00 0.  1.
<mgrwt>
<rscale>  0 0.10000110E+04</rscale>
<asrwt>0</asrwt>
<pdfrwt beam="1">  1        2 0.50732845E+00 0.10000110E+04</pdfrwt>
<pdfrwt beam="2">  1       -2 0.10261611E+00 0.10000110E+04</pdfrwt>
<totfact> 0.89193323E-01</totfact>
</mgrwt>
</event>
<event>
12    1  0.1432447E-007  0.8116952E+03  0.7818608E-02  0.9543241E-01
         -1   -1    0    0    0  501 -0.00000000000E+00  0.00000000000E+00  0.48563490248E+03  0.48563490248E+03  0.00000000000E+00 0.  1.
          1   -1    0    0  501    0  0.00000000000E+00 -0.00000000000E+00 -0.16693166595E+04  0.16693166595E+04  0.00000000000E+00 0. -1.
         23    2    1    2    0    0  0.67267682450E+03 -0.21095614893E+03 -0.97401023634E+03  0.12058000953E+04  0.90891816384E+02 0.  0.
    5000000    2    1    2    0    0 -0.67267682450E+03  0.21095614893E+03 -0.20967152064E+03  0.94915146665E+03  0.59994145806E+03 0.  0.
         23    2    4    4    0    0 -0.33311436598E+03  0.39701244239E+03 -0.14658219067E+03  0.54630216613E+03  0.91518620330E+02 0.  0.
         23    2    4    4    0    0 -0.33956245852E+03 -0.18605629346E+03 -0.63089329971E+02  0.40284930052E+03  0.91584320735E+02 0.  0.
          2    1    3    3  502    0  0.42017195884E+03 -0.85211574312E+02 -0.59014581065E+03  0.72943647100E+03  0.00000000000E+00 0.  1.
         -2    1    3    3    0  502  0.25250486565E+03 -0.12574457462E+03 -0.38386442568E+03  0.47636362427E+03  0.00000000000E+00 0. -1.
         11    1    5    5    0    0 -0.18062032682E+02  0.57264028537E+02  0.90480125164E+00  0.60051849715E+02  0.00000000000E+00 0. -1.
        -11    1    5    5    0    0 -0.31505233329E+03  0.33974841385E+03 -0.14748699192E+03  0.48625031641E+03  0.00000000000E+00 0.  1.
          2    1    6    6  503    0 -0.12348316574E+03 -0.89590339674E+02 -0.65932709244E+02  0.16619760327E+03  0.00000000000E+00 0. -1.
         -2    1    6    6    0  503 -0.21607929278E+03 -0.96465953786E+02  0.28433792727E+01  0.23665169726E+03  0.00000000000E+00 0.  1.
<mgrwt>
<rscale>  0 0.81169523E+03</rscale>
<asrwt>0</asrwt>
<pdfrwt beam="1">  1        1 0.25681794E+00 0.81169523E+03</pdfrwt>
<pdfrwt beam="2">  1       -1 0.74713063E-01 0.81169523E+03</pdfrwt>
<totfact> 0.93013596E+00</totfact>
</mgrwt>
</event>
<event>
12    1  0.1432447E-007  0.4324446E+03  0.7818608E-02  0.1033091E+00
          2   -1    0    0  501    0  0.00000000000E+00  0.00000000000E+00  0.92725855973E+03  0.92725855973E+03  0.00000000000E+00 0. -1.
         -2   -1    0    0    0  501 -0.00000000000E+00 -0.00000000000E+00 -0.40053485031E+03  0.40053485031E+03  0.00000000000E+00 0.  1.
         23    2    1    2    0    0  0.25738426447E+03 -0.32258058197E+03  0.41225108540E+03  0.59056544786E+03  0.92258871302E+02 0.  0.
    5000000    2    1    2    0    0 -0.25738426447E+03  0.32258058197E+03  0.11447262402E+03  0.73722796218E+03  0.60008015724E+03 0.  0.
         23    2    4    4    0    0 -0.21092733152E+03  0.15684349222E+03  0.33902965117E+03  0.43838713510E+03  0.90288180925E+02 0.  0.
         23    2    4    4    0    0 -0.46456932952E+02  0.16573708975E+03 -0.22455702715E+03  0.29884082708E+03  0.96192265545E+02 0.  0.
          3    1    3    3  502    0  0.16449916332E+03 -0.22525644212E+03  0.21673615830E+03  0.35323505172E+03  0.00000000000E+00 0. -1.
         -3    1    3    3    0  502  0.92885101149E+02 -0.97324139846E+02  0.19551492710E+03  0.23733039614E+03  0.00000000000E+00 0.  1.
         11    1    5    5    0    0 -0.16998399710E+03  0.79479142599E+02  0.20129765866E+03  0.27519491413E+03  0.00000000000E+00 0. -1.
        -11    1    5    5    0    0 -0.40943334417E+02  0.77364349622E+02  0.13773199251E+03  0.16319222097E+03  0.00000000000E+00 0.  1.
          1    1    6    6  503    0 -0.30250836636E+02  0.15206943468E+03 -0.13120924603E+03  0.20311595783E+03  0.00000000000E+00 0. -1.
         -1    1    6    6    0  503 -0.16206096317E+02  0.13667655065E+02 -0.93347781123E+02  0.95724869252E+02  0.00000000000E+00 0.  1.
<mgrwt>
<rscale>  0 0.43244458E+03</rscale>
<asrwt>0</asrwt>
<pdfrwt beam="1">  1        2 0.14265516E+00 0.43244458E+03</pdfrwt>
<pdfrwt beam="2">  1       -2 0.61620746E-01 0.43244458E+03</pdfrwt>
<totfact> 0.72031512E+01</totfact>
</mgrwt>
</event>
<event>
12    1  0.1432447E-007  0.5601116E+03  0.7818608E-02  0.9991802E-01
         -1   -1    0    0    0  501 -0.00000000000E+00  0.00000000000E+00  0.52233129894E+03  0.52233129894E+03  0.00000000000E+00 0.  1.
          1   -1    0    0  501    0  0.00000000000E+00 -0.00000000000E+00 -0.98652691993E+03  0.98652691993E+03  0.00000000000E+00 0. -1.
         23    2    1    2    0    0 -0.79005847011E+02 -0.46444956392E+03  0.17778145892E+03  0.51184553090E+03  0.91783871533E+02 0.  0.
    5000000    2    1    2    0    0  0.79005847011E+02  0.46444956392E+03 -0.64197707991E+03  0.99701268797E+03  0.59995367117E+03 0.  0.
         23    2    4    4    0    0  0.16698678971E+03  0.49688893713E+03 -0.67956707127E+03  0.86323902874E+03  0.92666135149E+02 0.  0.
         23    2    4    4    0    0 -0.87980942699E+02 -0.32439373211E+02  0.37589991353E+02  0.13377365924E+03  0.87689367900E+02 0.  0.
          3    1    3    3  502    0  0.97993241467E+01 -0.16324296008E+03  0.85517692726E+02  0.18454692232E+03  0.00000000000E+00 0. -1.
         -3    1    3    3    0  502 -0.88805171157E+02 -0.30120660385E+03  0.92263766197E+02  0.32729860858E+03  0.00000000000E+00 0.  1.
         13    1    5    5    0    0  0.17558227489E+02  0.41295327744E+02 -0.23543562060E+02  0.50674399459E+02  0.00000000000E+00 0. -1.
        -13    1    5    5    0    0  0.14942856222E+03  0.45559360939E+03 -0.65602350921E+03  0.81256462928E+03  0.00000000000E+00 0.  1.
          4    1    6    6  503    0 -0.64917061619E+00  0.17634341726E+02  0.27399646764E+02  0.32590367801E+02  0.00000000000E+00 0. -1.
         -4    1    6    6    0  503 -0.87331772083E+02 -0.50073714937E+02  0.10190344589E+02  0.10118329143E+03  0.00000000000E+00 0.  1.
<mgrwt>
<rscale>  0 0.56011162E+03</rscale>
<asrwt>0</asrwt>
<pdfrwt beam="1">  1        1 0.15177337E+00 0.56011162E+03</pdfrwt>
<pdfrwt beam="2">  1       -1 0.80358662E-01 0.56011162E+03</pdfrwt>
<totfact> 0.25257783E+01</totfact>
</mgrwt>
</event>
<event>
12    1  0.1432447E-007  0.1091508E+04  0.7818608E-02  0.9213509E-01
         -2   -1    0    0    0  501 -0.00000000000E+00  0.00000000000E+00  0.22828319761E+04  0.22828319761E+04  0.00000000000E+00 0.  1.
          2   -1    0    0  501    0  0.00000000000E+00 -0.00000000000E+00 -0.70501890612E+03  0.70501890612E+03  0.00000000000E+00 0. -1.
         23    2    1    2    0    0 -0.87040699544E+03 -0.64602263545E+03  0.13407139389E+04  0.17264730163E+04  0.90783405264E+02 0.  0.
    5000000    2    1    2    0    0  0.87040699544E+03  0.64602263545E+03  0.23709913112E+03  0.12613778660E+04  0.59992044442E+03 0.  0.
         23    2    4    4    0    0  0.15707241143E+03  0.18852025834E+03 -0.17450421127E+03  0.31513130539E+03  0.92975209867E+02 0.  0.
         23    2    4    4    0    0  0.71333458401E+03  0.45750237711E+03  0.41160334239E+03  0.94624656061E+03  0.88377532136E+02 0.  0.
          3    1    3    3  502    0 -0.58914858762E+03 -0.46180983884E+03  0.86492804360E+03  0.11438815088E+04  0.00000000000E+00 0. -1.
         -3    1    3    3    0  502 -0.28125840783E+03 -0.18421279661E+03  0.47578589531E+03  0.58259150748E+03  0.00000000000E+00 0.  1.
         11    1    5    5    0    0  0.15180090286E+01  0.69351834947E+01 -0.40338492008E+02  0.40958455281E+02  0.00000000000E+00 0. -1.
        -11    1    5    5    0    0  0.15555440240E+03  0.18158507484E+03 -0.13416571927E+03  0.27417285011E+03  0.00000000000E+00 0.  1.
          4    1    6    6  503    0  0.45453706911E+03  0.24024471591E+03  0.25091884713E+03  0.57208542943E+03  0.00000000000E+00 0. -1.
         -4    1    6    6    0  503  0.25879751490E+03  0.21725766120E+03  0.16068449527E+03  0.37416113118E+03  0.00000000000E+00 0.  1.
<mgrwt>
<rscale>  0 0.10915078E+04</rscale>
<asrwt>0</asrwt>
<pdfrwt beam="1">  1        2 0.10846445E+00 0.10915078E+04</pdfrwt>
<pdfrwt beam="2">  1       -2 0.35120492E+00 0.10915078E+04</pdfrwt>
<totfact> 0.62087608E-01</totfact>
</mgrwt>
</event>
<event>
12    1  0.1432447E-007  0.2019817E+04  0.7818608E-02  0.8597411E-01
          2   -1    0    0  501    0  0.00000000000E+00  0.00000000000E+00  0.28077874807E+04  0.28077874807E+04  0.00000000000E+00 0. -1.
         -2   -1    0    0    0  501 -0.00000000000E+00 -0.00000000000E+00 -0.23896388053E+04  0.23896388053E+04  0.00000000000E+00 0.  1.
         23    2    1    2    0    0  0.16027803003E+04 -0.11763986185E+04 -0.14031523703E+04  0.24352053641E+04  0.92575322277E+02 0.  0.
    5000000    2    1    2    0    0 -0.16027803003E+04  0.11763986185E+04  0.18213010458E+04  0.27622209219E+04  0.59992376310E+03 0.  0.
         23    2    4    4    0    0 -0.14945134513E+04  0.12095149281E+04  0.17150832200E+04  0.25780974836E+04  0.92624866843E+02 0.  0.
         23    2    4    4    0    0 -0.10826684899E+03 -0.33116309610E+02  0.10621782574E+03  0.18412343830E+03  0.98999057946E+02 0.  0.
          2    1    3    3  502    0  0.76245169729E+03 -0.56616360804E+03 -0.72649626025E+03  0.11956883532E+04  0.00000000000E+00 0. -1.
         -2    1    3    3    0  502  0.84032860305E+03 -0.61023501043E+03 -0.67665611004E+03  0.12395170109E+04  0.00000000000E+00 0.  1.
         11    1    5    5    0    0 -0.75101396374E+03  0.66730885784E+03  0.89634410881E+03  0.13463862176E+04  0.00000000000E+00 0. -1.
        -11    1    5    5    0    0 -0.74349948760E+03  0.54220607025E+03  0.81873911120E+03  0.12317112660E+04  0.00000000000E+00 0.  1.
          1    1    6    6  503    0 -0.21693931066E+02 -0.33612124985E+02 -0.80056831513E+01  0.40798193022E+02  0.00000000000E+00 0. -1.
         -1    1    6    6    0  503 -0.86572917928E+02  0.49581537539E+00  0.11422350889E+03  0.14332524528E+03  0.00000000000E+00 0.  1.
<mgrwt>
<rscale>  0 0.20198168E+04</rscale>
<asrwt>0</asrwt>
<pdfrwt beam="1">  1        2 0.43196731E+00 0.20198168E+04</pdfrwt>
<pdfrwt beam="2">  1       -2 0.36763674E+00 0.20198168E+04</pdfrwt>
<totfact> 0.24197668E-02</totfact>
</mgrwt>
</event>
<event>
12    1  0.1432447E-007  0.2104887E+03  0.7818608E-02  0.1141180E+00
         -2   -1    0    0    0  501 -0.00000000000E+00  0.00000000000E+00  0.26410120813E+03  0.26410120813E+03  0.00000000000E+00 0.  1.
          2   -1    0    0  501    0  0.00000000000E+00 -0.00000000000E+00 -0.52518006020E+03  0.52518006020E+03  0.00000000000E+00 0. -1.
         23    2    1    2    0    0  0.56416006773E+02 -0.33744190302E+02 -0.12818073288E+03  0.17118925884E+03  0.92487976845E+02 0.  0.
    5000000    2    1    2    0    0 -0.56416006773E+02  0.33744190302E+02 -0.13289811919E+03  0.61809200949E+03  0.60004531988E+03 0.  0.
         23    2    4    4    0    0 -0.77308670948E+01 -0.13816074642E+03  0.18139663999E+03  0.24538482476E+03  0.90337218611E+02 0.  0.
         23    2    4    4    0    0 -0.48685139679E+02  0.17190493672E+03 -0.31429475918E+03  0.37270718473E+03  0.90597460265E+02 0.  0.
          4    1    3    3  502    0  0.57700702622E+02 -0.33411793428E+02 -0.30195189064E+02  0.73194729768E+02  0.00000000000E+00 0.  1.
         -4    1    3    3    0  502 -0.12846958486E+01 -0.33239687461E+00 -0.97985543817E+02  0.97994529073E+02  0.00000000000E+00 0. -1.
         11    1    5    5    0    0 -0.35921098676E+02 -0.95098642217E+02  0.72264206947E+02  0.12472446708E+03  0.00000000000E+00 0.  1.
        -11    1    5    5    0    0  0.28190231581E+02 -0.43062104202E+02  0.10913243304E+03  0.12066035769E+03  0.00000000000E+00 0. -1.
          1    1    6    6  503    0  0.23434700492E+02  0.78004879207E+02 -0.14082970368E+03  0.16268666757E+03  0.00000000000E+00 0. -1.
         -1    1    6    6    0  503 -0.72119840171E+02  0.93900057515E+02 -0.17346505551E+03  0.21002051716E+03  0.00000000000E+00 0.  1.
<mgrwt>
<rscale>  0 0.21048871E+03</rscale>
<asrwt>0</asrwt>
<pdfrwt beam="1">  1        2 0.80796933E-01 0.21048871E+03</pdfrwt>
<pdfrwt beam="2">  1       -2 0.40630955E-01 0.21048871E+03</pdfrwt>
<totfact> 0.34406947E+02</totfact>
</mgrwt>
</event>
<event>
12    1  0.1432447E-007  0.8247622E+03  0.7818608E-02  0.9524851E-01
          2   -1    0    0  501    0  0.00000000000E+00  0.00000000000E+00  0.11697695046E+04  0.11697695046E+04  0.00000000000E+00 0. -1.
         -2   -1    0    0    0  501 -0.00000000000E+00 -0.00000000000E+00 -0.94818078274E+03  0.94818078274E+03  0.00000000000E+00 0.  1.
         23    2    1    2    0    0 -0.56627182670E+03  0.59177129736E+03  0.61687538212E+03  0.10284105596E+04  0.78968296998E+02 0.  0.
    5000000    2    1    2    0    0  0.56627182670E+03 -0.59177129736E+03 -0.39528666025E+03  0.10895397278E+04  0.59999018701E+03 0.  0.
         23    2    4    4    0    0  0.19822615231E+03 -0.14799486215E+03  0.13869622400E+03  0.29860674568E+03  0.93451909221E+02 0.  0.
         23    2    4    4    0    0  0.36804567439E+03 -0.44377643521E+03 -0.53398288425E+03  0.79093298208E+03  0.89677860025E+02 0.  0.
          3    1    3    3  502    0 -0.65679109026E+02  0.84838900346E+02  0.11279584445E+03  0.15567365513E+03  0.00000000000E+00 0. -1.
         -3    1    3    3    0  502 -0.50059271767E+03  0.50693239701E+03  0.50407953767E+03  0.87273690447E+03  0.00000000000E+00 0.  1.
         13    1    5    5    0    0  0.12318045616E+03 -0.92116018991E+02  0.13550365531E+03  0.20498786875E+03  0.00000000000E+00 0. -1.
        -13    1    5    5    0    0  0.75045696150E+02 -0.55878843154E+02  0.31925686869E+01  0.93618876930E+02  0.00000000000E+00 0.  1.
          4    1    6    6  503    0  0.90586322882E+02 -0.16995917471E+03 -0.19930070457E+03  0.27715117500E+03  0.00000000000E+00 0. -1.
         -4    1    6    6    0  503  0.27745935151E+03 -0.27381726050E+03 -0.33468217967E+03  0.51378180707E+03  0.00000000000E+00 0.  1.
<mgrwt>
<rscale>  0 0.82476220E+03</rscale>
<asrwt>0</asrwt>
<pdfrwt beam="1">  1        2 0.17996454E+00 0.82476220E+03</pdfrwt>
<pdfrwt beam="2">  1       -2 0.14587397E+00 0.82476220E+03</pdfrwt>
<totfact> 0.64391226E+00</totfact>
</mgrwt>
</event>
<event>
12    1  0.1432447E-007  0.5681382E+03  0.7818608E-02  0.9973807E-01
          2   -1    0    0  501    0  0.00000000000E+00  0.00000000000E+00  0.96054383222E+03  0.96054383222E+03  0.00000000000E+00 0. -1.
         -2   -1    0    0    0  501 -0.00000000000E+00 -0.00000000000E+00 -0.37247619353E+03  0.37247619353E+03  0.00000000000E+00 0.  1.
         23    2    1    2    0    0  0.40633715553E+03  0.15330670142E+03  0.31256570616E+03  0.54273910730E+03  0.90860273281E+02 0.  0.
    5000000    2    1    2    0    0 -0.40633715553E+03 -0.15330670142E+03  0.27550193253E+03  0.79028091845E+03  0.60002482164E+03 0.  0.
         23    2    4    4    0    0  0.13123859336E+03 -0.39597013337E+02 -0.85572125181E+01  0.16504055234E+03  0.91507738346E+02 0.  0.
         23    2    4    4    0    0 -0.53757574890E+03 -0.11370968809E+03  0.28405914504E+03  0.62524036611E+03  0.91204926225E+02 0.  0.
          1    1    3    3  502    0  0.94046145678E+02  0.75175684486E+01  0.10160903500E+03  0.13865636425E+03  0.00000000000E+00 0. -1.
         -1    1    3    3    0  502  0.31229100985E+03  0.14578913298E+03  0.21095667116E+03  0.40408274306E+03  0.00000000000E+00 0.  1.
         13    1    5    5    0    0  0.84588764150E+02 -0.78423461551E+01 -0.46686223121E+02  0.96934848445E+02  0.00000000000E+00 0. -1.
        -13    1    5    5    0    0  0.46649829215E+02 -0.31754667182E+02  0.38129010603E+02  0.68105703896E+02  0.00000000000E+00 0.  1.
          4    1    6    6  503    0 -0.26001393333E+03 -0.11997227274E+02  0.11356302380E+03  0.28398545625E+03  0.00000000000E+00 0. -1.
         -4    1    6    6    0  503 -0.27756181556E+03 -0.10171246081E+03  0.17049612124E+03  0.34125490986E+03  0.00000000000E+00 0.  1.
<mgrwt>
<rscale>  0 0.56813817E+03</rscale>
<asrwt>0</asrwt>
<pdfrwt beam="1">  1        2 0.14777597E+00 0.56813817E+03</pdfrwt>
<pdfrwt beam="2">  1       -2 0.57304030E-01 0.56813817E+03</pdfrwt>
<totfact> 0.78565361E+01</totfact>
</mgrwt>
</event>
<event>
12    1  0.1432447E-007  0.8625095E+03  0.7818608E-02  0.9473699E-01
          2   -1    0    0  501    0  0.00000000000E+00  0.00000000000E+00  0.14452740244E+04  0.14452740244E+04  0.00000000000E+00 0. -1.
         -2   -1    0    0    0  501 -0.00000000000E+00 -0.00000000000E+00 -0.77444622256E+03  0.77444622256E+03  0.00000000000E+00 0.  1.
         23    2    1    2    0    0 -0.59657450006E+03  0.61065406739E+03 -0.17523763864E+03  0.87633095024E+03  0.91913982626E+02 0.  0.
    5000000    2    1    2    0    0  0.59657450006E+03 -0.61065406739E+03  0.84606544047E+03  0.13433892967E+04  0.60005712129E+03 0.  0.
         23    2    4    4    0    0  0.38905001222E+03 -0.36858028275E+03  0.85354706979E+03  0.10117489608E+04  0.88780755397E+02 0.  0.
         23    2    4    4    0    0  0.20752448784E+03 -0.24207378465E+03 -0.74816293169E+01  0.33164033590E+03  0.90902185618E+02 0.  0.
          1    1    3    3  502    0 -0.24856701885E+03  0.22521948308E+03 -0.10974242768E+03  0.35292035766E+03  0.00000000000E+00 0. -1.
         -1    1    3    3    0  502 -0.34800748121E+03  0.38543458431E+03 -0.65495210967E+02  0.52341059258E+03  0.00000000000E+00 0.  1.
         11    1    5    5    0    0  0.32869862499E+03 -0.34144473420E+03  0.70961941401E+03  0.85333874008E+03  0.00000000000E+00 0. -1.
        -11    1    5    5    0    0  0.60351387230E+02 -0.27135548550E+02  0.14392765578E+03  0.15841022074E+03  0.00000000000E+00 0.  1.
          4    1    6    6  503    0  0.84972428487E+02 -0.16446579581E+03  0.10798563718E+02  0.18543441044E+03  0.00000000000E+00 0. -1.
         -4    1    6    6    0  503  0.12255205935E+03 -0.77607988834E+02 -0.18280193035E+02  0.14620592546E+03  0.00000000000E+00 0.  1.
<mgrwt>
<rscale>  0 0.86250951E+03</rscale>
<asrwt>0</asrwt>
<pdfrwt beam="1">  1        2 0.22234985E+00 0.86250951E+03</pdfrwt>
<pdfrwt beam="2">  1       -2 0.11914557E+00 0.86250951E+03</pdfrwt>
<totfact> 0.74366784E+00</totfact>
</mgrwt>
</event>
<event>
12    1  0.1432447E-007  0.9853675E+03  0.7818608E-02  0.9324741E-01
         -1   -1    0    0    0  501 -0.00000000000E+00  0.00000000000E+00  0.64591144255E+03  0.64591144255E+03  0.00000000000E+00 0.  1.
          1   -1    0    0  501    0  0.00000000000E+00 -0.00000000000E+00 -0.24182583804E+04  0.24182583804E+04  0.00000000000E+00 0. -1.
         23    2    1    2    0    0 -0.50005823989E+03  0.74862318444E+03  0.91373260857E+02  0.90918612426E+03  0.88178343063E+02 0.  0.
    5000000    2    1    2    0    0  0.50005823989E+03 -0.74862318444E+03 -0.18637201987E+04  0.21549836987E+04  0.60000570578E+03 0.  0.
         23    2    4    4    0    0  0.24782361310E+03  0.20449759378E+02 -0.41572029145E+03  0.49367304524E+03  0.95157653441E+02 0.  0.
         23    2    4    4    0    0  0.25223462679E+03 -0.76907294382E+03 -0.14479999072E+04  0.16613106534E+04  0.90298704049E+02 0.  0.
          1    1    3    3  502    0 -0.14902531457E+03  0.29546684317E+03  0.19691498784E+02  0.33150709633E+03  0.00000000000E+00 0. -1.
         -1    1    3    3    0  502 -0.35103292532E+03  0.45315634127E+03  0.71681762073E+02  0.57767902793E+03  0.00000000000E+00 0.  1.
         11    1    5    5    0    0  0.22920626748E+03  0.29406780324E+00 -0.40256732592E+03  0.46324513103E+03  0.00000000000E+00 0. -1.
        -11    1    5    5    0    0  0.18617345623E+02  0.20155691575E+02 -0.13152965525E+02  0.30427914208E+02  0.00000000000E+00 0.  1.
          3    1    6    6  503    0  0.55048140743E+02 -0.21125810019E+03 -0.31687955223E+03  0.38480246012E+03  0.00000000000E+00 0. -1.
         -3    1    6    6    0  503  0.19718648605E+03 -0.55781484363E+03 -0.11311203550E+04  0.12765081933E+04  0.00000000000E+00 0.  1.
<mgrwt>
<rscale>  0 0.98536747E+03</rscale>
<asrwt>0</asrwt>
<pdfrwt beam="1">  1        1 0.37203975E+00 0.98536747E+03</pdfrwt>
<pdfrwt beam="2">  1       -1 0.99370992E-01 0.98536747E+03</pdfrwt>
<totfact> 0.15215617E+00</totfact>
</mgrwt>
</event>
<event>
12    1  0.1432447E-007  0.5898567E+03  0.7818608E-02  0.9926677E-01
          1   -1    0    0  501    0  0.00000000000E+00  0.00000000000E+00  0.92598849731E+03  0.92598849731E+03  0.00000000000E+00 0. -1.
         -1   -1    0    0    0  501 -0.00000000000E+00 -0.00000000000E+00 -0.39447822766E+03  0.39447822766E+03  0.00000000000E+00 0.  1.
         23    2    1    2    0    0  0.43610035894E+03  0.51428315277E+02  0.30749369221E+03  0.54394145811E+03  0.92149576403E+02 0.  0.
    5000000    2    1    2    0    0 -0.43610035894E+03 -0.51428315277E+02  0.22401657744E+03  0.77652526685E+03  0.59998305677E+03 0.  0.
         23    2    4    4    0    0 -0.54241242283E+03 -0.14725996806E+03  0.14190502407E+03  0.58714436083E+03  0.93299142382E+02 0.  0.
         23    2    4    4    0    0  0.10631206389E+03  0.95831652786E+02  0.82111553369E+02  0.18938090602E+03  0.92934707001E+02 0.  0.
          3    1    3    3  502    0  0.13552489820E+03  0.54064188313E+02  0.12619269106E+03  0.19291067821E+03  0.00000000000E+00 0.  1.
         -3    1    3    3    0  502  0.30057546074E+03 -0.26358730360E+01  0.18130100115E+03  0.35103077991E+03  0.00000000000E+00 0. -1.
         13    1    5    5    0    0 -0.35150218987E+03 -0.14014462364E+03  0.10304356304E+03  0.39218908820E+03  0.00000000000E+00 0.  1.
        -13    1    5    5    0    0 -0.19091023296E+03 -0.71153444243E+01  0.38861461030E+02  0.19495527263E+03  0.00000000000E+00 0. -1.
          3    1    6    6  503    0  0.30767844516E+02  0.81174106795E+02  0.69924126051E+02  0.11146873676E+03  0.00000000000E+00 0. -1.
         -3    1    6    6    0  503  0.75544219373E+02  0.14657545990E+02  0.12187427318E+02  0.77912169266E+02  0.00000000000E+00 0.  1.
<mgrwt>
<rscale>  0 0.58985667E+03</rscale>
<asrwt>0</asrwt>
<pdfrwt beam="1">  1        1 0.14245977E+00 0.58985667E+03</pdfrwt>
<pdfrwt beam="2">  1       -1 0.60688958E-01 0.58985667E+03</pdfrwt>
<totfact> 0.49707300E+01</totfact>
</mgrwt>
</event>
<event>
12    1  0.1432447E-007  0.9058280E+03  0.7818608E-02  0.9418325E-01
         -1   -1    0    0    0  501 -0.00000000000E+00  0.00000000000E+00  0.45276415769E+03  0.45276415769E+03  0.00000000000E+00 0.  1.
          1   -1    0    0  501    0  0.00000000000E+00 -0.00000000000E+00 -0.23611996503E+04  0.23611996503E+04  0.00000000000E+00 0. -1.
         23    2    1    2    0    0 -0.52972009978E+02  0.86754201593E+03 -0.13780318616E+04  0.16321342951E+04  0.97238687591E+02 0.  0.
    5000000    2    1    2    0    0  0.52972009978E+02 -0.86754201593E+03 -0.53040363101E+03  0.11818295129E+04  0.59996483444E+03 0.  0.
         23    2    4    4    0    0  0.19612769759E+03 -0.38065789173E+03 -0.50093023055E+03  0.66520987904E+03  0.90590192587E+02 0.  0.
         23    2    4    4    0    0 -0.14315568761E+03 -0.48688412420E+03 -0.29473400456E+02  0.51661963387E+03  0.92073142004E+02 0.  0.
          1    1    3    3  502    0 -0.47560790034E+01  0.52972308203E+03 -0.76474944391E+03  0.93030687189E+03  0.00000000000E+00 0. -1.
         -1    1    3    3    0  502 -0.48215930974E+02  0.33781893390E+03 -0.61328241773E+03  0.70182742323E+03  0.00000000000E+00 0.  1.
         13    1    5    5    0    0  0.76441997765E+02 -0.12521107182E+03 -0.23800042997E+03  0.27958075076E+03  0.00000000000E+00 0. -1.
        -13    1    5    5    0    0  0.11968569983E+03 -0.25544681992E+03 -0.26292980058E+03  0.38562912828E+03  0.00000000000E+00 0.  1.
          1    1    6    6  503    0 -0.53716112959E+02 -0.88119651912E+02  0.19489127467E+02  0.10502532996E+03  0.00000000000E+00 0. -1.
         -1    1    6    6    0  503 -0.89439574655E+02 -0.39876447229E+03 -0.48962527923E+02  0.41159430391E+03  0.00000000000E+00 0.  1.
<mgrwt>
<rscale>  0 0.90582805E+03</rscale>
<asrwt>0</asrwt>
<pdfrwt beam="1">  1        1 0.36326149E+00 0.90582805E+03</pdfrwt>
<pdfrwt beam="2">  1       -1 0.69656023E-01 0.90582805E+03</pdfrwt>
<totfact> 0.36289464E+00</totfact>
</mgrwt>
</event>
<event>
12    1  0.1432447E-007  0.4791376E+03  0.7818608E-02  0.1019372E+00
         -2   -1    0    0    0  501 -0.00000000000E+00  0.00000000000E+00  0.15652847488E+03  0.15652847488E+03  0.00000000000E+00 0. -1.
          2   -1    0    0  501    0  0.00000000000E+00 -0.00000000000E+00 -0.21516838588E+04  0.21516838588E+04  0.00000000000E+00 0.  1.
         23    2    1    2    0    0  0.20745237829E+03  0.20501926761E+03 -0.13356644287E+04  0.13700974174E+04  0.89989318794E+02 0.  0.
    5000000    2    1    2    0    0 -0.20745237829E+03 -0.20501926761E+03 -0.65949095521E+03  0.93811491636E+03  0.60005157023E+03 0.  0.
         23    2    4    4    0    0  0.10634163370E+03  0.13599027477E+03 -0.21399379659E+03  0.28868563534E+03  0.88000870354E+02 0.  0.
         23    2    4    4    0    0 -0.31379401199E+03 -0.34100954238E+03 -0.44549715863E+03  0.64942928102E+03  0.92393088174E+02 0.  0.
          4    1    3    3  502    0  0.16046461347E+03  0.11827610287E+03 -0.10229068970E+04  0.10421500126E+04  0.00000000000E+00 0. -1.
         -4    1    3    3    0  502  0.46987764821E+02  0.86743164742E+02 -0.31275753171E+03  0.32794740480E+03  0.00000000000E+00 0.  1.
         11    1    5    5    0    0  0.43553430739E+02  0.13809781909E+01 -0.33689522308E+02  0.55079872397E+02  0.00000000000E+00 0. -1.
        -11    1    5    5    0    0  0.62788202965E+02  0.13460929658E+03 -0.18030427428E+03  0.23360576294E+03  0.00000000000E+00 0.  1.
          3    1    6    6  503    0 -0.54035386951E+02 -0.10079937392E+03 -0.72960048065E+02  0.13565952027E+03  0.00000000000E+00 0. -1.
         -3    1    6    6    0  503 -0.25975862504E+03 -0.24021016846E+03 -0.37253711056E+03  0.51376976075E+03  0.00000000000E+00 0.  1.
<mgrwt>
<rscale>  0 0.47913763E+03</rscale>
<asrwt>0</asrwt>
<pdfrwt beam="1">  1        2 0.33102825E+00 0.47913763E+03</pdfrwt>
<pdfrwt beam="2">  1       -2 0.24081306E-01 0.47913763E+03</pdfrwt>
<totfact> 0.90187461E+01</totfact>
</mgrwt>
</event>
<event>
12    1  0.1432447E-007  0.5830420E+03  0.7818608E-02  0.9941227E-01
          1   -1    0    0  501    0  0.00000000000E+00  0.00000000000E+00  0.12929598719E+04  0.12929598719E+04  0.00000000000E+00 0. -1.
         -1   -1    0    0    0  501 -0.00000000000E+00 -0.00000000000E+00 -0.34481073311E+03  0.34481073311E+03  0.00000000000E+00 0.  1.
         23    2    1    2    0    0 -0.16945033072E+02  0.46391243706E+03  0.72288657582E+02  0.47896332107E+03  0.93157552094E+02 0.  0.
    5000000    2    1    2    0    0  0.16945033072E+02 -0.46391243706E+03  0.87586048119E+03  0.11588072839E+04  0.60016735611E+03 0.  0.
         23    2    4    4    0    0  0.92222823451E+02 -0.55261921739E+03  0.82633254060E+03  0.10024634170E+04  0.90633251277E+02 0.  0.
         23    2    4    4    0    0 -0.75277790379E+02  0.88706780332E+02  0.49527940586E+02  0.15634386688E+03  0.91949710230E+02 0.  0.
          4    1    3    3  502    0 -0.11871543880E+02  0.28405548747E+03  0.89890998999E+02  0.29817586290E+03  0.00000000000E+00 0. -1.
         -4    1    3    3    0  502 -0.50734891927E+01  0.17985694959E+03 -0.17602341416E+02  0.18078745817E+03  0.00000000000E+00 0.  1.
         11    1    5    5    0    0 -0.74560001371E+00 -0.18707141098E+03  0.22481009529E+03  0.29246512215E+03  0.00000000000E+00 0. -1.
        -11    1    5    5    0    0  0.92968423465E+02 -0.36554780641E+03  0.60152244531E+03  0.70999829489E+03  0.00000000000E+00 0.  1.
          2    1    6    6  503    0 -0.18880560384E+02 -0.11857721061E+02 -0.12352750304E+02  0.25488655305E+02  0.00000000000E+00 0. -1.
         -2    1    6    6    0  503 -0.56397229994E+02  0.10056450139E+03  0.61880690890E+02  0.13085521158E+03  0.00000000000E+00 0.  1.
<mgrwt>
<rscale>  0 0.58304196E+03</rscale>
<asrwt>0</asrwt>
<pdfrwt beam="1">  1        1 0.19891690E+00 0.58304196E+03</pdfrwt>
<pdfrwt beam="2">  1       -1 0.53047806E-01 0.58304196E+03</pdfrwt>
<totfact> 0.34483448E+01</totfact>
</mgrwt>
</event>
<event>
12    1  0.1432447E-007  0.1016122E+04  0.7818608E-02  0.9291037E-01
         -2   -1    0    0    0  501 -0.00000000000E+00  0.00000000000E+00  0.58041818914E+03  0.58041818914E+03  0.00000000000E+00 0.  1.
          2   -1    0    0  501    0  0.00000000000E+00 -0.00000000000E+00 -0.20328095072E+04  0.20328095072E+04  0.00000000000E+00 0. -1.
         23    2    1    2    0    0 -0.99567648750E+03  0.64344510974E+02 -0.57478010618E+03  0.11551295179E+04  0.91870282611E+02 0.  0.
    5000000    2    1    2    0    0  0.99567648750E+03 -0.64344510974E+02 -0.87761121186E+03  0.14580981784E+04  0.60028074669E+03 0.  0.
         23    2    4    4    0    0  0.14169794272E+03  0.54937845349E+02  0.54583876353E+02  0.18505681331E+03  0.90388886340E+02 0.  0.
         23    2    4    4    0    0  0.85397854478E+03 -0.11928235632E+03 -0.93219508821E+03  0.12730413651E+04  0.90216402501E+02 0.  0.
          3    1    3    3  502    0 -0.46231825683E+03  0.37354080659E+02 -0.21521187587E+03  0.51132147369E+03  0.00000000000E+00 0. -1.
         -3    1    3    3    0  502 -0.53335823067E+03  0.26990430316E+02 -0.35956823031E+03  0.64380804422E+03  0.00000000000E+00 0.  1.
         11    1    5    5    0    0  0.95739748588E+02 -0.45602524641E+01  0.53709275300E+02  0.10987074959E+03  0.00000000000E+00 0.  1.
        -11    1    5    5    0    0  0.45958194127E+02  0.59498097813E+02  0.87460105252E+00  0.75186063721E+02  0.00000000000E+00 0. -1.
          3    1    6    6  503    0  0.23688156930E+03 -0.52686807272E+02 -0.21139230366E+03  0.32183145213E+03  0.00000000000E+00 0. -1.
         -3    1    6    6    0  503  0.61709697548E+03 -0.66595549052E+02 -0.72080278455E+03  0.95120991296E+03  0.00000000000E+00 0.  1.
<mgrwt>
<rscale>  0 0.10161225E+04</rscale>
<asrwt>0</asrwt>
<pdfrwt beam="1">  1        2 0.31273993E+00 0.10161225E+04</pdfrwt>
<pdfrwt beam="2">  1       -2 0.89295106E-01 0.10161225E+04</pdfrwt>
<totfact> 0.68932898E+00</totfact>
</mgrwt>
</event>
<event>
12    1  0.1432447E-007  0.4859880E+03  0.7818608E-02  0.1017502E+00
         -2   -1    0    0    0  501 -0.00000000000E+00  0.00000000000E+00  0.44478662309E+03  0.44478662309E+03  0.00000000000E+00 0. -1.
          2   -1    0    0  501    0  0.00000000000E+00 -0.00000000000E+00 -0.10053769856E+04  0.10053769856E+04  0.00000000000E+00 0.  1.
         23    2    1    2    0    0 -0.25573639230E+03  0.18710035636E+03  0.23462278741E+03  0.40479852622E+03  0.91686142679E+02 0.  0.
    5000000    2    1    2    0    0  0.25573639230E+03 -0.18710035636E+03 -0.79521314995E+03  0.10453650825E+04  0.60001379663E+03 0.  0.
         23    2    4    4    0    0 -0.99605954545E+02 -0.26682622400E+03 -0.40584430084E+03  0.50432317691E+03  0.92275079255E+02 0.  0.
         23    2    4    4    0    0  0.35534234684E+03  0.79725867634E+02 -0.38936884910E+03  0.54104190558E+03  0.92162061136E+02 0.  0.
          3    1    3    3  502    0 -0.17250753661E+03  0.12421609152E+03  0.10119436562E+03  0.23543319055E+03  0.00000000000E+00 0. -1.
         -3    1    3    3    0  502 -0.83228855687E+02  0.62884264840E+02  0.13342842179E+03  0.16936533566E+03  0.00000000000E+00 0.  1.
         11    1    5    5    0    0 -0.49508057509E+02 -0.87807043050E+02 -0.21732325316E+03  0.23956318777E+03  0.00000000000E+00 0. -1.
        -11    1    5    5    0    0 -0.50097897035E+02 -0.17901918095E+03 -0.18852104768E+03  0.26475998914E+03  0.00000000000E+00 0.  1.
          1    1    6    6  503    0  0.21487147453E+03  0.75836954738E+02 -0.29058510814E+03  0.36927049617E+03  0.00000000000E+00 0. -1.
         -1    1    6    6    0  503  0.14047087231E+03  0.38889128958E+01 -0.98783740963E+02  0.17177140941E+03  0.00000000000E+00 0.  1.
<mgrwt>
<rscale>  0 0.48598797E+03</rscale>
<asrwt>0</asrwt>
<pdfrwt beam="1">  1        2 0.15467338E+00 0.48598797E+03</pdfrwt>
<pdfrwt beam="2">  1       -2 0.68428712E-01 0.48598797E+03</pdfrwt>
<totfact> 0.50995487E+01</totfact>
</mgrwt>
</event>
<event>
12    1  0.1432447E-007  0.5742421E+03  0.7818608E-02  0.9960335E-01
          3   -1    0    0  501    0  0.00000000000E+00  0.00000000000E+00  0.15494622399E+04  0.15494622399E+04  0.00000000000E+00 0. -1.
         -3   -1    0    0    0  501 -0.00000000000E+00 -0.00000000000E+00 -0.22689221834E+03  0.22689221834E+03  0.00000000000E+00 0.  1.
         23    2    1    2    0    0 -0.17674580815E+03  0.39746611776E+03  0.47234049423E+03  0.64847612290E+03  0.90539184969E+02 0.  0.
    5000000    2    1    2    0    0  0.17674580815E+03 -0.39746611776E+03  0.85022952730E+03  0.11278783353E+04  0.60000074559E+03 0.  0.
         23    2    4    4    0    0  0.36223885676E+03 -0.14495154026E+03  0.57653928178E+03  0.70195405934E+03  0.90077853072E+02 0.  0.
         23    2    4    4    0    0 -0.18549304861E+03 -0.25251457750E+03  0.27369024552E+03  0.42592427597E+03  0.91289952561E+02 0.  0.
          1    1    3    3  502    0 -0.11574618264E+03  0.15014906970E+03  0.20266737486E+03  0.27751754316E+03  0.00000000000E+00 0. -1.
         -1    1    3    3    0  502 -0.60999625512E+02  0.24731704806E+03  0.26967311937E+03  0.37095857974E+03  0.00000000000E+00 0.  1.
         13    1    5    5    0    0  0.30956286320E+03 -0.11952810240E+03  0.42285087171E+03  0.53751185405E+03  0.00000000000E+00 0.  1.
        -13    1    5    5    0    0  0.52675993556E+02 -0.25423437855E+02  0.15368841007E+03  0.16444220529E+03  0.00000000000E+00 0. -1.
          4    1    6    6  503    0 -0.12255082930E+03 -0.18087302000E+03  0.24056882837E+03  0.32497248546E+03  0.00000000000E+00 0. -1.
         -4    1    6    6    0  503 -0.62942219307E+02 -0.71641557507E+02  0.33121417147E+02  0.10095179051E+03  0.00000000000E+00 0.  1.
<mgrwt>
<rscale>  0 0.57424211E+03</rscale>
<asrwt>0</asrwt>
<pdfrwt beam="1">  1        3 0.23837880E+00 0.57424211E+03</pdfrwt>
<pdfrwt beam="2">  1       -3 0.34906496E-01 0.57424211E+03</pdfrwt>
<totfact> 0.18663000E+00</totfact>
</mgrwt>
</event>
<event>
12    1  0.1432447E-007  0.1667751E+04  0.7818608E-02  0.8779974E-01
         -1   -1    0    0    0  501 -0.00000000000E+00  0.00000000000E+00  0.21066529088E+04  0.21066529088E+04  0.00000000000E+00 0.  1.
          1   -1    0    0  501    0  0.00000000000E+00 -0.00000000000E+00 -0.18131576375E+04  0.18131576375E+04  0.00000000000E+00 0. -1.
         23    2    1    2    0    0  0.15549392714E+04  0.56755955862E+03  0.10934016539E+04  0.19859675394E+04  0.92627751588E+02 0.  0.
    5000000    2    1    2    0    0 -0.15549392714E+04 -0.56755955862E+03 -0.79990638259E+03  0.19338430069E+04  0.59994880112E+03 0.  0.
         23    2    4    4    0    0 -0.34246830182E+03 -0.41631502194E+02  0.48342565714E+02  0.36070537188E+03  0.93560899508E+02 0.  0.
         23    2    4    4    0    0 -0.12124709696E+04 -0.52592805643E+03 -0.84824894831E+03  0.15731376350E+04  0.92463872368E+02 0.  0.
          3    1    3    3  502    0  0.86181912927E+03  0.34848151034E+03  0.57379302582E+03  0.10924330694E+04  0.00000000000E+00 0. -1.
         -3    1    3    3    0  502  0.69312014217E+03  0.21907804829E+03  0.51960862810E+03  0.89353447002E+03  0.00000000000E+00 0.  1.
         13    1    5    5    0    0 -0.85947375292E+02 -0.52250574006E+02  0.17938147918E+02  0.10217069518E+03  0.00000000000E+00 0. -1.
        -13    1    5    5    0    0 -0.25652092653E+03  0.10619071812E+02  0.30404417796E+02  0.25853467670E+03  0.00000000000E+00 0.  1.
          4    1    6    6  503    0 -0.50663453914E+02 -0.23903264728E+02 -0.60119556083E+02  0.82173673709E+02  0.00000000000E+00 0.  1.
         -4    1    6    6    0  503 -0.11618075157E+04 -0.50202479170E+03 -0.78812939222E+03  0.14909639613E+04  0.00000000000E+00 0. -1.
<mgrwt>
<rscale>  0 0.16677515E+04</rscale>
<asrwt>0</asrwt>
<pdfrwt beam="1">  1        1 0.27894733E+00 0.16677515E+04</pdfrwt>
<pdfrwt beam="2">  1       -1 0.32410045E+00 0.16677515E+04</pdfrwt>
<totfact> 0.84950358E-02</totfact>
</mgrwt>
</event>
<event>
12    1  0.1432447E-007  0.9667944E+03  0.7818608E-02  0.9345733E-01
          1   -1    0    0  501    0  0.00000000000E+00  0.00000000000E+00  0.13840644482E+04  0.13840644482E+04  0.00000000000E+00 0. -1.
         -1   -1    0    0    0  501 -0.00000000000E+00 -0.00000000000E+00 -0.91063022059E+03  0.91063022059E+03  0.00000000000E+00 0.  1.
         23    2    1    2    0    0 -0.69978351408E+03  0.64749216221E+03  0.64600580080E+03  0.11550945408E+04  0.89313139199E+02 0.  0.
    5000000    2    1    2    0    0  0.69978351408E+03 -0.64749216221E+03 -0.17257157314E+03  0.11396001280E+04  0.59997036364E+03 0.  0.
         23    2    4    4    0    0  0.33946523711E+03 -0.22391133336E+03  0.20081223597E+03  0.46345571065E+03  0.95355698370E+02 0.  0.
         23    2    4    4    0    0  0.36031827697E+03 -0.42358082885E+03 -0.37338380911E+03  0.67614441737E+03  0.92227029390E+02 0.  0.
          1    1    3    3  502    0 -0.31322637963E+03  0.23392107002E+03  0.24512595102E+03  0.46142882849E+03  0.00000000000E+00 0. -1.
         -1    1    3    3    0  502 -0.38655713445E+03  0.41357109218E+03  0.40087984977E+03  0.69366571231E+03  0.00000000000E+00 0.  1.
         13    1    5    5    0    0  0.12177046595E+03 -0.13296329777E+03  0.10629153797E+03  0.20929686089E+03  0.00000000000E+00 0.  1.
        -13    1    5    5    0    0  0.21769477115E+03 -0.90948035588E+02  0.94520697997E+02  0.25415884977E+03  0.00000000000E+00 0. -1.
          3    1    6    6  503    0  0.32462902805E+03 -0.34334863953E+03 -0.34031862893E+03  0.58231354381E+03  0.00000000000E+00 0. -1.
         -3    1    6    6    0  503  0.35689248929E+02 -0.80232189321E+02 -0.33065180185E+02  0.93830873560E+02  0.00000000000E+00 0.  1.
<mgrwt>
<rscale>  0 0.96679439E+03</rscale>
<asrwt>0</asrwt>
<pdfrwt beam="1">  1        1 0.21293299E+00 0.96679439E+03</pdfrwt>
<pdfrwt beam="2">  1       -1 0.14009696E+00 0.96679439E+03</pdfrwt>
<totfact> 0.33278898E+00</totfact>
</mgrwt>
</event>
<event>
12    1  0.1432447E-007  0.7637341E+03  0.7818608E-02  0.9614047E-01
         -1   -1    0    0    0  501 -0.00000000000E+00  0.00000000000E+00  0.26512318272E+03  0.26512318272E+03  0.00000000000E+00 0.  1.
          1   -1    0    0  501    0  0.00000000000E+00 -0.00000000000E+00 -0.22575260841E+04  0.22575260841E+04  0.00000000000E+00 0. -1.
         23    2    1    2    0    0 -0.55377935672E+03 -0.34604595087E+03 -0.89952326239E+03  0.11152421493E+04  0.90573594586E+02 0.  0.
    5000000    2    1    2    0    0  0.55377935672E+03  0.34604595087E+03 -0.10928796390E+04  0.14074071175E+04  0.59999126078E+03 0.  0.
         23    2    4    4    0    0  0.64042212223E+03  0.38721748905E+03 -0.93507837752E+03  0.12011069570E+04  0.90600615869E+02 0.  0.
         23    2    4    4    0    0 -0.86642765508E+02 -0.41171538188E+02 -0.15780126148E+03  0.20630016049E+03  0.91958978479E+02 0.  0.
          1    1    3    3  502    0 -0.34020806652E+03 -0.24748272819E+03 -0.52186035056E+03  0.67031892019E+03  0.00000000000E+00 0. -1.
         -1    1    3    3    0  502 -0.21357129020E+03 -0.98563222671E+02 -0.37766291183E+03  0.44492322915E+03  0.00000000000E+00 0.  1.
         11    1    5    5    0    0  0.41135325846E+03  0.23346632462E+03 -0.65546495828E+03  0.80830213380E+03  0.00000000000E+00 0. -1.
        -11    1    5    5    0    0  0.22906886377E+03  0.15375116443E+03 -0.27961341924E+03  0.39280482320E+03  0.00000000000E+00 0.  1.
          2    1    6    6  503    0  0.69055842980E+01 -0.27234492625E+02 -0.81294696164E+01  0.29248811246E+02  0.00000000000E+00 0.  1.
         -2    1    6    6    0  503 -0.93548349806E+02 -0.13937045563E+02 -0.14967179186E+03  0.17705134924E+03  0.00000000000E+00 0. -1.
<mgrwt>
<rscale>  0 0.76373411E+03</rscale>
<asrwt>0</asrwt>
<pdfrwt beam="1">  1        1 0.34731169E+00 0.76373411E+03</pdfrwt>
<pdfrwt beam="2">  1       -1 0.40788184E-01 0.76373411E+03</pdfrwt>
<totfact> 0.12233099E+01</totfact>
</mgrwt>
</event>
<event>
12    1  0.1432447E-007  0.6055068E+03  0.7818608E-02  0.9894047E-01
          1   -1    0    0  501    0  0.00000000000E+00  0.00000000000E+00  0.57439858779E+03  0.57439858779E+03  0.00000000000E+00 0. -1.
         -1   -1    0    0    0  501 -0.00000000000E+00 -0.00000000000E+00 -0.81757774361E+03  0.81757774361E+03  0.00000000000E+00 0.  1.
         23    2    1    2    0    0 -0.41895648210E+03  0.20570378515E+03 -0.39264950990E+03  0.61730619476E+03  0.95156289050E+02 0.  0.
    5000000    2    1    2    0    0  0.41895648210E+03 -0.20570378515E+03  0.14947035407E+03  0.77467013664E+03  0.59994487475E+03 0.  0.
         23    2    4    4    0    0  0.70304057607E+02 -0.35324792733E+03  0.87682694124E+02  0.38171991502E+03  0.91077329757E+02 0.  0.
         23    2    4    4    0    0  0.34865242450E+03  0.14754414218E+03  0.61787659945E+02  0.39295022162E+03  0.85231301486E+02 0.  0.
          3    1    3    3  502    0 -0.15071588774E+03  0.92632914335E+02 -0.20587118186E+03  0.27143890502E+03  0.00000000000E+00 0. -1.
         -3    1    3    3    0  502 -0.26824059436E+03  0.11307087082E+03 -0.18677832803E+03  0.34586728974E+03  0.00000000000E+00 0.  1.
         13    1    5    5    0    0  0.17835890783E+02 -0.98663546342E+02 -0.16635624856E+02  0.10163345114E+03  0.00000000000E+00 0. -1.
        -13    1    5    5    0    0  0.52468166824E+02 -0.25458438099E+03  0.10431831898E+03  0.28008646388E+03  0.00000000000E+00 0.  1.
          3    1    6    6  503    0  0.16287632776E+03  0.99718158015E+02 -0.13856183333E+01  0.19098253617E+03  0.00000000000E+00 0. -1.
         -3    1    6    6    0  503  0.18577609673E+03  0.47825984162E+02  0.63173278278E+02  0.20196768545E+03  0.00000000000E+00 0.  1.
<mgrwt>
<rscale>  0 0.60550683E+03</rscale>
<asrwt>0</asrwt>
<pdfrwt beam="1">  1        1 0.88369014E-01 0.60550683E+03</pdfrwt>
<pdfrwt beam="2">  1       -1 0.12578119E+00 0.60550683E+03</pdfrwt>
<totfact> 0.20980778E+01</totfact>
</mgrwt>
</event>
<event>
12    1  0.1432447E-007  0.7023770E+03  0.7818608E-02  0.9713176E-01
         -1   -1    0    0    0  501 -0.00000000000E+00  0.00000000000E+00  0.73902583074E+03  0.73902583074E+03  0.00000000000E+00 0. -1.
          1   -1    0    0  501    0  0.00000000000E+00 -0.00000000000E+00 -0.99837495976E+03  0.99837495976E+03  0.00000000000E+00 0.  1.
         23    2    1    2    0    0  0.28953027170E+03 -0.62264292713E+03  0.19362018637E+03  0.71914257466E+03  0.90361901225E+02 0.  0.
    5000000    2    1    2    0    0 -0.28953027170E+03  0.62264292713E+03 -0.45296931539E+03  0.10182582158E+04  0.60013048625E+03 0.  0.
         23    2    4    4    0    0 -0.10142488837E+03  0.12608850810E+03  0.12720842066E+03  0.22608115670E+03  0.93516775347E+02 0.  0.
         23    2    4    4    0    0 -0.18810538333E+03  0.49655441902E+03 -0.58017773605E+03  0.79217705915E+03  0.94806968833E+02 0.  0.
          3    1    3    3  502    0  0.77919623120E+02 -0.26221088305E+03  0.96324799308E+02  0.29000772717E+03  0.00000000000E+00 0. -1.
         -3    1    3    3    0  502  0.21161064858E+03 -0.36043204408E+03  0.97295387060E+02  0.42913484749E+03  0.00000000000E+00 0.  1.
         11    1    5    5    0    0 -0.50507256301E+02  0.14049421728E+02  0.50299463490E+01  0.52665639180E+02  0.00000000000E+00 0.  1.
        -11    1    5    5    0    0 -0.50917632064E+02  0.11203908637E+03  0.12217847432E+03  0.17341551752E+03  0.00000000000E+00 0. -1.
          1    1    6    6  503    0 -0.67542003543E+02  0.29724593862E+03 -0.35910519918E+03  0.47103462118E+03  0.00000000000E+00 0. -1.
         -1    1    6    6    0  503 -0.12056337979E+03  0.19930848040E+03 -0.22107253687E+03  0.32114243797E+03  0.00000000000E+00 0.  1.
<mgrwt>
<rscale>  0 0.70237701E+03</rscale>
<asrwt>0</asrwt>
<pdfrwt beam="1">  1        1 0.15359615E+00 0.70237701E+03</pdfrwt>
<pdfrwt beam="2">  1       -1 0.11369628E+00 0.70237701E+03</pdfrwt>
<totfact> 0.11122536E+01</totfact>
</mgrwt>
</event>
<event>
12    1  0.1432447E-007  0.6434041E+03  0.7818608E-02  0.9819235E-01
          2   -1    0    0  501    0  0.00000000000E+00  0.00000000000E+00  0.18629005820E+04  0.18629005820E+04  0.00000000000E+00 0. -1.
         -2   -1    0    0    0  501 -0.00000000000E+00 -0.00000000000E+00 -0.24250853764E+03  0.24250853764E+03  0.00000000000E+00 0.  1.
         23    2    1    2    0    0  0.17609232479E+03 -0.49733429195E+03  0.52726148549E+03  0.75140599186E+03  0.90864656095E+02 0.  0.
    5000000    2    1    2    0    0 -0.17609232479E+03  0.49733429195E+03  0.10931305589E+04  0.13540031278E+04  0.60003345447E+03 0.  0.
         23    2    4    4    0    0  0.15058492055E+03  0.32963208402E+03  0.31746418402E+03  0.49034535782E+03  0.91224627625E+02 0.  0.
         23    2    4    4    0    0 -0.32667724534E+03  0.16770220792E+03  0.77566637485E+03  0.86365776995E+03  0.96976107143E+02 0.  0.
          2    1    3    3  502    0  0.42334703703E+02 -0.25128700890E+03  0.23543308642E+03  0.34693821663E+03  0.00000000000E+00 0. -1.
         -2    1    3    3    0  502  0.13375762109E+03 -0.24604728305E+03  0.29182839907E+03  0.40446777523E+03  0.00000000000E+00 0.  1.
         13    1    5    5    0    0  0.15795407800E+03  0.26549405126E+03  0.26877979897E+03  0.40948646174E+03  0.00000000000E+00 0.  1.
        -13    1    5    5    0    0 -0.73691574483E+01  0.64138032761E+02  0.48684385049E+02  0.80858896082E+02  0.00000000000E+00 0. -1.
          4    1    6    6  503    0 -0.73474495836E+02 -0.22113363700E+01  0.18131400190E+03  0.19564804837E+03  0.00000000000E+00 0. -1.
         -4    1    6    6    0  503 -0.25320274951E+03  0.16991354429E+03  0.59435237294E+03  0.66800972157E+03  0.00000000000E+00 0.  1.
<mgrwt>
<rscale>  0 0.64340407E+03</rscale>
<asrwt>0</asrwt>
<pdfrwt beam="1">  1        2 0.28660008E+00 0.64340407E+03</pdfrwt>
<pdfrwt beam="2">  1       -2 0.37309007E-01 0.64340407E+03</pdfrwt>
<totfact> 0.56115457E+01</totfact>
</mgrwt>
</event>
<event>
12    1  0.1432447E-007  0.1028265E+04  0.7818608E-02  0.9278076E-01
         -1   -1    0    0    0  501 -0.00000000000E+00  0.00000000000E+00  0.76722476020E+03  0.76722476020E+03  0.00000000000E+00 0.  1.
          1   -1    0    0  501    0  0.00000000000E+00 -0.00000000000E+00 -0.17746737654E+04  0.17746737654E+04  0.00000000000E+00 0. -1.
         23    2    1    2    0    0 -0.86480415786E+03 -0.40896158635E+03 -0.10350462531E+04  0.14123575541E+04  0.91089539093E+02 0.  0.
    5000000    2    1    2    0    0  0.86480415786E+03  0.40896158635E+03  0.27597247906E+02  0.11295409715E+04  0.59997115560E+03 0.  0.
         23    2    4    4    0    0  0.29002442986E+02 -0.97109375487E+02 -0.58385807064E+02  0.14447133917E+03  0.84803849374E+02 0.  0.
         23    2    4    4    0    0  0.83580171487E+03  0.50607096183E+03  0.85983054970E+02  0.98506963228E+03  0.91086605555E+02 0.  0.
          1    1    3    3  502    0 -0.44933152032E+03 -0.24426718142E+03 -0.50042589158E+03  0.71553570424E+03  0.00000000000E+00 0. -1.
         -1    1    3    3    0  502 -0.41547263754E+03 -0.16469440492E+03 -0.53462036151E+03  0.69682184990E+03  0.00000000000E+00 0.  1.
         13    1    5    5    0    0  0.48348155340E+02 -0.70512514240E+02 -0.69049621502E+02  0.10989726575E+03  0.00000000000E+00 0.  1.
        -13    1    5    5    0    0 -0.19345712354E+02 -0.26596861247E+02  0.10663814438E+02  0.34574073423E+02  0.00000000000E+00 0. -1.
          1    1    6    6  503    0  0.13812345618E+03  0.53211782472E+02 -0.65992111569E+01  0.14816589529E+03  0.00000000000E+00 0. -1.
         -1    1    6    6    0  503  0.69767825870E+03  0.45285917936E+03  0.92582266127E+02  0.83690373699E+03  0.00000000000E+00 0.  1.
<mgrwt>
<rscale>  0 0.10282648E+04</rscale>
<asrwt>0</asrwt>
<pdfrwt beam="1">  1        1 0.27302673E+00 0.10282648E+04</pdfrwt>
<pdfrwt beam="2">  1       -1 0.11803458E+00 0.10282648E+04</pdfrwt>
<totfact> 0.27442451E+00</totfact>
</mgrwt>
</event>
<event>
12    1  0.1432447E-007  0.2871692E+03  0.7818608E-02  0.1091836E+00
          2   -1    0    0  501    0  0.00000000000E+00  0.00000000000E+00  0.17218627995E+04  0.17218627995E+04  0.00000000000E+00 0. -1.
         -2   -1    0    0    0  501 -0.00000000000E+00 -0.00000000000E+00 -0.84041990742E+02  0.84041990742E+02  0.00000000000E+00 0.  1.
         23    2    1    2    0    0 -0.11690722385E+03 -0.16289071473E+02  0.36421213292E+03  0.39332974223E+03  0.90139755519E+02 0.  0.
    5000000    2    1    2    0    0  0.11690722385E+03  0.16289071473E+02  0.12736086759E+04  0.14125750480E+04  0.59946357207E+03 0.  0.
         23    2    4    4    0    0  0.13574305848E+03 -0.16411518636E+03  0.11577318309E+04  0.11815699348E+04  0.10200267736E+03 0.  0.
         23    2    4    4    0    0 -0.18835834637E+02  0.18040425783E+03  0.11587684494E+03  0.23100511323E+03  0.83877495392E+02 0.  0.
          3    1    3    3  502    0 -0.46388258967E+02  0.29825914881E+02  0.21510858894E+03  0.22206566777E+03  0.00000000000E+00 0. -1.
         -3    1    3    3    0  502 -0.70518964879E+02 -0.46114986353E+02  0.14910354398E+03  0.17126407446E+03  0.00000000000E+00 0.  1.
         11    1    5    5    0    0  0.13737634440E+03 -0.97469570113E+02  0.77732801235E+03  0.79536872951E+03  0.00000000000E+00 0. -1.
        -11    1    5    5    0    0 -0.16332859190E+01 -0.66645616243E+02  0.38040381856E+03  0.38620120528E+03  0.00000000000E+00 0.  1.
          2    1    6    6  503    0  0.28030691111E+02  0.12075013385E+03  0.70441092545E+02  0.14257721412E+03  0.00000000000E+00 0. -1.
         -2    1    6    6    0  503 -0.46866525748E+02  0.59654123982E+02  0.45435752398E+02  0.88427899102E+02  0.00000000000E+00 0.  1.
<mgrwt>
<rscale>  0 0.28716924E+03</rscale>
<asrwt>0</asrwt>
<pdfrwt beam="1">  1        2 0.26490194E+00 0.28716924E+03</pdfrwt>
<pdfrwt beam="2">  1       -2 0.12929538E-01 0.28716924E+03</pdfrwt>
<totfact> 0.45573381E+02</totfact>
</mgrwt>
</event>
<event>
12    1  0.1432447E-007  0.1009995E+04  0.7818608E-02  0.9297650E-01
          4   -1    0    0  501    0  0.00000000000E+00  0.00000000000E+00  0.12183397754E+04  0.12183397754E+04  0.00000000000E+00 0. -1.
         -4   -1    0    0    0  501 -0.00000000000E+00 -0.00000000000E+00 -0.15410843007E+04  0.15410843007E+04  0.00000000000E+00 0.  1.
         23    2    1    2    0    0 -0.96603680617E+03 -0.83758205742E+02 -0.10297148829E+04  0.14177567690E+04  0.97359992742E+02 0.  0.
    5000000    2    1    2    0    0  0.96603680617E+03  0.83758205742E+02  0.70697035758E+03  0.13416673070E+04  0.60001793995E+03 0.  0.
         23    2    4    4    0    0  0.95725010066E+03  0.10761028641E+03  0.76252457483E+03  0.12315808147E+04  0.86254546964E+02 0.  0.
         23    2    4    4    0    0  0.87867055052E+01 -0.23852080666E+02 -0.55554217252E+02  0.11008649233E+03  0.91578582612E+02 0.  0.
          4    1    3    3  502    0 -0.68425158097E+03 -0.96899663557E+02 -0.69656612174E+03  0.98122073602E+03  0.00000000000E+00 0. -1.
         -4    1    3    3    0  502 -0.28178522520E+03  0.13141457815E+02 -0.33314876114E+03  0.43653603300E+03  0.00000000000E+00 0.  1.
         13    1    5    5    0    0  0.45671754299E+03  0.11534361052E+02  0.38212401323E+03  0.59560281820E+03  0.00000000000E+00 0. -1.
        -13    1    5    5    0    0  0.50053255767E+03  0.96075925357E+02  0.38040056160E+03  0.63597799647E+03  0.00000000000E+00 0.  1.
          2    1    6    6  503    0 -0.24008775731E+02  0.15867298043E+02  0.64357448021E+01  0.29489172088E+02  0.00000000000E+00 0. -1.
         -2    1    6    6    0  503  0.32795481236E+02 -0.39719378710E+02 -0.61989962054E+02  0.80597320241E+02  0.00000000000E+00 0.  1.
<mgrwt>
<rscale>  0 0.10099953E+04</rscale>
<asrwt>0</asrwt>
<pdfrwt beam="1">  1        4 0.18743689E+00 0.10099953E+04</pdfrwt>
<pdfrwt beam="2">  1       -4 0.23708989E+00 0.10099953E+04</pdfrwt>
<totfact> 0.23273012E-02</totfact>
</mgrwt>
</event>
<event>
12    1  0.1432447E-007  0.9085810E+03  0.7818608E-02  0.9414918E-01
          2   -1    0    0  501    0  0.00000000000E+00  0.00000000000E+00  0.16614522075E+04  0.16614522075E+04  0.00000000000E+00 0. -1.
         -2   -1    0    0    0  501 -0.00000000000E+00 -0.00000000000E+00 -0.75597717989E+03  0.75597717989E+03  0.00000000000E+00 0.  1.
         23    2    1    2    0    0  0.21497624835E+03  0.80581192572E+03 -0.24585017776E+03  0.87437082161E+03  0.92381690777E+02 0.  0.
    5000000    2    1    2    0    0 -0.21497624835E+03 -0.80581192572E+03  0.11513252054E+04  0.15430585658E+04  0.59994363231E+03 0.  0.
         23    2    4    4    0    0 -0.40443422583E+02 -0.80252808692E+03  0.78442297887E+03  0.11265952888E+04  0.90611998106E+02 0.  0.
         23    2    4    4    0    0 -0.17453282577E+03 -0.32838388004E+01  0.36690222653E+03  0.41646327703E+03  0.91388874671E+02 0.  0.
          3    1    3    3  502    0  0.50814884600E+02  0.92703494140E+02 -0.49462862919E+02  0.11671617339E+03  0.00000000000E+00 0. -1.
         -3    1    3    3    0  502  0.16416136375E+03  0.71310843158E+03 -0.19638731484E+03  0.75765464822E+03  0.00000000000E+00 0.  1.
         11    1    5    5    0    0 -0.36376902869E+02 -0.60065281419E+03  0.63915069334E+03  0.87785003905E+03  0.00000000000E+00 0. -1.
        -11    1    5    5    0    0 -0.40665197147E+01 -0.20187527273E+03  0.14527228552E+03  0.24874524973E+03  0.00000000000E+00 0.  1.
          3    1    6    6  503    0 -0.17095281843E+03 -0.66765783077E+01  0.27132954249E+03  0.32076340728E+03  0.00000000000E+00 0. -1.
         -3    1    6    6    0  503 -0.35800073393E+01  0.33927395073E+01  0.95572684047E+02  0.95699869748E+02  0.00000000000E+00 0.  1.
<mgrwt>
<rscale>  0 0.90858096E+03</rscale>
<asrwt>0</asrwt>
<pdfrwt beam="1">  1        2 0.25560803E+00 0.90858096E+03</pdfrwt>
<pdfrwt beam="2">  1       -2 0.11630418E+00 0.90858096E+03</pdfrwt>
<totfact> 0.59476400E+00</totfact>
</mgrwt>
</event>
<event>
12    1  0.1432447E-007  0.4133447E+03  0.7818608E-02  0.1039254E+00
         -1   -1    0    0    0  501 -0.00000000000E+00  0.00000000000E+00  0.15089473415E+03  0.15089473415E+03  0.00000000000E+00 0.  1.
          1   -1    0    0  501    0  0.00000000000E+00 -0.00000000000E+00 -0.13517043628E+04  0.13517043628E+04  0.00000000000E+00 0. -1.
         23    2    1    2    0    0 -0.11950372488E+03  0.16020288118E+03 -0.12169843743E+03  0.25189626724E+03  0.93247607901E+02 0.  0.
    5000000    2    1    2    0    0  0.11950372488E+03 -0.16020288118E+03 -0.10791111912E+04  0.12507028297E+04  0.59985873488E+03 0.  0.
         23    2    4    4    0    0 -0.15109439019E+03 -0.26963360766E+03 -0.48154795609E+03  0.57941153784E+03  0.91090608952E+02 0.  0.
         23    2    4    4    0    0  0.27059811507E+03  0.10943072649E+03 -0.59756323510E+03  0.67129129184E+03  0.91387935608E+02 0.  0.
          1    1    3    3  502    0 -0.60784067260E+02  0.11237617518E+03 -0.12128567308E+03  0.17616277153E+03  0.00000000000E+00 0. -1.
         -1    1    3    3    0  502 -0.58719657623E+02  0.47826705999E+02 -0.41276435474E+00  0.75733495710E+02  0.00000000000E+00 0.  1.
         11    1    5    5    0    0 -0.16157606261E+03 -0.23529375652E+03 -0.41307777921E+03  0.50209882248E+03  0.00000000000E+00 0. -1.
        -11    1    5    5    0    0  0.10481672421E+02 -0.34339851148E+02 -0.68470176877E+02  0.77312715353E+02  0.00000000000E+00 0.  1.
          3    1    6    6  503    0  0.27871646797E+02  0.41174301959E+02 -0.14418175136E+03  0.15251402972E+03  0.00000000000E+00 0. -1.
         -3    1    6    6    0  503  0.24272646827E+03  0.68256424531E+02 -0.45338148374E+03  0.51877726212E+03  0.00000000000E+00 0.  1.
<mgrwt>
<rscale>  0 0.41334469E+03</rscale>
<asrwt>0</asrwt>
<pdfrwt beam="1">  1        1 0.20795453E+00 0.41334469E+03</pdfrwt>
<pdfrwt beam="2">  1       -1 0.23214573E-01 0.41334469E+03</pdfrwt>
<totfact> 0.13956140E+02</totfact>
</mgrwt>
</event>
<event>
12    1  0.1432447E-007  0.7511964E+03  0.7818608E-02  0.9633475E-01
         -2   -1    0    0    0  501 -0.00000000000E+00  0.00000000000E+00  0.40847619365E+03  0.40847619365E+03  0.00000000000E+00 0.  1.
          2   -1    0    0  501    0  0.00000000000E+00 -0.00000000000E+00 -0.29149438862E+04  0.29149438862E+04  0.00000000000E+00 0. -1.
         23    2    1    2    0    0 -0.67578708131E+03  0.10881458205E+03 -0.22843292982E+04  0.23864097209E+04  0.90896760498E+02 0.  0.
    5000000    2    1    2    0    0  0.67578708131E+03 -0.10881458205E+03 -0.22213839439E+03  0.93701035895E+03  0.60009512079E+03 0.  0.
         23    2    4    4    0    0  0.47615314244E+03 -0.26699814660E+03  0.47830233521E+02  0.55546948167E+03  0.90822841213E+02 0.  0.
         23    2    4    4    0    0  0.19963393887E+03  0.15818356455E+03 -0.26996862791E+03  0.38154087728E+03  0.88400403517E+02 0.  0.
          4    1    3    3  502    0 -0.20531162238E+03  0.42693338070E+02 -0.84801327827E+03  0.87355715527E+03  0.00000000000E+00 0. -1.
         -4    1    3    3    0  502 -0.47047545893E+03  0.66121243984E+02 -0.14363160199E+04  0.15128525657E+04  0.00000000000E+00 0.  1.
         13    1    5    5    0    0  0.22628023359E+03 -0.89035230644E+02 -0.96664617644E+01  0.24335870005E+03  0.00000000000E+00 0.  1.
        -13    1    5    5    0    0  0.24987290885E+03 -0.17796291596E+03  0.57496695285E+02  0.31211078162E+03  0.00000000000E+00 0. -1.
          2    1    6    6  503    0  0.11766384007E+03  0.40909123395E+02 -0.14867521098E+03  0.19396560004E+03  0.00000000000E+00 0. -1.
         -2    1    6    6    0  503  0.81970098801E+02  0.11727444115E+03 -0.12129341692E+03  0.18757527725E+03  0.00000000000E+00 0.  1.
<mgrwt>
<rscale>  0 0.75119639E+03</rscale>
<asrwt>0</asrwt>
<pdfrwt beam="1">  1        2 0.44845290E+00 0.75119639E+03</pdfrwt>
<pdfrwt beam="2">  1       -2 0.62842492E-01 0.75119639E+03</pdfrwt>
<totfact> 0.49069269E+00</totfact>
</mgrwt>
</event>
<event>
12    1  0.1432447E-007  0.7277214E+03  0.7818608E-02  0.9670965E-01
         -1   -1    0    0    0  501 -0.00000000000E+00  0.00000000000E+00  0.23184074536E+04  0.23184074536E+04  0.00000000000E+00 0.  1.
          1   -1    0    0  501    0  0.00000000000E+00 -0.00000000000E+00 -0.43355749206E+03  0.43355749206E+03  0.00000000000E+00 0. -1.
         23    2    1    2    0    0  0.96663616894E+02 -0.61518168613E+03  0.17710803356E+04  0.18796527254E+04  0.92609131360E+02 0.  0.
    5000000    2    1    2    0    0 -0.96663616894E+02  0.61518168613E+03  0.11376962594E+03  0.87231222025E+03  0.60016057853E+03 0.  0.
         23    2    4    4    0    0 -0.30269967573E+03  0.22514547775E+03  0.15932813961E+03  0.41974407637E+03  0.92098065886E+02 0.  0.
         23    2    4    4    0    0  0.20603605884E+03  0.39003620838E+03 -0.45558513675E+02  0.45256814387E+03  0.90350679510E+02 0.  0.
          3    1    3    3  502    0  0.85800087925E+02 -0.61229005423E+03  0.17357221245E+04  0.18425504224E+04  0.00000000000E+00 0. -1.
         -3    1    3    3    0  502  0.10863528969E+02 -0.28916319034E+01  0.35358211121E+02  0.37102303034E+02  0.00000000000E+00 0.  1.
         11    1    5    5    0    0 -0.12661715670E+03  0.58973983776E+02  0.96000917829E+02  0.16948749617E+03  0.00000000000E+00 0.  1.
        -11    1    5    5    0    0 -0.17608251903E+03  0.16617149397E+03  0.63327221782E+02  0.25025658020E+03  0.00000000000E+00 0. -1.
          4    1    6    6  503    0  0.62847710923E+02  0.17359301491E+03  0.17651090583E+02  0.18546139920E+03  0.00000000000E+00 0. -1.
         -4    1    6    6    0  503  0.14318834792E+03  0.21644319347E+03 -0.63209604257E+02  0.26710674467E+03  0.00000000000E+00 0.  1.
<mgrwt>
<rscale>  0 0.72772139E+03</rscale>
<asrwt>0</asrwt>
<pdfrwt beam="1">  1        1 0.66701154E-01 0.72772139E+03</pdfrwt>
<pdfrwt beam="2">  1       -1 0.35667806E+00 0.72772139E+03</pdfrwt>
<totfact> 0.80759519E-01</totfact>
</mgrwt>
</event>
<event>
12    1  0.1432447E-007  0.6455786E+03  0.7818608E-02  0.9815111E-01
         -2   -1    0    0    0  501 -0.00000000000E+00  0.00000000000E+00  0.21053898978E+04  0.21053898978E+04  0.00000000000E+00 0.  1.
          2   -1    0    0  501    0  0.00000000000E+00 -0.00000000000E+00 -0.25491483224E+03  0.25491483224E+03  0.00000000000E+00 0. -1.
         23    2    1    2    0    0  0.52488342510E+03 -0.15334682195E+03  0.35462094720E+03  0.65835015637E+03  0.93011044792E+02 0.  0.
    5000000    2    1    2    0    0 -0.52488342510E+03  0.15334682195E+03  0.14958541184E+04  0.17019545737E+04  0.60004330652E+03 0.  0.
         23    2    4    4    0    0 -0.22076114226E+03  0.31313147960E+03  0.45241538241E+03  0.59963414237E+03  0.89970111723E+02 0.  0.
         23    2    4    4    0    0 -0.30412228284E+03 -0.15978465766E+03  0.10434387359E+04  0.11023204313E+04  0.91238357369E+02 0.  0.
          1    1    3    3  502    0  0.13454069589E+03 -0.49907428353E+02  0.14241015694E+03  0.20216973823E+03  0.00000000000E+00 0. -1.
         -1    1    3    3    0  502  0.39034272921E+03 -0.10343939359E+03  0.21221079026E+03  0.45618041814E+03  0.00000000000E+00 0.  1.
         11    1    5    5    0    0 -0.20178125035E+03  0.31010375403E+03  0.44576044702E+03  0.57929473274E+03  0.00000000000E+00 0.  1.
        -11    1    5    5    0    0 -0.18979891910E+02  0.30277255729E+01  0.66549353984E+01  0.20339409633E+02  0.00000000000E+00 0. -1.
          3    1    6    6  503    0 -0.12032699754E+03 -0.11282806644E+03  0.44855918097E+03  0.47792687490E+03  0.00000000000E+00 0. -1.
         -3    1    6    6    0  503 -0.18379528530E+03 -0.46956591214E+02  0.59487955497E+03  0.62439355640E+03  0.00000000000E+00 0.  1.
<mgrwt>
<rscale>  0 0.64557856E+03</rscale>
<asrwt>0</asrwt>
<pdfrwt beam="1">  1        2 0.39217668E-01 0.64557856E+03</pdfrwt>
<pdfrwt beam="2">  1       -2 0.32390613E+00 0.64557856E+03</pdfrwt>
<totfact> 0.31667482E+00</totfact>
</mgrwt>
</event>
<event>
12    1  0.1432447E-007  0.6310245E+03  0.7818608E-02  0.9843052E-01
          1   -1    0    0  501    0  0.00000000000E+00  0.00000000000E+00  0.30938236502E+03  0.30938236502E+03  0.00000000000E+00 0. -1.
         -1   -1    0    0    0  501 -0.00000000000E+00 -0.00000000000E+00 -0.22432954788E+04  0.22432954788E+04  0.00000000000E+00 0.  1.
         23    2    1    2    0    0 -0.55611235293E+03  0.20156745768E+03 -0.14773182192E+04  0.15943611075E+04  0.98121513432E+02 0.  0.
    5000000    2    1    2    0    0  0.55611235293E+03 -0.20156745768E+03 -0.45659489461E+03  0.95831673631E+03  0.60000140019E+03 0.  0.
         23    2    4    4    0    0  0.56220856650E+03 -0.21296901693E+03 -0.13231281149E+03  0.62125436963E+03  0.83761788926E+02 0.  0.
         23    2    4    4    0    0 -0.60962135708E+01  0.11401559253E+02 -0.32428208312E+03  0.33706236668E+03  0.91022031536E+02 0.  0.
          1    1    3    3  502    0 -0.40087510759E+03  0.11988233081E+03 -0.93432334301E+03  0.10237346992E+04  0.00000000000E+00 0. -1.
         -1    1    3    3    0  502 -0.15523724533E+03  0.81685126867E+02 -0.54299487617E+03  0.57062640828E+03  0.00000000000E+00 0.  1.
         13    1    5    5    0    0  0.18682912158E+03 -0.29554482661E+02 -0.37322617689E+02  0.19279928918E+03  0.00000000000E+00 0.  1.
        -13    1    5    5    0    0  0.37537944492E+03 -0.18341453427E+03 -0.94990193803E+02  0.42845508045E+03  0.00000000000E+00 0. -1.
          1    1    6    6  503    0 -0.26915469421E+02 -0.12411850492E+02 -0.28541927567E+03  0.28695410688E+03  0.00000000000E+00 0. -1.
         -1    1    6    6    0  503  0.20819255850E+02  0.23813409745E+02 -0.38862807445E+02  0.50108259801E+02  0.00000000000E+00 0.  1.
<mgrwt>
<rscale>  0 0.63102446E+03</rscale>
<asrwt>0</asrwt>
<pdfrwt beam="1">  1        1 0.47597286E-01 0.63102446E+03</pdfrwt>
<pdfrwt beam="2">  1       -1 0.34512239E+00 0.63102446E+03</pdfrwt>
<totfact> 0.15263277E+00</totfact>
</mgrwt>
</event>
<event>
12    1  0.1432447E-007  0.1438764E+04  0.7818608E-02  0.8926228E-01
          2   -1    0    0  501    0  0.00000000000E+00  0.00000000000E+00  0.13319534193E+04  0.13319534193E+04  0.00000000000E+00 0. -1.
         -2   -1    0    0    0  501 -0.00000000000E+00 -0.00000000000E+00 -0.19973766514E+04  0.19973766514E+04  0.00000000000E+00 0.  1.
         23    2    1    2    0    0 -0.68174537458E+03  0.12401284497E+04 -0.10256934399E+04  0.17506923052E+04  0.10090186884E+03 0.  0.
    5000000    2    1    2    0    0  0.68174537458E+03 -0.12401284497E+04  0.36027020780E+03  0.15786377655E+04  0.59967261438E+03 0.  0.
         23    2    4    4    0    0  0.54027181810E+02  0.10863699897E+02 -0.49096731428E+02  0.11739469504E+03  0.91291122444E+02 0.  0.
         23    2    4    4    0    0  0.62771819277E+03 -0.12509921496E+04  0.40936693923E+03  0.14612430705E+04  0.92943703704E+02 0.  0.
          2    1    3    3  502    0 -0.12099463295E+03  0.27027732617E+03 -0.17448846962E+03  0.34370883066E+03  0.00000000000E+00 0. -1.
         -2    1    3    3    0  502 -0.56075074163E+03  0.96985112356E+03 -0.85120497032E+03  0.14069834745E+04  0.00000000000E+00 0.  1.
         13    1    5    5    0    0  0.15645483379E+02  0.12414547070E+02 -0.70601253994E+02  0.73371923749E+02  0.00000000000E+00 0. -1.
        -13    1    5    5    0    0  0.38381698431E+02 -0.15508471728E+01  0.21504522566E+02  0.44022771292E+02  0.00000000000E+00 0.  1.
          3    1    6    6  503    0  0.16722503331E+03 -0.24847990385E+03  0.86079450409E+02  0.31163463570E+03  0.00000000000E+00 0. -1.
         -3    1    6    6    0  503  0.46049315946E+03 -0.10025122458E+04  0.32328748882E+03  0.11496084348E+04  0.00000000000E+00 0.  1.
<mgrwt>
<rscale>  0 0.14387635E+04</rscale>
<asrwt>0</asrwt>
<pdfrwt beam="1">  1        2 0.20491591E+00 0.14387635E+04</pdfrwt>
<pdfrwt beam="2">  1       -2 0.30728871E+00 0.14387635E+04</pdfrwt>
<totfact> 0.43106374E-01</totfact>
</mgrwt>
</event>
<event>
12    1  0.1432447E-007  0.1226401E+04  0.7818608E-02  0.9090057E-01
          2   -1    0    0  501    0  0.00000000000E+00  0.00000000000E+00  0.26887259796E+04  0.26887259796E+04  0.00000000000E+00 0. -1.
         -2   -1    0    0    0  501 -0.00000000000E+00 -0.00000000000E+00 -0.57631494460E+03  0.57631494460E+03  0.00000000000E+00 0.  1.
         23    2    1    2    0    0  0.43354100047E+03  0.10865179134E+04  0.10525951599E+04  0.15762935718E+04  0.90916877065E+02 0.  0.
    5000000    2    1    2    0    0 -0.43354100047E+03 -0.10865179134E+04  0.10598158751E+04  0.16887473524E+04  0.60014911143E+03 0.  0.
         23    2    4    4    0    0  0.92335619002E+02 -0.36901046486E+03  0.16675316265E+03  0.42489595564E+03  0.89640203893E+02 0.  0.
         23    2    4    4    0    0 -0.52587661947E+03 -0.71750744853E+03  0.89306271240E+03  0.12638513967E+04  0.91630710728E+02 0.  0.
          2    1    3    3  502    0  0.16363265571E+03  0.38929521650E+03  0.32303244100E+03  0.53167317926E+03  0.00000000000E+00 0. -1.
         -2    1    3    3    0  502  0.26990834476E+03  0.69722269690E+03  0.72956271892E+03  0.10446203925E+04  0.00000000000E+00 0.  1.
         13    1    5    5    0    0  0.41544987422E+02 -0.42119105080E+02  0.35507054370E+02  0.68998231156E+02  0.00000000000E+00 0. -1.
        -13    1    5    5    0    0  0.50790631580E+02 -0.32689135978E+03  0.13124610828E+03  0.35589772449E+03  0.00000000000E+00 0.  1.
          1    1    6    6  503    0 -0.43314803911E+03 -0.53657790385E+03  0.65934049078E+03  0.95407701653E+03  0.00000000000E+00 0. -1.
         -1    1    6    6    0  503 -0.92728580362E+02 -0.18092954468E+03  0.23372222162E+03  0.30977438021E+03  0.00000000000E+00 0.  1.
<mgrwt>
<rscale>  0 0.12264007E+04</rscale>
<asrwt>0</asrwt>
<pdfrwt beam="1">  1        2 0.41365014E+00 0.12264007E+04</pdfrwt>
<pdfrwt beam="2">  1       -2 0.88663839E-01 0.12264007E+04</pdfrwt>
<totfact> 0.29039413E+00</totfact>
</mgrwt>
</event>
<event>
12    1  0.1432447E-007  0.7864062E+03  0.7818608E-02  0.9579905E-01
         -2   -1    0    0    0  501 -0.00000000000E+00  0.00000000000E+00  0.18646513802E+04  0.18646513802E+04  0.00000000000E+00 0.  1.
          2   -1    0    0  501    0  0.00000000000E+00 -0.00000000000E+00 -0.46527578116E+03  0.46527578116E+03  0.00000000000E+00 0. -1.
         23    2    1    2    0    0 -0.59809278089E+03 -0.37395009309E+03  0.77102731253E+02  0.71563843040E+03  0.92950982924E+02 0.  0.
    5000000    2    1    2    0    0  0.59809278089E+03  0.37395009309E+03  0.13222728678E+04  0.16142887310E+04  0.59997410222E+03 0.  0.
         23    2    4    4    0    0  0.62195119593E+03  0.44142312043E+03  0.94661453154E+03  0.12191340976E+04  0.92364577296E+02 0.  0.
         23    2    4    4    0    0 -0.23858415037E+02 -0.67473027342E+02  0.37565833629E+03  0.39515463344E+03  0.99529720752E+02 0.  0.
          2    1    3    3  502    0 -0.21274012409E+03 -0.18126142203E+03  0.50156103852E+02  0.28395369036E+03  0.00000000000E+00 0. -1.
         -2    1    3    3    0  502 -0.38535265681E+03 -0.19268867106E+03  0.26946627401E+02  0.43168474005E+03  0.00000000000E+00 0.  1.
         13    1    5    5    0    0  0.24223236138E+03  0.14803430358E+03  0.28952366362E+03  0.40548073164E+03  0.00000000000E+00 0.  1.
        -13    1    5    5    0    0  0.37971883455E+03  0.29338881685E+03  0.65709086792E+03  0.81365336592E+03  0.00000000000E+00 0. -1.
          2    1    6    6  503    0  0.23911961015E+02 -0.27564863905E+02  0.27053005614E+03  0.27298006314E+03  0.00000000000E+00 0. -1.
         -2    1    6    6    0  503 -0.47770376052E+02 -0.39908163437E+02  0.10512828016E+03  0.12217457029E+03  0.00000000000E+00 0.  1.
<mgrwt>
<rscale>  0 0.78640623E+03</rscale>
<asrwt>0</asrwt>
<pdfrwt beam="1">  1        2 0.71580890E-01 0.78640623E+03</pdfrwt>
<pdfrwt beam="2">  1       -2 0.28686944E+00 0.78640623E+03</pdfrwt>
<totfact> 0.26423826E+00</totfact>
</mgrwt>
</event>
<event>
12    1  0.1432447E-007  0.6720341E+03  0.7818608E-02  0.9766290E-01
         -2   -1    0    0    0  501 -0.00000000000E+00  0.00000000000E+00  0.60512352861E+03  0.60512352861E+03  0.00000000000E+00 0.  1.
          2   -1    0    0  501    0  0.00000000000E+00 -0.00000000000E+00 -0.26053038287E+04  0.26053038287E+04  0.00000000000E+00 0. -1.
         23    2    1    2    0    0  0.52955968803E+03  0.73484850412E+02 -0.22915061324E+04  0.23557283463E+04  0.11234856522E+03 0.  0.
    5000000    2    1    2    0    0 -0.52955968803E+03 -0.73484850412E+02  0.29132583235E+03  0.85469901101E+03  0.59983845525E+03 0.  0.
         23    2    4    4    0    0 -0.21694474065E+03  0.25027935350E+03  0.11273350609E+03  0.36167575472E+03  0.91628231862E+02 0.  0.
         23    2    4    4    0    0 -0.31261494738E+03 -0.32376420391E+03  0.17859232626E+03  0.49302325628E+03  0.92872747215E+02 0.  0.
          1    1    3    3  502    0  0.13026472427E+03 -0.27241824152E+02 -0.63583670753E+03  0.64961475816E+03  0.00000000000E+00 0. -1.
         -1    1    3    3    0  502  0.39929496376E+03  0.10072667456E+03 -0.16556694249E+04  0.17061135881E+04  0.00000000000E+00 0.  1.
         11    1    5    5    0    0 -0.10871116854E+03  0.58537197745E+02  0.41634221175E+02  0.13030015372E+03  0.00000000000E+00 0. -1.
        -11    1    5    5    0    0 -0.10823357210E+03  0.19174215576E+03  0.71099284916E+02  0.23137560101E+03  0.00000000000E+00 0.  1.
          3    1    6    6  503    0 -0.12727011466E+03 -0.18247780690E+03  0.54779421420E+02  0.22912140255E+03  0.00000000000E+00 0. -1.
         -3    1    6    6    0  503 -0.18534483273E+03 -0.14128639702E+03  0.12381290484E+03  0.26390185374E+03  0.00000000000E+00 0.  1.
<mgrwt>
<rscale>  0 0.67203409E+03</rscale>
<asrwt>0</asrwt>
<pdfrwt beam="1">  1        2 0.40081598E+00 0.67203409E+03</pdfrwt>
<pdfrwt beam="2">  1       -2 0.93095926E-01 0.67203409E+03</pdfrwt>
<totfact> 0.31602914E+00</totfact>
</mgrwt>
</event>
<event>
12    1  0.1432447E-007  0.4850763E+03  0.7818608E-02  0.1017749E+00
         -1   -1    0    0    0  501 -0.00000000000E+00  0.00000000000E+00  0.17266000840E+03  0.17266000840E+03  0.00000000000E+00 0.  1.
          1   -1    0    0  501    0  0.00000000000E+00 -0.00000000000E+00 -0.23584810787E+04  0.23584810787E+04  0.00000000000E+00 0. -1.
         23    2    1    2    0    0 -0.35831097656E+03 -0.11394381591E+03 -0.14870367165E+04  0.15364794906E+04  0.90117033275E+02 0.  0.
    5000000    2    1    2    0    0  0.35831097656E+03  0.11394381591E+03 -0.69878435386E+03  0.99466159656E+03  0.59973508265E+03 0.  0.
         23    2    4    4    0    0  0.29613293169E+03  0.26743957621E+03 -0.69367226448E+03  0.80556428247E+03  0.92379448621E+02 0.  0.
         23    2    4    4    0    0  0.62178044875E+02 -0.15349576029E+03 -0.51120893822E+01  0.18909731409E+03  0.91129594793E+02 0.  0.
          2    1    3    3  502    0 -0.13424527741E+03 -0.97867005653E+01 -0.64717613373E+03  0.66102535662E+03  0.00000000000E+00 0. -1.
         -2    1    3    3    0  502 -0.22406569915E+03 -0.10415711535E+03 -0.83986058275E+03  0.87545413397E+03  0.00000000000E+00 0.  1.
         13    1    5    5    0    0  0.21058999809E+03  0.22346305152E+03 -0.58313784100E+03  0.65903992618E+03  0.00000000000E+00 0.  1.
        -13    1    5    5    0    0  0.85542933598E+02  0.43976524686E+02 -0.11053442348E+03  0.14652435629E+03  0.00000000000E+00 0. -1.
          4    1    6    6  503    0 -0.19581287811E+02 -0.47317334073E+02  0.15520208553E+02  0.53509193692E+02  0.00000000000E+00 0. -1.
         -4    1    6    6    0  503  0.81759332686E+02 -0.10617842622E+03 -0.20632297935E+02  0.13558812040E+03  0.00000000000E+00 0.  1.
<mgrwt>
<rscale>  0 0.48507633E+03</rscale>
<asrwt>0</asrwt>
<pdfrwt beam="1">  1        1 0.36284322E+00 0.48507633E+03</pdfrwt>
<pdfrwt beam="2">  1       -1 0.26563080E-01 0.48507633E+03</pdfrwt>
<totfact> 0.23434550E+01</totfact>
</mgrwt>
</event>
<event>
12    1  0.1432447E-007  0.7224402E+03  0.7818608E-02  0.9679608E-01
         -1   -1    0    0    0  501 -0.00000000000E+00  0.00000000000E+00  0.27232628731E+03  0.27232628731E+03  0.00000000000E+00 0.  1.
          1   -1    0    0  501    0  0.00000000000E+00 -0.00000000000E+00 -0.23131630290E+04  0.23131630290E+04  0.00000000000E+00 0. -1.
         23    2    1    2    0    0 -0.65540439102E+03  0.15399483400E+03 -0.76452001925E+03  0.10228175799E+04  0.91627600513E+02 0.  0.
    5000000    2    1    2    0    0  0.65540439102E+03 -0.15399483400E+03 -0.12763167225E+04  0.15626717365E+04  0.59974099013E+03 0.  0.
         23    2    4    4    0    0  0.52945226471E+03 -0.24830639062E+03 -0.52961341912E+03  0.79414725201E+03  0.90574388980E+02 0.  0.
         23    2    4    4    0    0  0.12595212632E+03  0.94311556620E+02 -0.74670330337E+03  0.76852448448E+03  0.91134253409E+02 0.  0.
          1    1    3    3  502    0 -0.59263377199E+03  0.14707131273E+03 -0.64852943599E+03  0.89074978983E+03  0.00000000000E+00 0. -1.
         -1    1    3    3    0  502 -0.62770619034E+02  0.69235212685E+01 -0.11599058326E+03  0.13206779004E+03  0.00000000000E+00 0.  1.
         11    1    5    5    0    0  0.18455028988E+03 -0.12892423891E+03 -0.17353509901E+03  0.28424408430E+03  0.00000000000E+00 0.  1.
        -11    1    5    5    0    0  0.34490197483E+03 -0.11938215171E+03 -0.35607832011E+03  0.50990316771E+03  0.00000000000E+00 0. -1.
          4    1    6    6  503    0  0.13524948292E+03  0.64599912399E+02 -0.58851705889E+03  0.60730379541E+03  0.00000000000E+00 0. -1.
         -4    1    6    6    0  503 -0.92973566019E+01  0.29711644220E+02 -0.15818624447E+03  0.16122068907E+03  0.00000000000E+00 0.  1.
<mgrwt>
<rscale>  0 0.72244025E+03</rscale>
<asrwt>0</asrwt>
<pdfrwt beam="1">  1        1 0.35587123E+00 0.72244025E+03</pdfrwt>
<pdfrwt beam="2">  1       -1 0.41896353E-01 0.72244025E+03</pdfrwt>
<totfact> 0.10754344E+01</totfact>
</mgrwt>
</event>
<event>
12    1  0.1432447E-007  0.5620722E+03  0.7818608E-02  0.9987377E-01
         -1   -1    0    0    0  501 -0.00000000000E+00  0.00000000000E+00  0.79769990148E+03  0.79769990148E+03  0.00000000000E+00 0.  1.
          1   -1    0    0  501    0  0.00000000000E+00 -0.00000000000E+00 -0.75863109263E+03  0.75863109263E+03  0.00000000000E+00 0. -1.
         23    2    1    2    0    0  0.44556751668E+03  0.16041935640E+03 -0.44105193408E+03  0.65365467765E+03  0.92048070218E+02 0.  0.
    5000000    2    1    2    0    0 -0.44556751668E+03 -0.16041935640E+03  0.48012074294E+03  0.90267631646E+03  0.60003651778E+03 0.  0.
         23    2    4    4    0    0 -0.35952589924E+03 -0.29752965899E+03  0.52913640259E+03  0.71155769526E+03  0.92445935246E+02 0.  0.
         23    2    4    4    0    0 -0.86041617443E+02  0.13711030259E+03 -0.49015659650E+02  0.19111862119E+03  0.89002232941E+02 0.  0.
          3    1    3    3  502    0  0.16249755872E+03  0.75813324294E+02 -0.22463498563E+03  0.28742650104E+03  0.00000000000E+00 0. -1.
         -3    1    3    3    0  502  0.28306995796E+03  0.84606032109E+02 -0.21641694845E+03  0.36622817661E+03  0.00000000000E+00 0.  1.
         13    1    5    5    0    0 -0.55792191877E+02 -0.55448604015E+02  0.44114810989E+02  0.90185547125E+02  0.00000000000E+00 0. -1.
        -13    1    5    5    0    0 -0.30373370736E+03 -0.24208105498E+03  0.48502159160E+03  0.62137214814E+03  0.00000000000E+00 0.  1.
          2    1    6    6  503    0  0.62601566260E+01  0.64719951144E+02 -0.32391816186E+02  0.72643591548E+02  0.00000000000E+00 0.  1.
         -2    1    6    6    0  503 -0.92301774069E+02  0.72390351444E+02 -0.16623843463E+02  0.11847502965E+03  0.00000000000E+00 0. -1.
<mgrwt>
<rscale>  0 0.56207219E+03</rscale>
<asrwt>0</asrwt>
<pdfrwt beam="1">  1        1 0.11671248E+00 0.56207219E+03</pdfrwt>
<pdfrwt beam="2">  1       -1 0.12272306E+00 0.56207219E+03</pdfrwt>
<totfact> 0.14890407E+01</totfact>
</mgrwt>
</event>
<event>
12    1  0.1432447E-007  0.4622320E+03  0.7818608E-02  0.1024136E+00
         -1   -1    0    0    0  501 -0.00000000000E+00  0.00000000000E+00  0.34369365044E+03  0.34369365044E+03  0.00000000000E+00 0.  1.
          1   -1    0    0  501    0  0.00000000000E+00 -0.00000000000E+00 -0.68928186418E+03  0.68928186418E+03  0.00000000000E+00 0. -1.
         23    2    1    2    0    0  0.27586422517E+03 -0.91301963795E+02 -0.14231195552E+03  0.33608034568E+03  0.90885569522E+02 0.  0.
    5000000    2    1    2    0    0 -0.27586422517E+03  0.91301963795E+02 -0.20327625822E+03  0.69689516894E+03  0.59992042807E+03 0.  0.
         23    2    4    4    0    0 -0.16449480481E+03  0.31074006301E+03  0.24224097359E+01  0.36342470281E+03  0.91944107890E+02 0.  0.
         23    2    4    4    0    0 -0.11136942036E+03 -0.21943809921E+03 -0.20569866795E+03  0.33347046613E+03  0.91292839837E+02 0.  0.
          1    1    3    3  502    0  0.20073597943E+03 -0.10728580602E+03 -0.10890555166E+03  0.25232042484E+03  0.00000000000E+00 0. -1.
         -1    1    3    3    0  502  0.75128245735E+02  0.15983842221E+02 -0.33406403866E+02  0.83759920837E+02  0.00000000000E+00 0.  1.
         13    1    5    5    0    0 -0.62257054375E+02  0.20397237712E+03  0.21639149803E+02  0.21435700187E+03  0.00000000000E+00 0.  1.
        -13    1    5    5    0    0 -0.10223775044E+03  0.10676768589E+03 -0.19216740067E+02  0.14906770094E+03  0.00000000000E+00 0. -1.
          1    1    6    6  503    0 -0.63877348421E+02 -0.44905304693E+02 -0.88109865879E+02  0.11772914039E+03  0.00000000000E+00 0. -1.
         -1    1    6    6    0  503 -0.47492071937E+02 -0.17453279452E+03 -0.11758880207E+03  0.21574132574E+03  0.00000000000E+00 0.  1.
<mgrwt>
<rscale>  0 0.46223203E+03</rscale>
<asrwt>0</asrwt>
<pdfrwt beam="1">  1        1 0.10604336E+00 0.46223203E+03</pdfrwt>
<pdfrwt beam="2">  1       -1 0.52875947E-01 0.46223203E+03</pdfrwt>
<totfact> 0.10507182E+02</totfact>
</mgrwt>
</event>
<event>
12    1  0.1432447E-007  0.5620417E+03  0.7818608E-02  0.9987445E-01
          2   -1    0    0  501    0  0.00000000000E+00  0.00000000000E+00  0.23421523473E+04  0.23421523473E+04  0.00000000000E+00 0. -1.
         -2   -1    0    0    0  501 -0.00000000000E+00 -0.00000000000E+00 -0.16138128368E+03  0.16138128368E+03  0.00000000000E+00 0.  1.
         23    2    1    2    0    0  0.37545963132E+03 -0.23857632991E+03  0.10986010439E+04  0.11886969440E+04  0.90485198284E+02 0.  0.
    5000000    2    1    2    0    0 -0.37545963132E+03  0.23857632991E+03  0.10821700197E+04  0.13148366869E+04  0.59984578172E+03 0.  0.
         23    2    4    4    0    0 -0.38873489015E+03  0.36615616411E+03  0.10007527846E+04  0.11375806341E+04  0.86014020832E+02 0.  0.
         23    2    4    4    0    0  0.13275258833E+02 -0.12757983419E+03  0.81417235094E+02  0.17725605287E+03  0.91313172762E+02 0.  0.
          1    1    3    3  502    0  0.18082794817E+03 -0.15509468993E+03  0.50295182581E+03  0.55651922588E+03  0.00000000000E+00 0. -1.
         -1    1    3    3    0  502  0.19463168315E+03 -0.83481639980E+02  0.59564921811E+03  0.63217771816E+03  0.00000000000E+00 0.  1.
         13    1    5    5    0    0 -0.32611300549E+03  0.27907323948E+03  0.73741820161E+03  0.85323922168E+03  0.00000000000E+00 0.  1.
        -13    1    5    5    0    0 -0.62621884668E+02  0.87082924624E+02  0.26333458299E+03  0.28434141239E+03  0.00000000000E+00 0. -1.
          3    1    6    6  503    0 -0.15595173442E+02 -0.83189169891E+02  0.90073936087E+02  0.12360000560E+03  0.00000000000E+00 0. -1.
         -3    1    6    6    0  503  0.28870432276E+02 -0.44390664301E+02 -0.86567009937E+01  0.53656047273E+02  0.00000000000E+00 0.  1.
<mgrwt>
<rscale>  0 0.56204173E+03</rscale>
<asrwt>0</asrwt>
<pdfrwt beam="1">  1        2 0.36033111E+00 0.56204173E+03</pdfrwt>
<pdfrwt beam="2">  1       -2 0.24827891E-01 0.56204173E+03</pdfrwt>
<totfact> 0.66246207E+01</totfact>
</mgrwt>
</event>
<event>
12    1  0.1432447E-007  0.3910330E+03  0.7818608E-02  0.1046930E+00
          2   -1    0    0  501    0  0.00000000000E+00  0.00000000000E+00  0.30107970165E+04  0.30107970165E+04  0.00000000000E+00 0. -1.
         -2   -1    0    0    0  501 -0.00000000000E+00 -0.00000000000E+00 -0.82602007079E+02  0.82602007079E+02  0.00000000000E+00 0.  1.
         23    2    1    2    0    0 -0.20710307202E+03 -0.16657782395E+03  0.45775238380E+03  0.53704786345E+03  0.90792669782E+02 0.  0.
    5000000    2    1    2    0    0  0.20710307202E+03  0.16657782395E+03  0.24704426256E+04  0.25563511601E+04  0.60100302291E+03 0.  0.
         23    2    4    4    0    0 -0.12080499315E+03  0.69004578535E+02  0.21355520579E+03  0.27187288637E+03  0.94623264561E+02 0.  0.
         23    2    4    4    0    0  0.32790806517E+03  0.97573245419E+02  0.22568874198E+04  0.22844782737E+04  0.90862093684E+02 0.  0.
          1    1    3    3  502    0 -0.10074613914E+03 -0.31096218295E+02  0.13589114284E+03  0.17199756407E+03  0.00000000000E+00 0.  1.
         -1    1    3    3    0  502 -0.10635693288E+03 -0.13548160566E+03  0.32186124096E+03  0.36505029938E+03  0.00000000000E+00 0. -1.
         11    1    5    5    0    0 -0.86828745727E+02  0.77297748209E+02  0.10096010351E+03  0.15397115140E+03  0.00000000000E+00 0. -1.
        -11    1    5    5    0    0 -0.33976247420E+02 -0.82931696739E+01  0.11259510228E+03  0.11790173497E+03  0.00000000000E+00 0.  1.
          2    1    6    6  503    0  0.30305649818E+03  0.11353826557E+03  0.21068810400E+04  0.21315913998E+04  0.00000000000E+00 0. -1.
         -2    1    6    6    0  503  0.24851566982E+02 -0.15965020154E+02  0.15000637982E+03  0.15288687398E+03  0.00000000000E+00 0.  1.
<mgrwt>
<rscale>  0 0.39103298E+03</rscale>
<asrwt>0</asrwt>
<pdfrwt beam="1">  1        2 0.46319946E+00 0.39103298E+03</pdfrwt>
<pdfrwt beam="2">  1       -2 0.12708003E-01 0.39103298E+03</pdfrwt>
<totfact> 0.89385435E+01</totfact>
</mgrwt>
</event>
<event>
12    1  0.1432447E-007  0.1164198E+04  0.7818608E-02  0.9144785E-01
          1   -1    0    0  501    0  0.00000000000E+00  0.00000000000E+00  0.32508832470E+04  0.32508832470E+04  0.00000000000E+00 0. -1.
         -1   -1    0    0    0  501 -0.00000000000E+00 -0.00000000000E+00 -0.51900611739E+03  0.51900611739E+03  0.00000000000E+00 0.  1.
         23    2    1    2    0    0  0.62355595234E+03  0.91263219317E+03  0.51857761187E+03  0.12239970733E+04  0.86755692724E+02 0.  0.
    5000000    2    1    2    0    0 -0.62355595234E+03 -0.91263219317E+03  0.22132995177E+04  0.25458922911E+04  0.60096027889E+03 0.  0.
         23    2    4    4    0    0 -0.70127936920E+03 -0.70905036204E+03  0.19474906656E+04  0.21902326593E+04  0.99267515677E+02 0.  0.
         23    2    4    4    0    0  0.77723416858E+02 -0.20358183113E+03  0.26580885215E+03  0.35565963179E+03  0.91394399757E+02 0.  0.
          1    1    3    3  502    0  0.40178094502E+03  0.51538980517E+03  0.31881763941E+03  0.72711709253E+03  0.00000000000E+00 0. -1.
         -1    1    3    3    0  502  0.22177500732E+03  0.39724238801E+03  0.19975997246E+03  0.49687998078E+03  0.00000000000E+00 0.  1.
         13    1    5    5    0    0 -0.36189163804E+03 -0.29668725864E+03  0.92952933517E+03  0.10406794281E+04  0.00000000000E+00 0.  1.
        -13    1    5    5    0    0 -0.33938773116E+03 -0.41236310340E+03  0.10179613304E+04  0.11495532312E+04  0.00000000000E+00 0. -1.
          3    1    6    6  503    0  0.74831323553E+02 -0.19563990435E+03  0.27331998519E+03  0.34435231008E+03  0.00000000000E+00 0. -1.
         -3    1    6    6    0  503  0.28920933052E+01 -0.79419267867E+01 -0.75111330328E+01  0.11307321708E+02  0.00000000000E+00 0.  1.
<mgrwt>
<rscale>  0 0.11641976E+04</rscale>
<asrwt>0</asrwt>
<pdfrwt beam="1">  1        1 0.50013587E+00 0.11641976E+04</pdfrwt>
<pdfrwt beam="2">  1       -1 0.79847097E-01 0.11641976E+04</pdfrwt>
<totfact> 0.61378553E-01</totfact>
</mgrwt>
</event>
<event>
12    1  0.1432447E-007  0.1291547E+04  0.7818608E-02  0.9036295E-01
         -2   -1    0    0    0  501 -0.00000000000E+00  0.00000000000E+00  0.78213718129E+03  0.78213718129E+03  0.00000000000E+00 0.  1.
          2   -1    0    0  501    0  0.00000000000E+00 -0.00000000000E+00 -0.26368873872E+04  0.26368873872E+04  0.00000000000E+00 0. -1.
         23    2    1    2    0    0 -0.12175287147E+04 -0.40658201127E+03 -0.14640561756E+04  0.19492554481E+04  0.91930483486E+02 0.  0.
    5000000    2    1    2    0    0  0.12175287147E+04  0.40658201127E+03 -0.39069403032E+03  0.14697691204E+04  0.59991194274E+03 0.  0.
         23    2    4    4    0    0  0.78024386281E+03  0.33126240469E+03  0.28033432962E+02  0.85293285690E+03  0.90516953159E+02 0.  0.
         23    2    4    4    0    0  0.43728485185E+03  0.75319606576E+02 -0.41872746328E+03  0.61683626349E+03  0.90902159837E+02 0.  0.
          3    1    3    3  502    0 -0.86734202153E+03 -0.33193912567E+03 -0.10706014128E+04  0.14172696111E+04  0.00000000000E+00 0. -1.
         -3    1    3    3    0  502 -0.35018669312E+03 -0.74642885600E+02 -0.39345476280E+03  0.53198583701E+03  0.00000000000E+00 0.  1.
         13    1    5    5    0    0  0.11792118198E+03  0.87006777277E+02  0.46663899719E+01  0.14661977918E+03  0.00000000000E+00 0. -1.
        -13    1    5    5    0    0  0.66232268083E+03  0.24425562741E+03  0.23367042990E+02  0.70631307772E+03  0.00000000000E+00 0.  1.
          1    1    6    6  503    0  0.34031937259E+03  0.63540580829E+02 -0.27062400315E+03  0.43942238433E+03  0.00000000000E+00 0. -1.
         -1    1    6    6    0  503  0.96965479258E+02  0.11779025746E+02 -0.14810346013E+03  0.17741387916E+03  0.00000000000E+00 0.  1.
<mgrwt>
<rscale>  0 0.12915472E+04</rscale>
<asrwt>0</asrwt>
<pdfrwt beam="1">  1        2 0.40567499E+00 0.12915472E+04</pdfrwt>
<pdfrwt beam="2">  1       -2 0.12032879E+00 0.12915472E+04</pdfrwt>
<totfact> 0.14833105E+00</totfact>
</mgrwt>
</event>
<event>
12    1  0.1432447E-007  0.1205617E+04  0.7818608E-02  0.9107954E-01
          1   -1    0    0  501    0  0.00000000000E+00  0.00000000000E+00  0.38417258095E+04  0.38417258095E+04  0.00000000000E+00 0. -1.
         -1   -1    0    0    0  501 -0.00000000000E+00 -0.00000000000E+00 -0.44214869986E+03  0.44214869986E+03  0.00000000000E+00 0.  1.
         23    2    1    2    0    0 -0.11089421881E+04 -0.38456531914E+03  0.99376568045E+03  0.15405740078E+04  0.90303845315E+02 0.  0.
    5000000    2    1    2    0    0  0.11089421881E+04  0.38456531914E+03  0.24058114292E+04  0.27433005016E+04  0.60010478079E+03 0.  0.
         23    2    4    4    0    0  0.11357969795E+03 -0.49030042285E+02  0.71191685244E+02  0.16693203406E+03  0.86566477996E+02 0.  0.
         23    2    4    4    0    0  0.99536249017E+03  0.43359536142E+03  0.23346197439E+04  0.25763684675E+04  0.92052742489E+02 0.  0.
          3    1    3    3  502    0 -0.95632338445E+03 -0.34053532525E+03  0.81831557305E+03  0.13039014919E+04  0.00000000000E+00 0. -1.
         -3    1    3    3    0  502 -0.15261880368E+03 -0.44029993884E+02  0.17545010740E+03  0.23667251590E+03  0.00000000000E+00 0.  1.
         11    1    5    5    0    0  0.10624263833E+03 -0.84075917035E+01  0.35411546529E+02  0.11230388873E+03  0.00000000000E+00 0.  1.
        -11    1    5    5    0    0  0.73370596291E+01 -0.40622450582E+02  0.35780138715E+02  0.54628145326E+02  0.00000000000E+00 0. -1.
          3    1    6    6  503    0  0.84399663063E+03  0.33125436001E+03  0.19239878309E+04  0.21269200589E+04  0.00000000000E+00 0. -1.
         -3    1    6    6    0  503  0.15136585954E+03  0.10234100141E+03  0.41063191305E+03  0.44944840863E+03  0.00000000000E+00 0.  1.
<mgrwt>
<rscale>  0 0.12056170E+04</rscale>
<asrwt>0</asrwt>
<pdfrwt beam="1">  1        1 0.59103472E+00 0.12056170E+04</pdfrwt>
<pdfrwt beam="2">  1       -1 0.68022880E-01 0.12056170E+04</pdfrwt>
<totfact> 0.29143413E-01</totfact>
</mgrwt>
</event>
<event>
12    1  0.1432447E-007  0.5370439E+03  0.7818608E-02  0.1004538E+00
          2   -1    0    0  501    0  0.00000000000E+00  0.00000000000E+00  0.11144369419E+04  0.11144369419E+04  0.00000000000E+00 0. -1.
         -2   -1    0    0    0  501 -0.00000000000E+00 -0.00000000000E+00 -0.27245529282E+03  0.27245529282E+03  0.00000000000E+00 0.  1.
         23    2    1    2    0    0 -0.37082039288E+03 -0.79814005966E+02  0.26260140995E+03  0.47060093283E+03  0.92885403338E+02 0.  0.
    5000000    2    1    2    0    0  0.37082039288E+03  0.79814005966E+02  0.57938023918E+03  0.91629130192E+03  0.60002520706E+03 0.  0.
         23    2    4    4    0    0  0.15540817014E+03  0.31863397130E+03  0.38033009207E+03  0.52785627136E+03  0.91115077105E+02 0.  0.
         23    2    4    4    0    0  0.21541222274E+03 -0.23881996533E+03  0.19905014711E+03  0.38843503056E+03  0.88450044396E+02 0.  0.
          2    1    3    3  502    0 -0.26025432543E+03 -0.11425909190E+02  0.17658987924E+03  0.31471709638E+03  0.00000000000E+00 0. -1.
         -2    1    3    3    0  502 -0.11056606746E+03 -0.68388096777E+02  0.86011530707E+02  0.15588383646E+03  0.00000000000E+00 0.  1.
         11    1    5    5    0    0  0.15493516646E+03  0.30659200213E+03  0.33086250071E+03  0.47694187901E+03  0.00000000000E+00 0.  1.
        -11    1    5    5    0    0  0.47300367987E+00  0.12041969161E+02  0.49467591362E+02  0.50914392355E+02  0.00000000000E+00 0. -1.
          4    1    6    6  503    0  0.38894996478E+02 -0.86554453980E+02  0.91077723902E+02  0.13152811884E+03  0.00000000000E+00 0. -1.
         -4    1    6    6    0  503  0.17651722626E+03 -0.15226551135E+03  0.10797242321E+03  0.25690691172E+03  0.00000000000E+00 0.  1.
<mgrwt>
<rscale>  0 0.53704386E+03</rscale>
<asrwt>0</asrwt>
<pdfrwt beam="1">  1        2 0.17145184E+00 0.53704386E+03</pdfrwt>
<pdfrwt beam="2">  1       -2 0.41916199E-01 0.53704386E+03</pdfrwt>
<totfact> 0.11888353E+02</totfact>
</mgrwt>
</event>
<event>
12    1  0.1432447E-007  0.5690589E+03  0.7818608E-02  0.9971763E-01
         -1   -1    0    0    0  501 -0.00000000000E+00  0.00000000000E+00  0.24307597657E+03  0.24307597657E+03  0.00000000000E+00 0.  1.
          1   -1    0    0  501    0  0.00000000000E+00 -0.00000000000E+00 -0.14424036034E+04  0.14424036034E+04  0.00000000000E+00 0. -1.
         23    2    1    2    0    0  0.63644330599E+02  0.42878035681E+03 -0.48348896082E+03  0.65574187644E+03  0.91283284730E+02 0.  0.
    5000000    2    1    2    0    0 -0.63644330599E+02 -0.42878035681E+03 -0.71583866600E+03  0.10297377035E+04  0.60002628867E+03 0.  0.
         23    2    4    4    0    0  0.11877468202E+03  0.78378568184E+02 -0.63866705837E+02  0.17974003443E+03  0.89313486226E+02 0.  0.
         23    2    4    4    0    0 -0.18241901262E+03 -0.50715892500E+03 -0.65197196017E+03  0.84999766909E+03  0.83317040541E+02 0.  0.
          3    1    3    3  502    0  0.55377888060E+02  0.40197784288E+03 -0.40895511985E+03  0.57610518719E+03  0.00000000000E+00 0. -1.
         -3    1    3    3    0  502  0.82664425392E+01  0.26802513939E+02 -0.74533840963E+02  0.79636689249E+02  0.00000000000E+00 0.  1.
         13    1    5    5    0    0  0.82700282042E+02  0.94389808707E+02 -0.62625905348E+02  0.14025254600E+03  0.00000000000E+00 0.  1.
        -13    1    5    5    0    0  0.36074399977E+02 -0.16011240522E+02 -0.12408004890E+01  0.39487488431E+02  0.00000000000E+00 0. -1.
          2    1    6    6  503    0 -0.17065458572E+03 -0.45729588923E+03 -0.54647766728E+03  0.73272120126E+03  0.00000000000E+00 0. -1.
         -2    1    6    6    0  503 -0.11764426897E+02 -0.49863035772E+02 -0.10549429288E+03  0.11727646783E+03  0.00000000000E+00 0.  1.
<mgrwt>
<rscale>  0 0.56905893E+03</rscale>
<asrwt>0</asrwt>
<pdfrwt beam="1">  1        1 0.22190825E+00 0.56905893E+03</pdfrwt>
<pdfrwt beam="2">  1       -1 0.37396304E-01 0.56905893E+03</pdfrwt>
<totfact> 0.51900542E+01</totfact>
</mgrwt>
</event>
<event>
12    1  0.1432447E-007  0.6382854E+03  0.7818608E-02  0.9829013E-01
         -2   -1    0    0    0  501 -0.00000000000E+00  0.00000000000E+00  0.10157363157E+03  0.10157363157E+03  0.00000000000E+00 0.  1.
          2   -1    0    0  501    0  0.00000000000E+00 -0.00000000000E+00 -0.42421185432E+04  0.42421185432E+04  0.00000000000E+00 0. -1.
         23    2    1    2    0    0  0.48509494171E+03  0.13980806880E+03 -0.19735234039E+04  0.20391405685E+04  0.91848972982E+02 0.  0.
    5000000    2    1    2    0    0 -0.48509494171E+03 -0.13980806880E+03 -0.21670215078E+04  0.23045516063E+04  0.60009373635E+03 0.  0.
         23    2    4    4    0    0 -0.14024958367E+03  0.22056878814E+03 -0.73093349343E+03  0.78160163027E+03  0.91196494493E+02 0.  0.
         23    2    4    4    0    0 -0.34484535804E+03 -0.36037685694E+03 -0.14360880143E+04  0.15229499760E+04  0.90763674326E+02 0.  0.
          1    1    3    3  502    0  0.31411359763E+03  0.13488880107E+03 -0.13434680915E+04  0.13862787793E+04  0.00000000000E+00 0. -1.
         -1    1    3    3    0  502  0.17098134408E+03  0.49192677269E+01 -0.63005531233E+03  0.65286178921E+03  0.00000000000E+00 0.  1.
         11    1    5    5    0    0 -0.86530651967E+02  0.96151019513E+02 -0.24407715280E+03  0.27623582099E+03  0.00000000000E+00 0.  1.
        -11    1    5    5    0    0 -0.53718931703E+02  0.12441776863E+03 -0.48685634063E+03  0.50536580928E+03  0.00000000000E+00 0. -1.
          2    1    6    6  503    0 -0.13328020563E+03 -0.14088980342E+03 -0.43051576890E+03  0.47218362656E+03  0.00000000000E+00 0. -1.
         -2    1    6    6    0  503 -0.21156515241E+03 -0.21948705352E+03 -0.10055722454E+04  0.10507663495E+04  0.00000000000E+00 0.  1.
<mgrwt>
<rscale>  0 0.63828540E+03</rscale>
<asrwt>0</asrwt>
<pdfrwt beam="1">  1        2 0.65263355E+00 0.63828540E+03</pdfrwt>
<pdfrwt beam="2">  1       -2 0.15626714E-01 0.63828540E+03</pdfrwt>
<totfact> 0.79906096E+00</totfact>
</mgrwt>
</event>
<event>
12    1  0.1432447E-007  0.1504864E+04  0.7818608E-02  0.8881225E-01
          1   -1    0    0  501    0  0.00000000000E+00  0.00000000000E+00  0.13784625227E+04  0.13784625227E+04  0.00000000000E+00 0.  1.
         -1   -1    0    0    0  501 -0.00000000000E+00 -0.00000000000E+00 -0.17187084319E+04  0.17187084319E+04  0.00000000000E+00 0. -1.
         23    2    1    2    0    0  0.11414202316E+04  0.89836648402E+03  0.11804341941E+03  0.14601422903E+04  0.90436576021E+02 0.  0.
    5000000    2    1    2    0    0 -0.11414202316E+04 -0.89836648402E+03 -0.45828932863E+03  0.16370286643E+04  0.59994270906E+03 0.  0.
         23    2    4    4    0    0 -0.11530435949E+04 -0.69993680766E+03 -0.37011616484E+03  0.14015427294E+04  0.88966175726E+02 0.  0.
         23    2    4    4    0    0  0.11623363297E+02 -0.19842967635E+03 -0.88173163795E+02  0.23548593485E+03  0.90386280308E+02 0.  0.
          1    1    3    3  502    0  0.39997144736E+03  0.26821377341E+03  0.60865107726E+02  0.48540740444E+03  0.00000000000E+00 0. -1.
         -1    1    3    3    0  502  0.74144878423E+03  0.63015271061E+03  0.57178311685E+02  0.97473488583E+03  0.00000000000E+00 0.  1.
         13    1    5    5    0    0 -0.79308007127E+03 -0.43689977924E+03 -0.26592681629E+03  0.94370254220E+03  0.00000000000E+00 0. -1.
        -13    1    5    5    0    0 -0.35996352362E+03 -0.26303702843E+03 -0.10418934855E+03  0.45784018720E+03  0.00000000000E+00 0.  1.
          3    1    6    6  503    0  0.27111736641E+02 -0.16153241393E+03 -0.10222483411E+03  0.19307429587E+03  0.00000000000E+00 0. -1.
         -3    1    6    6    0  503 -0.15488373343E+02 -0.36897262421E+02  0.14051670317E+02  0.42411638988E+02  0.00000000000E+00 0.  1.
<mgrwt>
<rscale>  0 0.15048641E+04</rscale>
<asrwt>0</asrwt>
<pdfrwt beam="1">  1        1 0.21207116E+00 0.15048641E+04</pdfrwt>
<pdfrwt beam="2">  1       -1 0.26441668E+00 0.15048641E+04</pdfrwt>
<totfact> 0.42278568E-01</totfact>
</mgrwt>
</event>
<event>
12    1  0.1432447E-007  0.8282752E+03  0.7818608E-02  0.9519968E-01
          2   -1    0    0  501    0  0.00000000000E+00  0.00000000000E+00  0.24924130407E+04  0.24924130407E+04  0.00000000000E+00 0. -1.
         -2   -1    0    0    0  501 -0.00000000000E+00 -0.00000000000E+00 -0.36107333265E+03  0.36107333265E+03  0.00000000000E+00 0.  1.
         23    2    1    2    0    0  0.10276670698E+03  0.80801409872E+03  0.59072552298E+03  0.10104158520E+04  0.92389234778E+02 0.  0.
    5000000    2    1    2    0    0 -0.10276670698E+03 -0.80801409872E+03  0.15406141850E+04  0.18430705213E+04  0.59997424908E+03 0.  0.
         23    2    4    4    0    0 -0.47662650757E+02 -0.58410839163E+03  0.14692227261E+04  0.15844069087E+04  0.90969730928E+02 0.  0.
         23    2    4    4    0    0 -0.55104056225E+02 -0.22390570709E+03  0.71391458936E+02  0.25866361262E+03  0.92951069945E+02 0.  0.
          1    1    3    3  502    0  0.25367425497E+02  0.52539775040E+03  0.35904006182E+03  0.63686424644E+03  0.00000000000E+00 0. -1.
         -1    1    3    3    0  502  0.77399281485E+02  0.28261634831E+03  0.23168546116E+03  0.37355160557E+03  0.00000000000E+00 0.  1.
         13    1    5    5    0    0 -0.58245225905E+02 -0.19595566946E+03  0.48140269988E+03  0.52301021997E+03  0.00000000000E+00 0. -1.
        -13    1    5    5    0    0  0.10582575148E+02 -0.38815272217E+03  0.98782002623E+03  0.10613966887E+04  0.00000000000E+00 0.  1.
          4    1    6    6  503    0 -0.56187040448E+02 -0.23093880609E+03  0.76744757520E+02  0.24975883063E+03  0.00000000000E+00 0. -1.
         -4    1    6    6    0  503  0.10829842229E+01  0.70330990035E+01 -0.53532985841E+01  0.89047819822E+01  0.00000000000E+00 0.  1.
<mgrwt>
<rscale>  0 0.82827524E+03</rscale>
<asrwt>0</asrwt>
<pdfrwt beam="1">  1        2 0.38344815E+00 0.82827524E+03</pdfrwt>
<pdfrwt beam="2">  1       -2 0.55549745E-01 0.82827524E+03</pdfrwt>
<totfact> 0.11086803E+01</totfact>
</mgrwt>
</event>
<event>
12    1  0.1432447E-007  0.5762309E+03  0.7818608E-02  0.9955985E-01
          2   -1    0    0  501    0  0.00000000000E+00  0.00000000000E+00  0.12955857499E+04  0.12955857499E+04  0.00000000000E+00 0. -1.
         -2   -1    0    0    0  501 -0.00000000000E+00 -0.00000000000E+00 -0.36311448074E+03  0.36311448074E+03  0.00000000000E+00 0.  1.
         23    2    1    2    0    0  0.30983031005E+03 -0.30287349030E+03 -0.30788650797E+02  0.44401240922E+03  0.92042959353E+02 0.  0.
    5000000    2    1    2    0    0 -0.30983031005E+03  0.30287349030E+03  0.96325991992E+03  0.12146878214E+04  0.59989137176E+03 0.  0.
         23    2    4    4    0    0 -0.64996142134E+02  0.42011726029E+03  0.71813325709E+03  0.83938071530E+03  0.90119916719E+02 0.  0.
         23    2    4    4    0    0 -0.24483416792E+03 -0.11724376999E+03  0.24512666283E+03  0.37530710607E+03  0.84133653536E+02 0.  0.
          3    1    3    3  502    0  0.25285027147E+03 -0.19405110037E+03 -0.65000783895E+01  0.31879670694E+03  0.00000000000E+00 0. -1.
         -3    1    3    3    0  502  0.56980038585E+02 -0.10882238993E+03 -0.24288572407E+02  0.12521570228E+03  0.00000000000E+00 0.  1.
         11    1    5    5    0    0 -0.49368086713E+02  0.19910439903E+03  0.42516184286E+03  0.47206182044E+03  0.00000000000E+00 0.  1.
        -11    1    5    5    0    0 -0.15628055422E+02  0.22101286127E+03  0.29297141423E+03  0.36731889486E+03  0.00000000000E+00 0. -1.
          1    1    6    6  503    0 -0.76868266666E+02 -0.82335736349E+02  0.96445064466E+02  0.14828875332E+03  0.00000000000E+00 0. -1.
         -1    1    6    6    0  503 -0.16796590125E+03 -0.34908033641E+02  0.14868159836E+03  0.22701835276E+03  0.00000000000E+00 0.  1.
<mgrwt>
<rscale>  0 0.57623086E+03</rscale>
<asrwt>0</asrwt>
<pdfrwt beam="1">  1        2 0.19932088E+00 0.57623086E+03</pdfrwt>
<pdfrwt beam="2">  1       -2 0.55863767E-01 0.57623086E+03</pdfrwt>
<totfact> 0.51983107E+01</totfact>
</mgrwt>
</event>
<event>
12    1  0.1432447E-007  0.8645378E+03  0.7818608E-02  0.9471030E-01
         -1   -1    0    0    0  501 -0.00000000000E+00  0.00000000000E+00  0.43918540629E+03  0.43918540629E+03  0.00000000000E+00 0.  1.
          1   -1    0    0  501    0  0.00000000000E+00 -0.00000000000E+00 -0.24686802775E+04  0.24686802775E+04  0.00000000000E+00 0. -1.
         23    2    1    2    0    0 -0.53570391270E+03 -0.60987418496E+03 -0.23703365076E+03  0.85072053217E+03  0.92818471760E+02 0.  0.
    5000000    2    1    2    0    0  0.53570391270E+03  0.60987418496E+03 -0.17924612205E+04  0.20571451517E+04  0.60000312040E+03 0.  0.
         23    2    4    4    0    0  0.54401202649E+03  0.66228078028E+03 -0.13457638275E+04  0.15981139065E+04  0.91229721182E+02 0.  0.
         23    2    4    4    0    0 -0.83081137861E+01 -0.52406595317E+02 -0.44669739300E+03  0.45903124512E+03  0.91409228708E+02 0.  0.
          4    1    3    3  502    0 -0.23451270669E+03 -0.25576257735E+03 -0.14871746987E+03  0.37752826572E+03  0.00000000000E+00 0. -1.
         -4    1    3    3    0  502 -0.30119120601E+03 -0.35411160761E+03 -0.88316180889E+02  0.47319226645E+03  0.00000000000E+00 0.  1.
         13    1    5    5    0    0  0.79112792427E+01  0.27587635252E+02 -0.70257496313E+02  0.75893225957E+02  0.00000000000E+00 0. -1.
        -13    1    5    5    0    0  0.53610074724E+03  0.63469314503E+03 -0.12755063312E+04  0.15222206806E+04  0.00000000000E+00 0.  1.
          3    1    6    6  503    0  0.76722501177E+01 -0.22637228559E+02 -0.40341590842E+03  0.40412337559E+03  0.00000000000E+00 0. -1.
         -3    1    6    6    0  503 -0.15980363904E+02 -0.29769366758E+02 -0.43281484585E+02  0.54907869523E+02  0.00000000000E+00 0.  1.
<mgrwt>
<rscale>  0 0.86453776E+03</rscale>
<asrwt>0</asrwt>
<pdfrwt beam="1">  1        1 0.37979697E+00 0.86453776E+03</pdfrwt>
<pdfrwt beam="2">  1       -1 0.67566986E-01 0.86453776E+03</pdfrwt>
<totfact> 0.32836308E+00</totfact>
</mgrwt>
</event>
<event>
12    1  0.1432447E-007  0.4986185E+03  0.7818608E-02  0.1014140E+00
         -1   -1    0    0    0  501 -0.00000000000E+00  0.00000000000E+00  0.67951717933E+03  0.67951717933E+03  0.00000000000E+00 0.  1.
          1   -1    0    0  501    0  0.00000000000E+00 -0.00000000000E+00 -0.54043721127E+03  0.54043721127E+03  0.00000000000E+00 0. -1.
         23    2    1    2    0    0  0.36024918708E+03 -0.18243584738E+03  0.25654813312E+03  0.48687160669E+03  0.90358738272E+02 0.  0.
    5000000    2    1    2    0    0 -0.36024918708E+03  0.18243584738E+03 -0.11746816506E+03  0.73308278392E+03  0.60045756142E+03 0.  0.
         23    2    4    4    0    0 -0.29296060616E+03 -0.74232372716E+02  0.14718289060E+03  0.34762791706E+03  0.88577669390E+02 0.  0.
         23    2    4    4    0    0 -0.67288580927E+02  0.25666822010E+03 -0.26465105567E+03  0.38545486686E+03  0.90160660977E+02 0.  0.
          3    1    3    3  502    0  0.24164697041E+03 -0.74673568030E+02  0.14390492059E+03  0.29099489040E+03  0.00000000000E+00 0. -1.
         -3    1    3    3    0  502  0.11860221667E+03 -0.10776227935E+03  0.11264321254E+03  0.19587671628E+03  0.00000000000E+00 0.  1.
         11    1    5    5    0    0 -0.37620988305E+02  0.55867940667E+01  0.50387702268E+02  0.63130591387E+02  0.00000000000E+00 0. -1.
        -11    1    5    5    0    0 -0.25533961785E+03 -0.79819166783E+02  0.96795188336E+02  0.28449732567E+03  0.00000000000E+00 0.  1.
          4    1    6    6  503    0 -0.21877823975E+02  0.21733379387E+03 -0.18898714088E+03  0.28884036518E+03  0.00000000000E+00 0. -1.
         -4    1    6    6    0  503 -0.45410756952E+02  0.39334426230E+02 -0.75663914788E+02  0.96614501680E+02  0.00000000000E+00 0.  1.
<mgrwt>
<rscale>  0 0.49861855E+03</rscale>
<asrwt>0</asrwt>
<pdfrwt beam="1">  1        1 0.83144186E-01 0.49861855E+03</pdfrwt>
<pdfrwt beam="2">  1       -1 0.10454110E+00 0.49861855E+03</pdfrwt>
<totfact> 0.36022661E+01</totfact>
</mgrwt>
</event>
<event>
12    1  0.1432447E-007  0.4937744E+03  0.7818608E-02  0.1015417E+00
         -1   -1    0    0    0  501 -0.00000000000E+00  0.00000000000E+00  0.11895313061E+03  0.11895313061E+03  0.00000000000E+00 0.  1.
          1   -1    0    0  501    0  0.00000000000E+00 -0.00000000000E+00 -0.23518942378E+04  0.23518942378E+04  0.00000000000E+00 0. -1.
         23    2    1    2    0    0 -0.80806225251E+02  0.33627154300E+03 -0.62468990691E+03  0.71984142554E+03  0.91246925772E+02 0.  0.
    5000000    2    1    2    0    0  0.80806225251E+02 -0.33627154300E+03 -0.16082512003E+04  0.17510059429E+04  0.59995140811E+03 0.  0.
         23    2    4    4    0    0  0.23332732870E+03  0.14619573176E+02 -0.32970260248E+03  0.41339272758E+03  0.86800730958E+02 0.  0.
         23    2    4    4    0    0 -0.15252110345E+03 -0.35089111617E+03 -0.12785485978E+04  0.13376132153E+04  0.90196088436E+02 0.  0.
          1    1    3    3  502    0  0.20006375747E+02  0.48223762974E+02 -0.81370994569E+02  0.96680014186E+02  0.00000000000E+00 0. -1.
         -1    1    3    3    0  502 -0.10081260100E+03  0.28804778002E+03 -0.54331891234E+03  0.62316141136E+03  0.00000000000E+00 0.  1.
         11    1    5    5    0    0  0.12772884627E+03  0.44423634250E+02 -0.14286981769E+03  0.19672290730E+03  0.00000000000E+00 0. -1.
        -11    1    5    5    0    0  0.10559848243E+03 -0.29804061074E+02 -0.18683278479E+03  0.21666982028E+03  0.00000000000E+00 0.  1.
          1    1    6    6  503    0 -0.78559945884E+01 -0.58032703645E+02 -0.30957785615E+03  0.31506818367E+03  0.00000000000E+00 0. -1.
         -1    1    6    6    0  503 -0.14466510886E+03 -0.29285841253E+03 -0.96897074165E+03  0.10225450316E+04  0.00000000000E+00 0.  1.
<mgrwt>
<rscale>  0 0.49377442E+03</rscale>
<asrwt>0</asrwt>
<pdfrwt beam="1">  1        1 0.36182986E+00 0.49377442E+03</pdfrwt>
<pdfrwt beam="2">  1       -1 0.18300483E-01 0.49377442E+03</pdfrwt>
<totfact> 0.44017873E+01</totfact>
</mgrwt>
</event>
<event>
12    1  0.1432447E-007  0.1032826E+04  0.7818608E-02  0.9273257E-01
          2   -1    0    0  501    0  0.00000000000E+00  0.00000000000E+00  0.55442605128E+03  0.55442605128E+03  0.00000000000E+00 0. -1.
         -2   -1    0    0    0  501 -0.00000000000E+00 -0.00000000000E+00 -0.22166874438E+04  0.22166874438E+04  0.00000000000E+00 0.  1.
         23    2    1    2    0    0  0.32506553563E+03  0.95295582216E+03 -0.10136806599E+04  0.14317290484E+04  0.92234409559E+02 0.  0.
    5000000    2    1    2    0    0 -0.32506553563E+03 -0.95295582216E+03 -0.64858073265E+03  0.13393844467E+04  0.59958429588E+03 0.  0.
         23    2    4    4    0    0 -0.41661627352E+01 -0.46489014780E+03 -0.57376997280E+03  0.74407283367E+03  0.91061482976E+02 0.  0.
         23    2    4    4    0    0 -0.32089937290E+03 -0.48806567435E+03 -0.74810759853E+02  0.59531161303E+03  0.87262573966E+02 0.  0.
          2    1    3    3  502    0  0.11424020500E+03  0.28698698316E+03 -0.25609032005E+03  0.40124133008E+03  0.00000000000E+00 0. -1.
         -2    1    3    3    0  502  0.21082533063E+03  0.66596883899E+03 -0.75759033981E+03  0.10304877183E+04  0.00000000000E+00 0.  1.
         13    1    5    5    0    0 -0.29874666030E+02 -0.33838282912E+03 -0.36503633737E+03  0.49864512663E+03  0.00000000000E+00 0.  1.
        -13    1    5    5    0    0  0.25708503295E+02 -0.12650731869E+03 -0.20873363543E+03  0.24542770704E+03  0.00000000000E+00 0. -1.
          4    1    6    6  503    0 -0.25603800968E+03 -0.32363826081E+03 -0.69438173802E+02  0.41847203759E+03  0.00000000000E+00 0.  1.
         -4    1    6    6    0  503 -0.64861363214E+02 -0.16442741355E+03 -0.53725860509E+01  0.17683957545E+03  0.00000000000E+00 0. -1.
<mgrwt>
<rscale>  0 0.10328262E+04</rscale>
<asrwt>0</asrwt>
<pdfrwt beam="1">  1        2 0.85296315E-01 0.10328262E+04</pdfrwt>
<pdfrwt beam="2">  1       -2 0.34102884E+00 0.10328262E+04</pdfrwt>
<totfact> 0.97416801E-01</totfact>
</mgrwt>
</event>
<event>
12    1  0.1432447E-007  0.7930126E+03  0.7818608E-02  0.9570187E-01
         -2   -1    0    0    0  501 -0.00000000000E+00  0.00000000000E+00  0.89875905795E+03  0.89875905795E+03  0.00000000000E+00 0.  1.
          2   -1    0    0  501    0  0.00000000000E+00 -0.00000000000E+00 -0.76275748959E+03  0.76275748959E+03  0.00000000000E+00 0. -1.
         23    2    1    2    0    0  0.70759283548E+03 -0.50216115503E+02 -0.37884105196E+02  0.71625718164E+03  0.91541606674E+02 0.  0.
    5000000    2    1    2    0    0 -0.70759283548E+03  0.50216115503E+02  0.17388567355E+03  0.94525936590E+03  0.60005813242E+03 0.  0.
         23    2    4    4    0    0 -0.35449925649E+03 -0.22638066917E+03  0.22760840222E+03  0.48533236825E+03  0.82607461453E+02 0.  0.
         23    2    4    4    0    0 -0.35309357899E+03  0.27659678467E+03 -0.53722728662E+02  0.45992699765E+03  0.86405177984E+02 0.  0.
          4    1    3    3  502    0  0.64083716222E+03 -0.17928957521E+02 -0.35268431123E+02  0.64205730136E+03  0.00000000000E+00 0. -1.
         -4    1    3    3    0  502  0.66755673258E+02 -0.32287157981E+02 -0.26156740722E+01  0.74199880280E+02  0.00000000000E+00 0.  1.
         13    1    5    5    0    0 -0.28727147619E+03 -0.17978976260E+03  0.21804738008E+03  0.40298128955E+03  0.00000000000E+00 0. -1.
        -13    1    5    5    0    0 -0.67227780298E+02 -0.46590906565E+02  0.95610221364E+01  0.82351078698E+02  0.00000000000E+00 0.  1.
          3    1    6    6  503    0 -0.20891504517E+03  0.14001465249E+03  0.90046878559E+01  0.25165588293E+03  0.00000000000E+00 0. -1.
         -3    1    6    6    0  503 -0.14417853382E+03  0.13658213218E+03 -0.62727416518E+02  0.20827111472E+03  0.00000000000E+00 0.  1.
<mgrwt>
<rscale>  0 0.79301259E+03</rscale>
<asrwt>0</asrwt>
<pdfrwt beam="1">  1        2 0.11734731E+00 0.79301259E+03</pdfrwt>
<pdfrwt beam="2">  1       -2 0.13827062E+00 0.79301259E+03</pdfrwt>
<totfact> 0.13752773E+01</totfact>
</mgrwt>
</event>
<event>
12    1  0.1432447E-007  0.4547801E+03  0.7818608E-02  0.1026306E+00
         -2   -1    0    0    0  501 -0.00000000000E+00  0.00000000000E+00  0.30730893218E+03  0.30730893218E+03  0.00000000000E+00 0.  1.
          2   -1    0    0  501    0  0.00000000000E+00 -0.00000000000E+00 -0.14189397824E+04  0.14189397824E+04  0.00000000000E+00 0. -1.
         23    2    1    2    0    0  0.23652784321E+03  0.17031733275E+03  0.11797332769E+03  0.32741269268E+03  0.91257606979E+02 0.  0.
    5000000    2    1    2    0    0 -0.23652784321E+03 -0.17031733275E+03 -0.12296041779E+04  0.13988360219E+04  0.59988529518E+03 0.  0.
         23    2    4    4    0    0 -0.31868289014E+03  0.85225955786E+02 -0.90550784392E+03  0.96807064074E+03  0.91619114040E+02 0.  0.
         23    2    4    4    0    0  0.82155046923E+02 -0.25554328854E+03 -0.32409633402E+03  0.43076538118E+03  0.92024756732E+02 0.  0.
          2    1    3    3  502    0  0.41500676942E+02  0.24153180606E+02  0.60079813792E+02  0.76910768722E+02  0.00000000000E+00 0. -1.
         -2    1    3    3    0  502  0.19502716627E+03  0.14616415214E+03  0.57893513902E+02  0.25050192396E+03  0.00000000000E+00 0.  1.
         11    1    5    5    0    0 -0.15575932980E+03  0.72557504614E+02 -0.56184377678E+03  0.58753211810E+03  0.00000000000E+00 0. -1.
        -11    1    5    5    0    0 -0.16292356034E+03  0.12668451172E+02 -0.34366406714E+03  0.38053852264E+03  0.00000000000E+00 0.  1.
          2    1    6    6  503    0  0.45120664370E+02 -0.30395646894E+02 -0.47687729801E+02  0.72345623758E+02  0.00000000000E+00 0. -1.
         -2    1    6    6    0  503  0.37034382553E+02 -0.22514764164E+03 -0.27640860422E+03  0.35841975742E+03  0.00000000000E+00 0.  1.
<mgrwt>
<rscale>  0 0.45478005E+03</rscale>
<asrwt>0</asrwt>
<pdfrwt beam="1">  1        2 0.21829843E+00 0.45478005E+03</pdfrwt>
<pdfrwt beam="2">  1       -2 0.47278298E-01 0.45478005E+03</pdfrwt>
<totfact> 0.63317677E+01</totfact>
</mgrwt>
</event>
<event>
12    1  0.1432447E-007  0.6090002E+03  0.7818608E-02  0.9886907E-01
          2   -1    0    0  501    0  0.00000000000E+00  0.00000000000E+00  0.15407365596E+04  0.15407365596E+04  0.00000000000E+00 0. -1.
         -2   -1    0    0    0  501 -0.00000000000E+00 -0.00000000000E+00 -0.27917963111E+03  0.27917963111E+03  0.00000000000E+00 0.  1.
         23    2    1    2    0    0 -0.43761700868E+03  0.26323451390E+03  0.42753910737E+03  0.67295024011E+03  0.96287495244E+02 0.  0.
    5000000    2    1    2    0    0  0.43761700868E+03 -0.26323451390E+03  0.83401782115E+03  0.11469659506E+04  0.59928633416E+03 0.  0.
         23    2    4    4    0    0  0.51343795598E+03 -0.11347914933E+03  0.78727546667E+03  0.95086905482E+03  0.88618547797E+02 0.  0.
         23    2    4    4    0    0 -0.75820947301E+02 -0.14975536457E+03  0.46742354481E+02  0.19609689581E+03  0.89964768540E+02 0.  0.
          3    1    3    3  502    0 -0.33624472851E+03  0.15642862443E+03  0.28180155555E+03  0.46577091869E+03  0.00000000000E+00 0. -1.
         -3    1    3    3    0  502 -0.10137228017E+03  0.10680588946E+03  0.14573755182E+03  0.20717932142E+03  0.00000000000E+00 0.  1.
         13    1    5    5    0    0  0.97348171811E+02  0.86408023412E+01  0.11562259420E+03  0.15139324394E+03  0.00000000000E+00 0.  1.
        -13    1    5    5    0    0  0.41608978417E+03 -0.12211995167E+03  0.67165287247E+03  0.79947581088E+03  0.00000000000E+00 0. -1.
          1    1    6    6  503    0 -0.59137679535E+02 -0.10156652905E+03  0.73388257907E+02  0.13855995584E+03  0.00000000000E+00 0. -1.
         -1    1    6    6    0  503 -0.16683267767E+02 -0.48188835516E+02 -0.26645903426E+02  0.57536939970E+02  0.00000000000E+00 0.  1.
<mgrwt>
<rscale>  0 0.60900023E+03</rscale>
<asrwt>0</asrwt>
<pdfrwt beam="1">  1        2 0.23703639E+00 0.60900023E+03</pdfrwt>
<pdfrwt beam="2">  1       -2 0.42950714E-01 0.60900023E+03</pdfrwt>
<totfact> 0.64198837E+01</totfact>
</mgrwt>
</event>
<event>
12    1  0.1432447E-007  0.6077276E+03  0.7818608E-02  0.9889502E-01
          1   -1    0    0  501    0  0.00000000000E+00  0.00000000000E+00  0.36609001420E+03  0.36609001420E+03  0.00000000000E+00 0. -1.
         -1   -1    0    0    0  501 -0.00000000000E+00 -0.00000000000E+00 -0.10879177078E+04  0.10879177078E+04  0.00000000000E+00 0.  1.
         23    2    1    2    0    0 -0.47020854669E+03  0.39094168788E+02 -0.40158982527E+03  0.62615056367E+03  0.90364313851E+02 0.  0.
    5000000    2    1    2    0    0  0.47020854669E+03 -0.39094168788E+02 -0.32023786834E+03  0.82785715833E+03  0.60014227552E+03 0.  0.
         23    2    4    4    0    0  0.44920411433E+03 -0.25168859658E+03 -0.27510234989E+03  0.59099478232E+03  0.91989368001E+02 0.  0.
         23    2    4    4    0    0  0.21004432352E+02  0.21259442779E+03 -0.45135518449E+02  0.23686237601E+03  0.91809548725E+02 0.  0.
          2    1    3    3  502    0 -0.31820401148E+03  0.11572626394E+02 -0.21639273368E+03  0.38498510853E+03  0.00000000000E+00 0. -1.
         -2    1    3    3    0  502 -0.15200453521E+03  0.27521542394E+02 -0.18519709159E+03  0.24116545514E+03  0.00000000000E+00 0.  1.
         13    1    5    5    0    0  0.16344676752E+03 -0.48001645319E+02 -0.67298439751E+02  0.18316135990E+03  0.00000000000E+00 0. -1.
        -13    1    5    5    0    0  0.28575734681E+03 -0.20368695126E+03 -0.20780391014E+03  0.40783342242E+03  0.00000000000E+00 0.  1.
          2    1    6    6  503    0  0.41221043362E+02  0.14318989608E+03  0.46677143847E+01  0.14907819530E+03  0.00000000000E+00 0. -1.
         -2    1    6    6    0  503 -0.20216611010E+02  0.69404531710E+02 -0.49803232833E+02  0.87784180712E+02  0.00000000000E+00 0.  1.
<mgrwt>
<rscale>  0 0.60772760E+03</rscale>
<asrwt>0</asrwt>
<pdfrwt beam="1">  1        1 0.56321541E-01 0.60772760E+03</pdfrwt>
<pdfrwt beam="2">  1       -1 0.16737195E+00 0.60772760E+03</pdfrwt>
<totfact> 0.18130181E+01</totfact>
</mgrwt>
</event>
<event>
12    1  0.1432447E-007  0.8530058E+03  0.7818608E-02  0.9486312E-01
          2   -1    0    0  501    0  0.00000000000E+00  0.00000000000E+00  0.11577835619E+04  0.11577835619E+04  0.00000000000E+00 0.  1.
         -2   -1    0    0    0  501 -0.00000000000E+00 -0.00000000000E+00 -0.72423911630E+03  0.72423911630E+03  0.00000000000E+00 0. -1.
         23    2    1    2    0    0  0.74369220131E+03 -0.32034955360E+03  0.28620793699E+03  0.86354652335E+03  0.89976041316E+02 0.  0.
    5000000    2    1    2    0    0 -0.74369220131E+03  0.32034955360E+03  0.14733650858E+03  0.10184761548E+04  0.59990307918E+03 0.  0.
         23    2    4    4    0    0 -0.25798875817E+03  0.30120182496E+03 -0.15864424193E+03  0.43671881665E+03  0.90964776796E+02 0.  0.
         23    2    4    4    0    0 -0.48570344314E+03  0.19147728638E+02  0.30598075051E+03  0.58175733817E+03  0.92427867253E+02 0.  0.
          3    1    3    3  502    0  0.31469714083E+03 -0.17607656295E+03  0.10073186526E+03  0.37441174547E+03  0.00000000000E+00 0. -1.
         -3    1    3    3    0  502  0.42899506048E+03 -0.14427299065E+03  0.18547607173E+03  0.48913477788E+03  0.00000000000E+00 0.  1.
         11    1    5    5    0    0 -0.19694631567E+03  0.16309600400E+03 -0.93467061275E+02  0.27225768919E+03  0.00000000000E+00 0.  1.
        -11    1    5    5    0    0 -0.61042442500E+02  0.13810582096E+03 -0.65177180660E+02  0.16446112747E+03  0.00000000000E+00 0. -1.
          1    1    6    6  503    0 -0.36848345800E+03  0.12997219650E+02  0.27610663110E+03  0.46063419139E+03  0.00000000000E+00 0. -1.
         -1    1    6    6    0  503 -0.11721998514E+03  0.61505089877E+01  0.29874119416E+02  0.12112314678E+03  0.00000000000E+00 0.  1.
<mgrwt>
<rscale>  0 0.85300579E+03</rscale>
<asrwt>0</asrwt>
<pdfrwt beam="1">  1        2 0.17812055E+00 0.85300579E+03</pdfrwt>
<pdfrwt beam="2">  1       -2 0.11142140E+00 0.85300579E+03</pdfrwt>
<totfact> 0.12883551E+01</totfact>
</mgrwt>
</event>
<event>
12    1  0.1432447E-007  0.6304698E+03  0.7818608E-02  0.9844133E-01
          2   -1    0    0  501    0  0.00000000000E+00  0.00000000000E+00  0.20649563977E+04  0.20649563977E+04  0.00000000000E+00 0. -1.
         -2   -1    0    0    0  501 -0.00000000000E+00 -0.00000000000E+00 -0.29526202521E+03  0.29526202521E+03  0.00000000000E+00 0.  1.
         23    2    1    2    0    0 -0.43723989184E+03  0.44292512114E+03  0.10975175819E+04  0.12650997449E+04  0.92580430913E+02 0.  0.
    5000000    2    1    2    0    0  0.43723989184E+03 -0.44292512114E+03  0.67217679061E+03  0.10951186780E+04  0.60008490653E+03 0.  0.
         23    2    4    4    0    0  0.16433503569E+03 -0.25064575816E+03 -0.27757157158E+02  0.31460285911E+03  0.91516114127E+02 0.  0.
         23    2    4    4    0    0  0.27290485614E+03 -0.19227936298E+03  0.69993394777E+03  0.78051581886E+03  0.88594572728E+02 0.  0.
          4    1    3    3  502    0 -0.20711584699E+03  0.17483287057E+03  0.39964037977E+03  0.48288294632E+03  0.00000000000E+00 0. -1.
         -4    1    3    3    0  502 -0.23012404485E+03  0.26809225057E+03  0.69787720209E+03  0.78221679861E+03  0.00000000000E+00 0.  1.
         13    1    5    5    0    0  0.11096565816E+03 -0.18535252762E+03 -0.60179047687E+02  0.22425533342E+03  0.00000000000E+00 0. -1.
        -13    1    5    5    0    0  0.53369377532E+02 -0.65293230542E+02  0.32421890529E+02  0.90347525690E+02  0.00000000000E+00 0.  1.
          3    1    6    6  503    0  0.84776558998E+02 -0.37901351351E+02  0.28192706963E+03  0.29682730666E+03  0.00000000000E+00 0. -1.
         -3    1    6    6    0  503  0.18812829715E+03 -0.15437801163E+03  0.41800687814E+03  0.48368851220E+03  0.00000000000E+00 0.  1.
<mgrwt>
<rscale>  0 0.63046977E+03</rscale>
<asrwt>0</asrwt>
<pdfrwt beam="1">  1        2 0.31768559E+00 0.63046977E+03</pdfrwt>
<pdfrwt beam="2">  1       -2 0.45424928E-01 0.63046977E+03</pdfrwt>
<totfact> 0.29720598E+01</totfact>
</mgrwt>
</event>
<event>
12    1  0.1432447E-007  0.6839285E+03  0.7818608E-02  0.9745118E-01
          2   -1    0    0  501    0  0.00000000000E+00  0.00000000000E+00  0.17984981080E+04  0.17984981080E+04  0.00000000000E+00 0. -1.
         -2   -1    0    0    0  501 -0.00000000000E+00 -0.00000000000E+00 -0.27882949236E+03  0.27882949236E+03  0.00000000000E+00 0.  1.
         23    2    1    2    0    0 -0.31612801787E+03 -0.47131600629E+03  0.47793252044E+03  0.74795498590E+03  0.94559321950E+02 0.  0.
    5000000    2    1    2    0    0  0.31612801787E+03  0.47131600629E+03  0.10417360952E+04  0.13293726145E+04  0.59995146017E+03 0.  0.
         23    2    4    4    0    0  0.47745832038E+03  0.36848735295E+03  0.71037365969E+03  0.93634223868E+03  0.91414848761E+02 0.  0.
         23    2    4    4    0    0 -0.16133030251E+03  0.10282865334E+03  0.33136243552E+03  0.39303037578E+03  0.89836596988E+02 0.  0.
          3    1    3    3  502    0 -0.10786814003E+03 -0.12406872108E+03  0.18916145758E+03  0.25062051037E+03  0.00000000000E+00 0. -1.
         -3    1    3    3    0  502 -0.20825987784E+03 -0.34724728521E+03  0.28877106285E+03  0.49733447552E+03  0.00000000000E+00 0.  1.
         13    1    5    5    0    0  0.46897615561E+02  0.37121719692E+02  0.34075016058E+02  0.68836873386E+02  0.00000000000E+00 0. -1.
        -13    1    5    5    0    0  0.43056070482E+03  0.33136563325E+03  0.67629864363E+03  0.86750536529E+03  0.00000000000E+00 0.  1.
          3    1    6    6  503    0 -0.64953265038E+01 -0.37034232461E+01 -0.40852204504E+01  0.85201899192E+01  0.00000000000E+00 0. -1.
         -3    1    6    6    0  503 -0.15483497601E+03  0.10653207659E+03  0.33544765597E+03  0.38451018586E+03  0.00000000000E+00 0.  1.
<mgrwt>
<rscale>  0 0.68392849E+03</rscale>
<asrwt>0</asrwt>
<pdfrwt beam="1">  1        2 0.27669201E+00 0.68392849E+03</pdfrwt>
<pdfrwt beam="2">  1       -2 0.42896846E-01 0.68392849E+03</pdfrwt>
<totfact> 0.46105794E+01</totfact>
</mgrwt>
</event>
<event>
12    1  0.1432447E-007  0.1407276E+04  0.7818608E-02  0.8948569E-01
         -2   -1    0    0    0  501 -0.00000000000E+00  0.00000000000E+00  0.20037569241E+04  0.20037569241E+04  0.00000000000E+00 0.  1.
          2   -1    0    0  501    0  0.00000000000E+00 -0.00000000000E+00 -0.14975264086E+04  0.14975264086E+04  0.00000000000E+00 0. -1.
         23    2    1    2    0    0  0.58738566432E+03  0.12712560692E+04  0.11818336399E+04  0.18348505499E+04  0.93978059508E+02 0.  0.
    5000000    2    1    2    0    0 -0.58738566432E+03 -0.12712560692E+04 -0.67560312445E+03  0.16664327828E+04  0.59953709272E+03 0.  0.
         23    2    4    4    0    0 -0.28197735923E+03 -0.78583435234E+03 -0.96050173499E+02  0.84507990798E+03  0.88811905815E+02 0.  0.
         23    2    4    4    0    0 -0.30540830509E+03 -0.48542171690E+03 -0.57955295095E+03  0.82135287480E+03  0.99148605295E+02 0.  0.
          4    1    3    3  502    0  0.30664561196E+03  0.55527644049E+03  0.54856937454E+03  0.83862495514E+03  0.00000000000E+00 0.  1.
         -4    1    3    3    0  502  0.28074005236E+03  0.71597962875E+03  0.63326426541E+03  0.99622559475E+03  0.00000000000E+00 0. -1.
         13    1    5    5    0    0 -0.17302435619E+03 -0.43886056042E+03 -0.12371645019E+02  0.47189943518E+03  0.00000000000E+00 0.  1.
        -13    1    5    5    0    0 -0.10895300304E+03 -0.34697379192E+03 -0.83678528480E+02  0.37318047280E+03  0.00000000000E+00 0. -1.
          2    1    6    6  503    0 -0.17538131030E+03 -0.32461933863E+03 -0.31200299465E+03  0.48319994586E+03  0.00000000000E+00 0. -1.
         -2    1    6    6    0  503 -0.13002699479E+03 -0.16080237828E+03 -0.26754995630E+03  0.33815292894E+03  0.00000000000E+00 0.  1.
<mgrwt>
<rscale>  0 0.14072755E+04</rscale>
<asrwt>0</asrwt>
<pdfrwt beam="1">  1        2 0.23038868E+00 0.14072755E+04</pdfrwt>
<pdfrwt beam="2">  1       -2 0.30827030E+00 0.14072755E+04</pdfrwt>
<totfact> 0.34250971E-01</totfact>
</mgrwt>
</event>
<event>
12    1  0.1432447E-007  0.1160955E+04  0.7818608E-02  0.9147737E-01
         -2   -1    0    0    0  501 -0.00000000000E+00  0.00000000000E+00  0.46230808139E+03  0.46230808139E+03  0.00000000000E+00 0.  1.
          2   -1    0    0  501    0  0.00000000000E+00 -0.00000000000E+00 -0.33453886064E+04  0.33453886064E+04  0.00000000000E+00 0. -1.
         23    2    1    2    0    0  0.10454683347E+04 -0.28242988447E+03 -0.20339807300E+04  0.23061106385E+04  0.91093294120E+02 0.  0.
    5000000    2    1    2    0    0 -0.10454683347E+04  0.28242988447E+03 -0.84909979499E+03  0.15015860493E+04  0.60084900206E+03 0.  0.
         23    2    4    4    0    0 -0.39533906097E+03  0.40084878450E+03 -0.43415869978E+03  0.71704764234E+03  0.93224587016E+02 0.  0.
         23    2    4    4    0    0 -0.65012927370E+03 -0.11841890002E+03 -0.41494109521E+03  0.78453840700E+03  0.81445019261E+02 0.  0.
          2    1    3    3  502    0  0.10305848738E+03 -0.56973451333E+02 -0.21758398326E+03  0.24740617565E+03  0.00000000000E+00 0. -1.
         -2    1    3    3    0  502  0.94240984729E+03 -0.22545643314E+03 -0.18163967468E+04  0.20587044628E+04  0.00000000000E+00 0.  1.
         13    1    5    5    0    0 -0.36655078072E+03  0.33059551445E+03 -0.36025427888E+03  0.61109411261E+03  0.00000000000E+00 0.  1.
        -13    1    5    5    0    0 -0.28788280252E+02  0.70253270043E+02 -0.73904420906E+02  0.10595352972E+03  0.00000000000E+00 0. -1.
          1    1    6    6  503    0 -0.48333332681E+03 -0.52165693794E+02 -0.31181063987E+03  0.57754501084E+03  0.00000000000E+00 0.  1.
         -1    1    6    6    0  503 -0.16679594689E+03 -0.66253206228E+02 -0.10313045534E+03  0.20699339616E+03  0.00000000000E+00 0. -1.
<mgrwt>
<rscale>  0 0.11609546E+04</rscale>
<asrwt>0</asrwt>
<pdfrwt beam="1">  1        2 0.51467519E+00 0.11609546E+04</pdfrwt>
<pdfrwt beam="2">  1       -2 0.71124318E-01 0.11609546E+04</pdfrwt>
<totfact> 0.18767616E+00</totfact>
</mgrwt>
</event>
<event>
12    1  0.1432447E-007  0.5118800E+03  0.7818608E-02  0.1010724E+00
         -2   -1    0    0    0  501 -0.00000000000E+00  0.00000000000E+00  0.17676458451E+03  0.17676458451E+03  0.00000000000E+00 0.  1.
          2   -1    0    0  501    0  0.00000000000E+00 -0.00000000000E+00 -0.15322109245E+04  0.15322109245E+04  0.00000000000E+00 0. -1.
         23    2    1    2    0    0  0.25606439187E+03 -0.21840088092E+03 -0.53294078834E+03  0.63669502316E+03  0.89926364635E+02 0.  0.
    5000000    2    1    2    0    0 -0.25606439187E+03  0.21840088092E+03 -0.82250555167E+03  0.10722804859E+04  0.60000178356E+03 0.  0.
         23    2    4    4    0    0  0.50400226505E+02  0.32517472172E+03 -0.32146647514E+03  0.46893967209E+03  0.91021640011E+02 0.  0.
         23    2    4    4    0    0 -0.30646461838E+03 -0.10677384079E+03 -0.50103907653E+03  0.60334081377E+03  0.87514375703E+02 0.  0.
          3    1    3    3  502    0  0.10160075731E+03 -0.14529198300E+03 -0.26123726480E+03  0.31571725124E+03  0.00000000000E+00 0. -1.
         -3    1    3    3    0  502  0.15446363457E+03 -0.73108897928E+02 -0.27170352355E+03  0.32097777192E+03  0.00000000000E+00 0.  1.
         11    1    5    5    0    0  0.73647968998E+02  0.26912861215E+03 -0.28105206629E+03  0.39603597966E+03  0.00000000000E+00 0.  1.
        -11    1    5    5    0    0 -0.23247742493E+02  0.56046109566E+02 -0.40414408843E+02  0.72903692435E+02  0.00000000000E+00 0. -1.
          4    1    6    6  503    0 -0.22714377769E+03 -0.36806218132E+02 -0.33234368188E+03  0.40422928682E+03  0.00000000000E+00 0. -1.
         -4    1    6    6    0  503 -0.79320840689E+02 -0.69967622663E+02 -0.16869539465E+03  0.19911152695E+03  0.00000000000E+00 0.  1.
<mgrwt>
<rscale>  0 0.51188003E+03</rscale>
<asrwt>0</asrwt>
<pdfrwt beam="1">  1        2 0.23572476E+00 0.51188003E+03</pdfrwt>
<pdfrwt beam="2">  1       -2 0.27194551E-01 0.51188003E+03</pdfrwt>
<totfact> 0.15574855E+02</totfact>
</mgrwt>
</event>
<event>
12    1  0.1432447E-007  0.8355090E+03  0.7818608E-02  0.9509995E-01
          2   -1    0    0  501    0  0.00000000000E+00  0.00000000000E+00  0.13892925576E+04  0.13892925576E+04  0.00000000000E+00 0.  1.
         -2   -1    0    0    0  501 -0.00000000000E+00 -0.00000000000E+00 -0.61605521997E+03  0.61605521997E+03  0.00000000000E+00 0. -1.
         23    2    1    2    0    0  0.37760429469E+03  0.73029908363E+03  0.27122082492E+03  0.87048329439E+03  0.90877252507E+02 0.  0.
    5000000    2    1    2    0    0 -0.37760429469E+03 -0.73029908363E+03  0.50201651272E+03  0.11348644832E+04  0.59997921733E+03 0.  0.
         23    2    4    4    0    0 -0.31292520486E+03 -0.56508333778E+03  0.62142809589E+03  0.90099264413E+03  0.91506851912E+02 0.  0.
         23    2    4    4    0    0 -0.64679089820E+02 -0.16521574586E+03 -0.11941158317E+03  0.23387183905E+03  0.94642926660E+02 0.  0.
          1    1    3    3  502    0  0.33285316488E+03  0.63714496783E+03  0.26769944080E+03  0.76707752542E+03  0.00000000000E+00 0. -1.
         -1    1    3    3    0  502  0.44751129801E+02  0.93154115806E+02  0.35213841177E+01  0.10340576897E+03  0.00000000000E+00 0.  1.
         13    1    5    5    0    0 -0.23800614537E+03 -0.37977921923E+03  0.47605946847E+03  0.65384386371E+03  0.00000000000E+00 0.  1.
        -13    1    5    5    0    0 -0.74919059497E+02 -0.18530411854E+03  0.14536862742E+03  0.24714878042E+03  0.00000000000E+00 0. -1.
          1    1    6    6  503    0  0.22400936367E+02 -0.60763979005E+02 -0.44934263884E+02  0.78823544487E+02  0.00000000000E+00 0. -1.
         -1    1    6    6    0  503 -0.87080026187E+02 -0.10445176685E+03 -0.74477319287E+02  0.15504829457E+03  0.00000000000E+00 0.  1.
<mgrwt>
<rscale>  0 0.83550905E+03</rscale>
<asrwt>0</asrwt>
<pdfrwt beam="1">  1        2 0.21373732E+00 0.83550905E+03</pdfrwt>
<pdfrwt beam="2">  1       -2 0.94777726E-01 0.83550905E+03</pdfrwt>
<totfact> 0.13920249E+01</totfact>
</mgrwt>
</event>
<event>
12    1  0.1432447E-007  0.3534877E+03  0.7818608E-02  0.1061193E+00
          2   -1    0    0  501    0  0.00000000000E+00  0.00000000000E+00  0.20945657466E+04  0.20945657466E+04  0.00000000000E+00 0. -1.
         -2   -1    0    0    0  501 -0.00000000000E+00 -0.00000000000E+00 -0.87502354549E+02  0.87502354549E+02  0.00000000000E+00 0.  1.
         23    2    1    2    0    0  0.97348714664E+02 -0.17638368892E+03  0.59710799662E+03  0.63693639960E+03  0.92531289553E+02 0.  0.
    5000000    2    1    2    0    0 -0.97348714664E+02  0.17638368892E+03  0.14099553954E+04  0.15451317016E+04  0.59905740965E+03 0.  0.
         23    2    4    4    0    0 -0.13954515827E+03  0.29723339690E+03  0.13167908719E+04  0.13602137460E+04  0.91775220363E+02 0.  0.
         23    2    4    4    0    0  0.42196443608E+02 -0.12084970798E+03  0.93164523578E+02  0.18491795559E+03  0.95550144289E+02 0.  0.
          3    1    3    3  502    0  0.11874460673E+02 -0.80452662901E+02  0.33897864141E+03  0.34859740836E+03  0.00000000000E+00 0. -1.
         -3    1    3    3    0  502  0.85474253992E+02 -0.95931026018E+02  0.25812935521E+03  0.28833899124E+03  0.00000000000E+00 0.  1.
         11    1    5    5    0    0 -0.36338388278E+02  0.17366660994E+03  0.60746565206E+03  0.63284681267E+03  0.00000000000E+00 0.  1.
        -11    1    5    5    0    0 -0.10320676999E+03  0.12356678696E+03  0.70932521980E+03  0.72736693330E+03  0.00000000000E+00 0. -1.
          2    1    6    6  503    0 -0.29864466634E+02 -0.25827679684E+02  0.32389475401E+02  0.51068909543E+02  0.00000000000E+00 0. -1.
         -2    1    6    6    0  503  0.72060910242E+02 -0.95022028295E+02  0.60775048177E+02  0.13384904605E+03  0.00000000000E+00 0.  1.
<mgrwt>
<rscale>  0 0.35348765E+03</rscale>
<asrwt>0</asrwt>
<pdfrwt beam="1">  1        2 0.32224085E+00 0.35348765E+03</pdfrwt>
<pdfrwt beam="2">  1       -2 0.13461902E-01 0.35348765E+03</pdfrwt>
<totfact> 0.26775536E+02</totfact>
</mgrwt>
</event>
<event>
12    1  0.1432447E-007  0.8582937E+03  0.7818608E-02  0.9479273E-01
          2   -1    0    0  501    0  0.00000000000E+00  0.00000000000E+00  0.88572273505E+03  0.88572273505E+03  0.00000000000E+00 0. -1.
         -2   -1    0    0    0  501 -0.00000000000E+00 -0.00000000000E+00 -0.89620097298E+03  0.89620097298E+03  0.00000000000E+00 0.  1.
         23    2    1    2    0    0  0.24383883864E+03  0.74810944613E+03  0.45420787426E+01  0.79216525294E+03  0.91542530390E+02 0.  0.
    5000000    2    1    2    0    0 -0.24383883864E+03 -0.74810944613E+03 -0.15020316677E+02  0.98975845509E+03  0.60022584657E+03 0.  0.
         23    2    4    4    0    0 -0.30114725423E+03 -0.19067289794E+03  0.14992491082E+03  0.39825389298E+03  0.95304048435E+02 0.  0.
         23    2    4    4    0    0  0.57308415586E+02 -0.55743654819E+03 -0.16494522750E+03  0.59150456211E+03  0.93010532599E+02 0.  0.
          2    1    3    3  502    0  0.98027472015E+02  0.41681226301E+03  0.30508788355E+02  0.42926988484E+03  0.00000000000E+00 0. -1.
         -2    1    3    3    0  502  0.14581136662E+03  0.33129718312E+03 -0.25966709613E+02  0.36289536810E+03  0.00000000000E+00 0.  1.
         13    1    5    5    0    0 -0.18208579356E+03 -0.73915596938E+02  0.46215068954E+02  0.20187764682E+03  0.00000000000E+00 0. -1.
        -13    1    5    5    0    0 -0.11906146066E+03 -0.11675730100E+03  0.10370984187E+03  0.19637624615E+03  0.00000000000E+00 0.  1.
          1    1    6    6  503    0  0.28972406555E+02 -0.83537932780E+02 -0.55214687615E+02  0.10424321696E+03  0.00000000000E+00 0. -1.
         -1    1    6    6    0  503  0.28336009031E+02 -0.47389861541E+03 -0.10973053989E+03  0.48726134515E+03  0.00000000000E+00 0.  1.
<mgrwt>
<rscale>  0 0.85829373E+03</rscale>
<asrwt>0</asrwt>
<pdfrwt beam="1">  1        2 0.13626504E+00 0.85829373E+03</pdfrwt>
<pdfrwt beam="2">  1       -2 0.13787707E+00 0.85829373E+03</pdfrwt>
<totfact> 0.11258691E+01</totfact>
</mgrwt>
</event>
<event>
12    1  0.1432447E-007  0.6054362E+03  0.7818608E-02  0.9894192E-01
         -2   -1    0    0    0  501 -0.00000000000E+00  0.00000000000E+00  0.95634571502E+03  0.95634571502E+03  0.00000000000E+00 0.  1.
          2   -1    0    0  501    0  0.00000000000E+00 -0.00000000000E+00 -0.11757299506E+04  0.11757299506E+04  0.00000000000E+00 0. -1.
         23    2    1    2    0    0 -0.18288870906E+03  0.41737373198E+03  0.76336978409E+03  0.89361510327E+03  0.90362677505E+02 0.  0.
    5000000    2    1    2    0    0  0.18288870906E+03 -0.41737373198E+03 -0.98275401964E+03  0.12384605623E+04  0.60027492806E+03 0.  0.
         23    2    4    4    0    0 -0.11501338366E+03 -0.41309478686E+03 -0.64125104805E+03  0.77747440260E+03  0.96892511192E+02 0.  0.
         23    2    4    4    0    0  0.29790209272E+03 -0.42789451221E+01 -0.34150297159E+03  0.46098615972E+03  0.84380054688E+02 0.  0.
          2    1    3    3  502    0 -0.25779793453E+02  0.16604977152E+03  0.28639930198E+03  0.33205674899E+03  0.00000000000E+00 0.  1.
         -2    1    3    3    0  502 -0.15710891561E+03  0.25132396046E+03  0.47697048211E+03  0.56155835428E+03  0.00000000000E+00 0. -1.
         11    1    5    5    0    0 -0.97678410509E+02 -0.19582489721E+03 -0.36524108809E+03  0.42578106425E+03  0.00000000000E+00 0.  1.
        -11    1    5    5    0    0 -0.17334973153E+02 -0.21726988965E+03 -0.27600995996E+03  0.35169333835E+03  0.00000000000E+00 0. -1.
          4    1    6    6  503    0  0.15782249369E+03  0.39862507304E+02 -0.17857975304E+03  0.24163544276E+03  0.00000000000E+00 0.  1.
         -4    1    6    6    0  503  0.14007959903E+03 -0.44141452426E+02 -0.16292321855E+03  0.21935071696E+03  0.00000000000E+00 0. -1.
<mgrwt>
<rscale>  0 0.60543616E+03</rscale>
<asrwt>0</asrwt>
<pdfrwt beam="1">  1        2 0.18088153E+00 0.60543616E+03</pdfrwt>
<pdfrwt beam="2">  1       -2 0.14713011E+00 0.60543616E+03</pdfrwt>
<totfact> 0.64440660E+00</totfact>
</mgrwt>
</event>
<event>
12    1  0.1432447E-007  0.1269184E+04  0.7818608E-02  0.9054366E-01
          2   -1    0    0  501    0  0.00000000000E+00  0.00000000000E+00  0.11218365650E+04  0.11218365650E+04  0.00000000000E+00 0. -1.
         -2   -1    0    0    0  501 -0.00000000000E+00 -0.00000000000E+00 -0.17008143827E+04  0.17008143827E+04  0.00000000000E+00 0.  1.
         23    2    1    2    0    0 -0.39529065531E+03  0.11859699721E+04 -0.68948922247E+03  0.14315939539E+04  0.10623739509E+03 0.  0.
    5000000    2    1    2    0    0  0.39529065531E+03 -0.11859699721E+04  0.11051140480E+03  0.13910569938E+04  0.60003942591E+03 0.  0.
         23    2    4    4    0    0  0.40374445909E+03 -0.78761928981E+03  0.30257983364E+03  0.93956969235E+03  0.88785793518E+02 0.  0.
         23    2    4    4    0    0 -0.84538037793E+01 -0.39835068229E+03 -0.19206842884E+03  0.45148730150E+03  0.90530487560E+02 0.  0.
          3    1    3    3  502    0 -0.24172741312E+03  0.61963971495E+03 -0.41320966407E+03  0.78302474104E+03  0.00000000000E+00 0. -1.
         -3    1    3    3    0  502 -0.15356324219E+03  0.56633025715E+03 -0.27627955840E+03  0.64856921289E+03  0.00000000000E+00 0.  1.
         11    1    5    5    0    0  0.13095023620E+03 -0.25489422280E+03  0.14241106133E+03  0.31999990558E+03  0.00000000000E+00 0. -1.
        -11    1    5    5    0    0  0.27279422289E+03 -0.53272506700E+03  0.16016877231E+03  0.61956978677E+03  0.00000000000E+00 0.  1.
          4    1    6    6  503    0  0.14330608850E+02 -0.30376616569E+03 -0.10739379865E+03  0.32250996536E+03  0.00000000000E+00 0.  1.
         -4    1    6    6    0  503 -0.22784412629E+02 -0.94584516601E+02 -0.84674630193E+02  0.12897733614E+03  0.00000000000E+00 0. -1.
<mgrwt>
<rscale>  0 0.12691842E+04</rscale>
<asrwt>0</asrwt>
<pdfrwt beam="1">  1        2 0.17259024E+00 0.12691842E+04</pdfrwt>
<pdfrwt beam="2">  1       -2 0.26166375E+00 0.12691842E+04</pdfrwt>
<totfact> 0.11127118E+00</totfact>
</mgrwt>
</event>
<event>
12    1  0.1432447E-007  0.4772391E+03  0.7818608E-02  0.1019897E+00
         -1   -1    0    0    0  501 -0.00000000000E+00  0.00000000000E+00  0.21426540504E+03  0.21426540504E+03  0.00000000000E+00 0.  1.
          1   -1    0    0  501    0  0.00000000000E+00 -0.00000000000E+00 -0.16969626567E+04  0.16969626567E+04  0.00000000000E+00 0. -1.
         23    2    1    2    0    0 -0.36515698483E+01  0.43524650687E+03 -0.39383862744E+03  0.59401876129E+03  0.91085501605E+02 0.  0.
    5000000    2    1    2    0    0  0.36515698483E+01 -0.43524650687E+03 -0.10888586242E+04  0.13172093005E+04  0.59997865126E+03 0.  0.
         23    2    4    4    0    0 -0.80192818304E+01  0.25801664120E+02 -0.70177935878E+03  0.70849559610E+03  0.93497093736E+02 0.  0.
         23    2    4    4    0    0  0.11670851679E+02 -0.46104817099E+03 -0.38707926547E+03  0.60871370437E+03  0.89444907015E+02 0.  0.
          1    1    3    3  502    0  0.41837124209E+02  0.22018604905E+03 -0.21602077715E+03  0.31128317867E+03  0.00000000000E+00 0. -1.
         -1    1    3    3    0  502 -0.45488694058E+02  0.21506045781E+03 -0.17781785029E+03  0.28273558262E+03  0.00000000000E+00 0.  1.
         13    1    5    5    0    0  0.94902148861E+01  0.29421160236E+02 -0.70702291087E+02  0.77165295394E+02  0.00000000000E+00 0.  1.
        -13    1    5    5    0    0 -0.17509496716E+02 -0.36194961164E+01 -0.63107706769E+03  0.63133030071E+03  0.00000000000E+00 0. -1.
          1    1    6    6  503    0  0.21717426021E+01 -0.39565050503E+03 -0.36696527179E+03  0.53963649737E+03  0.00000000000E+00 0. -1.
         -1    1    6    6    0  503  0.94991090765E+01 -0.65397665954E+02 -0.20113993678E+02  0.69077207002E+02  0.00000000000E+00 0.  1.
<mgrwt>
<rscale>  0 0.47723905E+03</rscale>
<asrwt>0</asrwt>
<pdfrwt beam="1">  1        1 0.26107117E+00 0.47723905E+03</pdfrwt>
<pdfrwt beam="2">  1       -1 0.32963910E-01 0.47723905E+03</pdfrwt>
<totfact> 0.44382435E+01</totfact>
</mgrwt>
</event>
<event>
12    1  0.1432447E-007  0.6573093E+03  0.7818608E-02  0.9793160E-01
         -2   -1    0    0    0  501 -0.00000000000E+00  0.00000000000E+00  0.13004063847E+03  0.13004063847E+03  0.00000000000E+00 0. -1.
          2   -1    0    0  501    0  0.00000000000E+00 -0.00000000000E+00 -0.49857405812E+04  0.49857405812E+04  0.00000000000E+00 0.  1.
         23    2    1    2    0    0  0.19477080865E+03  0.50056596408E+03 -0.72555162010E+03  0.90785924622E+03  0.96339530873E+02 0.  0.
    5000000    2    1    2    0    0 -0.19477080865E+03 -0.50056596408E+03 -0.41301483226E+04  0.42079219735E+04  0.59998351271E+03 0.  0.
         23    2    4    4    0    0 -0.38426021999E+03 -0.32362126662E+03 -0.30915383083E+04  0.31335258775E+04  0.94808611140E+02 0.  0.
         23    2    4    4    0    0  0.18948941134E+03 -0.17694469746E+03 -0.10386100143E+04  0.10743960959E+04  0.91654492884E+02 0.  0.
          1    1    3    3  502    0  0.72799021961E+02  0.31402978127E+03 -0.41046335518E+03  0.52191432924E+03  0.00000000000E+00 0. -1.
         -1    1    3    3    0  502  0.12197178669E+03  0.18653618281E+03 -0.31508826493E+03  0.38594491698E+03  0.00000000000E+00 0.  1.
         13    1    5    5    0    0 -0.35362255398E+03 -0.31449775280E+03 -0.27429525005E+04  0.27834773517E+04  0.00000000000E+00 0. -1.
        -13    1    5    5    0    0 -0.30637666009E+02 -0.91235138250E+01 -0.34858580777E+03  0.35004852587E+03  0.00000000000E+00 0.  1.
          4    1    6    6  503    0  0.71126508841E+02 -0.10105232743E+03 -0.33957941060E+03  0.36136509135E+03  0.00000000000E+00 0. -1.
         -4    1    6    6    0  503  0.11836290250E+03 -0.75892370030E+02 -0.69903060374E+03  0.71303100458E+03  0.00000000000E+00 0.  1.
<mgrwt>
<rscale>  0 0.65730927E+03</rscale>
<asrwt>0</asrwt>
<pdfrwt beam="1">  1        2 0.76703694E+00 0.65730927E+03</pdfrwt>
<pdfrwt beam="2">  1       -2 0.20006254E-01 0.65730927E+03</pdfrwt>
<totfact> 0.91926177E-01</totfact>
</mgrwt>
</event>
<event>
12    1  0.1432447E-007  0.2684293E+03  0.7818608E-02  0.1102182E+00
         -3   -1    0    0    0  501 -0.00000000000E+00  0.00000000000E+00  0.48541112798E+03  0.48541112798E+03  0.00000000000E+00 0.  1.
          3   -1    0    0  501    0  0.00000000000E+00 -0.00000000000E+00 -0.57425653743E+03  0.57425653743E+03  0.00000000000E+00 0. -1.
         23    2    1    2    0    0 -0.15939464211E+03  0.17201172003E+03 -0.29037741563E+03  0.38453161665E+03  0.92470735531E+02 0.  0.
    5000000    2    1    2    0    0  0.15939464211E+03 -0.17201172003E+03  0.20153200618E+03  0.67513604876E+03  0.60016568633E+03 0.  0.
         23    2    4    4    0    0  0.45504531269E+02 -0.38594556214E+02 -0.19975453166E+03  0.22736388520E+03  0.90731809426E+02 0.  0.
         23    2    4    4    0    0  0.11389011085E+03 -0.13341716382E+03  0.40128653784E+03  0.44777216355E+03  0.93262683064E+02 0.  0.
          2    1    3    3  502    0 -0.72250580885E+02  0.14265565083E+03 -0.19198978537E+03  0.24986167941E+03  0.00000000000E+00 0. -1.
         -2    1    3    3    0  502 -0.87144061229E+02  0.29356069199E+02 -0.98387630265E+02  0.13466993724E+03  0.00000000000E+00 0.  1.
         13    1    5    5    0    0  0.13092629939E+02  0.28194481556E+02 -0.86786549242E+02  0.92185958140E+02  0.00000000000E+00 0.  1.
        -13    1    5    5    0    0  0.32411901330E+02 -0.66789037770E+02 -0.11296798241E+03  0.13517792706E+03  0.00000000000E+00 0. -1.
          1    1    6    6  503    0  0.57159460560E+01 -0.28169971539E+02  0.13709582475E+02  0.31846067065E+02  0.00000000000E+00 0. -1.
         -1    1    6    6    0  503  0.10817416479E+03 -0.10524719228E+03  0.38757695537E+03  0.41592609649E+03  0.00000000000E+00 0.  1.
<mgrwt>
<rscale>  0 0.26842932E+03</rscale>
<asrwt>0</asrwt>
<pdfrwt beam="1">  1        3 0.88347159E-01 0.26842932E+03</pdfrwt>
<pdfrwt beam="2">  1       -3 0.74678636E-01 0.26842932E+03</pdfrwt>
<totfact> 0.51099492E+00</totfact>
</mgrwt>
</event>
<event>
12    1  0.1432447E-007  0.1000640E+04  0.7818608E-02  0.9307844E-01
         -2   -1    0    0    0  501 -0.00000000000E+00  0.00000000000E+00  0.30135080229E+03  0.30135080229E+03  0.00000000000E+00 0.  1.
          2   -1    0    0  501    0  0.00000000000E+00 -0.00000000000E+00 -0.37196896563E+04  0.37196896563E+04  0.00000000000E+00 0. -1.
         23    2    1    2    0    0 -0.65461019186E+03 -0.65463369777E+03 -0.10165066475E+04  0.13780225054E+04  0.92738770521E+02 0.  0.
    5000000    2    1    2    0    0  0.65461019186E+03  0.65463369777E+03 -0.24018322065E+04  0.26430179532E+04  0.59973841876E+03 0.  0.
         23    2    4    4    0    0  0.66416975908E+03  0.71842447738E+03 -0.20317886849E+04  0.22568718890E+04  0.89723268013E+02 0.  0.
         23    2    4    4    0    0 -0.95595672152E+01 -0.63790779614E+02 -0.37004352166E+03  0.38614606418E+03  0.89531704247E+02 0.  0.
          1    1    3    3  502    0 -0.25247911223E+03 -0.22809505313E+03 -0.31335814004E+03  0.46256500009E+03  0.00000000000E+00 0. -1.
         -1    1    3    3    0  502 -0.40213107963E+03 -0.42653864464E+03 -0.70314850745E+03  0.91545750535E+03  0.00000000000E+00 0.  1.
         11    1    5    5    0    0  0.44129899532E+03  0.51821417796E+03 -0.13386130805E+04  0.15017242479E+04  0.00000000000E+00 0. -1.
        -11    1    5    5    0    0  0.22287076376E+03  0.20021029942E+03 -0.69317560442E+03  0.75514764113E+03  0.00000000000E+00 0.  1.
          2    1    6    6  503    0 -0.39402064508E+02 -0.42175854336E+02 -0.11730537665E+03  0.13073590466E+03  0.00000000000E+00 0. -1.
         -2    1    6    6    0  503  0.29842497293E+02 -0.21614925278E+02 -0.25273814501E+03  0.25541015952E+03  0.00000000000E+00 0.  1.
<mgrwt>
<rscale>  0 0.10006396E+04</rscale>
<asrwt>0</asrwt>
<pdfrwt beam="1">  1        2 0.57225994E+00 0.10006396E+04</pdfrwt>
<pdfrwt beam="2">  1       -2 0.46361662E-01 0.10006396E+04</pdfrwt>
<totfact> 0.26000046E+00</totfact>
</mgrwt>
</event>
<event>
12    1  0.1432447E-007  0.1525800E+04  0.7818608E-02  0.8867475E-01
         -2   -1    0    0    0  501 -0.00000000000E+00  0.00000000000E+00  0.11267130052E+04  0.11267130052E+04  0.00000000000E+00 0.  1.
          2   -1    0    0  501    0  0.00000000000E+00 -0.00000000000E+00 -0.22543584032E+04  0.22543584032E+04  0.00000000000E+00 0. -1.
         23    2    1    2    0    0 -0.14515103147E+04  0.44188288482E+03 -0.79639842922E+03  0.17160553228E+04  0.91938756834E+02 0.  0.
    5000000    2    1    2    0    0  0.14515103147E+04 -0.44188288482E+03 -0.33124696876E+03  0.16650160856E+04  0.60034267994E+03 0.  0.
         23    2    4    4    0    0  0.21763118536E+03 -0.13897262058E+03  0.13905114270E+03  0.30717491881E+03  0.91348171030E+02 0.  0.
         23    2    4    4    0    0  0.12338791294E+04 -0.30291026425E+03 -0.47029811146E+03  0.13578411668E+04  0.91323526634E+02 0.  0.
          2    1    3    3  502    0 -0.11794875154E+04  0.37413431428E+03 -0.61164965779E+03  0.13803197412E+04  0.00000000000E+00 0. -1.
         -2    1    3    3    0  502 -0.27202279935E+03  0.67748570542E+02 -0.18474877143E+03  0.33573558156E+03  0.00000000000E+00 0.  1.
         11    1    5    5    0    0  0.11259419267E+03 -0.96869460692E+02  0.33138995855E+02  0.15218192299E+03  0.00000000000E+00 0. -1.
        -11    1    5    5    0    0  0.10503699268E+03 -0.42103159883E+02  0.10591214684E+03  0.15499299582E+03  0.00000000000E+00 0.  1.
          4    1    6    6  503    0  0.11468106747E+04 -0.29835636457E+03 -0.45491804522E+03  0.12693075561E+04  0.00000000000E+00 0. -1.
         -4    1    6    6    0  503  0.87068454635E+02 -0.45538996725E+01 -0.15380066245E+02  0.88533610750E+02  0.00000000000E+00 0.  1.
<mgrwt>
<rscale>  0 0.15258001E+04</rscale>
<asrwt>0</asrwt>
<pdfrwt beam="1">  1        2 0.34682437E+00 0.15258001E+04</pdfrwt>
<pdfrwt beam="2">  1       -2 0.17334046E+00 0.15258001E+04</pdfrwt>
<totfact> 0.91201045E-01</totfact>
</mgrwt>
</event>
<event>
12    1  0.1432447E-007  0.9148806E+03  0.7818608E-02  0.9407169E-01
          2   -1    0    0  501    0  0.00000000000E+00  0.00000000000E+00  0.20033607820E+04  0.20033607820E+04  0.00000000000E+00 0. -1.
         -2   -1    0    0    0  501 -0.00000000000E+00 -0.00000000000E+00 -0.49256312693E+03  0.49256312693E+03  0.00000000000E+00 0.  1.
         23    2    1    2    0    0 -0.83989749653E+02  0.89643342055E+03  0.68753993752E+03  0.11364304180E+04  0.90087589476E+02 0.  0.
    5000000    2    1    2    0    0  0.83989749653E+02 -0.89643342055E+03  0.82325771755E+03  0.13594934909E+04  0.59985175403E+03 0.  0.
         23    2    4    4    0    0  0.41342917570E+00 -0.69170758100E+03  0.87048898997E+03  0.11155512606E+04  0.90796391911E+02 0.  0.
         23    2    4    4    0    0  0.83576320477E+02 -0.20472583954E+03 -0.47231272422E+02  0.24394223033E+03  0.91538778255E+02 0.  0.
          1    1    3    3  502    0  0.70838262227E+01  0.35761543070E+03  0.29410147590E+03  0.46307089629E+03  0.00000000000E+00 0. -1.
         -1    1    3    3    0  502 -0.91073575876E+02  0.53881798985E+03  0.39343846163E+03  0.67335952172E+03  0.00000000000E+00 0.  1.
         13    1    5    5    0    0 -0.41966742537E+02 -0.21660609406E+03  0.27145055922E+03  0.34980682320E+03  0.00000000000E+00 0.  1.
        -13    1    5    5    0    0  0.42380171712E+02 -0.47510148695E+03  0.59903843076E+03  0.76574443738E+03  0.00000000000E+00 0. -1.
          3    1    6    6  503    0  0.71810745545E+02 -0.10284321708E+03  0.11153737347E+02  0.12592821897E+03  0.00000000000E+00 0. -1.
         -3    1    6    6    0  503  0.11765574932E+02 -0.10188262246E+03 -0.58385009769E+02  0.11801401136E+03  0.00000000000E+00 0.  1.
<mgrwt>
<rscale>  0 0.91488064E+03</rscale>
<asrwt>0</asrwt>
<pdfrwt beam="1">  1        2 0.30820935E+00 0.91488064E+03</pdfrwt>
<pdfrwt beam="2">  1       -2 0.75778944E-01 0.91488064E+03</pdfrwt>
<totfact> 0.10511930E+01</totfact>
</mgrwt>
</event>
<event>
12    1  0.1432447E-007  0.9787350E+03  0.7818608E-02  0.9332180E-01
          2   -1    0    0  501    0  0.00000000000E+00  0.00000000000E+00  0.17497946703E+04  0.17497946703E+04  0.00000000000E+00 0. -1.
         -2   -1    0    0    0  501 -0.00000000000E+00 -0.00000000000E+00 -0.67142976343E+03  0.67142976343E+03  0.00000000000E+00 0.  1.
         23    2    1    2    0    0 -0.31294277716E+03 -0.91678177441E+03  0.22863433013E+03  0.99985440391E+03  0.94937708125E+02 0.  0.
    5000000    2    1    2    0    0  0.31294277716E+03  0.91678177441E+03  0.84973057672E+03  0.14213700298E+04  0.59985723713E+03 0.  0.
         23    2    4    4    0    0  0.38004595285E+02  0.14690206952E+03 -0.63473169871E+02  0.19254505491E+03  0.10010088705E+03 0.  0.
         23    2    4    4    0    0  0.27493818188E+03  0.76987970490E+03  0.91320374659E+03  0.12288249749E+04  0.88113405649E+02 0.  0.
          1    1    3    3  502    0 -0.46487405268E+02 -0.22454199179E+03  0.25021310562E+02  0.23066480206E+03  0.00000000000E+00 0.  1.
         -1    1    3    3    0  502 -0.26645537189E+03 -0.69223978262E+03  0.20361301956E+03  0.76918960185E+03  0.00000000000E+00 0. -1.
         11    1    5    5    0    0  0.56362225354E+02  0.79902912828E+02  0.97345791611E+00  0.97786111211E+02  0.00000000000E+00 0. -1.
        -11    1    5    5    0    0 -0.18357630070E+02  0.66999156689E+02 -0.64446627787E+02  0.94758943704E+02  0.00000000000E+00 0.  1.
          1    1    6    6  503    0  0.12345811975E+03  0.27103489040E+03  0.38398564691E+03  0.48594937614E+03  0.00000000000E+00 0.  1.
         -1    1    6    6    0  503  0.15148006213E+03  0.49884481450E+03  0.52921809968E+03  0.74287559874E+03  0.00000000000E+00 0. -1.
<mgrwt>
<rscale>  0 0.97873503E+03</rscale>
<asrwt>0</asrwt>
<pdfrwt beam="1">  1        2 0.26919918E+00 0.97873503E+03</pdfrwt>
<pdfrwt beam="2">  1       -2 0.10329689E+00 0.97873503E+03</pdfrwt>
<totfact> 0.70322098E+00</totfact>
</mgrwt>
</event>
<event>
12    1  0.1432447E-007  0.1003471E+04  0.7818608E-02  0.9304746E-01
         -2   -1    0    0    0  501 -0.00000000000E+00  0.00000000000E+00  0.47524146919E+03  0.47524146919E+03  0.00000000000E+00 0.  1.
          2   -1    0    0  501    0  0.00000000000E+00 -0.00000000000E+00 -0.24923501656E+04  0.24923501656E+04  0.00000000000E+00 0. -1.
         23    2    1    2    0    0 -0.76495138958E+03 -0.63237378199E+03 -0.11350343454E+04  0.15104885866E+04  0.90694964481E+02 0.  0.
    5000000    2    1    2    0    0  0.76495138958E+03  0.63237378199E+03 -0.88207435104E+03  0.14571030482E+04  0.60003908507E+03 0.  0.
         23    2    4    4    0    0  0.24708034189E+03  0.19440567554E+03  0.16156860041E+02  0.32787118398E+03  0.91630819739E+02 0.  0.
         23    2    4    4    0    0  0.51787104769E+03  0.43796810645E+03 -0.89823121108E+03  0.11292318642E+04  0.91317086082E+02 0.  0.
          4    1    3    3  502    0 -0.43206943388E+03 -0.41435139165E+03 -0.67336308084E+03  0.90099329081E+03  0.00000000000E+00 0. -1.
         -4    1    3    3    0  502 -0.33288195570E+03 -0.21802239034E+03 -0.46167126452E+03  0.60949529580E+03  0.00000000000E+00 0.  1.
         11    1    5    5    0    0  0.22134447765E+03  0.12981599110E+03  0.24837890136E+02  0.25780320037E+03  0.00000000000E+00 0.  1.
        -11    1    5    5    0    0  0.25735864238E+02  0.64589684437E+02 -0.86810300945E+01  0.70067983611E+02  0.00000000000E+00 0. -1.
          4    1    6    6  503    0  0.24520249461E+03  0.26650365480E+03 -0.48566278778E+03  0.60581911890E+03  0.00000000000E+00 0. -1.
         -4    1    6    6    0  503  0.27266855309E+03  0.17146445165E+03 -0.41256842329E+03  0.52341274528E+03  0.00000000000E+00 0.  1.
<mgrwt>
<rscale>  0 0.10034709E+04</rscale>
<asrwt>0</asrwt>
<pdfrwt beam="1">  1        2 0.38343848E+00 0.10034709E+04</pdfrwt>
<pdfrwt beam="2">  1       -2 0.73114073E-01 0.10034709E+04</pdfrwt>
<totfact> 0.60022160E+00</totfact>
</mgrwt>
</event>
<event>
12    1  0.1432447E-007  0.1138180E+04  0.7818608E-02  0.9168758E-01
         -2   -1    0    0    0  501 -0.00000000000E+00  0.00000000000E+00  0.13623034471E+04  0.13623034471E+04  0.00000000000E+00 0.  1.
          2   -1    0    0  501    0  0.00000000000E+00 -0.00000000000E+00 -0.10428704345E+04  0.10428704345E+04  0.00000000000E+00 0. -1.
         23    2    1    2    0    0 -0.10349383548E+04  0.26183414246E+03  0.47285394749E+03  0.11710983868E+04  0.90697626330E+02 0.  0.
    5000000    2    1    2    0    0  0.10349383548E+04 -0.26183414246E+03 -0.15342093483E+03  0.12340754948E+04  0.59979148650E+03 0.  0.
         23    2    4    4    0    0  0.54191274504E+03 -0.41745089609E+03 -0.16499387870E+03  0.70969738696E+03  0.92264441491E+02 0.  0.
         23    2    4    4    0    0  0.49302560977E+03  0.15561675363E+03  0.11572943864E+02  0.52437810787E+03  0.86877160910E+02 0.  0.
          4    1    3    3  502    0 -0.83445015974E+03  0.20002220605E+03  0.34135177083E+03  0.92349173437E+03  0.00000000000E+00 0.  1.
         -4    1    3    3    0  502 -0.20048819507E+03  0.61811936408E+02  0.13150217666E+03  0.24760665240E+03  0.00000000000E+00 0. -1.
         13    1    5    5    0    0  0.15292013785E+03 -0.14004274308E+03 -0.10728955629E+02  0.20763344850E+03  0.00000000000E+00 0. -1.
        -13    1    5    5    0    0  0.38899260720E+03 -0.27740815301E+03 -0.15426492307E+03  0.50206393846E+03  0.00000000000E+00 0.  1.
          2    1    6    6  503    0  0.26765162191E+02 -0.99490717124E+01  0.77192437580E+01  0.29579463471E+02  0.00000000000E+00 0. -1.
         -2    1    6    6    0  503  0.46626044758E+03  0.16556582534E+03  0.38537001057E+01  0.49479864440E+03  0.00000000000E+00 0.  1.
<mgrwt>
<rscale>  0 0.11381799E+04</rscale>
<asrwt>0</asrwt>
<pdfrwt beam="1">  1        2 0.16044160E+00 0.11381799E+04</pdfrwt>
<pdfrwt beam="2">  1       -2 0.20958515E+00 0.11381799E+04</pdfrwt>
<totfact> 0.26656097E+00</totfact>
</mgrwt>
</event>
<event>
12    1  0.1732642E-007  0.1290068E+04  0.7818608E-02  0.9037479E-01
          2   -1    0    0  501    0  0.00000000000E+00  0.00000000000E+00  0.22405318252E+04  0.22405318252E+04  0.00000000000E+00 0. -1.
         -2   -1    0    0    0  501 -0.00000000000E+00 -0.00000000000E+00 -0.76223177718E+03  0.76223177718E+03  0.00000000000E+00 0.  1.
         23    2    1    2    0    0  0.91638651106E+03 -0.81829096498E+03  0.54374378328E+03  0.13465432127E+04  0.90316005759E+02 0.  0.
    5000000    2    1    2    0    0 -0.91638651106E+03  0.81829096498E+03  0.93455626475E+03  0.16562203897E+04  0.60025513418E+03 0.  0.
         23    2    4    4    0    0 -0.22374381699E+03 -0.50075416433E+02  0.22962587310E+03  0.33747100044E+03  0.92681128462E+02 0.  0.
         23    2    4    4    0    0 -0.69264269407E+03  0.86836638142E+03  0.70493039165E+03  0.13187493892E+04  0.91427678817E+02 0.  0.
          3    1    3    3  502    0  0.55376402728E+03 -0.52825217550E+03  0.29902265861E+03  0.82165656402E+03  0.00000000000E+00 0. -1.
         -3    1    3    3    0  502  0.36262248378E+03 -0.29003878948E+03  0.24472112468E+03  0.52488664872E+03  0.00000000000E+00 0.  1.
         13    1    5    5    0    0 -0.20091858401E+03 -0.22708034021E+02  0.15499821401E+03  0.25477122788E+03  0.00000000000E+00 0. -1.
        -13    1    5    5    0    0 -0.22825232974E+02 -0.27367382412E+02  0.74627659090E+02  0.82699772561E+02  0.00000000000E+00 0.  1.
          2    1    6    6  503    0 -0.23238879766E+03  0.34128537085E+03  0.22483954501E+03  0.47014155170E+03  0.00000000000E+00 0. -1.
         -2    1    6    6    0  503 -0.46025389641E+03  0.52708101057E+03  0.48009084664E+03  0.84860783751E+03  0.00000000000E+00 0.  1.
<mgrwt>
<rscale>  0 0.12900677E+04</rscale>
<asrwt>0</asrwt>
<pdfrwt beam="1">  1        2 0.34469720E+00 0.12900677E+04</pdfrwt>
<pdfrwt beam="2">  1       -2 0.11726643E+00 0.12900677E+04</pdfrwt>
<totfact> 0.26684573E+00</totfact>
</mgrwt>
</event>
<event>
12    1  0.1432447E-007  0.4276732E+03  0.7818608E-02  0.1034598E+00
         -2   -1    0    0    0  501 -0.00000000000E+00  0.00000000000E+00  0.22793164747E+03  0.22793164747E+03  0.00000000000E+00 0.  1.
          2   -1    0    0  501    0  0.00000000000E+00 -0.00000000000E+00 -0.12359512567E+04  0.12359512567E+04  0.00000000000E+00 0. -1.
         23    2    1    2    0    0  0.31471256657E+03 -0.84844580590E+02 -0.15912763146E+03  0.37428695036E+03  0.92339134208E+02 0.  0.
    5000000    2    1    2    0    0 -0.31471256657E+03  0.84844580590E+02 -0.84889197773E+03  0.10895959538E+04  0.60029921721E+03 0.  0.
         23    2    4    4    0    0 -0.39447178334E+03  0.33079340211E+02 -0.86589475717E+03  0.95656908647E+03  0.92457861098E+02 0.  0.
         23    2    4    4    0    0  0.79759216772E+02  0.51765240379E+02  0.17002779442E+02  0.13302686729E+03  0.91465185409E+02 0.  0.
          2    1    3    3  502    0  0.19468708534E+03 -0.19816634069E+02 -0.12931748898E+03  0.23456080904E+03  0.00000000000E+00 0. -1.
         -2    1    3    3    0  502  0.12002548123E+03 -0.65027946521E+02 -0.29810142480E+02  0.13972614132E+03  0.00000000000E+00 0.  1.
         11    1    5    5    0    0 -0.37821133807E+03  0.17860479871E+02 -0.76916293369E+03  0.85730649802E+03  0.00000000000E+00 0. -1.
        -11    1    5    5    0    0 -0.16260445276E+02  0.15218860340E+02 -0.96731823484E+02  0.99262588447E+02  0.00000000000E+00 0.  1.
          4    1    6    6  503    0  0.90717264685E+02  0.26199490931E+02  0.34081157784E+02  0.10038705471E+03  0.00000000000E+00 0. -1.
         -4    1    6    6    0  503 -0.10958047913E+02  0.25565749448E+02 -0.17078378342E+02  0.32639812587E+02  0.00000000000E+00 0.  1.
<mgrwt>
<rscale>  0 0.42767320E+03</rscale>
<asrwt>0</asrwt>
<pdfrwt beam="1">  1        2 0.19014634E+00 0.42767320E+03</pdfrwt>
<pdfrwt beam="2">  1       -2 0.35066408E-01 0.42767320E+03</pdfrwt>
<totfact> 0.14392175E+02</totfact>
</mgrwt>
</event>
<event>
12    1  0.1432447E-007  0.1130623E+04  0.7818608E-02  0.9175848E-01
         -2   -1    0    0    0  501 -0.00000000000E+00  0.00000000000E+00  0.13239931784E+04  0.13239931784E+04  0.00000000000E+00 0.  1.
          2   -1    0    0  501    0  0.00000000000E+00 -0.00000000000E+00 -0.11866513919E+04  0.11866513919E+04  0.00000000000E+00 0. -1.
         23    2    1    2    0    0 -0.10565537975E+04 -0.19251451710E+03 -0.42442651107E+03  0.11582855153E+04  0.90109407726E+02 0.  0.
    5000000    2    1    2    0    0  0.10565537975E+04  0.19251451710E+03  0.56176829760E+03  0.13523590550E+04  0.59993635259E+03 0.  0.
         23    2    4    4    0    0  0.41538542254E+02  0.13641067456E+03  0.21620659561E+03  0.27480837752E+03  0.91875076836E+02 0.  0.
         23    2    4    4    0    0  0.10150152553E+04  0.56103842541E+02  0.34556170199E+03  0.10775506775E+04  0.91098645104E+02 0.  0.
          1    1    3    3  502    0 -0.52322305571E+03 -0.69353398321E+02 -0.16850447230E+03  0.55404513992E+03  0.00000000000E+00 0. -1.
         -1    1    3    3    0  502 -0.53333074180E+03 -0.12316111878E+03 -0.25592203877E+03  0.60424037539E+03  0.00000000000E+00 0.  1.
         13    1    5    5    0    0  0.56211127992E+02  0.33321082028E+02  0.89152650256E+02  0.11053587863E+03  0.00000000000E+00 0. -1.
        -13    1    5    5    0    0 -0.14672585738E+02  0.10308959253E+03  0.12705394535E+03  0.16427249888E+03  0.00000000000E+00 0.  1.
          1    1    6    6  503    0  0.66278323324E+03  0.41038121303E+02  0.27086393903E+03  0.71717014378E+03  0.00000000000E+00 0. -1.
         -1    1    6    6    0  503  0.35223202202E+03  0.15065721238E+02  0.74697762966E+02  0.36038053372E+03  0.00000000000E+00 0.  1.
<mgrwt>
<rscale>  0 0.11306232E+04</rscale>
<asrwt>0</asrwt>
<pdfrwt beam="1">  1        2 0.18256175E+00 0.11306232E+04</pdfrwt>
<pdfrwt beam="2">  1       -2 0.20369126E+00 0.11306232E+04</pdfrwt>
<totfact> 0.23739081E+00</totfact>
</mgrwt>
</event>
<event>
12    1  0.1432447E-007  0.9966800E+03  0.7818608E-02  0.9312194E-01
         -2   -1    0    0    0  501 -0.00000000000E+00  0.00000000000E+00  0.49193796120E+03  0.49193796120E+03  0.00000000000E+00 0.  1.
          2   -1    0    0  501    0  0.00000000000E+00 -0.00000000000E+00 -0.20570008884E+04  0.20570008884E+04  0.00000000000E+00 0. -1.
         23    2    1    2    0    0  0.71904002657E+03 -0.56173318783E+03 -0.65080750893E+03  0.11250510772E+04  0.98116147747E+02 0.  0.
    5000000    2    1    2    0    0 -0.71904002657E+03  0.56173318783E+03 -0.91425541825E+03  0.14238877724E+04  0.59919169262E+03 0.  0.
         23    2    4    4    0    0 -0.69052774556E+03  0.21746068231E+03 -0.55718094921E+03  0.91844497382E+03  0.94725097181E+02 0.  0.
         23    2    4    4    0    0 -0.28512281007E+02  0.34427250552E+03 -0.35707446905E+03  0.50544279859E+03  0.92917909878E+02 0.  0.
          1    1    3    3  502    0  0.60887656419E+03 -0.45794842822E+03 -0.49934762657E+03  0.91093110908E+03  0.00000000000E+00 0. -1.
         -1    1    3    3    0  502  0.11016346238E+03 -0.10378475961E+03 -0.15145988237E+03  0.21411996810E+03  0.00000000000E+00 0.  1.
         11    1    5    5    0    0 -0.39359947020E+03  0.17140976677E+03 -0.34168636005E+03  0.54868152851E+03  0.00000000000E+00 0.  1.
        -11    1    5    5    0    0 -0.29692827536E+03  0.46050915542E+02 -0.21549458916E+03  0.36976344531E+03  0.00000000000E+00 0. -1.
          3    1    6    6  503    0 -0.40725028797E+02  0.14226449140E+03 -0.10149398903E+03  0.17944008274E+03  0.00000000000E+00 0. -1.
         -3    1    6    6    0  503  0.12212747791E+02  0.20200801412E+03 -0.25558048002E+03  0.32600271585E+03  0.00000000000E+00 0.  1.
<mgrwt>
<rscale>  0 0.99668005E+03</rscale>
<asrwt>0</asrwt>
<pdfrwt beam="1">  1        2 0.31646168E+00 0.99668005E+03</pdfrwt>
<pdfrwt beam="2">  1       -2 0.75682763E-01 0.99668005E+03</pdfrwt>
<totfact> 0.97541551E+00</totfact>
</mgrwt>
</event>
<event>
12    1  0.1432447E-007  0.1224950E+04  0.7818608E-02  0.9091294E-01
         -2   -1    0    0    0  501 -0.00000000000E+00  0.00000000000E+00  0.11428562616E+04  0.11428562616E+04  0.00000000000E+00 0.  1.
          2   -1    0    0  501    0  0.00000000000E+00 -0.00000000000E+00 -0.15656676754E+04  0.15656676754E+04  0.00000000000E+00 0. -1.
         23    2    1    2    0    0 -0.61155999412E+03 -0.10355101757E+04 -0.61040913856E+03  0.13514950559E+04  0.87479250431E+02 0.  0.
    5000000    2    1    2    0    0  0.61155999412E+03  0.10355101757E+04  0.18759772479E+03  0.13570288812E+04  0.60003960510E+03 0.  0.
         23    2    4    4    0    0  0.59825416041E+03  0.77889224721E+03  0.34050093682E+03  0.10435073410E+04  0.91572428100E+02 0.  0.
         23    2    4    4    0    0  0.13305833707E+02  0.25661792844E+03 -0.15290321203E+03  0.31352154014E+03  0.94268539140E+02 0.  0.
          2    1    3    3  502    0 -0.39542848918E+03 -0.59036442782E+03 -0.34278510627E+03  0.78892045022E+03  0.00000000000E+00 0. -1.
         -2    1    3    3    0  502 -0.21613150494E+03 -0.44514574783E+03 -0.26762403229E+03  0.56257460563E+03  0.00000000000E+00 0.  1.
         13    1    5    5    0    0  0.48745924207E+03  0.60281324863E+03  0.23396109195E+03  0.80977658521E+03  0.00000000000E+00 0.  1.
        -13    1    5    5    0    0  0.11079491834E+03  0.17607899859E+03  0.10653984487E+03  0.23373075583E+03  0.00000000000E+00 0. -1.
          1    1    6    6  503    0  0.28140344444E+02  0.99438003783E+02 -0.16043646495E+02  0.10458104118E+03  0.00000000000E+00 0. -1.
         -1    1    6    6    0  503 -0.14834510737E+02  0.15717992466E+03 -0.13685956554E+03  0.20894049895E+03  0.00000000000E+00 0.  1.
<mgrwt>
<rscale>  0 0.12249501E+04</rscale>
<asrwt>0</asrwt>
<pdfrwt beam="1">  1        2 0.24087195E+00 0.12249501E+04</pdfrwt>
<pdfrwt beam="2">  1       -2 0.17582404E+00 0.12249501E+04</pdfrwt>
<totfact> 0.21878181E+00</totfact>
</mgrwt>
</event>
<event>
12    1  0.1432447E-007  0.9680076E+03  0.7818608E-02  0.9344347E-01
          2   -1    0    0  501    0  0.00000000000E+00  0.00000000000E+00  0.29470038568E+04  0.29470038568E+04  0.00000000000E+00 0.  1.
         -2   -1    0    0    0  501 -0.00000000000E+00 -0.00000000000E+00 -0.40127084583E+03  0.40127084583E+03  0.00000000000E+00 0. -1.
         23    2    1    2    0    0  0.62179616462E+03  0.63522600015E+03  0.18930370490E+04  0.20928385622E+04  0.79002764294E+02 0.  0.
    5000000    2    1    2    0    0 -0.62179616462E+03 -0.63522600015E+03  0.65269596196E+03  0.12554361405E+04  0.59997111797E+03 0.  0.
         23    2    4    4    0    0 -0.18322000376E+03  0.83379387900E+02  0.18666485092E+03  0.28888299431E+03  0.89932895694E+02 0.  0.
         23    2    4    4    0    0 -0.43857616086E+03 -0.71860538805E+03  0.46603111104E+03  0.96655314615E+03  0.91089161039E+02 0.  0.
          3    1    3    3  502    0  0.12098476577E+03  0.10304498824E+03  0.27926341597E+03  0.32131548149E+03  0.00000000000E+00 0. -1.
         -3    1    3    3    0  502  0.50081139885E+03  0.53218101191E+03  0.16137736330E+04  0.17715230807E+04  0.00000000000E+00 0.  1.
         13    1    5    5    0    0 -0.77362592133E+02  0.52740791284E+02  0.31947222793E+02  0.98930211619E+02  0.00000000000E+00 0.  1.
        -13    1    5    5    0    0 -0.10585741163E+03  0.30638596616E+02  0.15471762812E+03  0.18995278269E+03  0.00000000000E+00 0. -1.
          2    1    6    6  503    0 -0.19433708727E+03 -0.34944269768E+03  0.26983063395E+03  0.48237503404E+03  0.00000000000E+00 0. -1.
         -2    1    6    6    0  503 -0.24423907359E+03 -0.36916269037E+03  0.19620047709E+03  0.48417811210E+03  0.00000000000E+00 0.  1.
<mgrwt>
<rscale>  0 0.96800763E+03</rscale>
<asrwt>0</asrwt>
<pdfrwt beam="1">  1        2 0.45338519E+00 0.96800763E+03</pdfrwt>
<pdfrwt beam="2">  1       -2 0.61733978E-01 0.96800763E+03</pdfrwt>
<totfact> 0.47002682E+00</totfact>
</mgrwt>
</event>
<event>
12    1  0.1432447E-007  0.1918735E+04  0.7818608E-02  0.8645587E-01
          2   -1    0    0  501    0  0.00000000000E+00  0.00000000000E+00  0.24676811096E+04  0.24676811096E+04  0.00000000000E+00 0. -1.
         -2   -1    0    0    0  501 -0.00000000000E+00 -0.00000000000E+00 -0.15471453584E+04  0.15471453584E+04  0.00000000000E+00 0.  1.
         23    2    1    2    0    0  0.22068580175E+03 -0.18735222774E+04  0.73499073205E+03  0.20265250501E+04  0.88342829617E+02 0.  0.
    5000000    2    1    2    0    0 -0.22068580175E+03  0.18735222774E+04  0.18554501922E+03  0.19883014178E+04  0.60010634634E+03 0.  0.
         23    2    4    4    0    0 -0.35509192446E+03  0.15298783541E+04  0.18951756222E+02  0.15732227936E+04  0.89737037482E+02 0.  0.
         23    2    4    4    0    0  0.13440612271E+03  0.34364392331E+03  0.16659326300E+03  0.41507862428E+03  0.91546694152E+02 0.  0.
          3    1    3    3  502    0  0.15948065889E+03 -0.15569755914E+04  0.58422752253E+03  0.16706073359E+04  0.00000000000E+00 0. -1.
         -3    1    3    3    0  502  0.61205142857E+02 -0.31654668605E+03  0.15076320952E+03  0.35591771424E+03  0.00000000000E+00 0.  1.
         11    1    5    5    0    0 -0.21695890986E+03  0.11024199189E+04  0.27856302362E+02  0.11239113932E+04  0.00000000000E+00 0. -1.
        -11    1    5    5    0    0 -0.13813301460E+03  0.42745843519E+03 -0.89045461405E+01  0.44931140034E+03  0.00000000000E+00 0.  1.
          1    1    6    6  503    0  0.14304478643E+03  0.29628932602E+03  0.12671725686E+03  0.35257118263E+03  0.00000000000E+00 0. -1.
         -1    1    6    6    0  503 -0.86386637262E+01  0.47354597289E+02  0.39876006141E+02  0.62507441646E+02  0.00000000000E+00 0.  1.
<mgrwt>
<rscale>  0 0.19187347E+04</rscale>
<asrwt>0</asrwt>
<pdfrwt beam="1">  1        2 0.37964325E+00 0.19187347E+04</pdfrwt>
<pdfrwt beam="2">  1       -2 0.23802236E+00 0.19187347E+04</pdfrwt>
<totfact> 0.24866541E-01</totfact>
</mgrwt>
</event>
<event>
12    1  0.1432447E-007  0.1274856E+04  0.7818608E-02  0.9049745E-01
          1   -1    0    0  501    0  0.00000000000E+00  0.00000000000E+00  0.15342302258E+04  0.15342302258E+04  0.00000000000E+00 0. -1.
         -1   -1    0    0    0  501 -0.00000000000E+00 -0.00000000000E+00 -0.13619919553E+04  0.13619919553E+04  0.00000000000E+00 0.  1.
         23    2    1    2    0    0  0.12127866022E+04  0.78270698960E+02  0.74077786836E+03  0.14264630493E+04  0.95222560184E+02 0.  0.
    5000000    2    1    2    0    0 -0.12127866022E+04 -0.78270698960E+02 -0.56853959785E+03  0.14697591317E+04  0.59998082149E+03 0.  0.
         23    2    4    4    0    0 -0.10541001334E+04 -0.24623737746E+03 -0.55803325105E+03  0.12212590831E+04  0.91174018762E+02 0.  0.
         23    2    4    4    0    0 -0.15868646887E+03  0.16796667850E+03 -0.10506346800E+02  0.24850004860E+03  0.90816795473E+02 0.  0.
          4    1    3    3  502    0  0.42755889210E+03  0.45752430385E+02  0.31141279907E+03  0.53092167268E+03  0.00000000000E+00 0. -1.
         -4    1    3    3    0  502  0.78522771013E+03  0.32518268575E+02  0.42936506928E+03  0.89554137664E+03  0.00000000000E+00 0.  1.
         11    1    5    5    0    0 -0.13752829826E+03 -0.36975628705E+01 -0.57275471390E+02  0.14902410683E+03  0.00000000000E+00 0.  1.
        -11    1    5    5    0    0 -0.91657183510E+03 -0.24253981459E+03 -0.50075777966E+03  0.10722349763E+04  0.00000000000E+00 0. -1.
          4    1    6    6  503    0 -0.97226853588E+02  0.15848054608E+03 -0.39709203798E+01  0.18597019318E+03  0.00000000000E+00 0. -1.
         -4    1    6    6    0  503 -0.61459615287E+02  0.94861324188E+01 -0.65354264203E+01  0.62529855413E+02  0.00000000000E+00 0.  1.
<mgrwt>
<rscale>  0 0.12748564E+04</rscale>
<asrwt>0</asrwt>
<pdfrwt beam="1">  1        1 0.23603542E+00 0.12748564E+04</pdfrwt>
<pdfrwt beam="2">  1       -1 0.20953722E+00 0.12748564E+04</pdfrwt>
<totfact> 0.77867228E-01</totfact>
</mgrwt>
</event>
<event>
12    1  0.1432447E-007  0.1203363E+04  0.7818608E-02  0.9109918E-01
         -2   -1    0    0    0  501 -0.00000000000E+00  0.00000000000E+00  0.69880369269E+03  0.69880369269E+03  0.00000000000E+00 0.  1.
          2   -1    0    0  501    0  0.00000000000E+00 -0.00000000000E+00 -0.26753654064E+04  0.26753654064E+04  0.00000000000E+00 0. -1.
         23    2    1    2    0    0  0.11713311478E+04  0.24212062061E+03 -0.31421441944E+03  0.12401409617E+04  0.92627484370E+02 0.  0.
    5000000    2    1    2    0    0 -0.11713311478E+04 -0.24212062061E+03 -0.16623472943E+04  0.21340281374E+04  0.60003209238E+03 0.  0.
         23    2    4    4    0    0 -0.93560963279E+03 -0.16034414604E+03 -0.15979186921E+04  0.18608012217E+04  0.90340523337E+02 0.  0.
         23    2    4    4    0    0 -0.23572151497E+03 -0.81776474562E+02 -0.64428602211E+02  0.27322691570E+03  0.90828840518E+02 0.  0.
          3    1    3    3  502    0  0.66123078086E+03  0.16714167993E+03 -0.21488029583E+03  0.71507763792E+03  0.00000000000E+00 0. -1.
         -3    1    3    3    0  502  0.51010036689E+03  0.74978940680E+02 -0.99334123607E+02  0.52506332376E+03  0.00000000000E+00 0.  1.
         13    1    5    5    0    0 -0.16336725035E+03 -0.33635383146E+02 -0.35168751941E+03  0.38923554411E+03  0.00000000000E+00 0.  1.
        -13    1    5    5    0    0 -0.77224238244E+03 -0.12670876290E+03 -0.12462311727E+04  0.14715656776E+04  0.00000000000E+00 0. -1.
          1    1    6    6  503    0 -0.13473500949E+03 -0.85377971418E+01 -0.51318260524E+01  0.13510274757E+03  0.00000000000E+00 0. -1.
         -1    1    6    6    0  503 -0.10098650548E+03 -0.73238677420E+02 -0.59296776158E+02  0.13812416813E+03  0.00000000000E+00 0.  1.
<mgrwt>
<rscale>  0 0.12033629E+04</rscale>
<asrwt>0</asrwt>
<pdfrwt beam="1">  1        2 0.41159467E+00 0.12033629E+04</pdfrwt>
<pdfrwt beam="2">  1       -2 0.10750826E+00 0.12033629E+04</pdfrwt>
<totfact> 0.18772476E+00</totfact>
</mgrwt>
</event>
<event>
12    1  0.1432447E-007  0.5686677E+03  0.7818608E-02  0.9972631E-01
          2   -1    0    0  501    0  0.00000000000E+00  0.00000000000E+00  0.95612311225E+03  0.95612311225E+03  0.00000000000E+00 0. -1.
         -2   -1    0    0    0  501 -0.00000000000E+00 -0.00000000000E+00 -0.64512320934E+03  0.64512320934E+03  0.00000000000E+00 0.  1.
         23    2    1    2    0    0 -0.54437417461E+03 -0.81179773911E+02 -0.25102367577E+03  0.61188023839E+03  0.91930096603E+02 0.  0.
    5000000    2    1    2    0    0  0.54437417461E+03  0.81179773911E+02  0.56202357867E+03  0.98936608319E+03  0.60003445394E+03 0.  0.
         23    2    4    4    0    0  0.26679439396E+03  0.10108093693E+03 -0.56699797016E+02  0.30476441843E+03  0.90938876714E+02 0.  0.
         23    2    4    4    0    0  0.27757978065E+03 -0.19901163016E+02  0.61872337569E+03  0.68460166477E+03  0.91729127678E+02 0.  0.
          3    1    3    3  502    0 -0.53344573882E+03 -0.91824054319E+02 -0.23610816354E+03  0.59054472998E+03  0.00000000000E+00 0. -1.
         -3    1    3    3    0  502 -0.10928435794E+02  0.10644280409E+02 -0.14915512222E+02  0.21335508411E+02  0.00000000000E+00 0.  1.
         11    1    5    5    0    0  0.19543666830E+03  0.11248755180E+03 -0.28915431350E+02  0.22734344678E+03  0.00000000000E+00 0. -1.
        -11    1    5    5    0    0  0.71357725666E+02 -0.11406614872E+02 -0.27784365666E+02  0.77420971646E+02  0.00000000000E+00 0.  1.
          4    1    6    6  503    0  0.20872212206E+03  0.76521754307E+01  0.52542913418E+03  0.56541953899E+03  0.00000000000E+00 0. -1.
         -4    1    6    6    0  503  0.68857658594E+02 -0.27553338447E+02  0.93294241504E+02  0.11918212578E+03  0.00000000000E+00 0.  1.
<mgrwt>
<rscale>  0 0.56866774E+03</rscale>
<asrwt>0</asrwt>
<pdfrwt beam="1">  1        2 0.14709586E+00 0.56866774E+03</pdfrwt>
<pdfrwt beam="2">  1       -2 0.99249725E-01 0.56866774E+03</pdfrwt>
<totfact> 0.23462256E+01</totfact>
</mgrwt>
</event>
<event>
12    1  0.1432447E-007  0.7170560E+03  0.7818608E-02  0.9688501E-01
          1   -1    0    0  501    0  0.00000000000E+00  0.00000000000E+00  0.53873853314E+03  0.53873853314E+03  0.00000000000E+00 0. -1.
         -1   -1    0    0    0  501 -0.00000000000E+00 -0.00000000000E+00 -0.99265607056E+03  0.99265607056E+03  0.00000000000E+00 0.  1.
         23    2    1    2    0    0 -0.57142543427E+03  0.18438565120E+03 -0.11439916686E+03  0.61841857977E+03  0.93964222592E+02 0.  0.
    5000000    2    1    2    0    0  0.57142543427E+03 -0.18438565120E+03 -0.33951837055E+03  0.91297602393E+03  0.59810316923E+03 0.  0.
         23    2    4    4    0    0  0.23202113928E+03  0.20451140521E+03 -0.14309036909E+03  0.35294423232E+03  0.91847991099E+02 0.  0.
         23    2    4    4    0    0  0.33940429499E+03 -0.38889705641E+03 -0.19642800146E+03  0.56003179161E+03  0.92819458723E+02 0.  0.
          4    1    3    3  502    0 -0.35084830885E+03  0.14878610817E+03 -0.41255772504E+02  0.38331955412E+03  0.00000000000E+00 0. -1.
         -4    1    3    3    0  502 -0.22057712542E+03  0.35599543027E+02 -0.73143394359E+02  0.23509902564E+03  0.00000000000E+00 0.  1.
         11    1    5    5    0    0  0.76328313202E+02  0.83384856695E+02 -0.69358021885E+01  0.11325701336E+03  0.00000000000E+00 0. -1.
        -11    1    5    5    0    0  0.15569282607E+03  0.12112654852E+03 -0.13615456690E+03  0.23968721896E+03  0.00000000000E+00 0.  1.
          2    1    6    6  503    0  0.37947480650E+02 -0.20057329196E+02  0.42396026251E+01  0.43130986223E+02  0.00000000000E+00 0. -1.
         -2    1    6    6    0  503  0.30145681434E+03 -0.36883972721E+03 -0.20066760409E+03  0.51690080539E+03  0.00000000000E+00 0.  1.
<mgrwt>
<rscale>  0 0.71705601E+03</rscale>
<asrwt>0</asrwt>
<pdfrwt beam="1">  1        1 0.82882853E-01 0.71705601E+03</pdfrwt>
<pdfrwt beam="2">  1       -1 0.15271632E+00 0.71705601E+03</pdfrwt>
<totfact> 0.13704825E+01</totfact>
</mgrwt>
</event>
<event>
12    1  0.1432447E-007  0.3961839E+03  0.7818608E-02  0.1045109E+00
          2   -1    0    0  501    0  0.00000000000E+00  0.00000000000E+00  0.38962753666E+03  0.38962753666E+03  0.00000000000E+00 0.  1.
         -2   -1    0    0    0  501 -0.00000000000E+00 -0.00000000000E+00 -0.90730073770E+03  0.90730073770E+03  0.00000000000E+00 0. -1.
         23    2    1    2    0    0  0.57516861937E+02 -0.25704265671E+03 -0.57565639155E+03  0.63908217564E+03  0.87559290320E+02 0.  0.
    5000000    2    1    2    0    0 -0.57516861937E+02  0.25704265671E+03  0.57983190513E+02  0.65784609872E+03  0.60001693513E+03 0.  0.
         23    2    4    4    0    0 -0.15317649903E+03  0.33187619765E+03  0.22121233412E+03  0.43504849879E+03  0.82021028444E+02 0.  0.
         23    2    4    4    0    0  0.95659637090E+02 -0.74833540946E+02 -0.16322914361E+03  0.22279759993E+03  0.90797534070E+02 0.  0.
          2    1    3    3  502    0  0.77090996474E+02 -0.14969664054E+03 -0.35648718819E+03  0.39425273781E+03  0.00000000000E+00 0. -1.
         -2    1    3    3    0  502 -0.19574134537E+02 -0.10734601617E+03 -0.21916920335E+03  0.24482943783E+03  0.00000000000E+00 0.  1.
         13    1    5    5    0    0 -0.11416160270E+03  0.24902037262E+03  0.20473805802E+03  0.34199662267E+03  0.00000000000E+00 0. -1.
        -13    1    5    5    0    0 -0.39014896325E+02  0.82855825029E+02  0.16474276100E+02  0.93051876120E+02  0.00000000000E+00 0.  1.
          3    1    6    6  503    0  0.50654051630E+02  0.11539822990E+02 -0.75941900056E+02  0.92011807098E+02  0.00000000000E+00 0. -1.
         -3    1    6    6    0  503  0.45005585460E+02 -0.86373363936E+02 -0.87287243552E+02  0.13078579283E+03  0.00000000000E+00 0.  1.
<mgrwt>
<rscale>  0 0.39618387E+03</rscale>
<asrwt>0</asrwt>
<pdfrwt beam="1">  1        2 0.59942698E-01 0.39618387E+03</pdfrwt>
<pdfrwt beam="2">  1       -2 0.13958473E+00 0.39618387E+03</pdfrwt>
<totfact> 0.31067314E+01</totfact>
</mgrwt>
</event>
<event>
12    1  0.1432447E-007  0.1449248E+04  0.7818608E-02  0.8918922E-01
         -2   -1    0    0    0  501 -0.00000000000E+00  0.00000000000E+00  0.73727172163E+03  0.73727172163E+03  0.00000000000E+00 0.  1.
          2   -1    0    0  501    0  0.00000000000E+00 -0.00000000000E+00 -0.32088575162E+04  0.32088575162E+04  0.00000000000E+00 0. -1.
         23    2    1    2    0    0  0.11269469023E+03  0.14357044858E+04 -0.76279280231E+03  0.16322572442E+04  0.91996674125E+02 0.  0.
    5000000    2    1    2    0    0 -0.11269469023E+03 -0.14357044858E+04 -0.17087929922E+04  0.23138719936E+04  0.60006886996E+03 0.  0.
         23    2    4    4    0    0 -0.17059626652E+03 -0.11432401776E+04 -0.97010182253E+03  0.15118502706E+04  0.92154786979E+02 0.  0.
         23    2    4    4    0    0  0.57901576288E+02 -0.29246430829E+03 -0.73869116970E+03  0.80202172308E+03  0.93199978143E+02 0.  0.
          1    1    3    3  502    0  0.62280593026E+02  0.93919824046E+03 -0.54586327501E+03  0.10880895745E+04  0.00000000000E+00 0. -1.
         -1    1    3    3    0  502  0.50414097201E+02  0.49650624539E+03 -0.21692952730E+03  0.54416766968E+03  0.00000000000E+00 0.  1.
         13    1    5    5    0    0 -0.10215213809E+03 -0.68436826016E+03 -0.63902648919E+03  0.94188631412E+03  0.00000000000E+00 0.  1.
        -13    1    5    5    0    0 -0.68444128431E+02 -0.45887191739E+03 -0.33107533334E+03  0.56996395644E+03  0.00000000000E+00 0. -1.
          3    1    6    6  503    0  0.66024389455E+02 -0.23008319059E+03 -0.48782271669E+03  0.54338614034E+03  0.00000000000E+00 0. -1.
         -3    1    6    6    0  503 -0.81228131666E+01 -0.62381117704E+02 -0.25086845302E+03  0.25863558274E+03  0.00000000000E+00 0.  1.
<mgrwt>
<rscale>  0 0.14492476E+04</rscale>
<asrwt>0</asrwt>
<pdfrwt beam="1">  1        2 0.49367040E+00 0.14492476E+04</pdfrwt>
<pdfrwt beam="2">  1       -2 0.11342642E+00 0.14492476E+04</pdfrwt>
<totfact> 0.75020385E-01</totfact>
</mgrwt>
</event>
<event>
12    1  0.1432447E-007  0.1665835E+04  0.7818608E-02  0.8781094E-01
          2   -1    0    0  501    0  0.00000000000E+00  0.00000000000E+00  0.34112975185E+04  0.34112975185E+04  0.00000000000E+00 0. -1.
         -2   -1    0    0    0  501 -0.00000000000E+00 -0.00000000000E+00 -0.82532284552E+03  0.82532284552E+03  0.00000000000E+00 0.  1.
         23    2    1    2    0    0 -0.18226013259E+03 -0.16126667199E+04  0.12650977930E+04  0.20597942581E+04  0.91472698166E+02 0.  0.
    5000000    2    1    2    0    0  0.18226013259E+03  0.16126667199E+04  0.13208768800E+04  0.21768261059E+04  0.59995287992E+03 0.  0.
         23    2    4    4    0    0  0.25159185160E+03  0.15860902947E+04  0.12649308057E+04  0.20462859564E+04  0.90859173236E+02 0.  0.
         23    2    4    4    0    0 -0.69331719013E+02  0.26576425165E+02  0.55946074241E+02  0.13054014952E+03  0.91638276821E+02 0.  0.
          3    1    3    3  502    0 -0.17035433795E+03 -0.12784465205E+04  0.97028841791E+03  0.16139720320E+04  0.00000000000E+00 0. -1.
         -3    1    3    3    0  502 -0.11905794643E+02 -0.33422019938E+03  0.29480937510E+03  0.44582222608E+03  0.00000000000E+00 0.  1.
         13    1    5    5    0    0  0.85363318238E+02  0.63755928158E+03  0.45385669799E+03  0.78724496565E+03  0.00000000000E+00 0. -1.
        -13    1    5    5    0    0  0.16622853337E+03  0.94853101312E+03  0.81107410776E+03  0.12590409908E+04  0.00000000000E+00 0.  1.
          4    1    6    6  503    0 -0.81103629322E+02  0.33328263488E+02  0.17026298044E+02  0.89322262966E+02  0.00000000000E+00 0. -1.
         -4    1    6    6    0  503  0.11771910308E+02 -0.67518383230E+01  0.38919776197E+02  0.41217886558E+02  0.00000000000E+00 0.  1.
<mgrwt>
<rscale>  0 0.16658345E+04</rscale>
<asrwt>0</asrwt>
<pdfrwt beam="1">  1        2 0.52481500E+00 0.16658345E+04</pdfrwt>
<pdfrwt beam="2">  1       -2 0.12697275E+00 0.16658345E+04</pdfrwt>
<totfact> 0.40493942E-01</totfact>
</mgrwt>
</event>
<event>
12    1  0.1432447E-007  0.1100847E+04  0.7818608E-02  0.9204367E-01
          1   -1    0    0  501    0  0.00000000000E+00  0.00000000000E+00  0.17064130979E+04  0.17064130979E+04  0.00000000000E+00 0. -1.
         -1   -1    0    0    0  501 -0.00000000000E+00 -0.00000000000E+00 -0.93062883577E+03  0.93062883577E+03  0.00000000000E+00 0.  1.
         23    2    1    2    0    0 -0.99503359421E+03 -0.24470541817E+03  0.99316936628E+03  0.14298374576E+04  0.89873076323E+02 0.  0.
    5000000    2    1    2    0    0  0.99503359421E+03  0.24470541817E+03 -0.21738510412E+03  0.12072044761E+04  0.60009479936E+03 0.  0.
         23    2    4    4    0    0  0.13258815530E+03  0.26944931107E+03 -0.11840865909E+03  0.33450666216E+03  0.87701461350E+02 0.  0.
         23    2    4    4    0    0  0.86244543892E+03 -0.24743892895E+02 -0.98976445033E+02  0.87269781390E+03  0.85911247010E+02 0.  0.
          3    1    3    3  502    0 -0.19102843887E+03 -0.11102185176E+02  0.18726419439E+03  0.26773681382E+03  0.00000000000E+00 0. -1.
         -3    1    3    3    0  502 -0.80400515534E+03 -0.23360323300E+03  0.80590517190E+03  0.11621006438E+04  0.00000000000E+00 0.  1.
         13    1    5    5    0    0  0.23570266332E+02  0.13566504772E+03 -0.73931317292E+02  0.15628948239E+03  0.00000000000E+00 0. -1.
        -13    1    5    5    0    0  0.10901788896E+03  0.13378426334E+03 -0.44477341800E+02  0.17821717977E+03  0.00000000000E+00 0.  1.
          1    1    6    6  503    0  0.56973454348E+03 -0.18611530315E+02 -0.24334518339E+02  0.57055762889E+03  0.00000000000E+00 0. -1.
         -1    1    6    6    0  503  0.29271089543E+03 -0.61323625799E+01 -0.74641926693E+02  0.30214018501E+03  0.00000000000E+00 0.  1.
<mgrwt>
<rscale>  0 0.11008470E+04</rscale>
<asrwt>0</asrwt>
<pdfrwt beam="1">  1        1 0.26252509E+00 0.11008470E+04</pdfrwt>
<pdfrwt beam="2">  1       -1 0.14317367E+00 0.11008470E+04</pdfrwt>
<totfact> 0.18528765E+00</totfact>
</mgrwt>
</event>
<event>
12    1  0.1432447E-007  0.1026795E+04  0.7818608E-02  0.9279635E-01
         -1   -1    0    0    0  501 -0.00000000000E+00  0.00000000000E+00  0.11138245165E+04  0.11138245165E+04  0.00000000000E+00 0.  1.
          1   -1    0    0  501    0  0.00000000000E+00 -0.00000000000E+00 -0.10834445275E+04  0.10834445275E+04  0.00000000000E+00 0. -1.
         23    2    1    2    0    0  0.97771601228E+03  0.12948334907E+01  0.28482831444E+03  0.10223387818E+04  0.90106263628E+02 0.  0.
    5000000    2    1    2    0    0 -0.97771601228E+03 -0.12948334907E+01 -0.25444832543E+03  0.11749302623E+04  0.59982238505E+03 0.  0.
         23    2    4    4    0    0  0.34707985682E+02  0.50058515407E+02 -0.94260057651E+02  0.14464717141E+03  0.91254295760E+02 0.  0.
         23    2    4    4    0    0 -0.10124239980E+04 -0.51353348898E+02 -0.16018826778E+03  0.10302830909E+04  0.90462412484E+02 0.  0.
          1    1    3    3  502    0  0.61341737002E+03  0.96862529919E+01  0.13397410926E+03  0.62795203264E+03  0.00000000000E+00 0. -1.
         -1    1    3    3    0  502  0.36429864226E+03 -0.83914195012E+01  0.15085420518E+03  0.39438674913E+03  0.00000000000E+00 0.  1.
         11    1    5    5    0    0  0.93275452510E+01  0.83777958729E+01  0.18174177565E+02  0.22079205019E+02  0.00000000000E+00 0.  1.
        -11    1    5    5    0    0  0.25380440431E+02  0.41680719534E+02 -0.11243423522E+03  0.12256796639E+03  0.00000000000E+00 0. -1.
          1    1    6    6  503    0 -0.77879453781E+03 -0.54667934663E+02 -0.15842811935E+03  0.79662348962E+03  0.00000000000E+00 0. -1.
         -1    1    6    6    0  503 -0.23362946015E+03  0.33145857650E+01 -0.17601484344E+01  0.23365960124E+03  0.00000000000E+00 0.  1.
<mgrwt>
<rscale>  0 0.10267953E+04</rscale>
<asrwt>0</asrwt>
<pdfrwt beam="1">  1        1 0.16668377E+00 0.10267953E+04</pdfrwt>
<pdfrwt beam="2">  1       -1 0.17135762E+00 0.10267953E+04</pdfrwt>
<totfact> 0.31382153E+00</totfact>
</mgrwt>
</event>
<event>
12    1  0.1432447E-007  0.8304885E+03  0.7818608E-02  0.9516905E-01
         -1   -1    0    0    0  501 -0.00000000000E+00  0.00000000000E+00  0.55390906593E+03  0.55390906593E+03  0.00000000000E+00 0.  1.
          1   -1    0    0  501    0  0.00000000000E+00 -0.00000000000E+00 -0.12850281392E+04  0.12850281392E+04  0.00000000000E+00 0. -1.
         23    2    1    2    0    0 -0.70620419025E+03  0.19912110257E+03 -0.30870755388E+03  0.80119677773E+03  0.90787394563E+02 0.  0.
    5000000    2    1    2    0    0  0.70620419025E+03 -0.19912110257E+03 -0.42241151943E+03  0.10377404274E+04  0.60008343686E+03 0.  0.
         23    2    4    4    0    0 -0.36179319783E+02 -0.16425045752E+03 -0.14686890068E+03  0.23995863640E+03  0.87877853985E+02 0.  0.
         23    2    4    4    0    0  0.74238351003E+03 -0.34870645043E+02 -0.27554261875E+03  0.79778179105E+03  0.90458905160E+02 0.  0.
          1    1    3    3  502    0 -0.20747965356E+03  0.44083415326E+02 -0.47998363397E+02  0.21747412959E+03  0.00000000000E+00 0. -1.
         -1    1    3    3    0  502 -0.49872453668E+03  0.15503768724E+03 -0.26070919048E+03  0.58372264815E+03  0.00000000000E+00 0.  1.
         11    1    5    5    0    0 -0.52130119460E+02 -0.67249504973E+02 -0.99242817041E+02  0.13072559814E+03  0.00000000000E+00 0.  1.
        -11    1    5    5    0    0  0.15950799677E+02 -0.97000952550E+02 -0.47626083637E+02  0.10923303826E+03  0.00000000000E+00 0. -1.
          2    1    6    6  503    0  0.16258369735E+03 -0.87279159046E+01 -0.10147946655E+03  0.19185337446E+03  0.00000000000E+00 0.  1.
         -2    1    6    6    0  503  0.57979981268E+03 -0.26142729139E+02 -0.17406315220E+03  0.60592841659E+03  0.00000000000E+00 0. -1.
<mgrwt>
<rscale>  0 0.83048852E+03</rscale>
<asrwt>0</asrwt>
<pdfrwt beam="1">  1        1 0.19769664E+00 0.83048852E+03</pdfrwt>
<pdfrwt beam="2">  1       -1 0.85216779E-01 0.83048852E+03</pdfrwt>
<totfact> 0.12920405E+01</totfact>
</mgrwt>
</event>
<event>
12    1  0.1432447E-007  0.7048788E+03  0.7818608E-02  0.9708925E-01
          2   -1    0    0  501    0  0.00000000000E+00  0.00000000000E+00  0.17380126078E+04  0.17380126078E+04  0.00000000000E+00 0. -1.
         -2   -1    0    0    0  501 -0.00000000000E+00 -0.00000000000E+00 -0.63718713072E+03  0.63718713072E+03  0.00000000000E+00 0.  1.
         23    2    1    2    0    0  0.69106052226E+03 -0.47478230309E+02  0.12641597464E+04  0.14443872709E+04  0.91301129117E+02 0.  0.
    5000000    2    1    2    0    0 -0.69106052226E+03  0.47478230309E+02 -0.16333426933E+03  0.93081246760E+03  0.59992911124E+03 0.  0.
         23    2    4    4    0    0 -0.35808447210E+03  0.58634821902E+02 -0.37122124405E+03  0.52736817031E+03  0.93002384469E+02 0.  0.
         23    2    4    4    0    0 -0.33297605015E+03 -0.11156591593E+02  0.20788697472E+03  0.40344429729E+03  0.92481280509E+02 0.  0.
          4    1    3    3  502    0  0.42483485673E+03 -0.31244679909E+02  0.86671880845E+03  0.96574446850E+03  0.00000000000E+00 0. -1.
         -4    1    3    3    0  502  0.26622566553E+03 -0.16233550400E+02  0.39744093797E+03  0.47864280243E+03  0.00000000000E+00 0.  1.
         11    1    5    5    0    0 -0.17876076801E+03  0.69217333538E+02 -0.22619149582E+03  0.29649459392E+03  0.00000000000E+00 0. -1.
        -11    1    5    5    0    0 -0.17932370409E+03 -0.10582511635E+02 -0.14502974823E+03  0.23087357638E+03  0.00000000000E+00 0.  1.
          3    1    6    6  503    0 -0.34033115312E+02 -0.31121113129E+02  0.25803784606E+02  0.52845169318E+02  0.00000000000E+00 0.  1.
         -3    1    6    6    0  503 -0.29894293484E+03  0.19964521536E+02  0.18208319012E+03  0.35059912797E+03  0.00000000000E+00 0. -1.
<mgrwt>
<rscale>  0 0.70487878E+03</rscale>
<asrwt>0</asrwt>
<pdfrwt beam="1">  1        2 0.26738655E+00 0.70487878E+03</pdfrwt>
<pdfrwt beam="2">  1       -2 0.98028790E-01 0.70487878E+03</pdfrwt>
<totfact> 0.83836480E+00</totfact>
</mgrwt>
</event>
<event>
12    1  0.1432447E-007  0.6148031E+03  0.7818608E-02  0.9875161E-01
          2   -1    0    0  501    0  0.00000000000E+00  0.00000000000E+00  0.15562310708E+04  0.15562310708E+04  0.00000000000E+00 0. -1.
         -2   -1    0    0    0  501 -0.00000000000E+00 -0.00000000000E+00 -0.28816205754E+03  0.28816205754E+03  0.00000000000E+00 0.  1.
         23    2    1    2    0    0 -0.32139253791E+03  0.39840989905E+03  0.70333542354E+03  0.87439092582E+03  0.88629352168E+02 0.  0.
    5000000    2    1    2    0    0  0.32139253791E+03 -0.39840989905E+03  0.56473358977E+03  0.97000220256E+03  0.59996386098E+03 0.  0.
         23    2    4    4    0    0 -0.12926124628E+03 -0.53766044984E+02  0.28573097438E+03  0.33097055893E+03  0.91104685793E+02 0.  0.
         23    2    4    4    0    0  0.45065378418E+03 -0.34464385406E+03  0.27900261539E+03  0.63903164364E+03  0.93009477112E+02 0.  0.
          3    1    3    3  502    0 -0.77696179790E+02  0.56078842905E+02  0.17291951487E+03  0.19769342831E+03  0.00000000000E+00 0. -1.
         -3    1    3    3    0  502 -0.24369635812E+03  0.34233105614E+03  0.53041590868E+03  0.67669749751E+03  0.00000000000E+00 0.  1.
         13    1    5    5    0    0 -0.59209267929E+02 -0.39621487543E+02  0.22869526513E+03  0.23953522492E+03  0.00000000000E+00 0. -1.
        -13    1    5    5    0    0 -0.70051978348E+02 -0.14144557441E+02  0.57035709254E+02  0.91435334012E+02  0.00000000000E+00 0.  1.
          3    1    6    6  503    0  0.17930637242E+03 -0.98874177907E+02  0.64319295343E+02  0.21462490536E+03  0.00000000000E+00 0. -1.
         -3    1    6    6    0  503  0.27134741176E+03 -0.24576967616E+03  0.21468332004E+03  0.42440673827E+03  0.00000000000E+00 0.  1.
<mgrwt>
<rscale>  0 0.61480312E+03</rscale>
<asrwt>0</asrwt>
<pdfrwt beam="1">  1        2 0.23942016E+00 0.61480312E+03</pdfrwt>
<pdfrwt beam="2">  1       -2 0.44332625E-01 0.61480312E+03</pdfrwt>
<totfact> 0.59089972E+01</totfact>
</mgrwt>
</event>
<event>
12    1  0.1432447E-007  0.5479581E+03  0.7818608E-02  0.1001968E+00
         -2   -1    0    0    0  501 -0.00000000000E+00  0.00000000000E+00  0.68537987693E+03  0.68537987693E+03  0.00000000000E+00 0.  1.
          2   -1    0    0  501    0  0.00000000000E+00 -0.00000000000E+00 -0.11351024809E+04  0.11351024809E+04  0.00000000000E+00 0. -1.
         23    2    1    2    0    0 -0.24991652814E+03  0.37686838143E+03 -0.85110233118E+03  0.96860790214E+03  0.96633544879E+02 0.  0.
    5000000    2    1    2    0    0  0.24991652814E+03 -0.37686838143E+03  0.40137972723E+03  0.85187445567E+03  0.60008029032E+03 0.  0.
         23    2    4    4    0    0 -0.12610180760E+03 -0.90199655906E+02  0.31544453815E+03  0.36282350867E+03  0.89988877015E+02 0.  0.
         23    2    4    4    0    0  0.37601833573E+03 -0.28666872552E+03  0.85935189080E+02  0.48905094700E+03  0.90648910873E+02 0.  0.
          2    1    3    3  502    0 -0.22056413777E+03  0.36273703947E+03 -0.74330822707E+03  0.85599872611E+03  0.00000000000E+00 0. -1.
         -2    1    3    3    0  502 -0.29352390370E+02  0.14131341962E+02 -0.10779410411E+03  0.11260917603E+03  0.00000000000E+00 0.  1.
         13    1    5    5    0    0 -0.16429720406E+02 -0.39186294314E+02  0.16176878224E+03  0.16725621149E+03  0.00000000000E+00 0.  1.
        -13    1    5    5    0    0 -0.10967208719E+03 -0.51013361592E+02  0.15367575591E+03  0.19556729718E+03  0.00000000000E+00 0. -1.
          1    1    6    6  503    0  0.15760013349E+03 -0.90232430069E+02  0.70758724274E+02  0.19490123287E+03  0.00000000000E+00 0. -1.
         -1    1    6    6    0  503  0.21841820225E+03 -0.19643629545E+03  0.15176464806E+02  0.29414971414E+03  0.00000000000E+00 0.  1.
<mgrwt>
<rscale>  0 0.54795813E+03</rscale>
<asrwt>0</asrwt>
<pdfrwt beam="1">  1        2 0.17463115E+00 0.54795813E+03</pdfrwt>
<pdfrwt beam="2">  1       -2 0.10544306E+00 0.54795813E+03</pdfrwt>
<totfact> 0.15786871E+01</totfact>
</mgrwt>
</event>
<event>
12    1  0.1432447E-007  0.1223320E+04  0.7818608E-02  0.9092686E-01
          2   -1    0    0  501    0  0.00000000000E+00  0.00000000000E+00  0.25461968020E+04  0.25461968020E+04  0.00000000000E+00 0. -1.
         -2   -1    0    0    0  501 -0.00000000000E+00 -0.00000000000E+00 -0.64700846612E+03  0.64700846612E+03  0.00000000000E+00 0.  1.
         23    2    1    2    0    0 -0.11421827281E+04  0.17489181106E+03  0.13526851923E+04  0.17811821214E+04  0.87658373489E+02 0.  0.
    5000000    2    1    2    0    0  0.11421827281E+04 -0.17489181106E+03  0.54650314364E+03  0.14120231467E+04  0.59997929207E+03 0.  0.
         23    2    4    4    0    0  0.57184066106E+03 -0.36590002023E+03  0.36857902367E+03  0.77805481847E+03  0.92920597365E+02 0.  0.
         23    2    4    4    0    0  0.57034206703E+03  0.19100820917E+03  0.17792411997E+03  0.63396832823E+03  0.92112102059E+02 0.  0.
          3    1    3    3  502    0 -0.80847105295E+03  0.87368490057E+02  0.97648988169E+03  0.12707443431E+04  0.00000000000E+00 0. -1.
         -3    1    3    3    0  502 -0.33371167514E+03  0.87523321005E+02  0.37619531058E+03  0.51043777833E+03  0.00000000000E+00 0.  1.
         11    1    5    5    0    0  0.13547048073E+03 -0.49938424658E+02  0.53756096275E+02  0.15406432193E+03  0.00000000000E+00 0. -1.
        -11    1    5    5    0    0  0.43637018033E+03 -0.31596159557E+03  0.31482292739E+03  0.62399049654E+03  0.00000000000E+00 0.  1.
          4    1    6    6  503    0  0.42658451605E+03  0.11091374348E+03  0.10039934514E+03  0.45205777986E+03  0.00000000000E+00 0. -1.
         -4    1    6    6    0  503  0.14375755097E+03  0.80094465692E+02  0.77524774832E+02  0.18191054837E+03  0.00000000000E+00 0.  1.
<mgrwt>
<rscale>  0 0.12233196E+04</rscale>
<asrwt>0</asrwt>
<pdfrwt beam="1">  1        2 0.39172258E+00 0.12233196E+04</pdfrwt>
<pdfrwt beam="2">  1       -2 0.99539765E-01 0.12233196E+04</pdfrwt>
<totfact> 0.26815474E+00</totfact>
</mgrwt>
</event>
<event>
12    1  0.1432447E-007  0.7638672E+03  0.7818608E-02  0.9613843E-01
          2   -1    0    0  501    0  0.00000000000E+00  0.00000000000E+00  0.16566691322E+04  0.16566691322E+04  0.00000000000E+00 0.  1.
         -2   -1    0    0    0  501 -0.00000000000E+00 -0.00000000000E+00 -0.39032315440E+03  0.39032315440E+03  0.00000000000E+00 0. -1.
         23    2    1    2    0    0 -0.48867620606E+03 -0.43373165034E+03  0.27059428999E+03  0.71337904472E+03  0.93599213606E+02 0.  0.
    5000000    2    1    2    0    0  0.48867620606E+03  0.43373165034E+03  0.99575168783E+03  0.13336132419E+04  0.60006272695E+03 0.  0.
         23    2    4    4    0    0  0.60051922224E+03  0.39275277719E+03  0.72785040560E+03  0.10257330540E+04  0.86510143478E+02 0.  0.
         23    2    4    4    0    0 -0.11184301618E+03  0.40978873147E+02  0.26790128223E+03  0.30788018787E+03  0.93973319363E+02 0.  0.
          1    1    3    3  502    0 -0.37260006980E+02 -0.67990932894E+02  0.16537816222E+02  0.79275307892E+02  0.00000000000E+00 0. -1.
         -1    1    3    3    0  502 -0.45141619908E+03 -0.36574071744E+03  0.25405647377E+03  0.63410373682E+03  0.00000000000E+00 0.  1.
         11    1    5    5    0    0  0.16955607900E+03  0.11577829590E+03  0.15517977691E+03  0.25736091562E+03  0.00000000000E+00 0. -1.
        -11    1    5    5    0    0  0.43096314323E+03  0.27697448129E+03  0.57267062869E+03  0.76837213840E+03  0.00000000000E+00 0.  1.
          3    1    6    6  503    0 -0.49045165116E+02  0.67505536408E+02  0.15322047866E+03  0.17446759226E+03  0.00000000000E+00 0. -1.
         -3    1    6    6    0  503 -0.62797851060E+02 -0.26526663261E+02  0.11468080356E+03  0.13341259561E+03  0.00000000000E+00 0.  1.
<mgrwt>
<rscale>  0 0.76386718E+03</rscale>
<asrwt>0</asrwt>
<pdfrwt beam="1">  1        2 0.25487217E+00 0.76386718E+03</pdfrwt>
<pdfrwt beam="2">  1       -2 0.60049717E-01 0.76386718E+03</pdfrwt>
<totfact> 0.27461626E+01</totfact>
</mgrwt>
</event>
<event>
12    1  0.1432447E-007  0.7931822E+03  0.7818608E-02  0.9569938E-01
         -1   -1    0    0    0  501 -0.00000000000E+00  0.00000000000E+00  0.10509437696E+04  0.10509437696E+04  0.00000000000E+00 0.  1.
          1   -1    0    0  501    0  0.00000000000E+00 -0.00000000000E+00 -0.97540196618E+03  0.97540196618E+03  0.00000000000E+00 0. -1.
         23    2    1    2    0    0  0.45126476383E+03 -0.52489677358E+03 -0.57383393292E+03  0.90355725455E+03  0.89296246840E+02 0.  0.
    5000000    2    1    2    0    0 -0.45126476383E+03  0.52489677358E+03  0.64937573637E+03  0.11227884813E+04  0.59984049269E+03 0.  0.
         23    2    4    4    0    0  0.63830781025E+02 -0.63341338062E+02  0.12368686021E+03  0.17626213584E+03  0.87655047930E+02 0.  0.
         23    2    4    4    0    0 -0.51509554485E+03  0.58823811164E+03  0.52568887616E+03  0.94652634542E+03  0.90641225376E+02 0.  0.
          3    1    3    3  502    0  0.35264606295E+03 -0.37064075938E+03 -0.38284200641E+03  0.63898499208E+03  0.00000000000E+00 0. -1.
         -3    1    3    3    0  502  0.98618700875E+02 -0.15425601420E+03 -0.19099192651E+03  0.26457226247E+03  0.00000000000E+00 0.  1.
         11    1    5    5    0    0  0.99920791977E+01 -0.48942810858E+02  0.10700165318E+03  0.11808723117E+03  0.00000000000E+00 0. -1.
        -11    1    5    5    0    0  0.53838701828E+02 -0.14398527205E+02  0.16685207036E+02  0.58174904675E+02  0.00000000000E+00 0.  1.
          1    1    6    6  503    0 -0.31817939566E+03  0.30287317853E+03  0.26856360679E+03  0.51487542278E+03  0.00000000000E+00 0. -1.
         -1    1    6    6    0  503 -0.19691614920E+03  0.28536493311E+03  0.25712526937E+03  0.43165092264E+03  0.00000000000E+00 0.  1.
<mgrwt>
<rscale>  0 0.79318220E+03</rscale>
<asrwt>0</asrwt>
<pdfrwt beam="1">  1        1 0.15006184E+00 0.79318220E+03</pdfrwt>
<pdfrwt beam="2">  1       -1 0.16168366E+00 0.79318220E+03</pdfrwt>
<totfact> 0.46253775E+00</totfact>
</mgrwt>
</event>
<event>
12    1  0.1432447E-007  0.1181584E+04  0.7818608E-02  0.9129131E-01
          1   -1    0    0  501    0  0.00000000000E+00  0.00000000000E+00  0.25381021296E+04  0.25381021296E+04  0.00000000000E+00 0. -1.
         -1   -1    0    0    0  501 -0.00000000000E+00 -0.00000000000E+00 -0.58433680718E+03  0.58433680718E+03  0.00000000000E+00 0.  1.
         23    2    1    2    0    0 -0.36326268662E+03 -0.10777373673E+04  0.10514379134E+04  0.15515700333E+04  0.91489180830E+02 0.  0.
    5000000    2    1    2    0    0  0.36326268662E+03  0.10777373673E+04  0.90232740903E+03  0.15708689035E+04  0.59996395445E+03 0.  0.
         23    2    4    4    0    0  0.44941269506E+03  0.76220125813E+03  0.84324439414E+03  0.12257216694E+04  0.91705911254E+02 0.  0.
         23    2    4    4    0    0 -0.86150008432E+02  0.31553610913E+03  0.59083014890E+02  0.34514723413E+03  0.93010485760E+02 0.  0.
          1    1    3    3  502    0 -0.12028386044E+03 -0.25390461175E+03  0.23014026132E+03  0.36318080736E+03  0.00000000000E+00 0. -1.
         -1    1    3    3    0  502 -0.24297882619E+03 -0.82383275550E+03  0.82129765210E+03  0.11883892260E+04  0.00000000000E+00 0.  1.
         11    1    5    5    0    0  0.27496487824E+03  0.38113102018E+03  0.46627249352E+03  0.66202460455E+03  0.00000000000E+00 0.  1.
        -11    1    5    5    0    0  0.17444781681E+03  0.38107023795E+03  0.37697190062E+03  0.56369706483E+03  0.00000000000E+00 0. -1.
          3    1    6    6  503    0 -0.70444120781E+02  0.12856641762E+03  0.57608362884E+02  0.15751324187E+03  0.00000000000E+00 0. -1.
         -3    1    6    6    0  503 -0.15705887651E+02  0.18696969151E+03  0.14746520059E+01  0.18763399225E+03  0.00000000000E+00 0.  1.
<mgrwt>
<rscale>  0 0.11815838E+04</rscale>
<asrwt>0</asrwt>
<pdfrwt beam="1">  1        1 0.39047724E+00 0.11815838E+04</pdfrwt>
<pdfrwt beam="2">  1       -1 0.89897972E-01 0.11815838E+04</pdfrwt>
<totfact> 0.15339050E+00</totfact>
</mgrwt>
</event>
<event>
12    1  0.1432447E-007  0.9387199E+03  0.7818608E-02  0.9378433E-01
          1   -1    0    0  501    0  0.00000000000E+00  0.00000000000E+00  0.24498595684E+04  0.24498595684E+04  0.00000000000E+00 0. -1.
         -1   -1    0    0    0  501 -0.00000000000E+00 -0.00000000000E+00 -0.77176617542E+03  0.77176617542E+03  0.00000000000E+00 0.  1.
         23    2    1    2    0    0  0.84287037727E+03 -0.15811824413E+03 -0.35730990890E+03  0.93311493920E+03  0.87185243970E+02 0.  0.
    5000000    2    1    2    0    0 -0.84287037727E+03  0.15811824413E+03  0.20354033019E+04  0.22885108047E+04  0.59915210883E+03 0.  0.
         23    2    4    4    0    0 -0.27609707235E+03 -0.20323866533E+03  0.87348189367E+03  0.94291221710E+03  0.92613617497E+02 0.  0.
         23    2    4    4    0    0 -0.56677330491E+03  0.36135690946E+03  0.11619214083E+04  0.13455985876E+04  0.93613058269E+02 0.  0.
          1    1    3    3  502    0  0.61015253039E+03 -0.97727788538E+02 -0.21806872414E+03  0.65527917672E+03  0.00000000000E+00 0. -1.
         -1    1    3    3    0  502  0.23271784687E+03 -0.60390455591E+02 -0.13924118476E+03  0.27783576248E+03  0.00000000000E+00 0.  1.
         13    1    5    5    0    0 -0.16079109622E+03 -0.13490242612E+03  0.64185268985E+03  0.67529794659E+03  0.00000000000E+00 0. -1.
        -13    1    5    5    0    0 -0.11530597614E+03 -0.68336239203E+02  0.23162920382E+03  0.26761427051E+03  0.00000000000E+00 0.  1.
          3    1    6    6  503    0 -0.99584176044E+02  0.93689490910E+02  0.29380157508E+03  0.32405878224E+03  0.00000000000E+00 0. -1.
         -3    1    6    6    0  503 -0.46718912887E+03  0.26766741855E+03  0.86811983317E+03  0.10215398053E+04  0.00000000000E+00 0.  1.
<mgrwt>
<rscale>  0 0.93871991E+03</rscale>
<asrwt>0</asrwt>
<pdfrwt beam="1">  1        1 0.37690147E+00 0.93871991E+03</pdfrwt>
<pdfrwt beam="2">  1       -1 0.11873326E+00 0.93871991E+03</pdfrwt>
<totfact> 0.95871088E-01</totfact>
</mgrwt>
</event>
<event>
12    1  0.1432447E-007  0.4635286E+03  0.7818608E-02  0.1023763E+00
         -1   -1    0    0    0  501 -0.00000000000E+00  0.00000000000E+00  0.17435393340E+03  0.17435393340E+03  0.00000000000E+00 0.  1.
          1   -1    0    0  501    0  0.00000000000E+00 -0.00000000000E+00 -0.12832338537E+04  0.12832338537E+04  0.00000000000E+00 0. -1.
         23    2    1    2    0    0 -0.25694961630E+03 -0.90625522114E+02 -0.35613304629E+03  0.45715121350E+03  0.88996599770E+02 0.  0.
    5000000    2    1    2    0    0  0.25694961630E+03  0.90625522114E+02 -0.75274687401E+03  0.10004365736E+04  0.60000782569E+03 0.  0.
         23    2    4    4    0    0 -0.10405145166E+03  0.22324533145E+03 -0.28243068803E+03  0.38591213327E+03  0.92173198130E+02 0.  0.
         23    2    4    4    0    0  0.36100106796E+03 -0.13261980933E+03 -0.47031618598E+03  0.61452444033E+03  0.92375256863E+02 0.  0.
          2    1    3    3  502    0 -0.69382874568E+02 -0.60470534097E+02 -0.15660866489E+03  0.18165060610E+03  0.00000000000E+00 0. -1.
         -2    1    3    3    0  502 -0.18756674173E+03 -0.30154988017E+02 -0.19952438140E+03  0.27550060740E+03  0.00000000000E+00 0.  1.
         11    1    5    5    0    0 -0.29536713320E+02  0.15559702171E+03 -0.20432559108E+03  0.25851846697E+03  0.00000000000E+00 0. -1.
        -11    1    5    5    0    0 -0.74514738342E+02  0.67648309741E+02 -0.78105096957E+02  0.12739366629E+03  0.00000000000E+00 0.  1.
          3    1    6    6  503    0  0.16960418609E+03 -0.80031728487E+02 -0.29571691133E+03  0.35017017170E+03  0.00000000000E+00 0. -1.
         -3    1    6    6    0  503  0.19139688187E+03 -0.52588080845E+02 -0.17459927465E+03  0.26435426863E+03  0.00000000000E+00 0.  1.
<mgrwt>
<rscale>  0 0.46352861E+03</rscale>
<asrwt>0</asrwt>
<pdfrwt beam="1">  1        1 0.19742059E+00 0.46352861E+03</pdfrwt>
<pdfrwt beam="2">  1       -1 0.26823682E-01 0.46352861E+03</pdfrwt>
<totfact> 0.12115360E+02</totfact>
</mgrwt>
</event>
<event>
12    1  0.1432447E-007  0.7323354E+03  0.7818608E-02  0.9663478E-01
         -1   -1    0    0    0  501 -0.00000000000E+00  0.00000000000E+00  0.11746908600E+04  0.11746908600E+04  0.00000000000E+00 0.  1.
          1   -1    0    0  501    0  0.00000000000E+00 -0.00000000000E+00 -0.12583959673E+04  0.12583959673E+04  0.00000000000E+00 0. -1.
         23    2    1    2    0    0 -0.39370524965E+02  0.71830288470E+03 -0.92402547762E+03  0.11746388320E+04  0.91892491773E+02 0.  0.
    5000000    2    1    2    0    0  0.39370524965E+02 -0.71830288470E+03  0.84032037032E+03  0.12584479953E+04  0.60003663198E+03 0.  0.
         23    2    4    4    0    0 -0.56520690377E+02 -0.28666479068E+03  0.72987551279E+03  0.79158386154E+03  0.92279223190E+02 0.  0.
         23    2    4    4    0    0  0.95891215343E+02 -0.43163809402E+03  0.11044485753E+03  0.46686413377E+03  0.10127923504E+03 0.  0.
          3    1    3    3  502    0 -0.16849894993E+02  0.53942343685E+03 -0.62805145354E+03  0.82807619908E+03  0.00000000000E+00 0. -1.
         -3    1    3    3    0  502 -0.22520629972E+02  0.17887944786E+03 -0.29597402408E+03  0.34656263297E+03  0.00000000000E+00 0.  1.
         11    1    5    5    0    0 -0.13685490953E+02 -0.21991162054E+03  0.60258191334E+03  0.64160219435E+03  0.00000000000E+00 0. -1.
        -11    1    5    5    0    0 -0.42835199425E+02 -0.66753170142E+02  0.12729359945E+03  0.14998166719E+03  0.00000000000E+00 0.  1.
          2    1    6    6  503    0  0.79501825065E+02 -0.24262092525E+03  0.18366203685E+02  0.25597416080E+03  0.00000000000E+00 0. -1.
         -2    1    6    6    0  503  0.16389390277E+02 -0.18901716877E+03  0.92078653847E+02  0.21088997297E+03  0.00000000000E+00 0.  1.
<mgrwt>
<rscale>  0 0.73233537E+03</rscale>
<asrwt>0</asrwt>
<pdfrwt beam="1">  1        1 0.19359938E+00 0.73233537E+03</pdfrwt>
<pdfrwt beam="2">  1       -1 0.18072167E+00 0.73233537E+03</pdfrwt>
<totfact> 0.20888428E+00</totfact>
</mgrwt>
</event>
<event>
12    1  0.1432447E-007  0.1093727E+04  0.7818608E-02  0.9211327E-01
          1   -1    0    0  501    0  0.00000000000E+00  0.00000000000E+00  0.10764346403E+04  0.10764346403E+04  0.00000000000E+00 0. -1.
         -1   -1    0    0    0  501 -0.00000000000E+00 -0.00000000000E+00 -0.12756944347E+04  0.12756944347E+04  0.00000000000E+00 0.  1.
         23    2    1    2    0    0  0.24151570442E+03  0.10521478682E+04  0.77922026520E+02  0.10863417928E+04  0.93389915608E+02 0.  0.
    5000000    2    1    2    0    0 -0.24151570442E+03 -0.10521478682E+04 -0.27718182095E+03  0.12657872822E+04  0.60003559048E+03 0.  0.
         23    2    4    4    0    0  0.30117258984E+02 -0.31403692624E+03  0.15599050922E+03  0.36329425212E+03  0.90130096676E+02 0.  0.
         23    2    4    4    0    0 -0.27163296341E+03 -0.73811094200E+03 -0.43317233017E+03  0.90249303010E+03  0.90901992465E+02 0.  0.
          3    1    3    3  502    0  0.12433159386E+03  0.72669507919E+03  0.66479041552E+02  0.74024559865E+03  0.00000000000E+00 0. -1.
         -3    1    3    3    0  502  0.11718411056E+03  0.32545278906E+03  0.11442984967E+02  0.34609619411E+03  0.00000000000E+00 0.  1.
         13    1    5    5    0    0 -0.82105993892E+01 -0.36814577983E+02  0.53072480299E+02  0.65110792189E+02  0.00000000000E+00 0. -1.
        -13    1    5    5    0    0  0.38327858373E+02 -0.27722234826E+03  0.10291802893E+03  0.29818345993E+03  0.00000000000E+00 0.  1.
          3    1    6    6  503    0 -0.22559400551E+02 -0.48149426156E+02 -0.57613146531E+02  0.78400053862E+02  0.00000000000E+00 0. -1.
         -3    1    6    6    0  503 -0.24907356286E+03 -0.68996151585E+03 -0.37555918364E+03  0.82409297624E+03  0.00000000000E+00 0.  1.
<mgrwt>
<rscale>  0 0.10937273E+04</rscale>
<asrwt>0</asrwt>
<pdfrwt beam="1">  1        1 0.16560533E+00 0.10937273E+04</pdfrwt>
<pdfrwt beam="2">  1       -1 0.19626068E+00 0.10937273E+04</pdfrwt>
<totfact> 0.20948211E+00</totfact>
</mgrwt>
</event>
<event>
12    1  0.1432447E-007  0.6499326E+03  0.7818608E-02  0.9806906E-01
          2   -1    0    0  501    0  0.00000000000E+00  0.00000000000E+00  0.14297140058E+04  0.14297140058E+04  0.00000000000E+00 0.  1.
         -2   -1    0    0    0  501 -0.00000000000E+00 -0.00000000000E+00 -0.31267422377E+03  0.31267422377E+03  0.00000000000E+00 0. -1.
         23    2    1    2    0    0 -0.14493665559E+03  0.50137774988E+03  0.56700933841E+03  0.77548797241E+03  0.86577845346E+02 0.  0.
    5000000    2    1    2    0    0  0.14493665559E+03 -0.50137774988E+03  0.55003044358E+03  0.96690025711E+03  0.59998027979E+03 0.  0.
         23    2    4    4    0    0 -0.19439383777E+03 -0.33841056366E+03  0.34564083868E+03  0.52938659407E+03  0.92042940297E+02 0.  0.
         23    2    4    4    0    0  0.33933049335E+03 -0.16296718622E+03  0.20438960490E+03  0.43751366304E+03  0.89104473825E+02 0.  0.
          4    1    3    3  502    0 -0.95752212413E+02  0.34860039132E+03  0.33152686760E+03  0.49051073683E+03  0.00000000000E+00 0. -1.
         -4    1    3    3    0  502 -0.49184443172E+02  0.15277735856E+03  0.23548247080E+03  0.28497723557E+03  0.00000000000E+00 0.  1.
         13    1    5    5    0    0 -0.62443050076E+02 -0.85070121136E+02  0.14906804148E+03  0.18263992171E+03  0.00000000000E+00 0.  1.
        -13    1    5    5    0    0 -0.13195078769E+03 -0.25334044252E+03  0.19657279720E+03  0.34674667235E+03  0.00000000000E+00 0. -1.
          4    1    6    6  503    0  0.19043318222E+03 -0.42409063291E+02  0.10930290939E+03  0.22363016688E+03  0.00000000000E+00 0. -1.
         -4    1    6    6    0  503  0.14889731113E+03 -0.12055812293E+03  0.95086695510E+02  0.21388349616E+03  0.00000000000E+00 0.  1.
<mgrwt>
<rscale>  0 0.64993263E+03</rscale>
<asrwt>0</asrwt>
<pdfrwt beam="1">  1        2 0.21995600E+00 0.64993263E+03</pdfrwt>
<pdfrwt beam="2">  1       -2 0.48103728E-01 0.64993263E+03</pdfrwt>
<totfact> 0.58742094E+01</totfact>
</mgrwt>
</event>
<event>
12    1  0.1432447E-007  0.1741028E+04  0.7818608E-02  0.8738305E-01
         -1   -1    0    0    0  501 -0.00000000000E+00  0.00000000000E+00  0.13820105643E+04  0.13820105643E+04  0.00000000000E+00 0. -1.
          1   -1    0    0  501    0  0.00000000000E+00 -0.00000000000E+00 -0.24746181603E+04  0.24746181603E+04  0.00000000000E+00 0.  1.
         23    2    1    2    0    0 -0.37638019973E+03  0.16949085004E+04 -0.39170455967E+02  0.17390332057E+04  0.91243006790E+02 0.  0.
    5000000    2    1    2    0    0  0.37638019973E+03 -0.16949085004E+04 -0.10534371400E+04  0.21175955189E+04  0.60008673882E+03 0.  0.
         23    2    4    4    0    0  0.22078593540E+03 -0.12301611694E+04 -0.44264868311E+03  0.13289796545E+04  0.90587711180E+02 0.  0.
         23    2    4    4    0    0  0.15559426433E+03 -0.46474733104E+03 -0.61078845690E+03  0.78861586441E+03  0.93020351112E+02 0.  0.
          1    1    3    3  502    0 -0.33631444772E+03  0.16013562113E+04 -0.26775013875E+02  0.16365103191E+04  0.00000000000E+00 0. -1.
         -1    1    3    3    0  502 -0.40065752010E+02  0.93552289102E+02 -0.12395442092E+02  0.10252288654E+03  0.00000000000E+00 0.  1.
         11    1    5    5    0    0  0.85368722887E+02 -0.64521398915E+03 -0.26619687621E+03  0.70317116518E+03  0.00000000000E+00 0. -1.
        -11    1    5    5    0    0  0.13541721252E+03 -0.58494718022E+03 -0.17645180689E+03  0.62580848928E+03  0.00000000000E+00 0.  1.
          3    1    6    6  503    0  0.10377323007E+03 -0.22980597229E+03 -0.37390619344E+03  0.45098282635E+03  0.00000000000E+00 0. -1.
         -3    1    6    6    0  503  0.51821034262E+02 -0.23494135875E+03 -0.23688226347E+03  0.33763303806E+03  0.00000000000E+00 0.  1.
<mgrwt>
<rscale>  0 0.17410276E+04</rscale>
<asrwt>0</asrwt>
<pdfrwt beam="1">  1        1 0.38071048E+00 0.17410276E+04</pdfrwt>
<pdfrwt beam="2">  1       -1 0.21261701E+00 0.17410276E+04</pdfrwt>
<totfact> 0.15999350E-01</totfact>
</mgrwt>
</event>
<event>
12    1  0.1432447E-007  0.6357308E+03  0.7818608E-02  0.9833929E-01
          2   -1    0    0  501    0  0.00000000000E+00  0.00000000000E+00  0.56519815691E+03  0.56519815691E+03  0.00000000000E+00 0. -1.
         -2   -1    0    0    0  501 -0.00000000000E+00 -0.00000000000E+00 -0.85925019985E+03  0.85925019985E+03  0.00000000000E+00 0.  1.
         23    2    1    2    0    0  0.53380629060E+03 -0.17778135814E+03 -0.87712409130E+02  0.57639912766E+03  0.89370691285E+02 0.  0.
    5000000    2    1    2    0    0 -0.53380629060E+03  0.17778135814E+03 -0.20633963381E+03  0.84804922910E+03  0.60004673427E+03 0.  0.
         23    2    4    4    0    0 -0.11585625217E+03  0.24491543576E+03  0.11509994767E+03  0.30812624036E+03  0.91035928108E+02 0.  0.
         23    2    4    4    0    0 -0.41795003843E+03 -0.67134077618E+02 -0.32143958148E+03  0.53992298873E+03  0.94890517009E+02 0.  0.
          1    1    3    3  502    0  0.19808884214E+03 -0.10602442476E+03 -0.56559233027E+02  0.23168796876E+03  0.00000000000E+00 0. -1.
         -1    1    3    3    0  502  0.33571744846E+03 -0.71756933381E+02 -0.31153176103E+02  0.34471115890E+03  0.00000000000E+00 0.  1.
         11    1    5    5    0    0 -0.57162797169E+02  0.86255465697E+02 -0.65997963496E-01  0.10347751011E+03  0.00000000000E+00 0. -1.
        -11    1    5    5    0    0 -0.58693455002E+02  0.15865997006E+03  0.11516594564E+03  0.20464873025E+03  0.00000000000E+00 0.  1.
          1    1    6    6  503    0 -0.49678848999E+02  0.18025155339E+02 -0.61983835766E+02  0.81454835087E+02  0.00000000000E+00 0. -1.
         -1    1    6    6    0  503 -0.36827118943E+03 -0.85159232957E+02 -0.25945574572E+03  0.45846815365E+03  0.00000000000E+00 0.  1.
<mgrwt>
<rscale>  0 0.63573081E+03</rscale>
<asrwt>0</asrwt>
<pdfrwt beam="1">  1        2 0.86953563E-01 0.63573081E+03</pdfrwt>
<pdfrwt beam="2">  1       -2 0.13219234E+00 0.63573081E+03</pdfrwt>
<totfact> 0.22715693E+01</totfact>
</mgrwt>
</event>
<event>
12    1  0.1432447E-007  0.1360266E+04  0.7818608E-02  0.8983093E-01
          1   -1    0    0  501    0  0.00000000000E+00  0.00000000000E+00  0.11842479956E+04  0.11842479956E+04  0.00000000000E+00 0. -1.
         -1   -1    0    0    0  501 -0.00000000000E+00 -0.00000000000E+00 -0.17259767990E+04  0.17259767990E+04  0.00000000000E+00 0.  1.
         23    2    1    2    0    0 -0.12432710634E+04 -0.39629400660E+03  0.14872107031E+03  0.13166930043E+04  0.93758382446E+02 0.  0.
    5000000    2    1    2    0    0  0.12432710634E+04  0.39629400660E+03 -0.69044987377E+03  0.15935317903E+04  0.59987553858E+03 0.  0.
         23    2    4    4    0    0  0.86620784660E+00  0.12592672978E+03 -0.31083574940E+02  0.15858336182E+03  0.91237067174E+02 0.  0.
         23    2    4    4    0    0  0.12424048555E+04  0.27036727682E+03 -0.65936629883E+03  0.14349484285E+04  0.87434472198E+02 0.  0.
          2    1    3    3  502    0 -0.89002509624E+03 -0.25491590991E+03  0.72494634537E+02  0.92864539255E+03  0.00000000000E+00 0. -1.
         -2    1    3    3    0  502 -0.35324596711E+03 -0.14137809669E+03  0.76226435776E+02  0.38804761179E+03  0.00000000000E+00 0.  1.
         13    1    5    5    0    0 -0.32475270395E+02  0.69354413801E+02 -0.48499063943E+02  0.90646771063E+02  0.00000000000E+00 0. -1.
        -13    1    5    5    0    0  0.33341478242E+02  0.56572315975E+02  0.17415489003E+02  0.67936590754E+02  0.00000000000E+00 0.  1.
          2    1    6    6  503    0  0.12055493544E+04  0.25601426611E+03 -0.65346643242E+03  0.13949591136E+04  0.00000000000E+00 0. -1.
         -2    1    6    6    0  503  0.36855501084E+02  0.14353010707E+02 -0.58998664154E+01  0.39989314826E+02  0.00000000000E+00 0.  1.
<mgrwt>
<rscale>  0 0.13602657E+04</rscale>
<asrwt>0</asrwt>
<pdfrwt beam="1">  1        1 0.18219200E+00 0.13602657E+04</pdfrwt>
<pdfrwt beam="2">  1       -1 0.26553489E+00 0.13602657E+04</pdfrwt>
<totfact> 0.58386468E-01</totfact>
</mgrwt>
</event>
<event>
12    1  0.1432447E-007  0.6952079E+03  0.7818608E-02  0.9725463E-01
          2   -1    0    0  501    0  0.00000000000E+00  0.00000000000E+00  0.60125260071E+03  0.60125260071E+03  0.00000000000E+00 0.  1.
         -2   -1    0    0    0  501 -0.00000000000E+00 -0.00000000000E+00 -0.12149242727E+04  0.12149242727E+04  0.00000000000E+00 0. -1.
         23    2    1    2    0    0 -0.66386704220E+03  0.82518871439E+02 -0.62109317683E+03  0.91755250857E+03  0.92828108998E+02 0.  0.
    5000000    2    1    2    0    0  0.66386704220E+03 -0.82518871439E+02  0.74215048468E+01  0.89862436482E+03  0.59995154510E+03 0.  0.
         23    2    4    4    0    0  0.45803456394E+03  0.61968371622E+02 -0.24492771552E+03  0.53077671916E+03  0.89992215937E+02 0.  0.
         23    2    4    4    0    0  0.20583247826E+03 -0.14448724306E+03  0.25234922036E+03  0.36784764566E+03  0.91587056345E+02 0.  0.
          1    1    3    3  502    0 -0.26882724902E+03  0.32672970754E+02 -0.19062145505E+03  0.33116786070E+03  0.00000000000E+00 0. -1.
         -1    1    3    3    0  502 -0.39503979318E+03  0.49845900685E+02 -0.43047172178E+03  0.58638464787E+03  0.00000000000E+00 0.  1.
         11    1    5    5    0    0  0.25798998756E+03  0.23555581812E+02 -0.87868904841E+02  0.27355921398E+03  0.00000000000E+00 0. -1.
        -11    1    5    5    0    0  0.20004457638E+03  0.38412789810E+02 -0.15705881068E+03  0.25721750518E+03  0.00000000000E+00 0.  1.
          4    1    6    6  503    0  0.62007111671E+01 -0.25566465229E+02  0.62408937266E+02  0.67727161567E+02  0.00000000000E+00 0. -1.
         -4    1    6    6    0  503  0.19963176709E+03 -0.11892077783E+03  0.18994028310E+03  0.30012048410E+03  0.00000000000E+00 0.  1.
<mgrwt>
<rscale>  0 0.69520793E+03</rscale>
<asrwt>0</asrwt>
<pdfrwt beam="1">  1        2 0.92500401E-01 0.69520793E+03</pdfrwt>
<pdfrwt beam="2">  1       -2 0.18691143E+00 0.69520793E+03</pdfrwt>
<totfact> 0.82445798E+00</totfact>
</mgrwt>
</event>
<event>
12    1  0.1432447E-007  0.5477897E+03  0.7818608E-02  0.1002007E+00
         -2   -1    0    0    0  501 -0.00000000000E+00  0.00000000000E+00  0.32522327457E+03  0.32522327457E+03  0.00000000000E+00 0. -1.
          2   -1    0    0  501    0  0.00000000000E+00 -0.00000000000E+00 -0.10236571366E+04  0.10236571366E+04  0.00000000000E+00 0.  1.
         23    2    1    2    0    0 -0.39343594414E+03  0.30711679492E+02 -0.40478103441E+03  0.57301304846E+03  0.93601380818E+02 0.  0.
    5000000    2    1    2    0    0  0.39343594414E+03 -0.30711679492E+02 -0.29365282762E+03  0.77586736270E+03  0.60000260994E+03 0.  0.
         23    2    4    4    0    0  0.27263437270E+03 -0.28548176393E+03 -0.92316056792E+02  0.41574905008E+03  0.92172010854E+02 0.  0.
         23    2    4    4    0    0  0.12080157144E+03  0.25477008444E+03 -0.20133677083E+03  0.36011831262E+03  0.98223664183E+02 0.  0.
          4    1    3    3  502    0 -0.30423054274E+03 -0.15832043227E+02 -0.31397785414E+03  0.43748025054E+03  0.00000000000E+00 0. -1.
         -4    1    3    3    0  502 -0.89205401405E+02  0.46543722719E+02 -0.90803180270E+02  0.13553279792E+03  0.00000000000E+00 0.  1.
         11    1    5    5    0    0  0.16480714711E+03 -0.19497752194E+03 -0.10135783000E+03  0.27468352609E+03  0.00000000000E+00 0.  1.
        -11    1    5    5    0    0  0.10782722559E+03 -0.90504241989E+02  0.90417732068E+01  0.14106552399E+03  0.00000000000E+00 0. -1.
          4    1    6    6  503    0  0.12469380207E+03  0.17774528846E+03 -0.17418094391E+03  0.27835397081E+03  0.00000000000E+00 0. -1.
         -4    1    6    6    0  503 -0.38922306351E+01  0.77024795978E+02 -0.27155826921E+02  0.81764341803E+02  0.00000000000E+00 0.  1.
<mgrwt>
<rscale>  0 0.54778973E+03</rscale>
<asrwt>0</asrwt>
<pdfrwt beam="1">  1        2 0.15748571E+00 0.54778973E+03</pdfrwt>
<pdfrwt beam="2">  1       -2 0.50034349E-01 0.54778973E+03</pdfrwt>
<totfact> 0.94879103E+01</totfact>
</mgrwt>
</event>
<event>
12    1  0.1432447E-007  0.7165292E+03  0.7818608E-02  0.9689375E-01
          1   -1    0    0  501    0  0.00000000000E+00  0.00000000000E+00  0.11485560179E+04  0.11485560179E+04  0.00000000000E+00 0. -1.
         -1   -1    0    0    0  501 -0.00000000000E+00 -0.00000000000E+00 -0.65511646362E+03  0.65511646362E+03  0.00000000000E+00 0.  1.
         23    2    1    2    0    0  0.68078156565E+03 -0.51248581552E+02  0.56632469685E+03  0.89189261191E+03  0.93052735985E+02 0.  0.
    5000000    2    1    2    0    0 -0.68078156565E+03  0.51248581552E+02 -0.72885142606E+02  0.91177986958E+03  0.59995027238E+03 0.  0.
         23    2    4    4    0    0 -0.60157630169E+02  0.67076246874E+02  0.19239181698E+03  0.22976520645E+03  0.87517286818E+02 0.  0.
         23    2    4    4    0    0 -0.62062393548E+03 -0.15827665322E+02 -0.26527695959E+03  0.68201466313E+03  0.96682734523E+02 0.  0.
          4    1    3    3  502    0  0.20132571136E+03  0.11258963382E+02  0.12492374902E+03  0.23720191690E+03  0.00000000000E+00 0. -1.
         -4    1    3    3    0  502  0.47945585428E+03 -0.62507544934E+02  0.44140094783E+03  0.65469069500E+03  0.00000000000E+00 0.  1.
         11    1    5    5    0    0  0.45362872578E+01  0.55513969999E+02  0.59446167396E+02  0.81463032016E+02  0.00000000000E+00 0.  1.
        -11    1    5    5    0    0 -0.64693917427E+02  0.11562276875E+02  0.13294564959E+03  0.14830217444E+03  0.00000000000E+00 0. -1.
          2    1    6    6  503    0 -0.37405246309E+03 -0.50658797398E+02 -0.13427167688E+03  0.40063754456E+03  0.00000000000E+00 0. -1.
         -2    1    6    6    0  503 -0.24657147239E+03  0.34831132076E+02 -0.13100528271E+03  0.28137711857E+03  0.00000000000E+00 0.  1.
<mgrwt>
<rscale>  0 0.71652919E+03</rscale>
<asrwt>0</asrwt>
<pdfrwt beam="1">  1        1 0.17670093E+00 0.71652919E+03</pdfrwt>
<pdfrwt beam="2">  1       -1 0.10078715E+00 0.71652919E+03</pdfrwt>
<totfact> 0.11334700E+01</totfact>
</mgrwt>
</event>
<event>
12    1  0.1953331E-007  0.1325952E+04  0.7818608E-02  0.9009234E-01
          2   -1    0    0  501    0  0.00000000000E+00  0.00000000000E+00  0.20995839832E+04  0.20995839832E+04  0.00000000000E+00 0. -1.
         -2   -1    0    0    0  501 -0.00000000000E+00 -0.00000000000E+00 -0.11405972896E+04  0.11405972896E+04  0.00000000000E+00 0.  1.
         23    2    1    2    0    0 -0.12904851776E+04  0.25530453945E+03  0.11899725877E+04  0.17760122763E+04  0.87478251638E+02 0.  0.
    5000000    2    1    2    0    0  0.12904851776E+04 -0.25530453945E+03 -0.23098589405E+03  0.14641689965E+04  0.59991996615E+03 0.  0.
         23    2    4    4    0    0  0.10172059613E+04 -0.28100123202E+03 -0.39608155096E+03  0.11308910545E+04  0.91456667680E+02 0.  0.
         23    2    4    4    0    0  0.27327921626E+03  0.25696692570E+02  0.16509565691E+03  0.33327794202E+03  0.92063894429E+02 0.  0.
          2    1    3    3  502    0 -0.77184484125E+03  0.17966493622E+03  0.76128901069E+03  0.10989016817E+04  0.00000000000E+00 0. -1.
         -2    1    3    3    0  502 -0.51864033632E+03  0.75639603228E+02  0.42868357704E+03  0.67711059456E+03  0.00000000000E+00 0.  1.
         13    1    5    5    0    0  0.53360883446E+03 -0.18196129458E+03 -0.17783660294E+03  0.59116339390E+03  0.00000000000E+00 0. -1.
        -13    1    5    5    0    0  0.48359712685E+03 -0.99039937438E+02 -0.21824494802E+03  0.53972766062E+03  0.00000000000E+00 0.  1.
          4    1    6    6  503    0  0.17951719107E+03  0.37464958641E+02  0.62375504951E+02  0.19370273264E+03  0.00000000000E+00 0.  1.
         -4    1    6    6    0  503  0.93762025192E+02 -0.11768266071E+02  0.10272015196E+03  0.13957520938E+03  0.00000000000E+00 0. -1.
<mgrwt>
<rscale>  0 0.13259521E+04</rscale>
<asrwt>0</asrwt>
<pdfrwt beam="1">  1        2 0.32301292E+00 0.13259521E+04</pdfrwt>
<pdfrwt beam="2">  1       -2 0.17547651E+00 0.13259521E+04</pdfrwt>
<totfact> 0.10985473E+00</totfact>
</mgrwt>
</event>
<event>
12    1  0.1432447E-007  0.6346559E+03  0.7818608E-02  0.9836005E-01
          1   -1    0    0  501    0  0.00000000000E+00  0.00000000000E+00  0.95906543964E+03  0.95906543964E+03  0.00000000000E+00 0. -1.
         -1   -1    0    0    0  501 -0.00000000000E+00 -0.00000000000E+00 -0.70937226592E+03  0.70937226592E+03  0.00000000000E+00 0.  1.
         23    2    1    2    0    0 -0.50900257048E+03 -0.11141401007E+02 -0.39468115487E+03  0.65136631109E+03  0.96421520683E+02 0.  0.
    5000000    2    1    2    0    0  0.50900257048E+03  0.11141401007E+02  0.64437432859E+03  0.10170713945E+04  0.60000683206E+03 0.  0.
         23    2    4    4    0    0  0.22970693493E+03  0.27027499008E+03  0.17492688475E+03  0.40565535781E+03  0.90238617529E+02 0.  0.
         23    2    4    4    0    0  0.27929563555E+03 -0.25913358907E+03  0.46944744384E+03  0.61141603666E+03  0.91062606663E+02 0.  0.
          2    1    3    3  502    0 -0.32353700589E+03  0.22638777937E+02 -0.20356833043E+03  0.38292136739E+03  0.00000000000E+00 0. -1.
         -2    1    3    3    0  502 -0.18546556459E+03 -0.33780178944E+02 -0.19111282444E+03  0.26844494371E+03  0.00000000000E+00 0.  1.
         13    1    5    5    0    0  0.18355798615E+03  0.26074873989E+03  0.15269661130E+03  0.35355295888E+03  0.00000000000E+00 0. -1.
        -13    1    5    5    0    0  0.46148948774E+02  0.95262501883E+01  0.22230273455E+02  0.52102398923E+02  0.00000000000E+00 0.  1.
          1    1    6    6  503    0  0.65151492128E+02 -0.11551575542E+03  0.18313325362E+03  0.22611146645E+03  0.00000000000E+00 0. -1.
         -1    1    6    6    0  503  0.21414414342E+03 -0.14361783365E+03  0.28631419022E+03  0.38530457021E+03  0.00000000000E+00 0.  1.
<mgrwt>
<rscale>  0 0.63465588E+03</rscale>
<asrwt>0</asrwt>
<pdfrwt beam="1">  1        1 0.14754853E+00 0.63465588E+03</pdfrwt>
<pdfrwt beam="2">  1       -1 0.10913419E+00 0.63465588E+03</pdfrwt>
<totfact> 0.13282601E+01</totfact>
</mgrwt>
</event>
<event>
12    1  0.1432447E-007  0.3395892E+03  0.7818608E-02  0.1066971E+00
          2   -1    0    0  501    0  0.00000000000E+00  0.00000000000E+00  0.13383811324E+04  0.13383811324E+04  0.00000000000E+00 0. -1.
         -2   -1    0    0    0  501 -0.00000000000E+00 -0.00000000000E+00 -0.20564290519E+03  0.20564290519E+03  0.00000000000E+00 0.  1.
         23    2    1    2    0    0 -0.12221067911E+03  0.24084090592E+03  0.70155475659E+03  0.75731765723E+03  0.91712406006E+02 0.  0.
    5000000    2    1    2    0    0  0.12221067911E+03 -0.24084090592E+03  0.43118347059E+03  0.78670638033E+03  0.60003995824E+03 0.  0.
         23    2    4    4    0    0  0.28989989445E+02 -0.28975107762E+03 -0.28333994849E+02  0.30640867113E+03  0.91034894460E+02 0.  0.
         23    2    4    4    0    0  0.93220689668E+02  0.48910171705E+02  0.45951746544E+03  0.48029770920E+03  0.91909121089E+02 0.  0.
          2    1    3    3  502    0 -0.23306452023E+02  0.11693784938E+03  0.21857005241E+03  0.24897895319E+03  0.00000000000E+00 0. -1.
         -2    1    3    3    0  502 -0.98904227091E+02  0.12390305654E+03  0.48298470418E+03  0.50833870404E+03  0.00000000000E+00 0.  1.
         13    1    5    5    0    0 -0.11682563520E+02 -0.14924017391E+03  0.22855516034E+02  0.15143145780E+03  0.00000000000E+00 0. -1.
        -13    1    5    5    0    0  0.40672552965E+02 -0.14051090371E+03 -0.51189510883E+02  0.15497721333E+03  0.00000000000E+00 0.  1.
          1    1    6    6  503    0  0.17474236153E+02  0.11747756713E+02  0.29175426928E+03  0.29251309776E+03  0.00000000000E+00 0. -1.
         -1    1    6    6    0  503  0.75746453515E+02  0.37162414992E+02  0.16776319616E+03  0.18778461144E+03  0.00000000000E+00 0.  1.
<mgrwt>
<rscale>  0 0.33958921E+03</rscale>
<asrwt>0</asrwt>
<pdfrwt beam="1">  1        2 0.20590478E+00 0.33958921E+03</pdfrwt>
<pdfrwt beam="2">  1       -2 0.31637371E-01 0.33958921E+03</pdfrwt>
<totfact> 0.15463812E+02</totfact>
</mgrwt>
</event>
<event>
12    1  0.1432447E-007  0.3730501E+03  0.7818608E-02  0.1053533E+00
          2   -1    0    0  501    0  0.00000000000E+00  0.00000000000E+00  0.12757617095E+03  0.12757617095E+03  0.00000000000E+00 0. -1.
         -2   -1    0    0    0  501 -0.00000000000E+00 -0.00000000000E+00 -0.13507326671E+04  0.13507326671E+04  0.00000000000E+00 0.  1.
         23    2    1    2    0    0  0.17537470493E+03  0.42409926116E+02 -0.25669898607E+03  0.32657786955E+03  0.90575087479E+02 0.  0.
    5000000    2    1    2    0    0 -0.17537470493E+03 -0.42409926116E+02 -0.96645751007E+03  0.11517309685E+04  0.59990767290E+03 0.  0.
         23    2    4    4    0    0 -0.25584744654E+03 -0.22983340286E+03 -0.36421432910E+03  0.51010579861E+03  0.96304409458E+02 0.  0.
         23    2    4    4    0    0  0.80472741608E+02  0.18742347674E+03 -0.60224318097E+03  0.64162516987E+03  0.85921986741E+02 0.  0.
          1    1    3    3  502    0  0.94667043007E+01  0.13556871899E+02 -0.83070634665E+02  0.84700281048E+02  0.00000000000E+00 0. -1.
         -1    1    3    3    0  502  0.16590800063E+03  0.28853054217E+02 -0.17362835140E+03  0.24187758851E+03  0.00000000000E+00 0.  1.
         13    1    5    5    0    0 -0.14940346830E+03 -0.10594481189E+03 -0.13016109584E+03  0.22469448231E+03  0.00000000000E+00 0.  1.
        -13    1    5    5    0    0 -0.10644397823E+03 -0.12388859097E+03 -0.23405323326E+03  0.28541131630E+03  0.00000000000E+00 0. -1.
          4    1    6    6  503    0  0.89450716396E+02  0.13807894164E+03 -0.51887564247E+03  0.54433368179E+03  0.00000000000E+00 0. -1.
         -4    1    6    6    0  503 -0.89779747882E+01  0.49344535099E+02 -0.83367538500E+02  0.97291488071E+02  0.00000000000E+00 0.  1.
<mgrwt>
<rscale>  0 0.37305005E+03</rscale>
<asrwt>0</asrwt>
<pdfrwt beam="1">  1        2 0.19627103E-01 0.37305005E+03</pdfrwt>
<pdfrwt beam="2">  1       -2 0.20780502E+00 0.37305005E+03</pdfrwt>
<totfact> 0.36165755E+01</totfact>
</mgrwt>
</event>
<event>
12    1  0.1432447E-007  0.5509483E+03  0.7818608E-02  0.1001275E+00
         -1   -1    0    0    0  501 -0.00000000000E+00  0.00000000000E+00  0.67373346489E+03  0.67373346489E+03  0.00000000000E+00 0.  1.
          1   -1    0    0  501    0  0.00000000000E+00 -0.00000000000E+00 -0.14755500174E+04  0.14755500174E+04  0.00000000000E+00 0. -1.
         23    2    1    2    0    0 -0.40672495945E+03  0.36517316216E+03 -0.11418369806E+04  0.12691819742E+04  0.90854622068E+02 0.  0.
    5000000    2    1    2    0    0  0.40672495945E+03 -0.36517316216E+03  0.34002042807E+03  0.88010150811E+03  0.60015676458E+03 0.  0.
         23    2    4    4    0    0  0.23419290540E+03 -0.22290081064E+03  0.49111271105E+03  0.59505834051E+03  0.91496695721E+02 0.  0.
         23    2    4    4    0    0  0.17253205405E+03 -0.14227235153E+03 -0.15109228298E+03  0.28504316761E+03  0.91716943561E+02 0.  0.
          4    1    3    3  502    0 -0.82735931395E+02  0.84688213027E+02 -0.33986658058E+03  0.35989806941E+03  0.00000000000E+00 0. -1.
         -4    1    3    3    0  502 -0.32398902806E+03  0.28048494914E+03 -0.80197040000E+03  0.90928390477E+03  0.00000000000E+00 0.  1.
         13    1    5    5    0    0  0.34829327078E+02 -0.55288629305E+02  0.16653998034E+03  0.17890075351E+03  0.00000000000E+00 0. -1.
        -13    1    5    5    0    0  0.19936357832E+03 -0.16761218133E+03  0.32457273071E+03  0.41615758699E+03  0.00000000000E+00 0.  1.
          4    1    6    6  503    0  0.20064853477E+02 -0.42371983749E+02 -0.72956030265E+02  0.86721195241E+02  0.00000000000E+00 0. -1.
         -4    1    6    6    0  503  0.15246720058E+03 -0.99900367779E+02 -0.78136252719E+02  0.19832197237E+03  0.00000000000E+00 0.  1.
<mgrwt>
<rscale>  0 0.55094833E+03</rscale>
<asrwt>0</asrwt>
<pdfrwt beam="1">  1        1 0.22700770E+00 0.55094833E+03</pdfrwt>
<pdfrwt beam="2">  1       -1 0.10365130E+00 0.55094833E+03</pdfrwt>
<totfact> 0.64476563E+00</totfact>
</mgrwt>
</event>
<event>
12    1  0.1432447E-007  0.9607992E+03  0.7818608E-02  0.9352616E-01
          2   -1    0    0  501    0  0.00000000000E+00  0.00000000000E+00  0.94500975608E+03  0.94500975608E+03  0.00000000000E+00 0. -1.
         -2   -1    0    0    0  501 -0.00000000000E+00 -0.00000000000E+00 -0.11439196605E+04  0.11439196605E+04  0.00000000000E+00 0.  1.
         23    2    1    2    0    0 -0.30642871231E+03  0.81733189827E+03  0.28719037886E+03  0.92359057196E+03  0.92796784703E+02 0.  0.
    5000000    2    1    2    0    0  0.30642871231E+03 -0.81733189827E+03 -0.48610028328E+03  0.11653388446E+04  0.59982593284E+03 0.  0.
         23    2    4    4    0    0  0.19299516927E+03 -0.87234064231E+03 -0.36881626038E+03  0.97074973814E+03  0.90023822315E+02 0.  0.
         23    2    4    4    0    0  0.11343354304E+03  0.55008744036E+02 -0.11728402290E+03  0.19458910648E+03  0.90643520049E+02 0.  0.
          2    1    3    3  502    0 -0.17564096434E+03  0.42623712254E+03  0.10533102733E+03  0.47288736323E+03  0.00000000000E+00 0. -1.
         -2    1    3    3    0  502 -0.13078774797E+03  0.39109477574E+03  0.18185935153E+03  0.45070320874E+03  0.00000000000E+00 0.  1.
         13    1    5    5    0    0  0.17850747595E+02 -0.73870399916E+02 -0.55024987649E+01  0.76195555422E+02  0.00000000000E+00 0.  1.
        -13    1    5    5    0    0  0.17514442168E+03 -0.79847024239E+03 -0.36331376162E+03  0.89455418271E+03  0.00000000000E+00 0. -1.
          4    1    6    6  503    0  0.11396454264E+02  0.51408229386E+02 -0.47536196707E+02  0.70939236082E+02  0.00000000000E+00 0. -1.
         -4    1    6    6    0  503  0.10203708877E+03  0.36005146501E+01 -0.69747826189E+02  0.12364987040E+03  0.00000000000E+00 0.  1.
<mgrwt>
<rscale>  0 0.96079922E+03</rscale>
<asrwt>0</asrwt>
<pdfrwt beam="1">  1        2 0.14538612E+00 0.96079922E+03</pdfrwt>
<pdfrwt beam="2">  1       -2 0.17598764E+00 0.96079922E+03</pdfrwt>
<totfact> 0.52651781E+00</totfact>
</mgrwt>
</event>
<event>
12    1  0.1432447E-007  0.1650289E+04  0.7818608E-02  0.8790236E-01
          1   -1    0    0  501    0  0.00000000000E+00  0.00000000000E+00  0.15301654877E+04  0.15301654877E+04  0.00000000000E+00 0. -1.
         -1   -1    0    0    0  501 -0.00000000000E+00 -0.00000000000E+00 -0.18922708718E+04  0.18922708718E+04  0.00000000000E+00 0.  1.
         23    2    1    2    0    0 -0.16222604091E+04  0.21592780166E+03  0.15119989131E+02  0.16389856010E+04  0.87701401590E+02 0.  0.
    5000000    2    1    2    0    0  0.16222604091E+04 -0.21592780166E+03 -0.37722537320E+03  0.17834507584E+04  0.60003664488E+03 0.  0.
         23    2    4    4    0    0  0.12454535185E+04 -0.27465399059E+03 -0.62299892997E+02  0.12802642904E+04  0.92769041887E+02 0.  0.
         23    2    4    4    0    0  0.37680689054E+03  0.58726188922E+02 -0.31492548021E+03  0.50318646807E+03  0.92662643756E+02 0.  0.
          1    1    3    3  502    0 -0.94967007470E+03  0.93550137564E+02  0.37265454731E+02  0.95499402780E+03  0.00000000000E+00 0. -1.
         -1    1    3    3    0  502 -0.67259033439E+03  0.12237766410E+03 -0.22145465600E+02  0.68399157321E+03  0.00000000000E+00 0.  1.
         13    1    5    5    0    0  0.90638869019E+03 -0.20112138408E+03 -0.86620110481E+02  0.93246625268E+03  0.00000000000E+00 0.  1.
        -13    1    5    5    0    0  0.33906482835E+03 -0.73532606505E+02  0.24320217484E+02  0.34779803770E+03  0.00000000000E+00 0. -1.
          1    1    6    6  503    0  0.20586474873E+03  0.66040243726E+02 -0.21569712391E+03  0.30539623087E+03  0.00000000000E+00 0. -1.
         -1    1    6    6    0  503  0.17094214180E+03 -0.73140548046E+01 -0.99228356291E+02  0.19779023721E+03  0.00000000000E+00 0.  1.
<mgrwt>
<rscale>  0 0.16502886E+04</rscale>
<asrwt>0</asrwt>
<pdfrwt beam="1">  1        1 0.23541007E+00 0.16502886E+04</pdfrwt>
<pdfrwt beam="2">  1       -1 0.29111860E+00 0.16502886E+04</pdfrwt>
<totfact> 0.21856705E-01</totfact>
</mgrwt>
</event>
<event>
12    1  0.1432447E-007  0.2938256E+03  0.7818608E-02  0.1088369E+00
         -2   -1    0    0    0  501 -0.00000000000E+00  0.00000000000E+00  0.85394072185E+02  0.85394072185E+02  0.00000000000E+00 0.  1.
          2   -1    0    0  501    0  0.00000000000E+00 -0.00000000000E+00 -0.19016226085E+04  0.19016226085E+04  0.00000000000E+00 0. -1.
         23    2    1    2    0    0  0.15650467735E+03 -0.32161874615E+02 -0.41910280373E+03  0.45781924265E+03  0.91777985579E+02 0.  0.
    5000000    2    1    2    0    0 -0.15650467735E+03  0.32161874615E+02 -0.13971257326E+04  0.15291974380E+04  0.60079646439E+03 0.  0.
         23    2    4    4    0    0 -0.27072979567E+03  0.11159245872E+02 -0.13419937880E+04  0.13717585369E+04  0.85761327785E+02 0.  0.
         23    2    4    4    0    0  0.11422511832E+03  0.21002628744E+02 -0.55131944554E+02  0.15743890116E+03  0.90878975673E+02 0.  0.
          3    1    3    3  502    0  0.10260259811E+03 -0.81868179798E+01 -0.14736782505E+03  0.17975425722E+03  0.00000000000E+00 0. -1.
         -3    1    3    3    0  502  0.53902079240E+02 -0.23975056635E+02 -0.27173497868E+03  0.27806498543E+03  0.00000000000E+00 0.  1.
         13    1    5    5    0    0 -0.19956504775E+03  0.43665954348E+02 -0.10336486686E+04  0.10536424887E+04  0.00000000000E+00 0.  1.
        -13    1    5    5    0    0 -0.71164747918E+02 -0.32506708476E+02 -0.30834511944E+03  0.31811604820E+03  0.00000000000E+00 0. -1.
          3    1    6    6  503    0  0.93528526929E+02  0.51177165574E+02 -0.23735280132E+02  0.10922477351E+03  0.00000000000E+00 0. -1.
         -3    1    6    6    0  503  0.20696591388E+02 -0.30174536831E+02 -0.31396664422E+02  0.48214127648E+02  0.00000000000E+00 0.  1.
<mgrwt>
<rscale>  0 0.29382556E+03</rscale>
<asrwt>0</asrwt>
<pdfrwt beam="1">  1        2 0.29255729E+00 0.29382556E+03</pdfrwt>
<pdfrwt beam="2">  1       -2 0.13137551E-01 0.29382556E+03</pdfrwt>
<totfact> 0.35654434E+02</totfact>
</mgrwt>
</event>
<event>
12    1  0.1432447E-007  0.3343109E+03  0.7818608E-02  0.1069245E+00
          1   -1    0    0  501    0  0.00000000000E+00  0.00000000000E+00  0.21031362474E+04  0.21031362474E+04  0.00000000000E+00 0. -1.
         -1   -1    0    0    0  501 -0.00000000000E+00 -0.00000000000E+00 -0.94321471381E+02  0.94321471381E+02  0.00000000000E+00 0.  1.
         23    2    1    2    0    0 -0.12493506384E+03  0.18341099601E+03  0.70604201772E+03  0.74602082846E+03  0.93826340045E+02 0.  0.
    5000000    2    1    2    0    0  0.12493506384E+03 -0.18341099601E+03  0.13027727584E+04  0.14514368904E+04  0.60016982862E+03 0.  0.
         23    2    4    4    0    0 -0.11366927500E+03 -0.14215599763E+03  0.11096379107E+04  0.11284433769E+04  0.94652682652E+02 0.  0.
         23    2    4    4    0    0  0.23860433884E+03 -0.41254998382E+02  0.19313484768E+03  0.32299351347E+03  0.91595496324E+02 0.  0.
          3    1    3    3  502    0 -0.91358595525E+02  0.15250509542E+03  0.64933878015E+03  0.67323476478E+03  0.00000000000E+00 0. -1.
         -3    1    3    3    0  502 -0.33576468316E+02  0.30905900586E+02  0.56703237570E+02  0.72786063683E+02  0.00000000000E+00 0.  1.
         13    1    5    5    0    0 -0.12897118926E+03 -0.12760989221E+03  0.10388396475E+04  0.10545642064E+04  0.00000000000E+00 0. -1.
        -13    1    5    5    0    0  0.15301914256E+02 -0.14546105412E+02  0.70798263162E+02  0.73879170470E+02  0.00000000000E+00 0.  1.
          2    1    6    6  503    0  0.64104374658E+02 -0.18281093161E+02  0.10934188114E+03  0.12805942444E+03  0.00000000000E+00 0.  1.
         -2    1    6    6    0  503  0.17449996419E+03 -0.22973905221E+02  0.83792966542E+02  0.19493408902E+03  0.00000000000E+00 0. -1.
<mgrwt>
<rscale>  0 0.33431094E+03</rscale>
<asrwt>0</asrwt>
<pdfrwt beam="1">  1        1 0.32355939E+00 0.33431094E+03</pdfrwt>
<pdfrwt beam="2">  1       -1 0.14510997E-01 0.33431094E+03</pdfrwt>
<totfact> 0.96838921E+01</totfact>
</mgrwt>
</event>
<event>
12    1  0.1432447E-007  0.2259445E+04  0.7818608E-02  0.8494085E-01
          2   -1    0    0  501    0  0.00000000000E+00  0.00000000000E+00  0.24303607151E+04  0.24303607151E+04  0.00000000000E+00 0. -1.
         -2   -1    0    0    0  501 -0.00000000000E+00 -0.00000000000E+00 -0.21728938421E+04  0.21728938421E+04  0.00000000000E+00 0.  1.
         23    2    1    2    0    0 -0.74136330680E+01 -0.22391814504E+04 -0.16323108097E+03  0.22469817873E+04  0.91072701832E+02 0.  0.
    5000000    2    1    2    0    0  0.74136330680E+01  0.22391814504E+04  0.42069795396E+03  0.23562727699E+04  0.60087109094E+03 0.  0.
         23    2    4    4    0    0  0.12230976224E+03  0.20648628187E+04  0.28352698667E+03  0.20897996738E+04  0.90867962710E+02 0.  0.
         23    2    4    4    0    0 -0.11489612918E+03  0.17431863171E+03  0.13717096729E+03  0.26647309607E+03  0.92757375978E+02 0.  0.
          4    1    3    3  502    0 -0.39046507514E+02 -0.53241673065E+03 -0.28170237968E+02  0.53458934438E+03  0.00000000000E+00 0. -1.
         -4    1    3    3    0  502  0.31632874446E+02 -0.17067647198E+04 -0.13506084300E+03  0.17123924430E+04  0.00000000000E+00 0.  1.
         13    1    5    5    0    0  0.33722043664E+01  0.35473564957E+03  0.78408775292E+02  0.36331348568E+03  0.00000000000E+00 0.  1.
        -13    1    5    5    0    0  0.11893755788E+03  0.17101271691E+04  0.20511821138E+03  0.17264861882E+04  0.00000000000E+00 0. -1.
          2    1    6    6  503    0 -0.29783854817E+02  0.52673013182E+02  0.94118782387E+02  0.11189222280E+03  0.00000000000E+00 0. -1.
         -2    1    6    6    0  503 -0.85112274359E+02  0.12164561853E+03  0.43052184901E+02  0.15458087327E+03  0.00000000000E+00 0.  1.
<mgrwt>
<rscale>  0 0.22594447E+04</rscale>
<asrwt>0</asrwt>
<pdfrwt beam="1">  1        2 0.37390165E+00 0.22594447E+04</pdfrwt>
<pdfrwt beam="2">  1       -2 0.33429136E+00 0.22594447E+04</pdfrwt>
<totfact> 0.64389996E-02</totfact>
</mgrwt>
</event>
<event>
12    1  0.1432447E-007  0.1257099E+04  0.7818608E-02  0.9064295E-01
         -2   -1    0    0    0  501 -0.00000000000E+00  0.00000000000E+00  0.77684443574E+03  0.77684443574E+03  0.00000000000E+00 0. -1.
          2   -1    0    0  501    0  0.00000000000E+00 -0.00000000000E+00 -0.21347210142E+04  0.21347210142E+04  0.00000000000E+00 0.  1.
         23    2    1    2    0    0  0.34461680031E+03  0.11374118217E+04 -0.93467691902E+03  0.15147425000E+04  0.91419402376E+02 0.  0.
    5000000    2    1    2    0    0 -0.34461680031E+03 -0.11374118217E+04 -0.42319965942E+03  0.13968229500E+04  0.59962489162E+03 0.  0.
         23    2    4    4    0    0 -0.45505139534E+03 -0.52466536991E+03 -0.25773749205E+03  0.74623375411E+03  0.89948197163E+02 0.  0.
         23    2    4    4    0    0  0.11043459503E+03 -0.61274645176E+03 -0.16546216737E+03  0.65058919584E+03  0.90744470890E+02 0.  0.
          1    1    3    3  502    0  0.21012112163E+03  0.58926979589E+03 -0.44782494977E+03  0.76937439764E+03  0.00000000000E+00 0. -1.
         -1    1    3    3    0  502  0.13449567868E+03  0.54814202578E+03 -0.48685196925E+03  0.74536810233E+03  0.00000000000E+00 0.  1.
         13    1    5    5    0    0 -0.30529198116E+03 -0.41254408891E+03 -0.19065745519E+03  0.54749071615E+03  0.00000000000E+00 0.  1.
        -13    1    5    5    0    0 -0.14975941418E+03 -0.11212128100E+03 -0.67080036865E+02  0.19874303796E+03  0.00000000000E+00 0. -1.
          1    1    6    6  503    0  0.14564896344E+02 -0.18280326062E+03 -0.10710937692E+02  0.18369510740E+03  0.00000000000E+00 0. -1.
         -1    1    6    6    0  503  0.95869698685E+02 -0.42994319114E+03 -0.15475122967E+03  0.46689408844E+03  0.00000000000E+00 0.  1.
<mgrwt>
<rscale>  0 0.12570994E+04</rscale>
<asrwt>0</asrwt>
<pdfrwt beam="1">  1        2 0.32841861E+00 0.12570994E+04</pdfrwt>
<pdfrwt beam="2">  1       -2 0.11951453E+00 0.12570994E+04</pdfrwt>
<totfact> 0.29273183E+00</totfact>
</mgrwt>
</event>
<event>
12    1  0.1432447E-007  0.6167365E+03  0.7818608E-02  0.9871279E-01
         -1   -1    0    0    0  501 -0.00000000000E+00  0.00000000000E+00  0.36073751352E+03  0.36073751352E+03  0.00000000000E+00 0.  1.
          1   -1    0    0  501    0  0.00000000000E+00 -0.00000000000E+00 -0.14962147802E+04  0.14962147802E+04  0.00000000000E+00 0. -1.
         23    2    1    2    0    0  0.44577510049E+03 -0.40784257786E+03 -0.38799664607E+03  0.72390197204E+03  0.91878502534E+02 0.  0.
    5000000    2    1    2    0    0 -0.44577510049E+03  0.40784257786E+03 -0.74748062057E+03  0.11330503216E+04  0.60002062023E+03 0.  0.
         23    2    4    4    0    0 -0.16821009837E+03  0.19350874152E+03 -0.72094672804E+03  0.77042623681E+03  0.89733669562E+02 0.  0.
         23    2    4    4    0    0 -0.27756500212E+03  0.21433383634E+03 -0.26533892521E+02  0.36262408482E+03  0.88379045225E+02 0.  0.
          4    1    3    3  502    0  0.24634074331E+03 -0.27420240579E+03 -0.20289463263E+03  0.42075759423E+03  0.00000000000E+00 0. -1.
         -4    1    3    3    0  502  0.19943435719E+03 -0.13364017207E+03 -0.18510201344E+03  0.30314437781E+03  0.00000000000E+00 0.  1.
         11    1    5    5    0    0 -0.13476057301E+03  0.11259487933E+03 -0.38330135342E+03  0.42161350360E+03  0.00000000000E+00 0. -1.
        -11    1    5    5    0    0 -0.33449525357E+02  0.80913862191E+02 -0.33764537463E+03  0.34881273321E+03  0.00000000000E+00 0.  1.
          1    1    6    6  503    0 -0.22306485088E+03  0.12156302469E+03 -0.16957024520E+02  0.25460368683E+03  0.00000000000E+00 0. -1.
         -1    1    6    6    0  503 -0.54500151247E+02  0.92770811655E+02 -0.95768680012E+01  0.10802039799E+03  0.00000000000E+00 0.  1.
<mgrwt>
<rscale>  0 0.61673651E+03</rscale>
<asrwt>0</asrwt>
<pdfrwt beam="1">  1        1 0.23018689E+00 0.61673651E+03</pdfrwt>
<pdfrwt beam="2">  1       -1 0.55498078E-01 0.61673651E+03</pdfrwt>
<totfact> 0.22766564E+01</totfact>
</mgrwt>
</event>
<event>
12    1  0.1432447E-007  0.8402938E+03  0.7818608E-02  0.9503458E-01
          2   -1    0    0  501    0  0.00000000000E+00  0.00000000000E+00  0.22859665136E+04  0.22859665136E+04  0.00000000000E+00 0. -1.
         -2   -1    0    0    0  501 -0.00000000000E+00 -0.00000000000E+00 -0.38947178131E+03  0.38947178131E+03  0.00000000000E+00 0.  1.
         23    2    1    2    0    0  0.63678659570E+03  0.52616866163E+03  0.11110587936E+04  0.13873477595E+04  0.89059160558E+02 0.  0.
    5000000    2    1    2    0    0 -0.63678659570E+03 -0.52616866163E+03  0.78543593875E+03  0.12880905354E+04  0.59993081658E+03 0.  0.
         23    2    4    4    0    0 -0.48084222244E+03 -0.31386592566E+03  0.16055570925E+03  0.60269574970E+03  0.87994140524E+02 0.  0.
         23    2    4    4    0    0 -0.15594437325E+03 -0.21230273597E+03  0.62488022950E+03  0.68539478574E+03  0.99496793152E+02 0.  0.
          3    1    3    3  502    0  0.75621688671E+02  0.93327087122E+02  0.19697961379E+03  0.23071530776E+03  0.00000000000E+00 0. -1.
         -3    1    3    3    0  502  0.56116490703E+03  0.43284157451E+03  0.91407917979E+03  0.11566324517E+04  0.00000000000E+00 0.  1.
         13    1    5    5    0    0 -0.30396141533E+03 -0.14806437755E+03  0.82868323509E+02  0.34811314389E+03  0.00000000000E+00 0. -1.
        -13    1    5    5    0    0 -0.17688080711E+03 -0.16580154810E+03  0.77687385738E+02  0.25458260581E+03  0.00000000000E+00 0.  1.
          2    1    6    6  503    0 -0.12512857961E+03 -0.11792512639E+03  0.47909526534E+03  0.50901450877E+03  0.00000000000E+00 0. -1.
         -2    1    6    6    0  503 -0.30815793649E+02 -0.94377609579E+02  0.14578496416E+03  0.17638027697E+03  0.00000000000E+00 0.  1.
<mgrwt>
<rscale>  0 0.84029383E+03</rscale>
<asrwt>0</asrwt>
<pdfrwt beam="1">  1        2 0.35168715E+00 0.84029383E+03</pdfrwt>
<pdfrwt beam="2">  1       -2 0.59918737E-01 0.84029383E+03</pdfrwt>
<totfact> 0.12334367E+01</totfact>
</mgrwt>
</event>
<event>
12    1  0.1432447E-007  0.4867478E+03  0.7818608E-02  0.1017297E+00
         -1   -1    0    0    0  501 -0.00000000000E+00  0.00000000000E+00  0.16225629501E+03  0.16225629501E+03  0.00000000000E+00 0.  1.
          1   -1    0    0  501    0  0.00000000000E+00 -0.00000000000E+00 -0.22638732496E+04  0.22638732496E+04  0.00000000000E+00 0. -1.
         23    2    1    2    0    0 -0.42685691295E+02 -0.30273823291E+03 -0.13355317962E+03  0.34608158752E+03  0.91997323451E+02 0.  0.
    5000000    2    1    2    0    0  0.42685691295E+02  0.30273823291E+03 -0.19680637750E+04  0.20800479571E+04  0.59987663361E+03 0.  0.
         23    2    4    4    0    0 -0.25615893673E+03  0.79131926227E+02 -0.97569412806E+03  0.10158460791E+04  0.89916418667E+02 0.  0.
         23    2    4    4    0    0  0.29884462803E+03  0.22360630669E+03 -0.99236964694E+03  0.10642018780E+04  0.91761804979E+02 0.  0.
          1    1    3    3  502    0  0.27509685629E+02 -0.11333037603E+03 -0.59639438309E+02  0.13098633339E+03  0.00000000000E+00 0. -1.
         -1    1    3    3    0  502 -0.70195376924E+02 -0.18940785688E+03 -0.73913741311E+02  0.21509525412E+03  0.00000000000E+00 0.  1.
         13    1    5    5    0    0 -0.44487317316E+02 -0.55435550934E+01 -0.81173673354E+02  0.92730888332E+02  0.00000000000E+00 0. -1.
        -13    1    5    5    0    0 -0.21167161942E+03  0.84675481320E+02 -0.89452045470E+03  0.92311519080E+03  0.00000000000E+00 0.  1.
          3    1    6    6  503    0  0.24621609379E+02  0.54732222896E+02 -0.11750996210E+03  0.13194859251E+03  0.00000000000E+00 0. -1.
         -3    1    6    6    0  503  0.27422301865E+03  0.16887408379E+03 -0.87485968484E+03  0.93225328548E+03  0.00000000000E+00 0.  1.
<mgrwt>
<rscale>  0 0.48674782E+03</rscale>
<asrwt>0</asrwt>
<pdfrwt beam="1">  1        1 0.34828818E+00 0.48674782E+03</pdfrwt>
<pdfrwt beam="2">  1       -1 0.24962508E-01 0.48674782E+03</pdfrwt>
<totfact> 0.30104600E+01</totfact>
</mgrwt>
</event>
<event>
12    1  0.1432447E-007  0.7980067E+03  0.7818608E-02  0.9562907E-01
         -2   -1    0    0    0  501 -0.00000000000E+00  0.00000000000E+00  0.72881321999E+03  0.72881321999E+03  0.00000000000E+00 0.  1.
          2   -1    0    0  501    0  0.00000000000E+00 -0.00000000000E+00 -0.89174418095E+03  0.89174418095E+03  0.00000000000E+00 0. -1.
         23    2    1    2    0    0  0.57540893942E+03  0.37910079372E+03 -0.11948109806E+03  0.70590125409E+03  0.95958263714E+02 0.  0.
    5000000    2    1    2    0    0 -0.57540893942E+03 -0.37910079372E+03 -0.43449862903E+02  0.91465614685E+03  0.59991259116E+03 0.  0.
         23    2    4    4    0    0 -0.51663690439E+03 -0.57578222088E+01 -0.40860522238E+02  0.52630401479E+03  0.91539555443E+02 0.  0.
         23    2    4    4    0    0 -0.58772035026E+02 -0.37334297151E+03 -0.25893406651E+01  0.38835213206E+03  0.89283522077E+02 0.  0.
          1    1    3    3  502    0  0.47861291029E+03  0.26866711833E+03 -0.93776865062E+02  0.55681813798E+03  0.00000000000E+00 0.  1.
         -1    1    3    3    0  502  0.96796029132E+02  0.11043367538E+03 -0.25704232996E+02  0.14908311611E+03  0.00000000000E+00 0. -1.
         13    1    5    5    0    0 -0.18686008776E+03  0.28473734805E+02  0.16863515712E+02  0.18976781637E+03  0.00000000000E+00 0. -1.
        -13    1    5    5    0    0 -0.32977681664E+03 -0.34231557014E+02 -0.57724037950E+02  0.33653619842E+03  0.00000000000E+00 0.  1.
          3    1    6    6  503    0 -0.52041670604E+02 -0.21362023936E+03 -0.41665840998E+02  0.22378110834E+03  0.00000000000E+00 0.  1.
         -3    1    6    6    0  503 -0.67303644219E+01 -0.15972273214E+03  0.39076500333E+02  0.16457102372E+03  0.00000000000E+00 0. -1.
<mgrwt>
<rscale>  0 0.79800667E+03</rscale>
<asrwt>0</asrwt>
<pdfrwt beam="1">  1        2 0.13719141E+00 0.79800667E+03</pdfrwt>
<pdfrwt beam="2">  1       -2 0.11212511E+00 0.79800667E+03</pdfrwt>
<totfact> 0.18827783E+01</totfact>
</mgrwt>
</event>
<event>
12    1  0.1522696E-007  0.1037826E+04  0.7818608E-02  0.9268004E-01
          2   -1    0    0  501    0  0.00000000000E+00  0.00000000000E+00  0.11996641814E+04  0.11996641814E+04  0.00000000000E+00 0. -1.
         -2   -1    0    0    0  501 -0.00000000000E+00 -0.00000000000E+00 -0.10112315897E+04  0.10112315897E+04  0.00000000000E+00 0.  1.
         23    2    1    2    0    0  0.59590132544E+03 -0.82287609021E+03  0.28925687379E+02  0.10202655729E+04  0.88778907521E+02 0.  0.
    5000000    2    1    2    0    0 -0.59590132544E+03  0.82287609021E+03  0.15950690434E+03  0.11906301981E+04  0.59994530302E+03 0.  0.
         23    2    4    4    0    0 -0.39792680130E+02  0.20949346530E+03  0.26380645228E+03  0.35092793945E+03  0.89919992378E+02 0.  0.
         23    2    4    4    0    0 -0.55610864531E+03  0.61338262492E+03 -0.10429954794E+03  0.83970225866E+03  0.93415296141E+02 0.  0.
          4    1    3    3  502    0  0.39784833314E+03 -0.54704934994E+03 -0.22670819813E+02  0.67680148753E+03  0.00000000000E+00 0. -1.
         -4    1    3    3    0  502  0.19805299231E+03 -0.27582674027E+03  0.51596507192E+02  0.34346408540E+03  0.00000000000E+00 0.  1.
         13    1    5    5    0    0  0.12180096816E+02  0.14990421547E+03  0.15056457547E+03  0.21281287546E+03  0.00000000000E+00 0. -1.
        -13    1    5    5    0    0 -0.51972776946E+02  0.59589249822E+02  0.11324187681E+03  0.13811506399E+03  0.00000000000E+00 0.  1.
          2    1    6    6  503    0 -0.38381874263E+03  0.46390844877E+03 -0.10730340935E+03  0.61158964812E+03  0.00000000000E+00 0. -1.
         -2    1    6    6    0  503 -0.17228990269E+03  0.14947417615E+03  0.30038614062E+01  0.22811261054E+03  0.00000000000E+00 0.  1.
<mgrwt>
<rscale>  0 0.10378260E+04</rscale>
<asrwt>0</asrwt>
<pdfrwt beam="1">  1        2 0.18456372E+00 0.10378260E+04</pdfrwt>
<pdfrwt beam="2">  1       -2 0.15557409E+00 0.10378260E+04</pdfrwt>
<totfact> 0.50857545E+00</totfact>
</mgrwt>
</event>
<event>
12    1  0.1432447E-007  0.1026080E+04  0.7818608E-02  0.9280394E-01
          2   -1    0    0  501    0  0.00000000000E+00  0.00000000000E+00  0.18486227100E+04  0.18486227100E+04  0.00000000000E+00 0.  1.
         -2   -1    0    0    0  501 -0.00000000000E+00 -0.00000000000E+00 -0.61683204107E+03  0.61683204107E+03  0.00000000000E+00 0. -1.
         23    2    1    2    0    0  0.32801520738E+02 -0.97679224096E+03  0.67036942517E+03  0.11884667927E+04  0.88651730765E+02 0.  0.
    5000000    2    1    2    0    0 -0.32801520738E+02  0.97679224096E+03  0.56142124374E+03  0.12769879584E+04  0.60025445530E+03 0.  0.
         23    2    4    4    0    0 -0.15536245178E+02 -0.32009971701E+02 -0.33777484797E+02  0.10190035306E+03  0.89312654605E+02 0.  0.
         23    2    4    4    0    0 -0.17265275560E+02  0.10088022127E+04  0.59519872854E+03  0.11750876053E+04  0.92678798312E+02 0.  0.
          1    1    3    3  502    0  0.23329465124E+02 -0.92737306877E+03  0.65586160228E+03  0.11360983734E+04  0.00000000000E+00 0. -1.
         -1    1    3    3    0  502  0.94720556142E+01 -0.49419172189E+02  0.14507822887E+02  0.52368419323E+02  0.00000000000E+00 0.  1.
         13    1    5    5    0    0  0.18903237641E+02 -0.10654942483E+02  0.23339567645E+02  0.31868410856E+02  0.00000000000E+00 0. -1.
        -13    1    5    5    0    0 -0.34439482819E+02 -0.21355029218E+02 -0.57117052441E+02  0.70031942207E+02  0.00000000000E+00 0.  1.
          4    1    6    6  503    0  0.21180212176E+02  0.75112940268E+03  0.41614469669E+03  0.85896471961E+03  0.00000000000E+00 0. -1.
         -4    1    6    6    0  503 -0.38445487737E+02  0.25767280998E+03  0.17905403185E+03  0.31612288568E+03  0.00000000000E+00 0.  1.
<mgrwt>
<rscale>  0 0.10260803E+04</rscale>
<asrwt>0</asrwt>
<pdfrwt beam="1">  1        2 0.28440349E+00 0.10260803E+04</pdfrwt>
<pdfrwt beam="2">  1       -2 0.94897238E-01 0.10260803E+04</pdfrwt>
<totfact> 0.75475236E+00</totfact>
</mgrwt>
</event>
<event>
12    1  0.1432447E-007  0.7241650E+03  0.7818608E-02  0.9676776E-01
         -2   -1    0    0    0  501 -0.00000000000E+00  0.00000000000E+00  0.34496952571E+03  0.34496952571E+03  0.00000000000E+00 0.  1.
          2   -1    0    0  501    0  0.00000000000E+00 -0.00000000000E+00 -0.24095760563E+04  0.24095760563E+04  0.00000000000E+00 0. -1.
         23    2    1    2    0    0 -0.62094629057E+03  0.28832717310E+03 -0.15789794597E+04  0.17227751512E+04  0.77918115468E+02 0.  0.
    5000000    2    1    2    0    0  0.62094629057E+03 -0.28832717310E+03 -0.48562707088E+03  0.10317704309E+04  0.60000809622E+03 0.  0.
         23    2    4    4    0    0  0.41796909546E+02  0.25864311242E+02 -0.33445070494E+03  0.34950452897E+03  0.88770476459E+02 0.  0.
         23    2    4    4    0    0  0.57914938102E+03 -0.31419148434E+03 -0.15117636594E+03  0.68226590190E+03  0.92207228079E+02 0.  0.
          2    1    3    3  502    0 -0.34697218908E+03  0.11838651217E+03 -0.83230694365E+03  0.90947232762E+03  0.00000000000E+00 0. -1.
         -2    1    3    3    0  502 -0.27397410149E+03  0.16994066093E+03 -0.74667251606E+03  0.81330282353E+03  0.00000000000E+00 0.  1.
         13    1    5    5    0    0  0.65740365666E+02  0.29091669536E+02 -0.29141100973E+03  0.30014745960E+03  0.00000000000E+00 0. -1.
        -13    1    5    5    0    0 -0.23943456119E+02 -0.32273582944E+01 -0.43039695206E+02  0.49357069362E+02  0.00000000000E+00 0.  1.
          1    1    6    6  503    0  0.16254118118E+03 -0.50437248288E+02 -0.62346836266E+02  0.18124756436E+03  0.00000000000E+00 0. -1.
         -1    1    6    6    0  503  0.41660819984E+03 -0.26375423605E+03 -0.88829529677E+02  0.50101833754E+03  0.00000000000E+00 0.  1.
<mgrwt>
<rscale>  0 0.72416502E+03</rscale>
<asrwt>0</asrwt>
<pdfrwt beam="1">  1        2 0.37070400E+00 0.72416502E+03</pdfrwt>
<pdfrwt beam="2">  1       -2 0.53072236E-01 0.72416502E+03</pdfrwt>
<totfact> 0.13790914E+01</totfact>
</mgrwt>
</event>
<event>
12    1  0.1432447E-007  0.1137363E+04  0.7818608E-02  0.9169522E-01
         -2   -1    0    0    0  501 -0.00000000000E+00  0.00000000000E+00  0.72524346894E+03  0.72524346894E+03  0.00000000000E+00 0.  1.
          2   -1    0    0  501    0  0.00000000000E+00 -0.00000000000E+00 -0.18222336447E+04  0.18222336447E+04  0.00000000000E+00 0. -1.
         23    2    1    2    0    0 -0.99371992327E+03 -0.38899254011E+03 -0.43820400301E+03  0.11572274938E+04  0.91423421263E+02 0.  0.
    5000000    2    1    2    0    0  0.99371992327E+03  0.38899254011E+03 -0.65878617271E+03  0.13902496198E+04  0.60000025156E+03 0.  0.
         23    2    4    4    0    0  0.89013156155E+03  0.50836191071E+03 -0.48636550341E+03  0.11385762580E+04  0.95070833136E+02 0.  0.
         23    2    4    4    0    0  0.10358836172E+03 -0.11936937060E+03 -0.17242066929E+03  0.25167336178E+03  0.92903167369E+02 0.  0.
          2    1    3    3  502    0 -0.26097466635E+03 -0.10731661930E+03 -0.73309595321E+02  0.29154575974E+03  0.00000000000E+00 0. -1.
         -2    1    3    3    0  502 -0.73274525692E+03 -0.28167592081E+03 -0.36489440769E+03  0.86568173405E+03  0.00000000000E+00 0.  1.
         11    1    5    5    0    0  0.51250475142E+03  0.32687400282E+03 -0.24777645643E+03  0.65643042762E+03  0.00000000000E+00 0. -1.
        -11    1    5    5    0    0  0.37762681013E+03  0.18148790789E+03 -0.23858904699E+03  0.48214583041E+03  0.00000000000E+00 0.  1.
          4    1    6    6  503    0  0.10354560921E+03 -0.56781633856E+02 -0.91609552559E+02  0.14945955055E+03  0.00000000000E+00 0.  1.
         -4    1    6    6    0  503  0.42752513264E-01 -0.62587736746E+02 -0.80811116734E+02  0.10221381123E+03  0.00000000000E+00 0. -1.
<mgrwt>
<rscale>  0 0.11373626E+04</rscale>
<asrwt>0</asrwt>
<pdfrwt beam="1">  1        2 0.28034364E+00 0.11373626E+04</pdfrwt>
<pdfrwt beam="2">  1       -2 0.11157592E+00 0.11373626E+04</pdfrwt>
<totfact> 0.52309904E+00</totfact>
</mgrwt>
</event>
<event>
12    1  0.1432447E-007  0.1437767E+04  0.7818608E-02  0.8926926E-01
         -2   -1    0    0    0  501 -0.00000000000E+00  0.00000000000E+00  0.86971443991E+03  0.86971443991E+03  0.00000000000E+00 0.  1.
          2   -1    0    0  501    0  0.00000000000E+00 -0.00000000000E+00 -0.24856994626E+04  0.24856994626E+04  0.00000000000E+00 0. -1.
         23    2    1    2    0    0 -0.13777634770E+04 -0.18960044166E+03 -0.10226461085E+04  0.17286575747E+04  0.90947354524E+02 0.  0.
    5000000    2    1    2    0    0  0.13777634770E+04  0.18960044166E+03 -0.59333891417E+03  0.16267563278E+04  0.60008712433E+03 0.  0.
         23    2    4    4    0    0  0.37595174122E+03 -0.16726684239E+03 -0.35784077697E+02  0.42252289992E+03  0.89034782255E+02 0.  0.
         23    2    4    4    0    0  0.10018117358E+04  0.35686728405E+03 -0.55755483647E+03  0.12042334278E+04  0.91267412997E+02 0.  0.
          1    1    3    3  502    0 -0.95009311386E+03 -0.10447903075E+03 -0.66057394086E+03  0.11618737987E+04  0.00000000000E+00 0. -1.
         -1    1    3    3    0  502 -0.42767036316E+03 -0.85121410911E+02 -0.36207216761E+03  0.56678377595E+03  0.00000000000E+00 0.  1.
         11    1    5    5    0    0  0.10334063113E+03 -0.78908295531E+02 -0.39618340636E+02  0.13592431005E+03  0.00000000000E+00 0.  1.
        -11    1    5    5    0    0  0.27261111009E+03 -0.88358546854E+02  0.38342629384E+01  0.28659858987E+03  0.00000000000E+00 0. -1.
          2    1    6    6  503    0  0.79031598601E+03  0.24284692428E+03 -0.41946847236E+03  0.92710721369E+03  0.00000000000E+00 0. -1.
         -2    1    6    6    0  503  0.21149574978E+03  0.11402035977E+03 -0.13808636412E+03  0.27712621416E+03  0.00000000000E+00 0.  1.
<mgrwt>
<rscale>  0 0.14377666E+04</rscale>
<asrwt>0</asrwt>
<pdfrwt beam="1">  1        2 0.38241530E+00 0.14377666E+04</pdfrwt>
<pdfrwt beam="2">  1       -2 0.13380222E+00 0.14377666E+04</pdfrwt>
<totfact> 0.13651006E+00</totfact>
</mgrwt>
</event>
<event>
12    1  0.1432447E-007  0.9262143E+03  0.7818608E-02  0.9393393E-01
         -1   -1    0    0    0  501 -0.00000000000E+00  0.00000000000E+00  0.86110067211E+03  0.86110067211E+03  0.00000000000E+00 0.  1.
          1   -1    0    0  501    0  0.00000000000E+00 -0.00000000000E+00 -0.11960303079E+04  0.11960303079E+04  0.00000000000E+00 0. -1.
         23    2    1    2    0    0 -0.74487175537E+03  0.46326291906E+03  0.14099739335E+03  0.89356464131E+03  0.95556470978E+02 0.  0.
    5000000    2    1    2    0    0  0.74487175537E+03 -0.46326291906E+03 -0.47592702918E+03  0.11635663387E+04  0.59827554141E+03 0.  0.
         23    2    4    4    0    0  0.52637391626E+03 -0.90212756761E+02 -0.41635112018E+02  0.54387349295E+03  0.94111915185E+02 0.  0.
         23    2    4    4    0    0  0.21849783911E+03 -0.37305016230E+03 -0.43429191716E+03  0.61969284580E+03  0.92206423547E+02 0.  0.
          1    1    3    3  502    0 -0.60501851242E+03  0.37642455613E+03  0.15194448749E+03  0.72858079449E+03  0.00000000000E+00 0. -1.
         -1    1    3    3    0  502 -0.13985324295E+03  0.86838362926E+02 -0.10947094141E+02  0.16498384681E+03  0.00000000000E+00 0.  1.
         11    1    5    5    0    0  0.43900524286E+03 -0.56520453296E+02 -0.31674995895E+01  0.44264003203E+03  0.00000000000E+00 0. -1.
        -11    1    5    5    0    0  0.87368673398E+02 -0.33692303466E+02 -0.38467612429E+02  0.10123346092E+03  0.00000000000E+00 0.  1.
          3    1    6    6  503    0  0.22492034607E+03 -0.36137007962E+03 -0.43142832582E+03  0.60605931792E+03  0.00000000000E+00 0. -1.
         -3    1    6    6    0  503 -0.64225069644E+01 -0.11680082677E+02 -0.28635913390E+01  0.13633527879E+02  0.00000000000E+00 0.  1.
<mgrwt>
<rscale>  0 0.92621433E+03</rscale>
<asrwt>0</asrwt>
<pdfrwt beam="1">  1        1 0.18400466E+00 0.92621433E+03</pdfrwt>
<pdfrwt beam="2">  1       -1 0.13247703E+00 0.92621433E+03</pdfrwt>
<totfact> 0.52643397E+00</totfact>
</mgrwt>
</event>
<event>
12    1  0.1432447E-007  0.4916030E+03  0.7818608E-02  0.1015994E+00
         -2   -1    0    0    0  501 -0.00000000000E+00  0.00000000000E+00  0.58151881085E+03  0.58151881085E+03  0.00000000000E+00 0.  1.
          2   -1    0    0  501    0  0.00000000000E+00 -0.00000000000E+00 -0.71399652979E+03  0.71399652979E+03  0.00000000000E+00 0. -1.
         23    2    1    2    0    0  0.23170014804E+03 -0.31502269388E+03  0.26046136698E+03  0.47862057831E+03  0.91177179327E+02 0.  0.
    5000000    2    1    2    0    0 -0.23170014804E+03  0.31502269388E+03 -0.39293908592E+03  0.81689476233E+03  0.59999305930E+03 0.  0.
         23    2    4    4    0    0 -0.17652144992E+03 -0.60460828027E+02  0.62788539626E+02  0.21709329030E+03  0.91497333169E+02 0.  0.
         23    2    4    4    0    0 -0.55178698120E+02  0.37548352191E+03 -0.45572762555E+03  0.59980147203E+03  0.89674819251E+02 0.  0.
          1    1    3    3  502    0  0.89762365182E+02 -0.19656092435E+03  0.12751763022E+03  0.25090680581E+03  0.00000000000E+00 0. -1.
         -1    1    3    3    0  502  0.14193778285E+03 -0.11846176953E+03  0.13294373676E+03  0.22771377250E+03  0.00000000000E+00 0.  1.
         11    1    5    5    0    0 -0.14970042736E+03 -0.24106783188E+02  0.16684230124E+02  0.15254415257E+03  0.00000000000E+00 0.  1.
        -11    1    5    5    0    0 -0.26821022559E+02 -0.36354044839E+02  0.46104309502E+02  0.64549137732E+02  0.00000000000E+00 0. -1.
          3    1    6    6  503    0  0.83870031041E+01  0.17313754352E+03 -0.16012467215E+03  0.23598063783E+03  0.00000000000E+00 0.  1.
         -3    1    6    6    0  503 -0.63565701224E+02  0.20234597839E+03 -0.29560295340E+03  0.36382083420E+03  0.00000000000E+00 0. -1.
<mgrwt>
<rscale>  0 0.49160305E+03</rscale>
<asrwt>0</asrwt>
<pdfrwt beam="1">  1        2 0.10984562E+00 0.49160305E+03</pdfrwt>
<pdfrwt beam="2">  1       -2 0.89464432E-01 0.49160305E+03</pdfrwt>
<totfact> 0.44459062E+01</totfact>
</mgrwt>
</event>
<event>
12    1  0.1432447E-007  0.7144065E+03  0.7818608E-02  0.9692907E-01
         -1   -1    0    0    0  501 -0.00000000000E+00  0.00000000000E+00  0.28662961091E+03  0.28662961091E+03  0.00000000000E+00 0.  1.
          1   -1    0    0  501    0  0.00000000000E+00 -0.00000000000E+00 -0.22514654107E+04  0.22514654107E+04  0.00000000000E+00 0. -1.
         23    2    1    2    0    0  0.37748479815E+03 -0.50154217556E+03 -0.40376313478E+03  0.75169251061E+03  0.89317606365E+02 0.  0.
    5000000    2    1    2    0    0 -0.37748479815E+03  0.50154217556E+03 -0.15610726650E+04  0.17864025110E+04  0.60020558073E+03 0.  0.
         23    2    4    4    0    0 -0.27717160659E+03  0.59005375066E+03 -0.95758406432E+03  0.11622235518E+04  0.93855292277E+02 0.  0.
         23    2    4    4    0    0 -0.10031319156E+03 -0.88511575104E+02 -0.60348860071E+03  0.62417895924E+03  0.86624746108E+02 0.  0.
          1    1    3    3  502    0  0.35486292487E+03 -0.42214229543E+03 -0.34999739523E+03  0.65316918919E+03  0.00000000000E+00 0. -1.
         -1    1    3    3    0  502  0.22621873280E+02 -0.79399880129E+02 -0.53765739548E+02  0.98523321424E+02  0.00000000000E+00 0.  1.
         13    1    5    5    0    0 -0.51395306557E+02  0.20992588358E+03 -0.33323808246E+03  0.39718758003E+03  0.00000000000E+00 0. -1.
        -13    1    5    5    0    0 -0.22577630003E+03  0.38012786708E+03 -0.62434598187E+03  0.76503597174E+03  0.00000000000E+00 0.  1.
          1    1    6    6  503    0 -0.21348139624E+02 -0.35467997133E+02 -0.36620479116E+03  0.36853720431E+03  0.00000000000E+00 0. -1.
         -1    1    6    6    0  503 -0.78965051938E+02 -0.53043577971E+02 -0.23728380955E+03  0.25564175493E+03  0.00000000000E+00 0.  1.
<mgrwt>
<rscale>  0 0.71440653E+03</rscale>
<asrwt>0</asrwt>
<pdfrwt beam="1">  1        1 0.34637928E+00 0.71440653E+03</pdfrwt>
<pdfrwt beam="2">  1       -1 0.44096865E-01 0.71440653E+03</pdfrwt>
<totfact> 0.10783902E+01</totfact>
</mgrwt>
</event>
<event>
12    1  0.1432447E-007  0.7505975E+03  0.7818608E-02  0.9634413E-01
          2   -1    0    0  501    0  0.00000000000E+00  0.00000000000E+00  0.12564167736E+04  0.12564167736E+04  0.00000000000E+00 0.  1.
         -2   -1    0    0    0  501 -0.00000000000E+00 -0.00000000000E+00 -0.54981064507E+03  0.54981064507E+03  0.00000000000E+00 0. -1.
         23    2    1    2    0    0 -0.25259609664E+03 -0.67373606662E+03  0.32224907100E+03  0.79353480087E+03  0.90155093759E+02 0.  0.
    5000000    2    1    2    0    0  0.25259609664E+03  0.67373606662E+03  0.38435705757E+03  0.10126926178E+04  0.60007575775E+03 0.  0.
         23    2    4    4    0    0  0.49027708539E+02  0.30758196231E+02  0.30862612418E+03  0.32828530531E+03  0.95767292505E+02 0.  0.
         23    2    4    4    0    0  0.20356838810E+03  0.64297787039E+03  0.75730933387E+02  0.68440731254E+03  0.88416993508E+02 0.  0.
          3    1    3    3  502    0 -0.14391803787E+03 -0.41274647760E+03  0.24208165953E+03  0.49967548096E+03  0.00000000000E+00 0. -1.
         -3    1    3    3    0  502 -0.10867805877E+03 -0.26098958903E+03  0.80167411475E+02  0.29385931991E+03  0.00000000000E+00 0.  1.
         13    1    5    5    0    0 -0.41800107922E+01 -0.24276810738E+02  0.15166139609E+03  0.15364899965E+03  0.00000000000E+00 0.  1.
        -13    1    5    5    0    0  0.53207719331E+02  0.55035006969E+02  0.15696472809E+03  0.17463630565E+03  0.00000000000E+00 0. -1.
          3    1    6    6  503    0  0.46315179935E+02  0.56871108406E+02  0.63780067682E+01  0.73621313721E+02  0.00000000000E+00 0. -1.
         -3    1    6    6    0  503  0.15725320816E+03  0.58610676198E+03  0.69352926618E+02  0.61078599882E+03  0.00000000000E+00 0.  1.
<mgrwt>
<rscale>  0 0.75059754E+03</rscale>
<asrwt>0</asrwt>
<pdfrwt beam="1">  1        2 0.19329489E+00 0.75059754E+03</pdfrwt>
<pdfrwt beam="2">  1       -2 0.84586253E-01 0.75059754E+03</pdfrwt>
<totfact> 0.21785843E+01</totfact>
</mgrwt>
</event>
<event>
12    1  0.1432447E-007  0.9100731E+03  0.7818608E-02  0.9413076E-01
          2   -1    0    0  501    0  0.00000000000E+00  0.00000000000E+00  0.34981099286E+04  0.34981099286E+04  0.00000000000E+00 0. -1.
         -2   -1    0    0    0  501 -0.00000000000E+00 -0.00000000000E+00 -0.27548385219E+03  0.27548385219E+03  0.00000000000E+00 0.  1.
         23    2    1    2    0    0 -0.80868763708E+03 -0.35433038190E+03  0.16359609329E+04  0.18612731844E+04  0.91891126625E+02 0.  0.
    5000000    2    1    2    0    0  0.80868763708E+03  0.35433038190E+03  0.15866651435E+04  0.19123205963E+04  0.59994839092E+03 0.  0.
         23    2    4    4    0    0  0.49455484180E+03  0.33844852339E+03  0.14206262759E+04  0.15445229207E+04  0.90775230499E+02 0.  0.
         23    2    4    4    0    0  0.31413279527E+03  0.15881858517E+02  0.16603886760E+03  0.36779767559E+03  0.93672718131E+02 0.  0.
          4    1    3    3  502    0 -0.11075177666E+03 -0.80631904135E+02  0.22209708839E+03  0.26094937569E+03  0.00000000000E+00 0. -1.
         -4    1    3    3    0  502 -0.69793586041E+03 -0.27369847777E+03  0.14138638445E+04  0.16003238088E+04  0.00000000000E+00 0.  1.
         11    1    5    5    0    0  0.18948138700E+03  0.78174624603E+02  0.46584813976E+03  0.50894887491E+03  0.00000000000E+00 0.  1.
        -11    1    5    5    0    0  0.30507345480E+03  0.26027389878E+03  0.95477813611E+03  0.10355740458E+04  0.00000000000E+00 0. -1.
          4    1    6    6  503    0  0.22573936150E+03 -0.30275953449E+02  0.10423635839E+03  0.25047976186E+03  0.00000000000E+00 0.  1.
         -4    1    6    6    0  503  0.88393433770E+02  0.46157811965E+02  0.61802509208E+02  0.11731791374E+03  0.00000000000E+00 0. -1.
<mgrwt>
<rscale>  0 0.91007310E+03</rscale>
<asrwt>0</asrwt>
<pdfrwt beam="1">  1        2 0.53817073E+00 0.91007310E+03</pdfrwt>
<pdfrwt beam="2">  1       -2 0.42382134E-01 0.91007310E+03</pdfrwt>
<totfact> 0.45276948E+00</totfact>
</mgrwt>
</event>
<event>
12    1  0.1432447E-007  0.1138797E+04  0.7818608E-02  0.9168182E-01
          2   -1    0    0  501    0  0.00000000000E+00  0.00000000000E+00  0.20989486660E+04  0.20989486660E+04  0.00000000000E+00 0. -1.
         -2   -1    0    0    0  501 -0.00000000000E+00 -0.00000000000E+00 -0.68830133630E+03  0.68830133630E+03  0.00000000000E+00 0.  1.
         23    2    1    2    0    0 -0.81977398821E+03 -0.76898360515E+03  0.74322458479E+03  0.13487741265E+04  0.58682911090E+02 0.  0.
    5000000    2    1    2    0    0  0.81977398821E+03  0.76898360515E+03  0.66742274492E+03  0.14384758758E+04  0.60032870014E+03 0.  0.
         23    2    4    4    0    0  0.81385679727E+03  0.73410441915E+03  0.42822512104E+03  0.11800907552E+04  0.89248257578E+02 0.  0.
         23    2    4    4    0    0  0.59171909402E+01  0.34879186006E+02  0.23919762388E+03  0.25838512067E+03  0.91081263439E+02 0.  0.
          2    1    3    3  502    0 -0.28528616741E+03 -0.28022751142E+03  0.23283359704E+03  0.46273873771E+03  0.00000000000E+00 0. -1.
         -2    1    3    3    0  502 -0.53448782080E+03 -0.48875609373E+03  0.51039098775E+03  0.88603538875E+03  0.00000000000E+00 0.  1.
         11    1    5    5    0    0  0.55712346090E+03  0.55268690271E+03  0.32220428555E+03  0.84833069303E+03  0.00000000000E+00 0. -1.
        -11    1    5    5    0    0  0.25673333637E+03  0.18141751644E+03  0.10602083549E+03  0.33176006214E+03  0.00000000000E+00 0.  1.
          3    1    6    6  503    0 -0.17455993958E+02  0.97630891769E+01  0.21610419353E+03  0.21702776803E+03  0.00000000000E+00 0. -1.
         -3    1    6    6    0  503  0.23373184898E+02  0.25116096829E+02  0.23093430353E+02  0.41357352643E+02  0.00000000000E+00 0.  1.
<mgrwt>
<rscale>  0 0.11387968E+04</rscale>
<asrwt>0</asrwt>
<pdfrwt beam="1">  1        2 0.32291518E+00 0.11387968E+04</pdfrwt>
<pdfrwt beam="2">  1       -2 0.10589251E+00 0.11387968E+04</pdfrwt>
<totfact> 0.41753029E+00</totfact>
</mgrwt>
</event>
<event>
12    1  0.1432447E-007  0.5463705E+03  0.7818608E-02  0.1002338E+00
         -1   -1    0    0    0  501 -0.00000000000E+00  0.00000000000E+00  0.99737338854E+03  0.99737338854E+03  0.00000000000E+00 0.  1.
          1   -1    0    0  501    0  0.00000000000E+00 -0.00000000000E+00 -0.49296205645E+03  0.49296205645E+03  0.00000000000E+00 0. -1.
         23    2    1    2    0    0 -0.38393449258E+03  0.14041855407E+03  0.62715638022E+03  0.75398222029E+03  0.89671613877E+02 0.  0.
    5000000    2    1    2    0    0  0.38393449258E+03 -0.14041855407E+03 -0.12274504813E+03  0.73635322470E+03  0.60002221606E+03 0.  0.
         23    2    4    4    0    0  0.23488937261E+03 -0.35011600301E+03  0.14817529995E+02  0.43157819676E+03  0.91027181595E+02 0.  0.
         23    2    4    4    0    0  0.14904511997E+03  0.20969744894E+03 -0.13756257813E+03  0.30477502795E+03  0.88186659311E+02 0.  0.
          2    1    3    3  502    0 -0.22918498725E+03  0.95784619887E+02  0.45394821999E+03  0.51746443184E+03  0.00000000000E+00 0. -1.
         -2    1    3    3    0  502 -0.15474950533E+03  0.44633934183E+02  0.17320816023E+03  0.23651778845E+03  0.00000000000E+00 0.  1.
         13    1    5    5    0    0  0.75063207794E+01 -0.44198371623E+02  0.22865715007E+02  0.50325757108E+02  0.00000000000E+00 0.  1.
        -13    1    5    5    0    0  0.22738305183E+03 -0.30591763139E+03 -0.80481850116E+01  0.38125243965E+03  0.00000000000E+00 0. -1.
          3    1    6    6  503    0  0.90101179813E+02  0.12943637688E+03 -0.13092885583E+03  0.20497405580E+03  0.00000000000E+00 0. -1.
         -3    1    6    6    0  503  0.58943940157E+02  0.80261072059E+02 -0.66337222977E+01  0.99800972143E+02  0.00000000000E+00 0.  1.
<mgrwt>
<rscale>  0 0.54637054E+03</rscale>
<asrwt>0</asrwt>
<pdfrwt beam="1">  1        1 0.75840317E-01 0.54637054E+03</pdfrwt>
<pdfrwt beam="2">  1       -1 0.15344206E+00 0.54637054E+03</pdfrwt>
<totfact> 0.15657819E+01</totfact>
</mgrwt>
</event>
<event>
12    1  0.1432447E-007  0.4188537E+03  0.7818608E-02  0.1037440E+00
          2   -1    0    0  501    0  0.00000000000E+00  0.00000000000E+00  0.23401059088E+04  0.23401059088E+04  0.00000000000E+00 0. -1.
         -2   -1    0    0    0  501 -0.00000000000E+00 -0.00000000000E+00 -0.17126868660E+03  0.17126868660E+03  0.00000000000E+00 0.  1.
         23    2    1    2    0    0  0.32877410042E+03  0.17838442807E+02  0.15544076590E+04  0.15916897149E+04  0.94246266962E+02 0.  0.
    5000000    2    1    2    0    0 -0.32877410042E+03 -0.17838442807E+02  0.61442956315E+03  0.91968488051E+03  0.59990496932E+03 0.  0.
         23    2    4    4    0    0  0.53332178233E+02 -0.40016555366E+02  0.49629605553E+03  0.50892791289E+03  0.90841619559E+02 0.  0.
         23    2    4    4    0    0 -0.38210627865E+03  0.22178112559E+02  0.11813350761E+03  0.41075696762E+03  0.90932304273E+02 0.  0.
          1    1    3    3  502    0  0.35080781255E+02  0.32998490242E+02  0.23999716263E+03  0.24478194305E+03  0.00000000000E+00 0.  1.
         -1    1    3    3    0  502  0.29369331917E+03 -0.15160047434E+02  0.13144104964E+04  0.13469077718E+04  0.00000000000E+00 0. -1.
         11    1    5    5    0    0  0.66704890637E+02 -0.59276502966E+02  0.39246599808E+03  0.40248329889E+03  0.00000000000E+00 0.  1.
        -11    1    5    5    0    0 -0.13372712405E+02  0.19259947600E+02  0.10383005745E+03  0.10644461400E+03  0.00000000000E+00 0. -1.
          1    1    6    6  503    0 -0.20871211866E+03  0.98222777519E+01  0.11141775484E+03  0.23679345791E+03  0.00000000000E+00 0. -1.
         -1    1    6    6    0  503 -0.17339416000E+03  0.12355834807E+02  0.67157527748E+01  0.17396350971E+03  0.00000000000E+00 0.  1.
<mgrwt>
<rscale>  0 0.41885370E+03</rscale>
<asrwt>0</asrwt>
<pdfrwt beam="1">  1        2 0.36001627E+00 0.41885370E+03</pdfrwt>
<pdfrwt beam="2">  1       -2 0.26349030E-01 0.41885370E+03</pdfrwt>
<totfact> 0.61370388E+01</totfact>
</mgrwt>
</event>
<event>
12    1  0.1432447E-007  0.1707974E+04  0.7818608E-02  0.8756829E-01
          2   -1    0    0  501    0  0.00000000000E+00  0.00000000000E+00  0.22882527643E+04  0.22882527643E+04  0.00000000000E+00 0. -1.
         -2   -1    0    0    0  501 -0.00000000000E+00 -0.00000000000E+00 -0.14711966769E+04  0.14711966769E+04  0.00000000000E+00 0.  1.
         23    2    1    2    0    0 -0.67933635881E+03 -0.15325094289E+04  0.10250725638E+04  0.19670119253E+04  0.90989642110E+02 0.  0.
    5000000    2    1    2    0    0  0.67933635881E+03  0.15325094289E+04 -0.20801647638E+03  0.17924375160E+04  0.59956513924E+03 0.  0.
         23    2    4    4    0    0  0.84599693219E+02 -0.58933199581E+01 -0.45356155471E+02  0.13252203768E+03  0.91176040261E+02 0.  0.
         23    2    4    4    0    0  0.59473666560E+03  0.15384027488E+04 -0.16266032091E+03  0.16599154783E+04  0.92012477625E+02 0.  0.
          3    1    3    3  502    0 -0.40137814866E+03 -0.88103112579E+03  0.64312809565E+03  0.11622968684E+04  0.00000000000E+00 0. -1.
         -3    1    3    3    0  502 -0.27795821016E+03 -0.65147830309E+03  0.38194446817E+03  0.80471505688E+03  0.00000000000E+00 0.  1.
         11    1    5    5    0    0  0.47985746323E+02  0.93319474198E+01 -0.70336684969E+02  0.85656093451E+02  0.00000000000E+00 0.  1.
        -11    1    5    5    0    0  0.36613946896E+02 -0.15225267378E+02  0.24980529498E+02  0.46865944225E+02  0.00000000000E+00 0. -1.
          3    1    6    6  503    0  0.19173492566E+03  0.59362674885E+03 -0.33968301066E+02  0.62474702412E+03  0.00000000000E+00 0. -1.
         -3    1    6    6    0  503  0.40300173993E+03  0.94477600000E+03 -0.12869201984E+03  0.10351684542E+04  0.00000000000E+00 0.  1.
<mgrwt>
<rscale>  0 0.17079745E+04</rscale>
<asrwt>0</asrwt>
<pdfrwt beam="1">  1        2 0.35203889E+00 0.17079745E+04</pdfrwt>
<pdfrwt beam="2">  1       -2 0.22633795E+00 0.17079745E+04</pdfrwt>
<totfact> 0.38085825E-01</totfact>
</mgrwt>
</event>
<event>
12    1  0.1432447E-007  0.1474149E+04  0.7818608E-02  0.8901828E-01
         -2   -1    0    0    0  501 -0.00000000000E+00  0.00000000000E+00  0.86978020444E+03  0.86978020444E+03  0.00000000000E+00 0.  1.
          2   -1    0    0  501    0  0.00000000000E+00 -0.00000000000E+00 -0.28461156036E+04  0.28461156036E+04  0.00000000000E+00 0. -1.
         23    2    1    2    0    0 -0.93455366839E+03  0.10704789218E+04 -0.15722381502E+04  0.21213479650E+04  0.94173810063E+02 0.  0.
    5000000    2    1    2    0    0  0.93455366839E+03 -0.10704789218E+04 -0.40409724890E+03  0.15945478430E+04  0.59997712944E+03 0.  0.
         23    2    4    4    0    0  0.95581774614E+03 -0.79365611850E+03 -0.28142342633E+03  0.12773639178E+04  0.94772545421E+02 0.  0.
         23    2    4    4    0    0 -0.21264077752E+02 -0.27682280332E+03 -0.12267382258E+03  0.31718392518E+03  0.92052974997E+02 0.  0.
          2    1    3    3  502    0 -0.62252216712E+03  0.73920927918E+03 -0.10076085881E+04  0.13961515941E+04  0.00000000000E+00 0. -1.
         -2    1    3    3    0  502 -0.31203150127E+03  0.33126964263E+03 -0.56462956215E+03  0.72519637091E+03  0.00000000000E+00 0.  1.
         11    1    5    5    0    0  0.14183629204E+03 -0.77183636626E+02 -0.42237475829E+02  0.16690971172E+03  0.00000000000E+00 0. -1.
        -11    1    5    5    0    0  0.81398145410E+03 -0.71647248187E+03 -0.23918595050E+03  0.11104542061E+04  0.00000000000E+00 0.  1.
          4    1    6    6  503    0  0.90589987058E+01 -0.15927664609E+03 -0.11280919318E+03  0.19538943040E+03  0.00000000000E+00 0. -1.
         -4    1    6    6    0  503 -0.30323076457E+02 -0.11754615723E+03 -0.98646294032E+01  0.12179449478E+03  0.00000000000E+00 0.  1.
<mgrwt>
<rscale>  0 0.14741491E+04</rscale>
<asrwt>0</asrwt>
<pdfrwt beam="1">  1        2 0.43786394E+00 0.14741491E+04</pdfrwt>
<pdfrwt beam="2">  1       -2 0.13381234E+00 0.14741491E+04</pdfrwt>
<totfact> 0.83257609E-01</totfact>
</mgrwt>
</event>
<event>
12    1  0.1432447E-007  0.5878301E+03  0.7818608E-02  0.9930981E-01
          2   -1    0    0  501    0  0.00000000000E+00  0.00000000000E+00  0.26848078348E+04  0.26848078348E+04  0.00000000000E+00 0. -1.
         -2   -1    0    0    0  501 -0.00000000000E+00 -0.00000000000E+00 -0.15432602972E+03  0.15432602972E+03  0.00000000000E+00 0.  1.
         23    2    1    2    0    0  0.55083852915E+02  0.48659059927E+03  0.12302957132E+04  0.13257816431E+04  0.65305293109E+02 0.  0.
    5000000    2    1    2    0    0 -0.55083852915E+02 -0.48659059927E+03  0.13001860919E+04  0.15133522214E+04  0.59995535684E+03 0.  0.
         23    2    4    4    0    0  0.17342424375E+03 -0.42434758488E+02  0.69521887046E+03  0.72323338461E+03  0.88659876689E+02 0.  0.
         23    2    4    4    0    0 -0.22850809666E+03 -0.44415584078E+03  0.60496722147E+03  0.79011883677E+03  0.93872658609E+02 0.  0.
          3    1    3    3  502    0  0.64750148567E+02  0.31606964823E+03  0.83519488801E+03  0.89534524360E+03  0.00000000000E+00 0. -1.
         -3    1    3    3    0  502 -0.96662956524E+01  0.17052095104E+03  0.39510082515E+03  0.43043639954E+03  0.00000000000E+00 0.  1.
         11    1    5    5    0    0  0.82598853457E+02 -0.22008175718E+02  0.49630767660E+03  0.50361517078E+03  0.00000000000E+00 0. -1.
        -11    1    5    5    0    0  0.90825390290E+02 -0.20426582770E+02  0.19891119386E+03  0.21961821383E+03  0.00000000000E+00 0.  1.
          2    1    6    6  503    0 -0.18999934776E+03 -0.30559523178E+03  0.47778722680E+03  0.59813780346E+03  0.00000000000E+00 0. -1.
         -2    1    6    6    0  503 -0.38508748902E+02 -0.13856060899E+03  0.12717999467E+03  0.19198103331E+03  0.00000000000E+00 0.  1.
<mgrwt>
<rscale>  0 0.58783006E+03</rscale>
<asrwt>0</asrwt>
<pdfrwt beam="1">  1        2 0.41304732E+00 0.58783006E+03</pdfrwt>
<pdfrwt beam="2">  1       -2 0.23742468E-01 0.58783006E+03</pdfrwt>
<totfact> 0.45792290E+01</totfact>
</mgrwt>
</event>
<event>
12    1  0.1432447E-007  0.4543044E+03  0.7818608E-02  0.1026446E+00
         -2   -1    0    0    0  501 -0.00000000000E+00  0.00000000000E+00  0.12720573050E+04  0.12720573050E+04  0.00000000000E+00 0.  1.
          2   -1    0    0  501    0  0.00000000000E+00 -0.00000000000E+00 -0.27635394640E+03  0.27635394640E+03  0.00000000000E+00 0. -1.
         23    2    1    2    0    0  0.36704297244E+03  0.15696584254E+02  0.67862270407E+03  0.77673933113E+03  0.88477611077E+02 0.  0.
    5000000    2    1    2    0    0 -0.36704297244E+03 -0.15696584254E+02  0.31708065456E+03  0.77167192030E+03  0.59997540341E+03 0.  0.
         23    2    4    4    0    0 -0.37914401940E+03 -0.10673017044E+03  0.43707600938E+03  0.59525258556E+03  0.90270072068E+02 0.  0.
         23    2    4    4    0    0  0.12101046960E+02  0.91033586188E+02 -0.11999535483E+03  0.17641933473E+03  0.91056835742E+02 0.  0.
          4    1    3    3  502    0  0.18057298071E+03 -0.36391972737E+02  0.33835919380E+03  0.38525046537E+03  0.00000000000E+00 0. -1.
         -4    1    3    3    0  502  0.18646999174E+03  0.52088556991E+02  0.34026351027E+03  0.39148886575E+03  0.00000000000E+00 0.  1.
         11    1    5    5    0    0 -0.16366330364E+02 -0.25076157958E+02  0.51557527167E+02  0.59622555087E+02  0.00000000000E+00 0. -1.
        -11    1    5    5    0    0 -0.36277768904E+03 -0.81654012484E+02  0.38551848222E+03  0.53563003048E+03  0.00000000000E+00 0.  1.
          2    1    6    6  503    0  0.44026365999E+02  0.14961814671E+02 -0.37324323035E+02  0.59626184612E+02  0.00000000000E+00 0. -1.
         -2    1    6    6    0  503 -0.31925319039E+02  0.76071771516E+02 -0.82671031792E+02  0.11679315012E+03  0.00000000000E+00 0.  1.
<mgrwt>
<rscale>  0 0.45430435E+03</rscale>
<asrwt>0</asrwt>
<pdfrwt beam="1">  1        2 0.42515992E-01 0.45430435E+03</pdfrwt>
<pdfrwt beam="2">  1       -2 0.19570112E+00 0.45430435E+03</pdfrwt>
<totfact> 0.17930117E+01</totfact>
</mgrwt>
</event>
<event>
12    1  0.1432447E-007  0.8270871E+03  0.7818608E-02  0.9521617E-01
          2   -1    0    0  501    0  0.00000000000E+00  0.00000000000E+00  0.12377581442E+04  0.12377581442E+04  0.00000000000E+00 0. -1.
         -2   -1    0    0    0  501 -0.00000000000E+00 -0.00000000000E+00 -0.82285947084E+03  0.82285947084E+03  0.00000000000E+00 0.  1.
         23    2    1    2    0    0  0.20084963268E+03 -0.71920715977E+03 -0.35487325316E+03  0.83176575390E+03  0.91102853594E+02 0.  0.
    5000000    2    1    2    0    0 -0.20084963268E+03  0.71920715977E+03  0.76977192652E+03  0.12288518611E+04  0.59994046717E+03 0.  0.
         23    2    4    4    0    0  0.78671912089E+02  0.57254748643E+03  0.30541747153E+03  0.66001442348E+03  0.91319840745E+02 0.  0.
         23    2    4    4    0    0 -0.27952154477E+03  0.14665967334E+03  0.46435445499E+03  0.56883743766E+03  0.91157099802E+02 0.  0.
          3    1    3    3  502    0  0.39677615893E+02 -0.28580655819E+03 -0.11257390256E+03  0.30972985882E+03  0.00000000000E+00 0.  1.
         -3    1    3    3    0  502  0.16117201679E+03 -0.43340060158E+03 -0.24229935061E+03  0.52203589508E+03  0.00000000000E+00 0. -1.
         11    1    5    5    0    0  0.73028387439E+02  0.21328092631E+03  0.10668534137E+03  0.24940661773E+03  0.00000000000E+00 0.  1.
        -11    1    5    5    0    0  0.56435246505E+01  0.35926656011E+03  0.19873213016E+03  0.41060780575E+03  0.00000000000E+00 0. -1.
          3    1    6    6  503    0 -0.59308924981E+02  0.51647070015E+02  0.60849759465E+02  0.99436721841E+02  0.00000000000E+00 0. -1.
         -3    1    6    6    0  503 -0.22021261979E+03  0.95012603328E+02  0.40350469552E+03  0.46940071582E+03  0.00000000000E+00 0.  1.
<mgrwt>
<rscale>  0 0.82708707E+03</rscale>
<asrwt>0</asrwt>
<pdfrwt beam="1">  1        2 0.19042433E+00 0.82708707E+03</pdfrwt>
<pdfrwt beam="2">  1       -2 0.12659376E+00 0.82708707E+03</pdfrwt>
<totfact> 0.84441765E+00</totfact>
</mgrwt>
</event>
<event>
12    1  0.1432447E-007  0.7897509E+03  0.7818608E-02  0.9574972E-01
         -2   -1    0    0    0  501 -0.00000000000E+00  0.00000000000E+00  0.11062172403E+04  0.11062172403E+04  0.00000000000E+00 0.  1.
          2   -1    0    0  501    0  0.00000000000E+00 -0.00000000000E+00 -0.74686615616E+03  0.74686615616E+03  0.00000000000E+00 0. -1.
         23    2    1    2    0    0 -0.52636043573E+03  0.56815645526E+03  0.39222852390E+03  0.87275477333E+03  0.89446148339E+02 0.  0.
    5000000    2    1    2    0    0  0.52636043573E+03 -0.56815645526E+03 -0.32877439774E+02  0.98032862311E+03  0.60008850788E+03 0.  0.
         23    2    4    4    0    0  0.20416791382E+03 -0.13295103160E+03  0.25143392565E+03  0.36194314815E+03  0.91778590557E+02 0.  0.
         23    2    4    4    0    0  0.32219252191E+03 -0.43520542365E+03 -0.28431136543E+03  0.61838547496E+03  0.91410399745E+02 0.  0.
          4    1    3    3  502    0 -0.43006558978E+03  0.42850055648E+03  0.33695914123E+03  0.69434184756E+03  0.00000000000E+00 0. -1.
         -4    1    3    3    0  502 -0.96294845954E+02  0.13965589877E+03  0.55269382667E+02  0.17841292577E+03  0.00000000000E+00 0.  1.
         13    1    5    5    0    0  0.14236740747E+03 -0.42747452519E+02  0.12047394473E+03  0.19133686202E+03  0.00000000000E+00 0.  1.
        -13    1    5    5    0    0  0.61800506346E+02 -0.90203579085E+02  0.13095998092E+03  0.17060628613E+03  0.00000000000E+00 0. -1.
          1    1    6    6  503    0  0.23425663742E+03 -0.26870157522E+03 -0.14826398750E+03  0.38608149229E+03  0.00000000000E+00 0. -1.
         -1    1    6    6    0  503  0.87935884494E+02 -0.16650384843E+03 -0.13604737793E+03  0.23230398267E+03  0.00000000000E+00 0.  1.
<mgrwt>
<rscale>  0 0.78975091E+03</rscale>
<asrwt>0</asrwt>
<pdfrwt beam="1">  1        2 0.11490249E+00 0.78975091E+03</pdfrwt>
<pdfrwt beam="2">  1       -2 0.17018727E+00 0.78975091E+03</pdfrwt>
<totfact> 0.81145434E+00</totfact>
</mgrwt>
</event>
<event>
12    1  0.1432447E-007  0.4504891E+03  0.7818608E-02  0.1027576E+00
         -2   -1    0    0    0  501 -0.00000000000E+00  0.00000000000E+00  0.14397278243E+04  0.14397278243E+04  0.00000000000E+00 0.  1.
          2   -1    0    0  501    0  0.00000000000E+00 -0.00000000000E+00 -0.17688314369E+03  0.17688314369E+03  0.00000000000E+00 0. -1.
         23    2    1    2    0    0 -0.15973171580E+03 -0.26861375170E+03  0.42646753633E+03  0.53973589064E+03  0.10850208968E+03 0.  0.
    5000000    2    1    2    0    0  0.15973171580E+03  0.26861375170E+03  0.83637714430E+03  0.10768750774E+04  0.60205119061E+03 0.  0.
         23    2    4    4    0    0 -0.84805365380E+02  0.30853496893E+03  0.20119897939E+03  0.38826357490E+03  0.88779486606E+02 0.  0.
         23    2    4    4    0    0  0.24453708118E+03 -0.39921217230E+02  0.63517816491E+03  0.68861150246E+03  0.96656155964E+02 0.  0.
          2    1    3    3  502    0 -0.66970931339E+02 -0.28374984730E+02  0.10732380579E+03  0.12964815730E+03  0.00000000000E+00 0. -1.
         -2    1    3    3    0  502 -0.92760784457E+02 -0.24023876697E+03  0.31914373054E+03  0.41008773333E+03  0.00000000000E+00 0.  1.
         13    1    5    5    0    0 -0.28227738916E+02  0.12764301731E+03  0.32925418298E+02  0.13480960011E+03  0.00000000000E+00 0. -1.
        -13    1    5    5    0    0 -0.56577626463E+02  0.18089195162E+03  0.16827356109E+03  0.25345397479E+03  0.00000000000E+00 0.  1.
          1    1    6    6  503    0  0.11893135483E+03 -0.37942593518E+02  0.20088035463E+03  0.23651051656E+03  0.00000000000E+00 0. -1.
         -1    1    6    6    0  503  0.12560572635E+03 -0.19786237122E+01  0.43429781028E+03  0.45210098590E+03  0.00000000000E+00 0.  1.
<mgrwt>
<rscale>  0 0.45048907E+03</rscale>
<asrwt>0</asrwt>
<pdfrwt beam="1">  1        2 0.27212792E-01 0.45048907E+03</pdfrwt>
<pdfrwt beam="2">  1       -2 0.22149658E+00 0.45048907E+03</pdfrwt>
<totfact> 0.20236008E+01</totfact>
</mgrwt>
</event>
<event>
12    1  0.1432447E-007  0.6002443E+03  0.7818608E-02  0.9904899E-01
          2   -1    0    0  501    0  0.00000000000E+00  0.00000000000E+00  0.30637056658E+04  0.30637056658E+04  0.00000000000E+00 0. -1.
         -2   -1    0    0    0  501 -0.00000000000E+00 -0.00000000000E+00 -0.13318968335E+03  0.13318968335E+03  0.00000000000E+00 0.  1.
         23    2    1    2    0    0  0.21475727642E+03 -0.41242079140E+03  0.74158342836E+03  0.88008629994E+03  0.91620506247E+02 0.  0.
    5000000    2    1    2    0    0 -0.21475727642E+03  0.41242079140E+03  0.21889325541E+04  0.23168090492E+04  0.59997237206E+03 0.  0.
         23    2    4    4    0    0 -0.28103397148E+03  0.52065322556E+03  0.17998493317E+04  0.18967946276E+04  0.91172190341E+02 0.  0.
         23    2    4    4    0    0  0.66276695061E+02 -0.10823243416E+03  0.38908322240E+03  0.42001442156E+03  0.94443105940E+02 0.  0.
          1    1    3    3  502    0  0.11928360219E+03 -0.18639736687E+03  0.42892499798E+03  0.48264812236E+03  0.00000000000E+00 0. -1.
         -1    1    3    3    0  502  0.95473674230E+02 -0.22602342453E+03  0.31265843038E+03  0.39743817757E+03  0.00000000000E+00 0.  1.
         11    1    5    5    0    0 -0.16886870181E+03  0.25395259690E+03  0.10372499299E+04  0.10811549274E+04  0.00000000000E+00 0. -1.
        -11    1    5    5    0    0 -0.11216526967E+03  0.26670062865E+03  0.76259940178E+03  0.81563970026E+03  0.00000000000E+00 0.  1.
          1    1    6    6  503    0  0.65142681059E+02 -0.11526899552E+03  0.39085347908E+03  0.41267051304E+03  0.00000000000E+00 0. -1.
         -1    1    6    6    0  503  0.11340140024E+01  0.70365613657E+01 -0.17702566871E+01  0.73439085200E+01  0.00000000000E+00 0.  1.
<mgrwt>
<rscale>  0 0.60024426E+03</rscale>
<asrwt>0</asrwt>
<pdfrwt beam="1">  1        2 0.47133928E+00 0.60024426E+03</pdfrwt>
<pdfrwt beam="2">  1       -2 0.20490723E-01 0.60024426E+03</pdfrwt>
<totfact> 0.35268444E+01</totfact>
</mgrwt>
</event>
<event>
12    1  0.1432447E-007  0.1081939E+04  0.7818608E-02  0.9222977E-01
          1   -1    0    0  501    0  0.00000000000E+00  0.00000000000E+00  0.13557220166E+04  0.13557220166E+04  0.00000000000E+00 0. -1.
         -1   -1    0    0    0  501 -0.00000000000E+00 -0.00000000000E+00 -0.10438850398E+04  0.10438850398E+04  0.00000000000E+00 0.  1.
         23    2    1    2    0    0  0.10103832228E+04  0.29127437419E+02 -0.32159891275E+03  0.10643310123E+04  0.87475588216E+02 0.  0.
    5000000    2    1    2    0    0 -0.10103832228E+04 -0.29127437419E+02  0.63343588950E+03  0.13352760441E+04  0.59999868599E+03 0.  0.
         23    2    4    4    0    0 -0.55521814850E+03  0.25840728268E+03  0.24970898349E+03  0.66775269214E+03  0.92182239406E+02 0.  0.
         23    2    4    4    0    0 -0.45516507430E+03 -0.28753472010E+03  0.38372690601E+03  0.66752335191E+03  0.92139170983E+02 0.  0.
          4    1    3    3  502    0  0.20246324894E+03  0.26349022891E+01 -0.10177901141E+03  0.22662143995E+03  0.00000000000E+00 0. -1.
         -4    1    3    3    0  502  0.80791997387E+03  0.26492535130E+02 -0.21981990134E+03  0.83770957236E+03  0.00000000000E+00 0.  1.
         11    1    5    5    0    0 -0.35053164757E+03  0.14435714319E+03  0.10907504947E+03  0.39447279647E+03  0.00000000000E+00 0. -1.
        -11    1    5    5    0    0 -0.20468650093E+03  0.11405013948E+03  0.14063393402E+03  0.27327989567E+03  0.00000000000E+00 0.  1.
          2    1    6    6  503    0 -0.33663465920E+03 -0.23130576973E+03  0.24360439725E+03  0.47557160896E+03  0.00000000000E+00 0. -1.
         -2    1    6    6    0  503 -0.11853041510E+03 -0.56228950362E+02  0.14012250876E+03  0.19195174296E+03  0.00000000000E+00 0.  1.
<mgrwt>
<rscale>  0 0.10819386E+04</rscale>
<asrwt>0</asrwt>
<pdfrwt beam="1">  1        1 0.20857262E+00 0.10819386E+04</pdfrwt>
<pdfrwt beam="2">  1       -1 0.16059770E+00 0.10819386E+04</pdfrwt>
<totfact> 0.23736053E+00</totfact>
</mgrwt>
</event>
<event>
12    1  0.1432447E-007  0.6714556E+03  0.7818608E-02  0.9767332E-01
          1   -1    0    0  501    0  0.00000000000E+00  0.00000000000E+00  0.63949860432E+03  0.63949860432E+03  0.00000000000E+00 0. -1.
         -1   -1    0    0    0  501 -0.00000000000E+00 -0.00000000000E+00 -0.13856653547E+04  0.13856653547E+04  0.00000000000E+00 0.  1.
         23    2    1    2    0    0  0.15029478878E+03  0.63554505635E+03  0.23733234193E+03  0.70090520141E+03  0.91844535226E+02 0.  0.
    5000000    2    1    2    0    0 -0.15029478878E+03 -0.63554505635E+03 -0.98349909228E+03  0.13242587576E+04  0.59990395090E+03 0.  0.
         23    2    4    4    0    0 -0.19977772874E+03 -0.53655173930E+03 -0.10245434758E+04  0.11771826969E+04  0.90944258530E+02 0.  0.
         23    2    4    4    0    0  0.49482939958E+02 -0.98993317047E+02  0.41044383542E+02  0.14707606068E+03  0.87741028253E+02 0.  0.
          1    1    3    3  502    0  0.26301235464E+02  0.93921521042E+02  0.21810076770E+01  0.97559027754E+02  0.00000000000E+00 0. -1.
         -1    1    3    3    0  502  0.12399355332E+03  0.54162353531E+03  0.23515133425E+03  0.60334617366E+03  0.00000000000E+00 0.  1.
         13    1    5    5    0    0 -0.32200422958E+02 -0.20545459837E+03 -0.34128214165E+03  0.39965229818E+03  0.00000000000E+00 0. -1.
        -13    1    5    5    0    0 -0.16757730578E+03 -0.33109714094E+03 -0.68326133417E+03  0.77753039871E+03  0.00000000000E+00 0.  1.
          2    1    6    6  503    0  0.23099117329E+02 -0.48401429064E+02 -0.25528838039E+02  0.59396878103E+02  0.00000000000E+00 0.  1.
         -2    1    6    6    0  503  0.26383822629E+02 -0.50591887983E+02  0.66573221581E+02  0.87679182580E+02  0.00000000000E+00 0. -1.
<mgrwt>
<rscale>  0 0.67145557E+03</rscale>
<asrwt>0</asrwt>
<pdfrwt beam="1">  1        1 0.98384402E-01 0.67145557E+03</pdfrwt>
<pdfrwt beam="2">  1       -1 0.21317928E+00 0.67145557E+03</pdfrwt>
<totfact> 0.40144089E+00</totfact>
</mgrwt>
</event>
<event>
12    1  0.1432447E-007  0.4674788E+03  0.7818608E-02  0.1022634E+00
          1   -1    0    0  501    0  0.00000000000E+00  0.00000000000E+00  0.73618952699E+03  0.73618952699E+03  0.00000000000E+00 0. -1.
         -1   -1    0    0    0  501 -0.00000000000E+00 -0.00000000000E+00 -0.52748031738E+03  0.52748031738E+03  0.00000000000E+00 0.  1.
         23    2    1    2    0    0  0.31937027285E+03 -0.20191311658E+03 -0.20844119617E+03  0.44090833629E+03  0.90477350302E+02 0.  0.
    5000000    2    1    2    0    0 -0.31937027285E+03  0.20191311658E+03  0.41715040579E+03  0.82276150808E+03  0.60012978622E+03 0.  0.
         23    2    4    4    0    0  0.51503823595E+02 -0.48088325145E+02 -0.86226549049E+02  0.14315814520E+03  0.89967249127E+02 0.  0.
         23    2    4    4    0    0 -0.37087409645E+03  0.25000144172E+03  0.50337695484E+03  0.67960336289E+03  0.91782655788E+02 0.  0.
          2    1    3    3  502    0  0.25050508089E+03 -0.15965077558E+03 -0.20326904913E+03  0.35994370675E+03  0.00000000000E+00 0. -1.
         -2    1    3    3    0  502  0.68865191967E+02 -0.42262340998E+02 -0.51721470389E+01  0.80964629538E+02  0.00000000000E+00 0.  1.
         13    1    5    5    0    0 -0.89228798757E+01 -0.47577860066E+02 -0.60496137521E+02  0.77479372795E+02  0.00000000000E+00 0. -1.
        -13    1    5    5    0    0  0.60426703470E+02 -0.51046507864E+00 -0.25730411527E+02  0.65678772402E+02  0.00000000000E+00 0.  1.
          4    1    6    6  503    0 -0.78499949710E+02  0.38628216301E+02  0.52058105009E+02  0.10180583233E+03  0.00000000000E+00 0. -1.
         -4    1    6    6    0  503 -0.29237414674E+03  0.21137322542E+03  0.45131884983E+03  0.57779753056E+03  0.00000000000E+00 0.  1.
<mgrwt>
<rscale>  0 0.46747882E+03</rscale>
<asrwt>0</asrwt>
<pdfrwt beam="1">  1        1 0.11325993E+00 0.46747882E+03</pdfrwt>
<pdfrwt beam="2">  1       -1 0.81150818E-01 0.46747882E+03</pdfrwt>
<totfact> 0.40427413E+01</totfact>
</mgrwt>
</event>
<event>
12    1  0.1432447E-007  0.5003939E+03  0.7818608E-02  0.1013676E+00
         -2   -1    0    0    0  501 -0.00000000000E+00  0.00000000000E+00  0.25180089696E+03  0.25180089696E+03  0.00000000000E+00 0.  1.
          2   -1    0    0  501    0  0.00000000000E+00 -0.00000000000E+00 -0.16347164915E+04  0.16347164915E+04  0.00000000000E+00 0. -1.
         23    2    1    2    0    0 -0.40924300657E+02 -0.34071416303E+03 -0.10715624191E+04  0.11288584589E+04  0.91183677073E+02 0.  0.
    5000000    2    1    2    0    0  0.40924300657E+02  0.34071416303E+03 -0.31135317546E+03  0.75765892957E+03  0.59945418041E+03 0.  0.
         23    2    4    4    0    0  0.10036980831E+03  0.47634247174E+03 -0.30578736038E+03  0.58269941429E+03  0.95165376270E+02 0.  0.
         23    2    4    4    0    0 -0.59445507652E+02 -0.13562830871E+03 -0.55658150774E+01  0.17495951528E+03  0.93011005720E+02 0.  0.
          1    1    3    3  502    0 -0.17255388974E+02 -0.16186585458E+03 -0.36547204999E+03  0.40008514425E+03  0.00000000000E+00 0. -1.
         -1    1    3    3    0  502 -0.23668911683E+02 -0.17884830845E+03 -0.70609036912E+03  0.72877331467E+03  0.00000000000E+00 0.  1.
         11    1    5    5    0    0  0.70396761419E+02  0.38200217710E+03 -0.19671297879E+03  0.43540482697E+03  0.00000000000E+00 0. -1.
        -11    1    5    5    0    0  0.29973046890E+02  0.94340294640E+02 -0.10907438160E+03  0.14729458732E+03  0.00000000000E+00 0.  1.
          2    1    6    6  503    0  0.72811055438E+01 -0.87743109871E+02 -0.22999200254E+02  0.90999071645E+02  0.00000000000E+00 0. -1.
         -2    1    6    6    0  503 -0.66726613195E+02 -0.47885198842E+02  0.17433385177E+02  0.83960443635E+02  0.00000000000E+00 0.  1.
<mgrwt>
<rscale>  0 0.50039386E+03</rscale>
<asrwt>0</asrwt>
<pdfrwt beam="1">  1        2 0.25149485E+00 0.50039386E+03</pdfrwt>
<pdfrwt beam="2">  1       -2 0.38738598E-01 0.50039386E+03</pdfrwt>
<totfact> 0.70806810E+01</totfact>
</mgrwt>
</event>
<event>
12    1  0.1432447E-007  0.6386314E+03  0.7818608E-02  0.9828349E-01
         -2   -1    0    0    0  501 -0.00000000000E+00  0.00000000000E+00  0.72634158991E+03  0.72634158991E+03  0.00000000000E+00 0.  1.
          2   -1    0    0  501    0  0.00000000000E+00 -0.00000000000E+00 -0.10404785887E+04  0.10404785887E+04  0.00000000000E+00 0. -1.
         23    2    1    2    0    0 -0.59571444275E+03  0.16590596680E+03  0.31487104508E+03  0.70006466218E+03  0.92446033384E+02 0.  0.
    5000000    2    1    2    0    0  0.59571444275E+03 -0.16590596680E+03 -0.62900804384E+03  0.10667555164E+04  0.59992976706E+03 0.  0.
         23    2    4    4    0    0  0.76994528774E+02 -0.49950716535E+01  0.98280698951E+02  0.15459696761E+03  0.91038554499E+02 0.  0.
         23    2    4    4    0    0  0.51871991398E+03 -0.16091089514E+03 -0.72728874279E+03  0.91215854878E+03  0.90120127561E+02 0.  0.
          2    1    3    3  502    0 -0.34556281856E+03  0.96696535675E+02  0.13106653667E+03  0.38202397650E+03  0.00000000000E+00 0. -1.
         -2    1    3    3    0  502 -0.25015162419E+03  0.69209431123E+02  0.18380450841E+03  0.31804068569E+03  0.00000000000E+00 0.  1.
         13    1    5    5    0    0 -0.91880895851E+01  0.19245774595E+02  0.46540928928E+02  0.51194520170E+02  0.00000000000E+00 0. -1.
        -13    1    5    5    0    0  0.86182618359E+02 -0.24240846248E+02  0.51739770023E+02  0.10340244744E+03  0.00000000000E+00 0.  1.
          1    1    6    6  503    0  0.19520163117E+03 -0.23790900258E+02 -0.30363284526E+03  0.36174934481E+03  0.00000000000E+00 0. -1.
         -1    1    6    6    0  503  0.32351828281E+03 -0.13711999489E+03 -0.42365589752E+03  0.55040920397E+03  0.00000000000E+00 0.  1.
<mgrwt>
<rscale>  0 0.63863139E+03</rscale>
<asrwt>0</asrwt>
<pdfrwt beam="1">  1        2 0.16007363E+00 0.63863139E+03</pdfrwt>
<pdfrwt beam="2">  1       -2 0.11174486E+00 0.63863139E+03</pdfrwt>
<totfact> 0.15476214E+01</totfact>
</mgrwt>
</event>
<event>
12    1  0.1432447E-007  0.7691992E+03  0.7818608E-02  0.9605702E-01
          1   -1    0    0  501    0  0.00000000000E+00  0.00000000000E+00  0.38472042409E+04  0.38472042409E+04  0.00000000000E+00 0. -1.
         -1   -1    0    0    0  501 -0.00000000000E+00 -0.00000000000E+00 -0.23534993875E+03  0.23534993875E+03  0.00000000000E+00 0.  1.
         23    2    1    2    0    0 -0.51555394693E+03 -0.42272344183E+03  0.48460891631E+03  0.82922516627E+03  0.90981284526E+02 0.  0.
    5000000    2    1    2    0    0  0.51555394693E+03  0.42272344183E+03  0.31272453859E+04  0.32533290134E+04  0.59999582137E+03 0.  0.
         23    2    4    4    0    0  0.51331693740E+03  0.80389563261E+02  0.21527606826E+04  0.22164172833E+04  0.90389475560E+02 0.  0.
         23    2    4    4    0    0  0.22370095350E+01  0.34233387856E+03  0.97448470328E+03  0.10369117301E+04  0.91476829993E+02 0.  0.
          4    1    3    3  502    0 -0.43216193079E+03 -0.37000142488E+03  0.44747301886E+03  0.72380735797E+03  0.00000000000E+00 0. -1.
         -4    1    3    3    0  502 -0.83392016140E+02 -0.52722016943E+02  0.37135897445E+02  0.10541780829E+03  0.00000000000E+00 0.  1.
         13    1    5    5    0    0  0.18086987961E+02 -0.98624898217E+01  0.14783027525E+03  0.14925882928E+03  0.00000000000E+00 0.  1.
        -13    1    5    5    0    0  0.49522994944E+03  0.90252053083E+02  0.20049304073E+04  0.20671584541E+04  0.00000000000E+00 0. -1.
          1    1    6    6  503    0  0.26196145071E+02  0.10202723491E+03  0.40206018600E+03  0.41562986881E+03  0.00000000000E+00 0. -1.
         -1    1    6    6    0  503 -0.23959135536E+02  0.24030664366E+03  0.57242451728E+03  0.62128186127E+03  0.00000000000E+00 0.  1.
<mgrwt>
<rscale>  0 0.76919917E+03</rscale>
<asrwt>0</asrwt>
<pdfrwt beam="1">  1        1 0.59187753E+00 0.76919917E+03</pdfrwt>
<pdfrwt beam="2">  1       -1 0.36207686E-01 0.76919917E+03</pdfrwt>
<totfact> 0.10401955E+00</totfact>
</mgrwt>
</event>
<event>
12    1  0.1432447E-007  0.5589745E+03  0.7818608E-02  0.9994378E-01
          2   -1    0    0  501    0  0.00000000000E+00  0.00000000000E+00  0.13811358181E+04  0.13811358181E+04  0.00000000000E+00 0. -1.
         -2   -1    0    0    0  501 -0.00000000000E+00 -0.00000000000E+00 -0.24847199225E+03  0.24847199225E+03  0.00000000000E+00 0.  1.
         23    2    1    2    0    0 -0.33283837404E+03  0.25212985229E+03  0.30308655234E+03  0.52386492853E+03  0.90676124083E+02 0.  0.
    5000000    2    1    2    0    0  0.33283837404E+03 -0.25212985229E+03  0.82957727352E+03  0.11057428818E+04  0.60009834389E+03 0.  0.
         23    2    4    4    0    0  0.22675227595E+03 -0.41940429521E+03  0.69202589243E+03  0.84526644458E+03  0.90878870184E+02 0.  0.
         23    2    4    4    0    0  0.10608609810E+03  0.16727444292E+03  0.13755138109E+03  0.26047643726E+03  0.98450964760E+02 0.  0.
          1    1    3    3  502    0 -0.68598204181E+02  0.21372006684E+02  0.82767310469E+02  0.10960339397E+03  0.00000000000E+00 0. -1.
         -1    1    3    3    0  502 -0.26424016986E+03  0.23075784561E+03  0.22031924188E+03  0.41426153456E+03  0.00000000000E+00 0.  1.
         13    1    5    5    0    0  0.15562642968E+03 -0.29338503099E+03  0.40440467372E+03  0.52329485201E+03  0.00000000000E+00 0. -1.
        -13    1    5    5    0    0  0.71125846273E+02 -0.12601926423E+03  0.28762121871E+03  0.32197159256E+03  0.00000000000E+00 0.  1.
          3    1    6    6  503    0  0.86750921739E+02  0.51066960788E+02  0.83831845971E+02  0.13100127979E+03  0.00000000000E+00 0. -1.
         -3    1    6    6    0  503  0.19335176356E+02  0.11620748213E+03  0.53719535123E+02  0.12947515747E+03  0.00000000000E+00 0.  1.
<mgrwt>
<rscale>  0 0.55897445E+03</rscale>
<asrwt>0</asrwt>
<pdfrwt beam="1">  1        2 0.21248243E+00 0.55897445E+03</pdfrwt>
<pdfrwt beam="2">  1       -2 0.38226461E-01 0.55897445E+03</pdfrwt>
<totfact> 0.99388716E+01</totfact>
</mgrwt>
</event>
<event>
12    1  0.1432447E-007  0.8256214E+03  0.7818608E-02  0.9523654E-01
          2   -1    0    0  501    0  0.00000000000E+00  0.00000000000E+00  0.10894583873E+04  0.10894583873E+04  0.00000000000E+00 0. -1.
         -2   -1    0    0    0  501 -0.00000000000E+00 -0.00000000000E+00 -0.71756935858E+03  0.71756935858E+03  0.00000000000E+00 0.  1.
         23    2    1    2    0    0  0.59527911434E+03 -0.45456376715E+03 -0.48044540158E+02  0.75952266097E+03  0.11653734298E+03 0.  0.
    5000000    2    1    2    0    0 -0.59527911434E+03  0.45456376715E+03  0.41993356890E+03  0.10475050849E+04  0.59994771295E+03 0.  0.
         23    2    4    4    0    0 -0.11558772692E+03 -0.94690614869E+02  0.22925314084E+03  0.28813658156E+03  0.90215585622E+02 0.  0.
         23    2    4    4    0    0 -0.47969138743E+03  0.54925438202E+03  0.19068042806E+03  0.75936850337E+03  0.92180773048E+02 0.  0.
          1    1    3    3  502    0  0.51972467545E+03 -0.34143158396E+03 -0.34307908103E+02  0.62278912752E+03  0.00000000000E+00 0. -1.
         -1    1    3    3    0  502  0.75554438893E+02 -0.11313218319E+03 -0.13736632055E+02  0.13673353345E+03  0.00000000000E+00 0.  1.
         13    1    5    5    0    0 -0.14987835503E+02 -0.52979413508E+02  0.12839798381E+03  0.13970503110E+03  0.00000000000E+00 0. -1.
        -13    1    5    5    0    0 -0.10059989141E+03 -0.41711201361E+02  0.10085515703E+03  0.14843155046E+03  0.00000000000E+00 0.  1.
          3    1    6    6  503    0 -0.28346502990E+03  0.33590817508E+03  0.16058106431E+03  0.46794551336E+03  0.00000000000E+00 0. -1.
         -3    1    6    6    0  503 -0.19622635753E+03  0.21334620694E+03  0.30099363749E+02  0.29142299000E+03  0.00000000000E+00 0.  1.
<mgrwt>
<rscale>  0 0.82562139E+03</rscale>
<asrwt>0</asrwt>
<pdfrwt beam="1">  1        2 0.16760898E+00 0.82562139E+03</pdfrwt>
<pdfrwt beam="2">  1       -2 0.11039529E+00 0.82562139E+03</pdfrwt>
<totfact> 0.14542994E+01</totfact>
</mgrwt>
</event>
<event>
12    1  0.1432447E-007  0.6938521E+03  0.7818608E-02  0.9727804E-01
         -2   -1    0    0    0  501 -0.00000000000E+00  0.00000000000E+00  0.11147757745E+04  0.11147757745E+04  0.00000000000E+00 0.  1.
          2   -1    0    0  501    0  0.00000000000E+00 -0.00000000000E+00 -0.68570619575E+03  0.68570619575E+03  0.00000000000E+00 0. -1.
         23    2    1    2    0    0 -0.33923551196E+02 -0.64501387463E+03  0.61900687135E+03  0.89859916914E+03  0.84363820498E+02 0.  0.
    5000000    2    1    2    0    0  0.33923551196E+02  0.64501387463E+03 -0.18993729263E+03  0.90188280108E+03  0.60010224625E+03 0.  0.
         23    2    4    4    0    0 -0.15323909101E+03  0.30812733091E+03 -0.32592804356E+03  0.48292053567E+03  0.92512070167E+02 0.  0.
         23    2    4    4    0    0  0.18716264221E+03  0.33688654372E+03  0.13599075093E+03  0.41896226541E+03  0.92268616127E+02 0.  0.
          2    1    3    3  502    0 -0.43828913794E+01 -0.28057987815E+03  0.32532235116E+03  0.42962647721E+03  0.00000000000E+00 0. -1.
         -2    1    3    3    0  502 -0.29540659816E+02 -0.36443399648E+03  0.29368452020E+03  0.46897269193E+03  0.00000000000E+00 0.  1.
         13    1    5    5    0    0 -0.15784630441E+03  0.23678083158E+03 -0.26801411394E+03  0.39091198918E+03  0.00000000000E+00 0.  1.
        -13    1    5    5    0    0  0.46072133988E+01  0.71346499331E+02 -0.57913929617E+02  0.92008546482E+02  0.00000000000E+00 0. -1.
          2    1    6    6  503    0  0.21186702175E+02  0.36472092098E+02  0.49467609003E+02  0.65008723965E+02  0.00000000000E+00 0.  1.
         -2    1    6    6    0  503  0.16597594003E+03  0.30041445163E+03  0.86523141923E+02  0.35395354145E+03  0.00000000000E+00 0. -1.
<mgrwt>
<rscale>  0 0.69385209E+03</rscale>
<asrwt>0</asrwt>
<pdfrwt beam="1">  1        2 0.10549326E+00 0.69385209E+03</pdfrwt>
<pdfrwt beam="2">  1       -2 0.17150396E+00 0.69385209E+03</pdfrwt>
<totfact> 0.89538753E+00</totfact>
</mgrwt>
</event>
<event>
12    1  0.1432447E-007  0.7796542E+03  0.7818608E-02  0.9589943E-01
          2   -1    0    0  501    0  0.00000000000E+00  0.00000000000E+00  0.16084600973E+04  0.16084600973E+04  0.00000000000E+00 0. -1.
         -2   -1    0    0    0  501 -0.00000000000E+00 -0.00000000000E+00 -0.51012581520E+03  0.51012581520E+03  0.00000000000E+00 0.  1.
         23    2    1    2    0    0 -0.36209729467E+03  0.59723689340E+03  0.95579412778E+03  0.11868224215E+04  0.84845081131E+02 0.  0.
    5000000    2    1    2    0    0  0.36209729467E+03 -0.59723689340E+03  0.14254015430E+03  0.93176349100E+03  0.60004928958E+03 0.  0.
         23    2    4    4    0    0  0.30634101494E+03 -0.62208291975E+02 -0.93313320689E+02  0.33709615646E+03  0.84922045769E+02 0.  0.
         23    2    4    4    0    0  0.55756279728E+02 -0.53502860143E+03  0.23585347499E+03  0.59466733454E+03  0.92940895331E+02 0.  0.
          1    1    3    3  502    0 -0.19573871963E+03  0.38998229345E+03  0.55651866951E+03  0.70718658434E+03  0.00000000000E+00 0. -1.
         -1    1    3    3    0  502 -0.16635857504E+03  0.20725459995E+03  0.39927545827E+03  0.47963583714E+03  0.00000000000E+00 0.  1.
         11    1    5    5    0    0  0.25920684153E+02  0.12258521908E+02 -0.27194603904E+02  0.39518346471E+02  0.00000000000E+00 0. -1.
        -11    1    5    5    0    0  0.28042033079E+03 -0.74466813883E+02 -0.66118716785E+02  0.29757780999E+03  0.00000000000E+00 0.  1.
          2    1    6    6  503    0  0.47740954380E+02 -0.35723837589E+03  0.20312327772E+03  0.41371188270E+03  0.00000000000E+00 0. -1.
         -2    1    6    6    0  503  0.80153253479E+01 -0.17779022554E+03  0.32730197273E+02  0.18095545184E+03  0.00000000000E+00 0.  1.
<mgrwt>
<rscale>  0 0.77965419E+03</rscale>
<asrwt>0</asrwt>
<pdfrwt beam="1">  1        2 0.24745540E+00 0.77965419E+03</pdfrwt>
<pdfrwt beam="2">  1       -2 0.78480895E-01 0.77965419E+03</pdfrwt>
<totfact> 0.16275615E+01</totfact>
</mgrwt>
</event>
<event>
12    1  0.1432447E-007  0.1114652E+04  0.7818608E-02  0.9191028E-01
          1   -1    0    0  501    0  0.00000000000E+00  0.00000000000E+00  0.12381378298E+04  0.12381378298E+04  0.00000000000E+00 0.  1.
         -1   -1    0    0    0  501 -0.00000000000E+00 -0.00000000000E+00 -0.11000552956E+04  0.11000552956E+04  0.00000000000E+00 0. -1.
         23    2    1    2    0    0 -0.70127943480E+01  0.10582997791E+04 -0.18814344655E+03  0.10786491225E+04  0.89656964474E+02 0.  0.
    5000000    2    1    2    0    0  0.70127943480E+01 -0.10582997791E+04  0.32622598084E+03  0.12595440029E+04  0.59998341873E+03 0.  0.
         23    2    4    4    0    0  0.55113197846E+02 -0.10703949963E+04  0.38914420558E+03  0.11439196040E+04  0.91301341573E+02 0.  0.
         23    2    4    4    0    0 -0.48100403498E+02  0.12095217163E+02 -0.62918224740E+02  0.11562439887E+03  0.83368792208E+02 0.  0.
          2    1    3    3  502    0 -0.38190059284E+02  0.22792948246E+03 -0.45340498598E+02  0.23551239971E+03  0.00000000000E+00 0. -1.
         -2    1    3    3    0  502  0.31177264936E+02  0.83037029667E+03 -0.14280294796E+03  0.84313672284E+03  0.00000000000E+00 0.  1.
         13    1    5    5    0    0 -0.36985142086E+01 -0.39600673003E+03  0.10462919436E+03  0.40961235033E+03  0.00000000000E+00 0. -1.
        -13    1    5    5    0    0  0.58811712054E+02 -0.67438826627E+03  0.28451501121E+03  0.73430725365E+03  0.00000000000E+00 0.  1.
          2    1    6    6  503    0 -0.21603693509E+02  0.46247395907E+02 -0.20332501447E+02  0.54944989003E+02  0.00000000000E+00 0. -1.
         -2    1    6    6    0  503 -0.26496709988E+02 -0.34152178744E+02 -0.42585723293E+02  0.60679409865E+02  0.00000000000E+00 0.  1.
<mgrwt>
<rscale>  0 0.11146520E+04</rscale>
<asrwt>0</asrwt>
<pdfrwt beam="1">  1        1 0.19048274E+00 0.11146520E+04</pdfrwt>
<pdfrwt beam="2">  1       -1 0.16923928E+00 0.11146520E+04</pdfrwt>
<totfact> 0.24732225E+00</totfact>
</mgrwt>
</event>
<event>
12    1  0.1432447E-007  0.6955739E+03  0.7818608E-02  0.9724832E-01
          1   -1    0    0  501    0  0.00000000000E+00  0.00000000000E+00  0.18536107783E+04  0.18536107783E+04  0.00000000000E+00 0. -1.
         -1   -1    0    0    0  501 -0.00000000000E+00 -0.00000000000E+00 -0.40551593239E+03  0.40551593239E+03  0.00000000000E+00 0.  1.
         23    2    1    2    0    0 -0.65528628961E+03  0.17349176009E+02  0.11409213003E+04  0.13190866950E+04  0.92667039241E+02 0.  0.
    5000000    2    1    2    0    0  0.65528628961E+03 -0.17349176009E+02  0.30717354558E+03  0.94004001567E+03  0.59968202300E+03 0.  0.
         23    2    4    4    0    0  0.50273368078E+03 -0.15655663805E+03  0.42835011452E+03  0.68410367080E+03  0.85222515140E+02 0.  0.
         23    2    4    4    0    0  0.15255260883E+03  0.13920746204E+03 -0.12117656894E+03  0.25593634488E+03  0.90380505747E+02 0.  0.
          3    1    3    3  502    0 -0.48673175471E+03 -0.96502343461E+01  0.90847792332E+03  0.10306954280E+04  0.00000000000E+00 0. -1.
         -3    1    3    3    0  502 -0.16855453490E+03  0.26999410355E+02  0.23244337698E+03  0.28839126702E+03  0.00000000000E+00 0.  1.
         11    1    5    5    0    0  0.11228104357E+03 -0.45413560515E+02  0.14553534779E+03  0.18934086110E+03  0.00000000000E+00 0.  1.
        -11    1    5    5    0    0  0.39045263721E+03 -0.11114307754E+03  0.28281476672E+03  0.49476280970E+03  0.00000000000E+00 0. -1.
          1    1    6    6  503    0  0.65639684073E+02  0.58214137163E+02 -0.21426565553E+01  0.87761294817E+02  0.00000000000E+00 0. -1.
         -1    1    6    6    0  503  0.86912924758E+02  0.80993324881E+02 -0.11903391238E+03  0.16817505006E+03  0.00000000000E+00 0.  1.
<mgrwt>
<rscale>  0 0.69557386E+03</rscale>
<asrwt>0</asrwt>
<pdfrwt beam="1">  1        1 0.28517088E+00 0.69557386E+03</pdfrwt>
<pdfrwt beam="2">  1       -1 0.62387067E-01 0.69557386E+03</pdfrwt>
<totfact> 0.10277072E+01</totfact>
</mgrwt>
</event>
<event>
12    1  0.1432447E-007  0.8625569E+03  0.7818608E-02  0.9473637E-01
          2   -1    0    0  501    0  0.00000000000E+00  0.00000000000E+00  0.16028226986E+04  0.16028226986E+04  0.00000000000E+00 0. -1.
         -2   -1    0    0    0  501 -0.00000000000E+00 -0.00000000000E+00 -0.68400668156E+03  0.68400668156E+03  0.00000000000E+00 0.  1.
         23    2    1    2    0    0 -0.63791380010E+03 -0.51162251155E+03  0.96923662098E+03  0.12713508061E+04  0.90673226086E+02 0.  0.
    5000000    2    1    2    0    0  0.63791380010E+03  0.51162251155E+03 -0.50420603928E+02  0.10154785741E+04  0.59996907129E+03 0.  0.
         23    2    4    4    0    0  0.59049104101E+03  0.27995231266E+03 -0.23540278137E+03  0.70106658934E+03  0.95010138112E+02 0.  0.
         23    2    4    4    0    0  0.47422759093E+02  0.23167019889E+03  0.18498217744E+03  0.31441198477E+03  0.93362150070E+02 0.  0.
          4    1    3    3  502    0 -0.40328023734E+03 -0.27936478041E+03  0.53533910459E+03  0.72613193516E+03  0.00000000000E+00 0. -1.
         -4    1    3    3    0  502 -0.23463356276E+03 -0.23225773113E+03  0.43389751639E+03  0.54521887089E+03  0.00000000000E+00 0.  1.
         11    1    5    5    0    0  0.34968482696E+03  0.16762654246E+03 -0.18876537672E+03  0.43128934997E+03  0.00000000000E+00 0. -1.
        -11    1    5    5    0    0  0.24080621405E+03  0.11232577020E+03 -0.46637404643E+02  0.26977723938E+03  0.00000000000E+00 0.  1.
          3    1    6    6  503    0 -0.24114252962E+02  0.71447021914E+02  0.79996521022E+02  0.10993460562E+03  0.00000000000E+00 0. -1.
         -3    1    6    6    0  503  0.71537012055E+02  0.16022317698E+03  0.10498565642E+03  0.20447737916E+03  0.00000000000E+00 0.  1.
<mgrwt>
<rscale>  0 0.86255687E+03</rscale>
<asrwt>0</asrwt>
<pdfrwt beam="1">  1        2 0.24658811E+00 0.86255687E+03</pdfrwt>
<pdfrwt beam="2">  1       -2 0.10523180E+00 0.86255687E+03</pdfrwt>
<totfact> 0.82186279E+00</totfact>
</mgrwt>
</event>
<event>
12    1  0.1432447E-007  0.4989146E+03  0.7818608E-02  0.1014063E+00
         -1   -1    0    0    0  501 -0.00000000000E+00  0.00000000000E+00  0.39678774266E+03  0.39678774266E+03  0.00000000000E+00 0.  1.
          1   -1    0    0  501    0  0.00000000000E+00 -0.00000000000E+00 -0.10594659582E+04  0.10594659582E+04  0.00000000000E+00 0. -1.
         23    2    1    2    0    0  0.28814601842E+03  0.39063010084E+03 -0.10739783253E+03  0.50548728893E+03  0.91449993015E+02 0.  0.
    5000000    2    1    2    0    0 -0.28814601842E+03 -0.39063010084E+03 -0.55528038302E+03  0.95076641194E+03  0.60000038557E+03 0.  0.
         23    2    4    4    0    0 -0.16529278366E+03 -0.11183541914E+03  0.85327239142E+02  0.23569181131E+03  0.91875061220E+02 0.  0.
         23    2    4    4    0    0 -0.12285323476E+03 -0.27879468170E+03 -0.64060762216E+03  0.71507460063E+03  0.90189617212E+02 0.  0.
          1    1    3    3  502    0  0.98111046137E+02  0.13302000486E+03 -0.81592650559E+02  0.18432975802E+03  0.00000000000E+00 0. -1.
         -1    1    3    3    0  502  0.19003497229E+03  0.25761009598E+03 -0.25805181970E+02  0.32115753091E+03  0.00000000000E+00 0.  1.
         11    1    5    5    0    0 -0.10526684720E+03 -0.79003296837E+02  0.71583678169E+01  0.13180998543E+03  0.00000000000E+00 0.  1.
        -11    1    5    5    0    0 -0.60025936464E+02 -0.32832122302E+02  0.78168871325E+02  0.10388182588E+03  0.00000000000E+00 0. -1.
          1    1    6    6  503    0 -0.78597598615E+01 -0.96731926696E+02 -0.14246284331E+03  0.17237895229E+03  0.00000000000E+00 0. -1.
         -1    1    6    6    0  503 -0.11499347490E+03 -0.18206275501E+03 -0.49814477885E+03  0.54269564834E+03  0.00000000000E+00 0.  1.
<mgrwt>
<rscale>  0 0.49891463E+03</rscale>
<asrwt>0</asrwt>
<pdfrwt beam="1">  1        1 0.16299476E+00 0.49891463E+03</pdfrwt>
<pdfrwt beam="2">  1       -1 0.61044268E-01 0.49891463E+03</pdfrwt>
<totfact> 0.39273518E+01</totfact>
</mgrwt>
</event>
<event>
12    1  0.1432447E-007  0.6955494E+03  0.7818608E-02  0.9724874E-01
         -1   -1    0    0    0  501 -0.00000000000E+00  0.00000000000E+00  0.21196453359E+04  0.21196453359E+04  0.00000000000E+00 0.  1.
          1   -1    0    0  501    0  0.00000000000E+00 -0.00000000000E+00 -0.45422916345E+03  0.45422916345E+03  0.00000000000E+00 0. -1.
         23    2    1    2    0    0 -0.21292357835E+03 -0.53015843557E+03 -0.13294346283E+03  0.59379561550E+03  0.92275953772E+02 0.  0.
    5000000    2    1    2    0    0  0.21292357835E+03  0.53015843557E+03  0.17983596353E+04  0.19800788839E+04  0.60017546724E+03 0.  0.
         23    2    4    4    0    0 -0.15888389933E+03  0.36634127673E+03  0.81346872622E+03  0.91075332350E+03  0.91050663025E+02 0.  0.
         23    2    4    4    0    0  0.37180747769E+03  0.16381715884E+03  0.98489090906E+03  0.10693255604E+04  0.91488738542E+02 0.  0.
          2    1    3    3  502    0 -0.52062858672E+02 -0.18886112120E+03 -0.84647072320E+02  0.21341085073E+03  0.00000000000E+00 0. -1.
         -2    1    3    3    0  502 -0.16086071968E+03 -0.34129731437E+03 -0.48296390509E+02  0.38038476477E+03  0.00000000000E+00 0.  1.
         11    1    5    5    0    0 -0.12196850313E+03  0.31844144919E+03  0.61421911823E+03  0.70252857416E+03  0.00000000000E+00 0.  1.
        -11    1    5    5    0    0 -0.36915396208E+02  0.47899827544E+02  0.19924960798E+03  0.20822474934E+03  0.00000000000E+00 0. -1.
          2    1    6    6  503    0  0.25384685702E+03  0.15652737442E+03  0.71331900892E+03  0.77315137861E+03  0.00000000000E+00 0. -1.
         -2    1    6    6    0  503  0.11796062067E+03  0.72897844253E+01  0.27157190014E+03  0.29617418174E+03  0.00000000000E+00 0.  1.
<mgrwt>
<rscale>  0 0.69554944E+03</rscale>
<asrwt>0</asrwt>
<pdfrwt beam="1">  1        1 0.69881411E-01 0.69554944E+03</pdfrwt>
<pdfrwt beam="2">  1       -1 0.32609928E+00 0.69554944E+03</pdfrwt>
<totfact> 0.12070024E+00</totfact>
</mgrwt>
</event>
<event>
12    1  0.1432447E-007  0.3925693E+03  0.7818608E-02  0.1046383E+00
          2   -1    0    0  501    0  0.00000000000E+00  0.00000000000E+00  0.74537601686E+03  0.74537601686E+03  0.00000000000E+00 0. -1.
         -2   -1    0    0    0  501 -0.00000000000E+00 -0.00000000000E+00 -0.27041862187E+03  0.27041862187E+03  0.00000000000E+00 0.  1.
         23    2    1    2    0    0 -0.10628472422E+02  0.23582993761E+03  0.12374766526E+03  0.28153834291E+03  0.90673204282E+02 0.  0.
    5000000    2    1    2    0    0  0.10628472422E+02 -0.23582993761E+03  0.35120972973E+03  0.73425629582E+03  0.60004608972E+03 0.  0.
         23    2    4    4    0    0 -0.22036461056E+03 -0.13325232048E+03 -0.22405536858E+02  0.27432368706E+03  0.91840811736E+02 0.  0.
         23    2    4    4    0    0  0.23099308298E+03 -0.10257761713E+03  0.37361526659E+03  0.45993260876E+03  0.89831315549E+02 0.  0.
          1    1    3    3  502    0  0.33834228813E+02  0.52865128331E+02  0.46054460329E+02  0.77849149957E+02  0.00000000000E+00 0. -1.
         -1    1    3    3    0  502 -0.44462701235E+02  0.18296480927E+03  0.77693204935E+02  0.20368919296E+03  0.00000000000E+00 0.  1.
         11    1    5    5    0    0 -0.96088081917E+02 -0.14740748647E+02  0.15565063426E+02  0.98450395411E+02  0.00000000000E+00 0. -1.
        -11    1    5    5    0    0 -0.12427652864E+03 -0.11851157183E+03 -0.37970600284E+02  0.17587329164E+03  0.00000000000E+00 0.  1.
          2    1    6    6  503    0  0.61602964157E+02 -0.68930264248E+02  0.16476272745E+03  0.18892607781E+03  0.00000000000E+00 0. -1.
         -2    1    6    6    0  503  0.16939011882E+03 -0.33647352882E+02  0.20885253914E+03  0.27100653095E+03  0.00000000000E+00 0.  1.
<mgrwt>
<rscale>  0 0.39256930E+03</rscale>
<asrwt>0</asrwt>
<pdfrwt beam="1">  1        2 0.11467323E+00 0.39256930E+03</pdfrwt>
<pdfrwt beam="2">  1       -2 0.41602865E-01 0.39256930E+03</pdfrwt>
<totfact> 0.21371148E+02</totfact>
</mgrwt>
</event>
<event>
12    1  0.1432447E-007  0.7109137E+03  0.7818608E-02  0.9698748E-01
          2   -1    0    0  501    0  0.00000000000E+00  0.00000000000E+00  0.10023677088E+04  0.10023677088E+04  0.00000000000E+00 0. -1.
         -2   -1    0    0    0  501 -0.00000000000E+00 -0.00000000000E+00 -0.64240691475E+03  0.64240691475E+03  0.00000000000E+00 0.  1.
         23    2    1    2    0    0  0.61726396016E+03 -0.23008935468E+03 -0.43740485849E+02  0.66666676131E+03  0.92603633181E+02 0.  0.
    5000000    2    1    2    0    0 -0.61726396016E+03  0.23008935468E+03  0.40370127986E+03  0.97810786221E+03  0.59980360044E+03 0.  0.
         23    2    4    4    0    0 -0.63171445428E+03  0.26306029171E+03  0.15055278402E+03  0.70644746345E+03  0.90210914051E+02 0.  0.
         23    2    4    4    0    0  0.14450494122E+02 -0.32970937028E+02  0.25314849584E+03  0.27166039876E+03  0.91756808125E+02 0.  0.
          1    1    3    3  502    0  0.43730928875E+03 -0.12954476696E+03 -0.59348848514E+02  0.45993863340E+03  0.00000000000E+00 0. -1.
         -1    1    3    3    0  502  0.17995467141E+03 -0.10054458772E+03  0.15608362665E+02  0.20672812791E+03  0.00000000000E+00 0.  1.
         11    1    5    5    0    0 -0.26468821404E+03  0.10298884548E+03  0.17700179525E+02  0.28456958604E+03  0.00000000000E+00 0. -1.
        -11    1    5    5    0    0 -0.36702624024E+03  0.16007144623E+03  0.13285260449E+03  0.42187787741E+03  0.00000000000E+00 0.  1.
          3    1    6    6  503    0  0.19919997998E+02  0.16208423424E+02  0.18853461145E+03  0.19027563960E+03  0.00000000000E+00 0.  1.
         -3    1    6    6    0  503 -0.54695038756E+01 -0.49179360452E+02  0.64613884391E+02  0.81384759158E+02  0.00000000000E+00 0. -1.
<mgrwt>
<rscale>  0 0.71091374E+03</rscale>
<asrwt>0</asrwt>
<pdfrwt beam="1">  1        2 0.15421042E+00 0.71091374E+03</pdfrwt>
<pdfrwt beam="2">  1       -2 0.98831834E-01 0.71091374E+03</pdfrwt>
<totfact> 0.21758287E+01</totfact>
</mgrwt>
</event>
<event>
12    1  0.1432447E-007  0.1818427E+04  0.7818608E-02  0.8696561E-01
         -2   -1    0    0    0  501 -0.00000000000E+00  0.00000000000E+00  0.11590817294E+04  0.11590817294E+04  0.00000000000E+00 0.  1.
          2   -1    0    0  501    0  0.00000000000E+00 -0.00000000000E+00 -0.32476521181E+04  0.32476521181E+04  0.00000000000E+00 0. -1.
         23    2    1    2    0    0 -0.17464698858E+04 -0.34669366405E+03 -0.17488488354E+04  0.24973811267E+04  0.89925993747E+02 0.  0.
    5000000    2    1    2    0    0  0.17464698858E+04  0.34669366405E+03 -0.33972155332E+03  0.19093527207E+04  0.59988625570E+03 0.  0.
         23    2    4    4    0    0  0.18388419666E+03 -0.10515447423E+03 -0.13576762176E+03  0.26743001417E+03  0.90637211634E+02 0.  0.
         23    2    4    4    0    0  0.15625856891E+04  0.45184813828E+03 -0.20395393156E+03  0.16419227066E+04  0.92044512176E+02 0.  0.
          2    1    3    3  502    0 -0.41377868097E+03 -0.44304478631E+02 -0.41988856142E+03  0.59117010045E+03  0.00000000000E+00 0.  1.
         -2    1    3    3    0  502 -0.13326912048E+04 -0.30238918542E+03 -0.13289602740E+04  0.19062110262E+04  0.00000000000E+00 0. -1.
         13    1    5    5    0    0  0.12729617419E+03 -0.27576249665E+02 -0.52858743074E+02  0.14056604223E+03  0.00000000000E+00 0.  1.
        -13    1    5    5    0    0  0.56588022471E+02 -0.77578224563E+02 -0.82908878685E+02  0.12686397195E+03  0.00000000000E+00 0. -1.
          1    1    6    6  503    0  0.24490361702E+03  0.46765576702E+02 -0.73970443563E+01  0.24943840334E+03  0.00000000000E+00 0. -1.
         -1    1    6    6    0  503  0.13176820721E+04  0.40508256158E+03 -0.19655688720E+03  0.13924843032E+04  0.00000000000E+00 0.  1.
<mgrwt>
<rscale>  0 0.18184271E+04</rscale>
<asrwt>0</asrwt>
<pdfrwt beam="1">  1        2 0.49963878E+00 0.18184271E+04</pdfrwt>
<pdfrwt beam="2">  1       -2 0.17832027E+00 0.18184271E+04</pdfrwt>
<totfact> 0.20521372E-01</totfact>
</mgrwt>
</event>
<event>
12    1  0.1432447E-007  0.8128465E+03  0.7818608E-02  0.9541606E-01
         -2   -1    0    0    0  501 -0.00000000000E+00  0.00000000000E+00  0.33533134247E+03  0.33533134247E+03  0.00000000000E+00 0.  1.
          2   -1    0    0  501    0  0.00000000000E+00 -0.00000000000E+00 -0.22946804080E+04  0.22946804080E+04  0.00000000000E+00 0. -1.
         23    2    1    2    0    0 -0.22279784861E+03  0.68228855236E+03 -0.12924818320E+04  0.14811415308E+04  0.90079954432E+02 0.  0.
    5000000    2    1    2    0    0  0.22279784861E+03 -0.68228855236E+03 -0.66686723351E+03  0.11488702196E+04  0.60002860299E+03 0.  0.
         23    2    4    4    0    0 -0.15958625232E+03 -0.36620653281E+03 -0.17266208511E+03  0.44282702098E+03  0.81905911109E+02 0.  0.
         23    2    4    4    0    0  0.38238410093E+03 -0.31608201956E+03 -0.49420514840E+03  0.70604319866E+03  0.90182181932E+02 0.  0.
          3    1    3    3  502    0 -0.68344628447E+02  0.35390392060E+03 -0.65160769117E+03  0.74465532728E+03  0.00000000000E+00 0. -1.
         -3    1    3    3    0  502 -0.15445322017E+03  0.32838463177E+03 -0.64087414081E+03  0.73648620351E+03  0.00000000000E+00 0.  1.
         13    1    5    5    0    0 -0.13052075532E+03 -0.32664981202E+03 -0.17656076053E+03  0.39358540295E+03  0.00000000000E+00 0.  1.
        -13    1    5    5    0    0 -0.29065497000E+02 -0.39556720791E+02  0.38986754222E+01  0.49241618025E+02  0.00000000000E+00 0. -1.
          2    1    6    6  503    0  0.25782575935E+03 -0.16676087200E+03 -0.26621059884E+03  0.40638823008E+03  0.00000000000E+00 0. -1.
         -2    1    6    6    0  503  0.12455834158E+03 -0.14932114756E+03 -0.22799454956E+03  0.29965496858E+03  0.00000000000E+00 0.  1.
<mgrwt>
<rscale>  0 0.81284646E+03</rscale>
<asrwt>0</asrwt>
<pdfrwt beam="1">  1        2 0.35302776E+00 0.81284646E+03</pdfrwt>
<pdfrwt beam="2">  1       -2 0.51589437E-01 0.81284646E+03</pdfrwt>
<totfact> 0.16722381E+01</totfact>
</mgrwt>
</event>
<event>
12    1  0.1432447E-007  0.6037681E+03  0.7818608E-02  0.9897619E-01
          1   -1    0    0  501    0  0.00000000000E+00  0.00000000000E+00  0.10513468633E+04  0.10513468633E+04  0.00000000000E+00 0.  1.
         -1   -1    0    0    0  501 -0.00000000000E+00 -0.00000000000E+00 -0.48981455031E+03  0.48981455031E+03  0.00000000000E+00 0. -1.
         23    2    1    2    0    0 -0.52663337436E+03  0.14049175014E+03 -0.52374759797E+01  0.55197734594E+03  0.87011013312E+02 0.  0.
    5000000    2    1    2    0    0  0.52663337436E+03 -0.14049175014E+03  0.56676978896E+03  0.98918406766E+03  0.60014705131E+03 0.  0.
         23    2    4    4    0    0  0.45265578361E+02  0.79792544201E+02 -0.77175833776E+02  0.15067422685E+03  0.91273164853E+02 0.  0.
         23    2    4    4    0    0  0.48136779600E+03 -0.22028429434E+03  0.64394562273E+03  0.83850984081E+03  0.90513329114E+02 0.  0.
          1    1    3    3  502    0 -0.29305309679E+03  0.11220514252E+03 -0.30793283590E+02  0.31530673615E+03  0.00000000000E+00 0. -1.
         -1    1    3    3    0  502 -0.23358027757E+03  0.28286607621E+02  0.25555807611E+02  0.23667060980E+03  0.00000000000E+00 0.  1.
         11    1    5    5    0    0  0.48806012865E+02  0.22415291875E+00 -0.20586806023E+02  0.52970687352E+02  0.00000000000E+00 0. -1.
        -11    1    5    5    0    0 -0.35404345040E+01  0.79568391282E+02 -0.56589027752E+02  0.97703539494E+02  0.00000000000E+00 0.  1.
          1    1    6    6  503    0  0.37533422707E+03 -0.15990966302E+03  0.43378967796E+03  0.59550009827E+03  0.00000000000E+00 0. -1.
         -1    1    6    6    0  503  0.10603356893E+03 -0.60374631319E+02  0.21015594477E+03  0.24300974254E+03  0.00000000000E+00 0.  1.
<mgrwt>
<rscale>  0 0.60376811E+03</rscale>
<asrwt>0</asrwt>
<pdfrwt beam="1">  1        1 0.16174567E+00 0.60376811E+03</pdfrwt>
<pdfrwt beam="2">  1       -1 0.75356085E-01 0.60376811E+03</pdfrwt>
<totfact> 0.25617457E+01</totfact>
</mgrwt>
</event>
<event>
12    1  0.1432447E-007  0.7370763E+03  0.7818608E-02  0.9655847E-01
          2   -1    0    0  501    0  0.00000000000E+00  0.00000000000E+00  0.15440028213E+04  0.15440028213E+04  0.00000000000E+00 0. -1.
         -2   -1    0    0    0  501 -0.00000000000E+00 -0.00000000000E+00 -0.50135017217E+03  0.50135017217E+03  0.00000000000E+00 0.  1.
         23    2    1    2    0    0 -0.71371814703E+03 -0.47016850819E+02  0.80787107119E+03  0.10825887358E+04  0.87968889913E+02 0.  0.
    5000000    2    1    2    0    0  0.71371814703E+03  0.47016850819E+02  0.23478157793E+03  0.96276425764E+03  0.60015702012E+03 0.  0.
         23    2    4    4    0    0  0.18047253302E+03  0.80310522856E+02  0.34699131555E+03  0.40903688152E+03  0.88814875514E+02 0.  0.
         23    2    4    4    0    0  0.53324561401E+03 -0.33293672037E+02 -0.11220973762E+03  0.55372737613E+03  0.92539874646E+02 0.  0.
          4    1    3    3  502    0 -0.27576755862E+03 -0.60438401346E+02  0.30462194606E+03  0.41532526623E+03  0.00000000000E+00 0.  1.
         -4    1    3    3    0  502 -0.43795058841E+03  0.13421550527E+02  0.50324912512E+03  0.66726346959E+03  0.00000000000E+00 0. -1.
         11    1    5    5    0    0  0.56303857578E+02 -0.15209477438E+02  0.11743005220E+03  0.13111548246E+03  0.00000000000E+00 0. -1.
        -11    1    5    5    0    0  0.12416867545E+03  0.95520000294E+02  0.22956126335E+03  0.27792139905E+03  0.00000000000E+00 0.  1.
          4    1    6    6  503    0  0.45642107043E+03 -0.38729737876E+01 -0.11741455079E+03  0.47129753893E+03  0.00000000000E+00 0.  1.
         -4    1    6    6    0  503  0.76824543575E+02 -0.29420698250E+02  0.52048131649E+01  0.82429837202E+02  0.00000000000E+00 0. -1.
<mgrwt>
<rscale>  0 0.73707626E+03</rscale>
<asrwt>0</asrwt>
<pdfrwt beam="1">  1        2 0.23753889E+00 0.73707626E+03</pdfrwt>
<pdfrwt beam="2">  1       -2 0.77130796E-01 0.73707626E+03</pdfrwt>
<totfact> 0.18463805E+01</totfact>
</mgrwt>
</event>
<event>
12    1  0.1432447E-007  0.4443008E+03  0.7818608E-02  0.1029435E+00
          2   -1    0    0  501    0  0.00000000000E+00  0.00000000000E+00  0.30676228583E+04  0.30676228583E+04  0.00000000000E+00 0. -1.
         -2   -1    0    0    0  501 -0.00000000000E+00 -0.00000000000E+00 -0.80031281010E+02  0.80031281010E+02  0.00000000000E+00 0.  1.
         23    2    1    2    0    0 -0.94094805711E+02  0.26854312165E+03  0.13015367698E+04  0.13355501074E+04  0.93417801360E+02 0.  0.
    5000000    2    1    2    0    0  0.94094805711E+02 -0.26854312165E+03  0.16860548075E+04  0.18121040319E+04  0.59997580612E+03 0.  0.
         23    2    4    4    0    0  0.29116042603E+03 -0.26133438333E+03  0.74566074377E+03  0.84706030643E+03  0.91821371877E+02 0.  0.
         23    2    4    4    0    0 -0.19706562032E+03 -0.72087383274E+01  0.94039406373E+03  0.96504372548E+03  0.89897566013E+02 0.  0.
          2    1    3    3  502    0 -0.51709168766E+02  0.18194946783E+03  0.65154004527E+03  0.67844224336E+03  0.00000000000E+00 0. -1.
         -2    1    3    3    0  502 -0.42385636944E+02  0.86593653822E+02  0.64999672456E+03  0.65710786408E+03  0.00000000000E+00 0.  1.
         13    1    5    5    0    0  0.45681499333E+02 -0.90599324567E+02  0.22086194615E+03  0.24305356663E+03  0.00000000000E+00 0.  1.
        -13    1    5    5    0    0  0.24547892669E+03 -0.17073505876E+03  0.52479879762E+03  0.60400673980E+03  0.00000000000E+00 0. -1.
          1    1    6    6  503    0 -0.86703483909E+02  0.19803990998E+02  0.24967489157E+03  0.26504196585E+03  0.00000000000E+00 0. -1.
         -1    1    6    6    0  503 -0.11036213641E+03 -0.27012729325E+02  0.69071917217E+03  0.70000175964E+03  0.00000000000E+00 0.  1.
<mgrwt>
<rscale>  0 0.44430083E+03</rscale>
<asrwt>0</asrwt>
<pdfrwt beam="1">  1        2 0.47194189E+00 0.44430083E+03</pdfrwt>
<pdfrwt beam="2">  1       -2 0.12312507E-01 0.44430083E+03</pdfrwt>
<totfact> 0.85854319E+01</totfact>
</mgrwt>
</event>
<event>
12    1  0.1432447E-007  0.7613356E+03  0.7818608E-02  0.9617733E-01
         -2   -1    0    0    0  501 -0.00000000000E+00  0.00000000000E+00  0.94542146242E+03  0.94542146242E+03  0.00000000000E+00 0.  1.
          2   -1    0    0  501    0  0.00000000000E+00 -0.00000000000E+00 -0.63187593422E+03  0.63187593422E+03  0.00000000000E+00 0. -1.
         23    2    1    2    0    0 -0.63881026111E+03  0.12619806156E+03  0.80438148368E+02  0.66192237338E+03  0.87558164823E+02 0.  0.
    5000000    2    1    2    0    0  0.63881026111E+03 -0.12619806156E+03  0.23310737984E+03  0.91537502326E+03  0.59963979373E+03 0.  0.
         23    2    4    4    0    0  0.57488253814E+03  0.13656529383E+03  0.12527901694E+03  0.61095591768E+03  0.91827496608E+02 0.  0.
         23    2    4    4    0    0  0.63927722975E+02 -0.26276335539E+03  0.10782836290E+03  0.30441910558E+03  0.88953365844E+02 0.  0.
          1    1    3    3  502    0 -0.15506253102E+03  0.12755071558E+02  0.52730676317E+02  0.16427904493E+03  0.00000000000E+00 0. -1.
         -1    1    3    3    0  502 -0.48374773009E+03  0.11344299000E+03  0.27707472051E+02  0.49764332845E+03  0.00000000000E+00 0.  1.
         13    1    5    5    0    0  0.41668524925E+03  0.96873797821E+02  0.13205087211E+03  0.44771482271E+03  0.00000000000E+00 0. -1.
        -13    1    5    5    0    0  0.15819728889E+03  0.39691496009E+02 -0.67718551684E+01  0.16324109497E+03  0.00000000000E+00 0.  1.
          1    1    6    6  503    0  0.58873286958E+02 -0.96956963457E+02  0.73081495587E+02  0.13493562049E+03  0.00000000000E+00 0. -1.
         -1    1    6    6    0  503  0.50544360174E+01 -0.16580639193E+03  0.34746867309E+02  0.16948348509E+03  0.00000000000E+00 0.  1.
<mgrwt>
<rscale>  0 0.76133559E+03</rscale>
<asrwt>0</asrwt>
<pdfrwt beam="1">  1        2 0.97211682E-01 0.76133559E+03</pdfrwt>
<pdfrwt beam="2">  1       -2 0.14544946E+00 0.76133559E+03</pdfrwt>
<totfact> 0.15333662E+01</totfact>
</mgrwt>
</event>
<event>
12    1  0.1432447E-007  0.1010045E+04  0.7818608E-02  0.9297596E-01
         -1   -1    0    0    0  501 -0.00000000000E+00  0.00000000000E+00  0.86753105558E+03  0.86753105558E+03  0.00000000000E+00 0.  1.
          1   -1    0    0  501    0  0.00000000000E+00 -0.00000000000E+00 -0.12972648554E+04  0.12972648554E+04  0.00000000000E+00 0. -1.
         23    2    1    2    0    0  0.88768960728E+03 -0.29716850021E+03 -0.47184188358E+03  0.10521961970E+04  0.90444001395E+02 0.  0.
    5000000    2    1    2    0    0 -0.88768960728E+03  0.29716850021E+03  0.42108083787E+02  0.11125997140E+04  0.59983587465E+03 0.  0.
         23    2    4    4    0    0 -0.38357466807E+03  0.41001583495E+03 -0.76633409909E+02  0.57399506354E+03  0.91406468915E+02 0.  0.
         23    2    4    4    0    0 -0.50411493921E+03 -0.11284733474E+03  0.11874149370E+03  0.53860465047E+03  0.95545980000E+02 0.  0.
          3    1    3    3  502    0  0.64628652162E+03 -0.20347691291E+03 -0.38368173065E+03  0.77865319145E+03  0.00000000000E+00 0. -1.
         -3    1    3    3    0  502  0.24140308566E+03 -0.93691587298E+02 -0.88160152939E+02  0.27354300550E+03  0.00000000000E+00 0.  1.
         11    1    5    5    0    0 -0.18930376472E+03  0.15002740562E+03 -0.60673888510E+02  0.24904910865E+03  0.00000000000E+00 0.  1.
        -11    1    5    5    0    0 -0.19427090336E+03  0.25998842933E+03 -0.15959521399E+02  0.32494595489E+03  0.00000000000E+00 0. -1.
          4    1    6    6  503    0 -0.25774814693E+02  0.94777052774E+00  0.28968720492E+02  0.38786932186E+02  0.00000000000E+00 0. -1.
         -4    1    6    6    0  503 -0.47834012451E+03 -0.11379510527E+03  0.89772773203E+02  0.49981771828E+03  0.00000000000E+00 0.  1.
<mgrwt>
<rscale>  0 0.10100445E+04</rscale>
<asrwt>0</asrwt>
<pdfrwt beam="1">  1        1 0.19957921E+00 0.10100445E+04</pdfrwt>
<pdfrwt beam="2">  1       -1 0.13346632E+00 0.10100445E+04</pdfrwt>
<totfact> 0.43213357E+00</totfact>
</mgrwt>
</event>
<event>
12    1  0.1432447E-007  0.5273206E+03  0.7818608E-02  0.1006884E+00
          2   -1    0    0  501    0  0.00000000000E+00  0.00000000000E+00  0.27349819337E+04  0.27349819337E+04  0.00000000000E+00 0. -1.
         -2   -1    0    0    0  501 -0.00000000000E+00 -0.00000000000E+00 -0.22644594776E+03  0.22644594776E+03  0.00000000000E+00 0.  1.
         23    2    1    2    0    0  0.42590724201E+03 -0.15598539483E+03  0.20014486622E+04  0.20541985181E+04  0.90589084791E+02 0.  0.
    5000000    2    1    2    0    0 -0.42590724201E+03  0.15598539483E+03  0.50708732368E+03  0.90722936327E+03  0.60016592834E+03 0.  0.
         23    2    4    4    0    0  0.22226427901E+02  0.93326666073E+02  0.41598557052E+03  0.43678417017E+03  0.92371725842E+02 0.  0.
         23    2    4    4    0    0 -0.44813366991E+03  0.62658728758E+02  0.91101753163E+02  0.47044519310E+03  0.90935404978E+02 0.  0.
          4    1    3    3  502    0  0.24284962043E+03 -0.13612281992E+03  0.12067305645E+04  0.12384280422E+04  0.00000000000E+00 0. -1.
         -4    1    3    3    0  502  0.18305762158E+03 -0.19862574913E+02  0.79471809768E+03  0.81577047598E+03  0.00000000000E+00 0.  1.
         13    1    5    5    0    0 -0.19427820179E+02  0.88695962184E+02  0.26705037847E+03  0.28206438723E+03  0.00000000000E+00 0.  1.
        -13    1    5    5    0    0  0.41654248080E+02  0.46307038887E+01  0.14893519205E+03  0.15471978294E+03  0.00000000000E+00 0. -1.
          3    1    6    6  503    0 -0.11727829719E+03 -0.18522951456E+02  0.39184484102E+01  0.11879668750E+03  0.00000000000E+00 0. -1.
         -3    1    6    6    0  503 -0.33085537272E+03  0.81181680214E+02  0.87183304753E+02  0.35164850560E+03  0.00000000000E+00 0.  1.
<mgrwt>
<rscale>  0 0.52732056E+03</rscale>
<asrwt>0</asrwt>
<pdfrwt beam="1">  1        2 0.42076643E+00 0.52732056E+03</pdfrwt>
<pdfrwt beam="2">  1       -2 0.34837840E-01 0.52732056E+03</pdfrwt>
<totfact> 0.21453939E+01</totfact>
</mgrwt>
</event>
<event>
12    1  0.1432447E-007  0.1059081E+04  0.7818608E-02  0.9246018E-01
         -1   -1    0    0    0  501 -0.00000000000E+00  0.00000000000E+00  0.93821189018E+03  0.93821189018E+03  0.00000000000E+00 0.  1.
          1   -1    0    0  501    0  0.00000000000E+00 -0.00000000000E+00 -0.15472455553E+04  0.15472455553E+04  0.00000000000E+00 0. -1.
         23    2    1    2    0    0  0.67092078131E+03 -0.78571770179E+03  0.18170671571E+03  0.10527084625E+04  0.87697062238E+02 0.  0.
    5000000    2    1    2    0    0 -0.67092078131E+03  0.78571770179E+03 -0.79074038083E+03  0.14327489830E+04  0.60001024720E+03 0.  0.
         23    2    4    4    0    0 -0.58545453985E+03  0.45986258613E+03 -0.78279902896E+03  0.10838856700E+04  0.88335776820E+02 0.  0.
         23    2    4    4    0    0 -0.85466241463E+02  0.32585511566E+03 -0.79413518683E+01  0.34886331305E+03  0.90313405901E+02 0.  0.
          4    1    3    3  502    0  0.32972191710E+03 -0.45148535133E+03  0.10864046882E+03  0.56952464087E+03  0.00000000000E+00 0. -1.
         -4    1    3    3    0  502  0.34119886421E+03 -0.33423235046E+03  0.73066246889E+02  0.48318382160E+03  0.00000000000E+00 0.  1.
         11    1    5    5    0    0 -0.35475816299E+03  0.27451919556E+03 -0.53288124812E+03  0.69654617043E+03  0.00000000000E+00 0. -1.
        -11    1    5    5    0    0 -0.23069637686E+03  0.18534339056E+03 -0.24991778084E+03  0.38733949954E+03  0.00000000000E+00 0.  1.
          2    1    6    6  503    0 -0.72311419422E+02  0.26329843605E+03 -0.42276297547E+02  0.27630109146E+03  0.00000000000E+00 0. -1.
         -2    1    6    6    0  503 -0.13154822041E+02  0.62556679612E+02  0.34334945679E+02  0.72562221588E+02  0.00000000000E+00 0.  1.
<mgrwt>
<rscale>  0 0.10590815E+04</rscale>
<asrwt>0</asrwt>
<pdfrwt beam="1">  1        1 0.23803777E+00 0.10590815E+04</pdfrwt>
<pdfrwt beam="2">  1       -1 0.14434029E+00 0.10590815E+04</pdfrwt>
<totfact> 0.23418018E+00</totfact>
</mgrwt>
</event>
<event>
12    1  0.1432447E-007  0.4399849E+03  0.7818608E-02  0.1030751E+00
         -1   -1    0    0    0  501 -0.00000000000E+00  0.00000000000E+00  0.24881329553E+03  0.24881329553E+03  0.00000000000E+00 0.  1.
          1   -1    0    0  501    0  0.00000000000E+00 -0.00000000000E+00 -0.16591893190E+04  0.16591893190E+04  0.00000000000E+00 0. -1.
         23    2    1    2    0    0 -0.15210040681E+03 -0.31463556304E+03 -0.29646554412E+02  0.36248522926E+03  0.91578119465E+02 0.  0.
    5000000    2    1    2    0    0  0.15210040681E+03  0.31463556304E+03 -0.13807294690E+04  0.15455173852E+04  0.60006670475E+03 0.  0.
         23    2    4    4    0    0  0.13362769282E+03 -0.45279733820E+02 -0.99721621789E+03  0.10115409071E+04  0.94171158083E+02 0.  0.
         23    2    4    4    0    0  0.18472713992E+02  0.35991529686E+03 -0.38351325112E+03  0.53397647808E+03  0.90378112853E+02 0.  0.
          1    1    3    3  502    0 -0.29308567568E+02 -0.16848874963E+02  0.15565639635E+02  0.37217816401E+02  0.00000000000E+00 0. -1.
         -1    1    3    3    0  502 -0.12279183924E+03 -0.29778668807E+03 -0.45212194047E+02  0.32526741286E+03  0.00000000000E+00 0.  1.
         13    1    5    5    0    0  0.10701222258E+03 -0.87529831159E+01 -0.45726398640E+03  0.46970052561E+03  0.00000000000E+00 0.  1.
        -13    1    5    5    0    0  0.26615470239E+02 -0.36526750704E+02 -0.53995223149E+03  0.54184038153E+03  0.00000000000E+00 0. -1.
          2    1    6    6  503    0 -0.34332713918E+02  0.20413643789E+03 -0.20893620494E+03  0.29411691256E+03  0.00000000000E+00 0. -1.
         -2    1    6    6    0  503  0.52805427910E+02  0.15577885897E+03 -0.17457704617E+03  0.23985956552E+03  0.00000000000E+00 0.  1.
<mgrwt>
<rscale>  0 0.43998489E+03</rscale>
<asrwt>0</asrwt>
<pdfrwt beam="1">  1        1 0.25525990E+00 0.43998489E+03</pdfrwt>
<pdfrwt beam="2">  1       -1 0.38278968E-01 0.43998489E+03</pdfrwt>
<totfact> 0.36369432E+01</totfact>
</mgrwt>
</event>
<event>
12    1  0.1432447E-007  0.4346754E+03  0.7818608E-02  0.1032393E+00
         -2   -1    0    0    0  501 -0.00000000000E+00  0.00000000000E+00  0.49070535283E+03  0.49070535283E+03  0.00000000000E+00 0. -1.
          2   -1    0    0  501    0  0.00000000000E+00 -0.00000000000E+00 -0.66088214349E+03  0.66088214349E+03  0.00000000000E+00 0.  1.
         23    2    1    2    0    0 -0.24213640537E+03 -0.32116924784E+03 -0.11965812276E+02  0.41215363354E+03  0.89149943417E+02 0.  0.
    5000000    2    1    2    0    0  0.24213640537E+03  0.32116924784E+03 -0.15821097838E+03  0.73943386277E+03  0.59995999798E+03 0.  0.
         23    2    4    4    0    0  0.14882699228E+03  0.63458748449E+02 -0.34759460682E+03  0.39395517094E+03  0.90565885601E+02 0.  0.
         23    2    4    4    0    0  0.93309413081E+02  0.25771049940E+03  0.18938362844E+03  0.34547869183E+03  0.91476880789E+02 0.  0.
          2    1    3    3  502    0 -0.22447517895E+03 -0.23985090570E+03 -0.15397901304E+02  0.32886875543E+03  0.00000000000E+00 0.  1.
         -2    1    3    3    0  502 -0.17661226417E+02 -0.81318342141E+02  0.34320890277E+01  0.83284878113E+02  0.00000000000E+00 0. -1.
         13    1    5    5    0    0  0.46045949562E+02  0.66078948372E+02 -0.18222354196E+03  0.19922870309E+03  0.00000000000E+00 0. -1.
        -13    1    5    5    0    0  0.10278104272E+03 -0.26201999229E+01 -0.16537106486E+03  0.19472646786E+03  0.00000000000E+00 0.  1.
          2    1    6    6  503    0  0.85208382478E+02  0.24260752455E+03  0.13908721595E+03  0.29234249272E+03  0.00000000000E+00 0. -1.
         -2    1    6    6    0  503  0.81010306022E+01  0.15102974850E+02  0.50296412490E+02  0.53136199106E+02  0.00000000000E+00 0.  1.
<mgrwt>
<rscale>  0 0.43467540E+03</rscale>
<asrwt>0</asrwt>
<pdfrwt beam="1">  1        2 0.10167418E+00 0.43467540E+03</pdfrwt>
<pdfrwt beam="2">  1       -2 0.75493131E-01 0.43467540E+03</pdfrwt>
<totfact> 0.72092381E+01</totfact>
</mgrwt>
</event>
<event>
12    1  0.1432447E-007  0.7099265E+03  0.7818608E-02  0.9700406E-01
          4   -1    0    0  501    0  0.00000000000E+00  0.00000000000E+00  0.31854788718E+03  0.31854788718E+03  0.00000000000E+00 0. -1.
         -4   -1    0    0    0  501 -0.00000000000E+00 -0.00000000000E+00 -0.20531648013E+04  0.20531648013E+04  0.00000000000E+00 0.  1.
         23    2    1    2    0    0 -0.64540926599E+03  0.19177398383E+03 -0.50537783162E+03  0.84710727808E+03  0.94093604428E+02 0.  0.
    5000000    2    1    2    0    0  0.64540926599E+03 -0.19177398383E+03 -0.12292390825E+04  0.15246054104E+04  0.60005212601E+03 0.  0.
         23    2    4    4    0    0  0.41063306866E+03 -0.25897012339E+03 -0.11508014675E+04  0.12522811761E+04  0.90438291367E+02 0.  0.
         23    2    4    4    0    0  0.23477619733E+03  0.67196139561E+02 -0.78437614980E+02  0.27232423426E+03  0.91503251955E+02 0.  0.
          2    1    3    3  502    0 -0.20222919591E+03  0.69783952806E+02 -0.21560676761E+03  0.30373133850E+03  0.00000000000E+00 0.  1.
         -2    1    3    3    0  502 -0.44318007007E+03  0.12199003103E+03 -0.28977106401E+03  0.54337593958E+03  0.00000000000E+00 0. -1.
         11    1    5    5    0    0  0.28359599198E+03 -0.18116216151E+03 -0.89620555358E+03  0.95730392755E+03  0.00000000000E+00 0. -1.
        -11    1    5    5    0    0  0.12703707668E+03 -0.77807961879E+02 -0.25459591393E+03  0.29497724857E+03  0.00000000000E+00 0.  1.
          4    1    6    6  503    0  0.10008803066E+03  0.76176075702E+02 -0.39392236502E+02  0.13180347752E+03  0.00000000000E+00 0. -1.
         -4    1    6    6    0  503  0.13468816667E+03 -0.89799361406E+01 -0.39045378478E+02  0.14052075674E+03  0.00000000000E+00 0.  1.
<mgrwt>
<rscale>  0 0.70992646E+03</rscale>
<asrwt>0</asrwt>
<pdfrwt beam="1">  1        4 0.49007367E-01 0.70992646E+03</pdfrwt>
<pdfrwt beam="2">  1       -4 0.31587151E+00 0.70992646E+03</pdfrwt>
<totfact> 0.20071654E-01</totfact>
</mgrwt>
</event>
<event>
12    1  0.1432447E-007  0.1395558E+04  0.7818608E-02  0.8957040E-01
         -2   -1    0    0    0  501 -0.00000000000E+00  0.00000000000E+00  0.88102526084E+03  0.88102526084E+03  0.00000000000E+00 0.  1.
          2   -1    0    0  501    0  0.00000000000E+00 -0.00000000000E+00 -0.24206383297E+04  0.24206383297E+04  0.00000000000E+00 0. -1.
         23    2    1    2    0    0 -0.11074819956E+04 -0.79358277105E+03 -0.10882323731E+04  0.17460344872E+04  0.89981928281E+02 0.  0.
    5000000    2    1    2    0    0  0.11074819956E+04  0.79358277105E+03 -0.45138069572E+03  0.15556291034E+04  0.59995615657E+03 0.  0.
         23    2    4    4    0    0  0.10484577940E+04  0.56939421791E+03 -0.22274199794E+03  0.12170795854E+04  0.90527335706E+02 0.  0.
         23    2    4    4    0    0  0.59024201588E+02  0.22418855314E+03 -0.22863869777E+03  0.33854951794E+03  0.92713312113E+02 0.  0.
          4    1    3    3  502    0 -0.80971755854E+03 -0.60371036822E+03 -0.76131240064E+03  0.12647945701E+04  0.00000000000E+00 0. -1.
         -4    1    3    3    0  502 -0.29776443702E+03 -0.18987240283E+03 -0.32691997251E+03  0.48123991702E+03  0.00000000000E+00 0.  1.
         13    1    5    5    0    0  0.37397714885E+03  0.17223738684E+03 -0.11087802074E+03  0.42640187708E+03  0.00000000000E+00 0. -1.
        -13    1    5    5    0    0  0.67448064512E+03  0.39715683106E+03 -0.11186397720E+03  0.79067770836E+03  0.00000000000E+00 0.  1.
          2    1    6    6  503    0  0.36103890929E+02  0.83657335134E+02 -0.15102558010E+03  0.17638244387E+03  0.00000000000E+00 0. -1.
         -2    1    6    6    0  503  0.22920310659E+02  0.14053121801E+03 -0.77613117674E+02  0.16216707407E+03  0.00000000000E+00 0.  1.
<mgrwt>
<rscale>  0 0.13955583E+04</rscale>
<asrwt>0</asrwt>
<pdfrwt beam="1">  1        2 0.37240589E+00 0.13955583E+04</pdfrwt>
<pdfrwt beam="2">  1       -2 0.13554235E+00 0.13955583E+04</pdfrwt>
<totfact> 0.14453976E+00</totfact>
</mgrwt>
</event>
<event>
12    1  0.1432447E-007  0.4625650E+03  0.7818608E-02  0.1024040E+00
          2   -1    0    0  501    0  0.00000000000E+00  0.00000000000E+00  0.41272233467E+03  0.41272233467E+03  0.00000000000E+00 0. -1.
         -2   -1    0    0    0  501 -0.00000000000E+00 -0.00000000000E+00 -0.64980864878E+03  0.64980864878E+03  0.00000000000E+00 0.  1.
         23    2    1    2    0    0  0.17337842480E+03 -0.26616153970E+03 -0.19189500709E+03  0.38188322904E+03  0.90050338530E+02 0.  0.
    5000000    2    1    2    0    0 -0.17337842480E+03  0.26616153970E+03 -0.45191307018E+02  0.68064775441E+03  0.60028082424E+03 0.  0.
         23    2    4    4    0    0  0.15784421872E+03  0.17235507321E+03 -0.17116161161E+03  0.30338522279E+03  0.90140043674E+02 0.  0.
         23    2    4    4    0    0 -0.33122264352E+03  0.93806466490E+02  0.12597030459E+03  0.37726253162E+03  0.89165057000E+02 0.  0.
          2    1    3    3  502    0  0.10022695382E+03 -0.21773304853E+03 -0.11792801838E+03  0.26713318815E+03  0.00000000000E+00 0. -1.
         -2    1    3    3    0  502  0.73151470982E+02 -0.48428491177E+02 -0.73966988712E+02  0.11475004089E+03  0.00000000000E+00 0.  1.
         11    1    5    5    0    0  0.27011230341E+02  0.78876847084E+00 -0.47637123338E+02  0.54767912505E+02  0.00000000000E+00 0. -1.
        -11    1    5    5    0    0  0.13083298838E+03  0.17156630474E+03 -0.12352448827E+03  0.24861731028E+03  0.00000000000E+00 0.  1.
          4    1    6    6  503    0 -0.10473377911E+03 -0.11098165687E+02  0.48181483961E+02  0.11581791384E+03  0.00000000000E+00 0. -1.
         -4    1    6    6    0  503 -0.22648886441E+03  0.10490463218E+03  0.77788820629E+02  0.26144461778E+03  0.00000000000E+00 0.  1.
<mgrwt>
<rscale>  0 0.46256498E+03</rscale>
<asrwt>0</asrwt>
<pdfrwt beam="1">  1        2 0.63495744E-01 0.46256498E+03</pdfrwt>
<pdfrwt beam="2">  1       -2 0.99970562E-01 0.46256498E+03</pdfrwt>
<totfact> 0.65480151E+01</totfact>
</mgrwt>
</event>
<event>
12    1  0.1432447E-007  0.5442426E+03  0.7818608E-02  0.1002835E+00
         -2   -1    0    0    0  501 -0.00000000000E+00  0.00000000000E+00  0.72939424628E+03  0.72939424628E+03  0.00000000000E+00 0.  1.
          2   -1    0    0  501    0  0.00000000000E+00 -0.00000000000E+00 -0.99548173832E+03  0.99548173832E+03  0.00000000000E+00 0. -1.
         23    2    1    2    0    0 -0.47545814840E+03  0.23585154692E+03  0.40888555383E+03  0.67726854071E+03  0.99090246995E+02 0.  0.
    5000000    2    1    2    0    0  0.47545814840E+03 -0.23585154692E+03 -0.67497304587E+03  0.10476074439E+04  0.60017192602E+03 0.  0.
         23    2    4    4    0    0  0.25096831412E+03 -0.19740934226E+03 -0.35217508763E+01  0.33292979151E+03  0.94203504422E+02 0.  0.
         23    2    4    4    0    0  0.22448983428E+03 -0.38442204661E+02 -0.67145129500E+03  0.71467765238E+03  0.89687326083E+02 0.  0.
          4    1    3    3  502    0 -0.29052657169E+03  0.14032774623E+03  0.18647858228E+03  0.37265510444E+03  0.00000000000E+00 0.  1.
         -4    1    3    3    0  502 -0.18493157671E+03  0.95523800695E+02  0.22240697155E+03  0.30461343627E+03  0.00000000000E+00 0. -1.
         11    1    5    5    0    0  0.18850476734E+03 -0.18856647909E+03  0.15379323037E+02  0.26707281390E+03  0.00000000000E+00 0. -1.
        -11    1    5    5    0    0  0.62463546781E+02 -0.88428631653E+01 -0.18901073914E+02  0.65856977615E+02  0.00000000000E+00 0.  1.
          2    1    6    6  503    0  0.20575775488E+02 -0.65236203595E+01 -0.18494677810E+03  0.18620212375E+03  0.00000000000E+00 0. -1.
         -2    1    6    6    0  503  0.20391405879E+03 -0.31918584302E+02 -0.48650451690E+03  0.52847552863E+03  0.00000000000E+00 0.  1.
<mgrwt>
<rscale>  0 0.54424257E+03</rscale>
<asrwt>0</asrwt>
<pdfrwt beam="1">  1        2 0.15315104E+00 0.54424257E+03</pdfrwt>
<pdfrwt beam="2">  1       -2 0.11221450E+00 0.54424257E+03</pdfrwt>
<totfact> 0.16568139E+01</totfact>
</mgrwt>
</event>
<event>
12    1  0.1432447E-007  0.1484601E+04  0.7818608E-02  0.8894758E-01
          1   -1    0    0  501    0  0.00000000000E+00  0.00000000000E+00  0.99358760355E+03  0.99358760355E+03  0.00000000000E+00 0. -1.
         -1   -1    0    0    0  501 -0.00000000000E+00 -0.00000000000E+00 -0.24452744177E+04  0.24452744177E+04  0.00000000000E+00 0.  1.
         23    2    1    2    0    0  0.12670733554E+04  0.73337973509E+03 -0.10570761225E+04  0.18081469710E+04  0.93084994545E+02 0.  0.
    5000000    2    1    2    0    0 -0.12670733554E+04 -0.73337973509E+03 -0.39461069165E+03  0.16307150502E+04  0.60016102268E+03 0.  0.
         23    2    4    4    0    0 -0.67825730266E+02 -0.61529514037E+02 -0.19952865587E+03  0.23949237385E+03  0.95701106771E+02 0.  0.
         23    2    4    4    0    0 -0.11992476252E+04 -0.67185022106E+03 -0.19508203578E+03  0.13912226764E+04  0.88690182899E+02 0.  0.
          3    1    3    3  502    0  0.41262509579E+03  0.28182281812E+03 -0.38967779938E+03  0.63366580926E+03  0.00000000000E+00 0. -1.
         -3    1    3    3    0  502  0.85444825964E+03  0.45155691697E+03 -0.66739832312E+03  0.11744811618E+04  0.00000000000E+00 0.  1.
         13    1    5    5    0    0 -0.47610157567E+02  0.14070966053E+02 -0.10935281566E+03  0.12009478540E+03  0.00000000000E+00 0.  1.
        -13    1    5    5    0    0 -0.20215572699E+02 -0.75600480090E+02 -0.90175840212E+02  0.11939758845E+03  0.00000000000E+00 0. -1.
          3    1    6    6  503    0 -0.25483160307E+03 -0.16151524605E+03 -0.97742320085E+01  0.30186396976E+03  0.00000000000E+00 0. -1.
         -3    1    6    6    0  503 -0.94441602210E+03 -0.51033497501E+03 -0.18530780378E+03  0.10893587066E+04  0.00000000000E+00 0.  1.
<mgrwt>
<rscale>  0 0.14846014E+04</rscale>
<asrwt>0</asrwt>
<pdfrwt beam="1">  1        1 0.15285963E+00 0.14846014E+04</pdfrwt>
<pdfrwt beam="2">  1       -1 0.37619606E+00 0.14846014E+04</pdfrwt>
<totfact> 0.15167783E-01</totfact>
</mgrwt>
</event>
<event>
12    1  0.1432447E-007  0.4550596E+03  0.7818608E-02  0.1026224E+00
         -1   -1    0    0    0  501 -0.00000000000E+00  0.00000000000E+00  0.40329643165E+03  0.40329643165E+03  0.00000000000E+00 0.  1.
          1   -1    0    0  501    0  0.00000000000E+00 -0.00000000000E+00 -0.59439956800E+03  0.59439956800E+03  0.00000000000E+00 0. -1.
         23    2    1    2    0    0 -0.97376794219E+02 -0.25640253984E+03  0.53329254622E+02  0.29419910923E+03  0.92111910122E+02 0.  0.
    5000000    2    1    2    0    0  0.97376794219E+02  0.25640253984E+03 -0.24443239097E+03  0.70349689042E+03  0.59994681313E+03 0.  0.
         23    2    4    4    0    0  0.16260293231E+03  0.40865198012E+03 -0.24880618275E+03  0.51452724572E+03  0.96941299574E+02 0.  0.
         23    2    4    4    0    0 -0.65226138089E+02 -0.15224944029E+03  0.43737917727E+01  0.18896964470E+03  0.90862838411E+02 0.  0.
          4    1    3    3  502    0 -0.12488461856E+02 -0.83457670421E+02 -0.22215351489E+02  0.87262055175E+02  0.00000000000E+00 0.  1.
         -4    1    3    3    0  502 -0.84888332363E+02 -0.17294486942E+03  0.75544606110E+02  0.20693705406E+03  0.00000000000E+00 0. -1.
         11    1    5    5    0    0  0.56728235042E+02  0.26739053515E+03 -0.13933985041E+03  0.30680838458E+03  0.00000000000E+00 0.  1.
        -11    1    5    5    0    0  0.10587469727E+03  0.14126144498E+03 -0.10946633234E+03  0.20771886114E+03  0.00000000000E+00 0. -1.
          1    1    6    6  503    0  0.18213485850E+02 -0.32372462556E+02  0.19814051223E+02  0.42098741366E+02  0.00000000000E+00 0. -1.
         -1    1    6    6    0  503 -0.83439623938E+02 -0.11987697773E+03 -0.15440259450E+02  0.14687090333E+03  0.00000000000E+00 0.  1.
<mgrwt>
<rscale>  0 0.45505961E+03</rscale>
<asrwt>0</asrwt>
<pdfrwt beam="1">  1        1 0.91446087E-01 0.45505961E+03</pdfrwt>
<pdfrwt beam="2">  1       -1 0.62045605E-01 0.45505961E+03</pdfrwt>
<totfact> 0.95664525E+01</totfact>
</mgrwt>
</event>
<event>
12    1  0.1432447E-007  0.5329018E+03  0.7818608E-02  0.1005531E+00
         -2   -1    0    0    0  501 -0.00000000000E+00  0.00000000000E+00  0.46647612323E+03  0.46647612323E+03  0.00000000000E+00 0.  1.
          2   -1    0    0  501    0  0.00000000000E+00 -0.00000000000E+00 -0.82101063796E+03  0.82101063796E+03  0.00000000000E+00 0. -1.
         23    2    1    2    0    0  0.98675482581E+02  0.45721263562E+03 -0.12715450434E+03  0.49354099281E+03  0.92920388402E+02 0.  0.
    5000000    2    1    2    0    0 -0.98675482581E+02 -0.45721263562E+03 -0.22738001039E+03  0.79394576839E+03  0.59988996406E+03 0.  0.
         23    2    4    4    0    0 -0.73592812618E+02 -0.50610180277E+03 -0.35517101771E+03  0.62839037067E+03  0.84693974347E+02 0.  0.
         23    2    4    4    0    0 -0.25082669963E+02  0.48889167153E+02  0.12779100732E+03  0.16555539772E+03  0.89770580730E+02 0.  0.
          2    1    3    3  502    0  0.82443512550E+02  0.21382529003E+03 -0.92633204548E+02  0.24718231733E+03  0.00000000000E+00 0. -1.
         -2    1    3    3    0  502  0.16231970031E+02  0.24338734559E+03 -0.34521299790E+02  0.24635867548E+03  0.00000000000E+00 0.  1.
         11    1    5    5    0    0  0.19249306828E+01 -0.27784996254E+03 -0.18386239547E+03  0.33318116320E+03  0.00000000000E+00 0. -1.
        -11    1    5    5    0    0 -0.75517743301E+02 -0.22825184023E+03 -0.17130862224E+03  0.29520920747E+03  0.00000000000E+00 0.  1.
          2    1    6    6  503    0  0.94234391560E+01  0.36611810045E+02  0.12292655936E+03  0.12860857217E+03  0.00000000000E+00 0. -1.
         -2    1    6    6    0  503 -0.34506109119E+02  0.12277357108E+02  0.48644479622E+01  0.36946825548E+02  0.00000000000E+00 0.  1.
<mgrwt>
<rscale>  0 0.53290177E+03</rscale>
<asrwt>0</asrwt>
<pdfrwt beam="1">  1        2 0.12630933E+00 0.53290177E+03</pdfrwt>
<pdfrwt beam="2">  1       -2 0.71765558E-01 0.53290177E+03</pdfrwt>
<totfact> 0.60528899E+01</totfact>
</mgrwt>
</event>
<event>
12    1  0.1432447E-007  0.3120857E+03  0.7818608E-02  0.1079350E+00
          1   -1    0    0  501    0  0.00000000000E+00  0.00000000000E+00  0.22776398145E+04  0.22776398145E+04  0.00000000000E+00 0. -1.
         -1   -1    0    0    0  501 -0.00000000000E+00 -0.00000000000E+00 -0.12082359079E+03  0.12082359079E+03  0.00000000000E+00 0.  1.
         23    2    1    2    0    0  0.12972237991E+03  0.15126403785E+03  0.13763610644E+04  0.13939752981E+04  0.95334396964E+02 0.  0.
    5000000    2    1    2    0    0 -0.12972237991E+03 -0.15126403785E+03  0.78045515932E+03  0.10044881072E+04  0.60014781239E+03 0.  0.
         23    2    4    4    0    0 -0.56007335358E+02  0.93689755972E+02 -0.28329138661E+02  0.15127584683E+03  0.10083278112E+03 0.  0.
         23    2    4    4    0    0 -0.73715044548E+02 -0.24495379382E+03  0.80878429798E+03  0.85321226034E+03  0.91667069443E+02 0.  0.
          1    1    3    3  502    0  0.14355322036E+03  0.12193010163E+03  0.11571300916E+04  0.11723585312E+04  0.00000000000E+00 0. -1.
         -1    1    3    3    0  502 -0.13830840457E+02  0.29333936213E+02  0.21923097276E+03  0.22161676692E+03  0.00000000000E+00 0.  1.
         13    1    5    5    0    0 -0.52819053664E+02  0.93438907526E+00 -0.24902233611E+02  0.58402455014E+02  0.00000000000E+00 0. -1.
        -13    1    5    5    0    0 -0.31882816939E+01  0.92755366897E+02 -0.34269050502E+01  0.92873391812E+02  0.00000000000E+00 0.  1.
          4    1    6    6  503    0 -0.52315452837E+02 -0.11892322113E+03  0.27228270307E+03  0.30169108293E+03  0.00000000000E+00 0. -1.
         -4    1    6    6    0  503 -0.21399591712E+02 -0.12603057269E+03  0.53650159492E+03  0.55152117741E+03  0.00000000000E+00 0.  1.
<mgrwt>
<rscale>  0 0.31208566E+03</rscale>
<asrwt>0</asrwt>
<pdfrwt beam="1">  1        1 0.35040609E+00 0.31208566E+03</pdfrwt>
<pdfrwt beam="2">  1       -1 0.18588246E-01 0.31208566E+03</pdfrwt>
<totfact> 0.50216520E+01</totfact>
</mgrwt>
</event>
<event>
12    1  0.1432447E-007  0.7414879E+03  0.7818608E-02  0.9648800E-01
         -2   -1    0    0    0  501 -0.00000000000E+00  0.00000000000E+00  0.46331925955E+03  0.46331925955E+03  0.00000000000E+00 0. -1.
          2   -1    0    0  501    0  0.00000000000E+00 -0.00000000000E+00 -0.40734414001E+04  0.40734414001E+04  0.00000000000E+00 0.  1.
         23    2    1    2    0    0  0.30543942948E+03 -0.58773975762E+03 -0.35808345309E+04  0.36426477304E+04  0.88177560742E+02 0.  0.
    5000000    2    1    2    0    0 -0.30543942948E+03  0.58773975762E+03 -0.29287609602E+02  0.89411292922E+03  0.59987406874E+03 0.  0.
         23    2    4    4    0    0  0.49921646860E+02 -0.61270772528E+02 -0.83453819198E+02  0.14669536073E+03  0.91152128494E+02 0.  0.
         23    2    4    4    0    0 -0.35536107634E+03  0.64901053014E+03  0.54166209596E+02  0.74741756849E+03  0.90569755464E+02 0.  0.
          2    1    3    3  502    0  0.26010535767E+03 -0.49257454775E+03 -0.28140546879E+04  0.28686561782E+04  0.00000000000E+00 0. -1.
         -2    1    3    3    0  502  0.45334071817E+02 -0.95165209869E+02 -0.76677984297E+03  0.77399155216E+03  0.00000000000E+00 0.  1.
         13    1    5    5    0    0  0.25828800780E+02 -0.41772351156E+02 -0.10011059592E+03  0.11150868883E+03  0.00000000000E+00 0. -1.
        -13    1    5    5    0    0  0.24092846080E+02 -0.19498421373E+02  0.16656776719E+02  0.35186671894E+02  0.00000000000E+00 0.  1.
          3    1    6    6  503    0 -0.26620340633E+03  0.46082766889E+03 -0.24814444953E+00  0.53219024374E+03  0.00000000000E+00 0. -1.
         -3    1    6    6    0  503 -0.89157670011E+02  0.18818286125E+03  0.54414354045E+02  0.21522732475E+03  0.00000000000E+00 0.  1.
<mgrwt>
<rscale>  0 0.74148792E+03</rscale>
<asrwt>0</asrwt>
<pdfrwt beam="1">  1        2 0.62668332E+00 0.74148792E+03</pdfrwt>
<pdfrwt beam="2">  1       -2 0.71279883E-01 0.74148792E+03</pdfrwt>
<totfact> 0.59592933E-01</totfact>
</mgrwt>
</event>
<event>
12    1  0.1432447E-007  0.1568000E+04  0.7818608E-02  0.8840451E-01
          2   -1    0    0  501    0  0.00000000000E+00  0.00000000000E+00  0.40781939703E+04  0.40781939703E+04  0.00000000000E+00 0. -1.
         -2   -1    0    0    0  501 -0.00000000000E+00 -0.00000000000E+00 -0.60449978678E+03  0.60449978678E+03  0.00000000000E+00 0.  1.
         23    2    1    2    0    0 -0.11754562917E+04 -0.94969895931E+03  0.16320996712E+04  0.22261221220E+04  0.90800652746E+02 0.  0.
    5000000    2    1    2    0    0  0.11754562917E+04  0.94969895931E+03  0.18415945124E+04  0.24565716351E+04  0.59970679788E+03 0.  0.
         23    2    4    4    0    0  0.60899734199E+03  0.13623974509E+03  0.69443687358E+03  0.93776506509E+03  0.87873290769E+02 0.  0.
         23    2    4    4    0    0  0.56645894968E+03  0.81345921422E+03  0.11471576388E+04  0.15188065700E+04  0.90615197268E+02 0.  0.
          2    1    3    3  502    0 -0.18904273724E+03 -0.19586024645E+03  0.27983039695E+03  0.39038883654E+03  0.00000000000E+00 0. -1.
         -2    1    3    3    0  502 -0.98641355443E+03 -0.75383871286E+03  0.13522692742E+04  0.18357332855E+04  0.00000000000E+00 0.  1.
         13    1    5    5    0    0  0.26113559728E+03  0.15113670360E+02  0.30237551350E+03  0.39981392467E+03  0.00000000000E+00 0. -1.
        -13    1    5    5    0    0  0.34786174470E+03  0.12112607473E+03  0.39206136008E+03  0.53795114042E+03  0.00000000000E+00 0.  1.
          3    1    6    6  503    0  0.15905941357E+03  0.26680936050E+03  0.41506580764E+03  0.51842719505E+03  0.00000000000E+00 0. -1.
         -3    1    6    6    0  503  0.40739953611E+03  0.54664985372E+03  0.73209183117E+03  0.10003793750E+04  0.00000000000E+00 0.  1.
<mgrwt>
<rscale>  0 0.15680004E+04</rscale>
<asrwt>0</asrwt>
<pdfrwt beam="1">  1        2 0.62741444E+00 0.15680004E+04</pdfrwt>
<pdfrwt beam="2">  1       -2 0.92999970E-01 0.15680004E+04</pdfrwt>
<totfact> 0.27882171E-01</totfact>
</mgrwt>
</event>
<event>
12    1  0.1432447E-007  0.2119946E+04  0.7818608E-02  0.8552507E-01
          1   -1    0    0  501    0  0.00000000000E+00  0.00000000000E+00  0.22257378523E+04  0.22257378523E+04  0.00000000000E+00 0. -1.
         -1   -1    0    0    0  501 -0.00000000000E+00 -0.00000000000E+00 -0.22401344906E+04  0.22401344906E+04  0.00000000000E+00 0.  1.
         23    2    1    2    0    0 -0.66055917348E+03  0.20079660089E+04  0.57211382627E+03  0.21916920430E+04  0.89072254689E+02 0.  0.
    5000000    2    1    2    0    0  0.66055917348E+03 -0.20079660089E+04 -0.58651046463E+03  0.22741802999E+04  0.59969625386E+03 0.  0.
         23    2    4    4    0    0  0.29708294121E+03 -0.69731737727E+03  0.59395887968E+02  0.76577194224E+03  0.91482224576E+02 0.  0.
         23    2    4    4    0    0  0.36347623227E+03 -0.13106486316E+04 -0.64590635260E+03  0.15084083577E+04  0.90476241073E+02 0.  0.
          3    1    3    3  502    0 -0.60950406949E+03  0.18367317400E+04  0.54853515815E+03  0.20114595485E+04  0.00000000000E+00 0. -1.
         -3    1    3    3    0  502 -0.51055103995E+02  0.17123426889E+03  0.23578668124E+02  0.18023249450E+03  0.00000000000E+00 0.  1.
         13    1    5    5    0    0  0.16305832207E+03 -0.49046965061E+03  0.33641604975E+02  0.51795777062E+03  0.00000000000E+00 0.  1.
        -13    1    5    5    0    0  0.13402461915E+03 -0.20684772666E+03  0.25754282993E+02  0.24781417162E+03  0.00000000000E+00 0. -1.
          1    1    6    6  503    0  0.23602168086E+03 -0.69607036763E+03 -0.32863946942E+03  0.80512364975E+03  0.00000000000E+00 0. -1.
         -1    1    6    6    0  503  0.12745455141E+03 -0.61457826397E+03 -0.31726688318E+03  0.70328470791E+03  0.00000000000E+00 0.  1.
<mgrwt>
<rscale>  0 0.21199462E+04</rscale>
<asrwt>0</asrwt>
<pdfrwt beam="1">  1        1 0.34242121E+00 0.21199462E+04</pdfrwt>
<pdfrwt beam="2">  1       -1 0.34463608E+00 0.21199462E+04</pdfrwt>
<totfact> 0.30936440E-02</totfact>
</mgrwt>
</event>
<event>
12    1  0.1432447E-007  0.5630463E+03  0.7818608E-02  0.9985185E-01
         -2   -1    0    0    0  501 -0.00000000000E+00  0.00000000000E+00  0.19274253841E+03  0.19274253841E+03  0.00000000000E+00 0.  1.
          2   -1    0    0  501    0  0.00000000000E+00 -0.00000000000E+00 -0.23022033469E+04  0.23022033469E+04  0.00000000000E+00 0. -1.
         23    2    1    2    0    0 -0.24048557857E+03 -0.45726934281E+03 -0.10329698522E+04  0.11585779800E+04  0.91365501085E+02 0.  0.
    5000000    2    1    2    0    0  0.24048557857E+03  0.45726934281E+03 -0.10764909563E+04  0.13363679053E+04  0.60009818701E+03 0.  0.
         23    2    4    4    0    0  0.30636843138E+03  0.35229399716E+03 -0.10820468527E+04  0.11819115968E+04  0.90094145080E+02 0.  0.
         23    2    4    4    0    0 -0.65882852812E+02  0.10497534566E+03  0.55558964482E+01  0.15445630852E+03  0.92008204884E+02 0.  0.
          1    1    3    3  502    0 -0.47551793768E+02 -0.16191953116E+03 -0.39556416541E+03  0.43005827118E+03  0.00000000000E+00 0. -1.
         -1    1    3    3    0  502 -0.19293378480E+03 -0.29534981165E+03 -0.63740568682E+03  0.72851970883E+03  0.00000000000E+00 0.  1.
         11    1    5    5    0    0  0.53855011977E+02  0.55501666337E+02 -0.27572109353E+03  0.28636151749E+03  0.00000000000E+00 0.  1.
        -11    1    5    5    0    0  0.25251341940E+03  0.29679233082E+03 -0.80632575920E+03  0.89555007932E+03  0.00000000000E+00 0. -1.
          3    1    6    6  503    0 -0.82756026276E+01  0.69274719478E+02 -0.32240728170E+02  0.76856599655E+02  0.00000000000E+00 0. -1.
         -3    1    6    6    0  503 -0.57607250185E+02  0.35700626177E+02  0.37796624618E+02  0.77599708864E+02  0.00000000000E+00 0.  1.
<mgrwt>
<rscale>  0 0.56304625E+03</rscale>
<asrwt>0</asrwt>
<pdfrwt beam="1">  1        2 0.35418510E+00 0.56304625E+03</pdfrwt>
<pdfrwt beam="2">  1       -2 0.29652701E-01 0.56304625E+03</pdfrwt>
<totfact> 0.50452711E+01</totfact>
</mgrwt>
</event>
<event>
12    1  0.1432447E-007  0.7087014E+03  0.7818608E-02  0.9702466E-01
         -1   -1    0    0    0  501 -0.00000000000E+00  0.00000000000E+00  0.94811598839E+03  0.94811598839E+03  0.00000000000E+00 0.  1.
          1   -1    0    0  501    0  0.00000000000E+00 -0.00000000000E+00 -0.56912829441E+03  0.56912829441E+03  0.00000000000E+00 0. -1.
         23    2    1    2    0    0 -0.42985590489E+03 -0.40983807744E+03  0.23320765701E+02  0.60119375850E+03  0.90259229210E+02 0.  0.
    5000000    2    1    2    0    0  0.42985590489E+03  0.40983807744E+03  0.35566692828E+03  0.91605052430E+03  0.59992187035E+03 0.  0.
         23    2    4    4    0    0  0.17808955559E+03  0.50212473284E+03  0.32542698198E+03  0.63141609847E+03  0.94543279341E+02 0.  0.
         23    2    4    4    0    0  0.25176634930E+03 -0.92286655409E+02  0.30239946299E+02  0.28463442583E+03  0.90549326935E+02 0.  0.
          4    1    3    3  502    0 -0.32662866018E+03 -0.31894014972E+03  0.55660720169E+02  0.45989913734E+03  0.00000000000E+00 0. -1.
         -4    1    3    3    0  502 -0.10322724471E+03 -0.90897927712E+02 -0.32339954468E+02  0.14129462116E+03  0.00000000000E+00 0.  1.
         13    1    5    5    0    0  0.99351022713E+02  0.39858365205E+03  0.23910362434E+03  0.47530000691E+03  0.00000000000E+00 0. -1.
        -13    1    5    5    0    0  0.78738532875E+02  0.10354108080E+03  0.86323357637E+02  0.15611609156E+03  0.00000000000E+00 0.  1.
          4    1    6    6  503    0  0.19607772301E+03 -0.29046077981E+02  0.13144682223E+02  0.19865278950E+03  0.00000000000E+00 0. -1.
         -4    1    6    6    0  503  0.55688626294E+02 -0.63240577428E+02  0.17095264076E+02  0.85981636329E+02  0.00000000000E+00 0.  1.
<mgrwt>
<rscale>  0 0.70870139E+03</rscale>
<asrwt>0</asrwt>
<pdfrwt beam="1">  1        1 0.87558199E-01 0.70870139E+03</pdfrwt>
<pdfrwt beam="2">  1       -1 0.14586400E+00 0.70870139E+03</pdfrwt>
<totfact> 0.14359883E+01</totfact>
</mgrwt>
</event>
<event>
12    1  0.1432447E-007  0.9313210E+03  0.7818608E-02  0.9387254E-01
         -2   -1    0    0    0  501 -0.00000000000E+00  0.00000000000E+00  0.18180953337E+04  0.18180953337E+04  0.00000000000E+00 0.  1.
          2   -1    0    0  501    0  0.00000000000E+00 -0.00000000000E+00 -0.53564888971E+03  0.53564888971E+03  0.00000000000E+00 0. -1.
         23    2    1    2    0    0  0.27167049064E+03  0.83538509152E+03  0.77657564528E+03  0.11758947234E+04  0.89361966539E+02 0.  0.
    5000000    2    1    2    0    0 -0.27167049064E+03 -0.83538509152E+03  0.50587079868E+03  0.11778495000E+04  0.59979252501E+03 0.  0.
         23    2    4    4    0    0  0.61208327051E+02 -0.46807322505E+03  0.25316063420E+02  0.48144791862E+03  0.91171223388E+02 0.  0.
         23    2    4    4    0    0 -0.33287881769E+03 -0.36731186647E+03  0.48055473526E+03  0.69640158137E+03  0.91192074387E+02 0.  0.
          3    1    3    3  502    0  0.82002521552E+02  0.38480695080E+03  0.32368095101E+03  0.50948028516E+03  0.00000000000E+00 0. -1.
         -3    1    3    3    0  502  0.18966796909E+03  0.45057814072E+03  0.45289469427E+03  0.66641443823E+03  0.00000000000E+00 0.  1.
         11    1    5    5    0    0 -0.12009755126E+02 -0.12227666934E+03 -0.22041402439E+02  0.12482644553E+03  0.00000000000E+00 0. -1.
        -11    1    5    5    0    0  0.73218082177E+02 -0.34579655571E+03  0.47357465860E+02  0.35662147309E+03  0.00000000000E+00 0.  1.
          3    1    6    6  503    0 -0.51081970103E+02 -0.15791531532E+02  0.53355799353E+02  0.75535299445E+02  0.00000000000E+00 0. -1.
         -3    1    6    6    0  503 -0.28179684759E+03 -0.35152033494E+03  0.42719893591E+03  0.62086628192E+03  0.00000000000E+00 0.  1.
<mgrwt>
<rscale>  0 0.93132098E+03</rscale>
<asrwt>0</asrwt>
<pdfrwt beam="1">  1        2 0.82407522E-01 0.93132098E+03</pdfrwt>
<pdfrwt beam="2">  1       -2 0.27970697E+00 0.93132098E+03</pdfrwt>
<totfact> 0.24300230E+00</totfact>
</mgrwt>
</event>
<event>
12    1  0.1432447E-007  0.1743750E+04  0.7818608E-02  0.8736798E-01
          2   -1    0    0  501    0  0.00000000000E+00  0.00000000000E+00  0.18545641745E+04  0.18545641745E+04  0.00000000000E+00 0. -1.
         -2   -1    0    0    0  501 -0.00000000000E+00 -0.00000000000E+00 -0.16583730804E+04  0.16583730804E+04  0.00000000000E+00 0.  1.
         23    2    1    2    0    0  0.39500854303E+03 -0.16536945271E+04  0.37868940283E+02  0.17030219809E+04  0.90069266392E+02 0.  0.
    5000000    2    1    2    0    0 -0.39500854303E+03  0.16536945271E+04  0.15832215381E+03  0.18099152740E+04  0.59999171359E+03 0.  0.
         23    2    4    4    0    0  0.98011895601E+02  0.10293101488E+03 -0.22552980503E+02  0.17030763509E+03  0.91076496083E+02 0.  0.
         23    2    4    4    0    0 -0.49302043863E+03  0.15507635123E+04  0.18087513432E+03  0.16396076389E+04  0.87525832475E+02 0.  0.
          3    1    3    3  502    0  0.11206036991E+03 -0.48927135684E+03 -0.29637557218E+02  0.50281445079E+03  0.00000000000E+00 0. -1.
         -3    1    3    3    0  502  0.28294817312E+03 -0.11644231703E+04  0.67506497501E+02  0.12002075301E+04  0.00000000000E+00 0.  1.
         13    1    5    5    0    0  0.97672079523E+02  0.55410968765E+02 -0.40694314073E+02  0.11944135706E+03  0.00000000000E+00 0. -1.
        -13    1    5    5    0    0  0.33981607721E+00  0.47520046113E+02  0.18141333571E+02  0.50866278036E+02  0.00000000000E+00 0.  1.
          3    1    6    6  503    0 -0.37144724425E+03  0.12025462794E+04  0.10436720104E+03  0.12629264120E+04  0.00000000000E+00 0. -1.
         -3    1    6    6    0  503 -0.12157319437E+03  0.34821723282E+03  0.76507933278E+02  0.37668122687E+03  0.00000000000E+00 0.  1.
<mgrwt>
<rscale>  0 0.17437502E+04</rscale>
<asrwt>0</asrwt>
<pdfrwt beam="1">  1        2 0.28531757E+00 0.17437502E+04</pdfrwt>
<pdfrwt beam="2">  1       -2 0.25513432E+00 0.17437502E+04</pdfrwt>
<totfact> 0.44036991E-01</totfact>
</mgrwt>
</event>
<event>
12    1  0.1432447E-007  0.3943327E+03  0.7818608E-02  0.1045760E+00
         -2   -1    0    0    0  501 -0.00000000000E+00  0.00000000000E+00  0.19321515181E+03  0.19321515181E+03  0.00000000000E+00 0.  1.
          2   -1    0    0  501    0  0.00000000000E+00 -0.00000000000E+00 -0.11644832778E+04  0.11644832778E+04  0.00000000000E+00 0. -1.
         23    2    1    2    0    0 -0.14112296387E+03  0.22988556245E+03 -0.22024280690E+03  0.35975016933E+03  0.90278610925E+02 0.  0.
    5000000    2    1    2    0    0  0.14112296387E+03 -0.22988556245E+03 -0.75102531905E+03  0.99794826024E+03  0.59924839382E+03 0.  0.
         23    2    4    4    0    0  0.23266000502E+03  0.11260875327E+02 -0.66625157684E+03  0.71137095554E+03  0.88881873834E+02 0.  0.
         23    2    4    4    0    0 -0.91537041145E+02 -0.24114643778E+03 -0.84773742213E+02  0.28657730470E+03  0.91702398251E+02 0.  0.
          3    1    3    3  502    0 -0.34273447038E+02  0.11999905195E+02 -0.55916305850E+02  0.66673084198E+02  0.00000000000E+00 0. -1.
         -3    1    3    3    0  502 -0.10684951684E+03  0.21788565726E+03 -0.16432650105E+03  0.29307708514E+03  0.00000000000E+00 0.  1.
         13    1    5    5    0    0  0.16984119656E+03  0.46495943295E+02 -0.50314885043E+03  0.53307285664E+03  0.00000000000E+00 0.  1.
        -13    1    5    5    0    0  0.62818808461E+02 -0.35235067968E+02 -0.16310272641E+03  0.17829809891E+03  0.00000000000E+00 0. -1.
          4    1    6    6  503    0 -0.83668633890E+02 -0.16492379392E+03 -0.97243530474E+02  0.20894162418E+03  0.00000000000E+00 0. -1.
         -4    1    6    6    0  503 -0.78684072552E+01 -0.76222643862E+02  0.12469788261E+02  0.77635680517E+02  0.00000000000E+00 0.  1.
<mgrwt>
<rscale>  0 0.39433270E+03</rscale>
<asrwt>0</asrwt>
<pdfrwt beam="1">  1        2 0.17915127E+00 0.39433270E+03</pdfrwt>
<pdfrwt beam="2">  1       -2 0.29725408E-01 0.39433270E+03</pdfrwt>
<totfact> 0.21616651E+02</totfact>
</mgrwt>
</event>
<event>
12    1  0.1432447E-007  0.9124480E+03  0.7818608E-02  0.9410153E-01
         -2   -1    0    0    0  501 -0.00000000000E+00  0.00000000000E+00  0.62809101332E+03  0.62809101332E+03  0.00000000000E+00 0.  1.
          2   -1    0    0  501    0  0.00000000000E+00 -0.00000000000E+00 -0.14730811392E+04  0.14730811392E+04  0.00000000000E+00 0. -1.
         23    2    1    2    0    0  0.32285723588E+03  0.75480422963E+03 -0.68183008264E+03  0.10710116347E+04  0.90594923345E+02 0.  0.
    5000000    2    1    2    0    0 -0.32285723588E+03 -0.75480422963E+03 -0.16316004326E+03  0.10301605179E+04  0.60053582165E+03 0.  0.
         23    2    4    4    0    0 -0.47210530372E+03 -0.44404041948E+03 -0.48348540490E+02  0.65670530652E+03  0.94175189504E+02 0.  0.
         23    2    4    4    0    0  0.14924806784E+03 -0.31076381016E+03 -0.11481150277E+03  0.37345521137E+03  0.86243737597E+02 0.  0.
          3    1    3    3  502    0  0.83657890052E+02  0.30545980527E+03 -0.25053603559E+03  0.40382253569E+03  0.00000000000E+00 0. -1.
         -3    1    3    3    0  502  0.23919934583E+03  0.44934442436E+03 -0.43129404705E+03  0.66718909896E+03  0.00000000000E+00 0.  1.
         13    1    5    5    0    0 -0.98522934676E+02 -0.11817961695E+03 -0.47320721879E+02  0.16097341780E+03  0.00000000000E+00 0. -1.
        -13    1    5    5    0    0 -0.37358236905E+03 -0.32586080253E+03 -0.10278186117E+01  0.49573188872E+03  0.00000000000E+00 0.  1.
          3    1    6    6  503    0  0.49218665436E+02 -0.16919372983E+03 -0.91510409774E+02  0.19855263871E+03  0.00000000000E+00 0. -1.
         -3    1    6    6    0  503  0.10002940241E+03 -0.14157008033E+03 -0.23301092997E+02  0.17490257266E+03  0.00000000000E+00 0.  1.
<mgrwt>
<rscale>  0 0.91244802E+03</rscale>
<asrwt>0</asrwt>
<pdfrwt beam="1">  1        2 0.22662786E+00 0.91244802E+03</pdfrwt>
<pdfrwt beam="2">  1       -2 0.96629388E-01 0.91244802E+03</pdfrwt>
<totfact> 0.11827586E+01</totfact>
</mgrwt>
</event>
<event>
12    1  0.1432447E-007  0.3783557E+03  0.7818608E-02  0.1051543E+00
          1   -1    0    0  501    0  0.00000000000E+00  0.00000000000E+00  0.12674299694E+04  0.12674299694E+04  0.00000000000E+00 0. -1.
         -1   -1    0    0    0  501 -0.00000000000E+00 -0.00000000000E+00 -0.16560403266E+03  0.16560403266E+03  0.00000000000E+00 0.  1.
         23    2    1    2    0    0  0.74586961368E+02  0.16499833060E+03  0.58956320191E+03  0.62366824614E+03  0.92680355442E+02 0.  0.
    5000000    2    1    2    0    0 -0.74586961368E+02 -0.16499833060E+03  0.51226273483E+03  0.80936575593E+03  0.59989345176E+03 0.  0.
         23    2    4    4    0    0  0.17723622723E+03  0.87784204954E+02  0.33676389406E+03  0.40135410394E+03  0.92501078467E+02 0.  0.
         23    2    4    4    0    0 -0.25182318860E+03 -0.25278253556E+03  0.17549884076E+03  0.40801165199E+03  0.91431594367E+02 0.  0.
          4    1    3    3  502    0  0.17224069897E+02  0.11227169887E+02  0.19849447423E+03  0.19955644371E+03  0.00000000000E+00 0. -1.
         -4    1    3    3    0  502  0.57362891470E+02  0.15377116072E+03  0.39106872768E+03  0.42411180242E+03  0.00000000000E+00 0.  1.
         13    1    5    5    0    0  0.22281099816E+02  0.35774548591E+02  0.13648200053E+03  0.14284117825E+03  0.00000000000E+00 0. -1.
        -13    1    5    5    0    0  0.15495512742E+03  0.52009656363E+02  0.20028189354E+03  0.25851292569E+03  0.00000000000E+00 0.  1.
          1    1    6    6  503    0 -0.22284912328E+03 -0.17475009590E+03  0.15254658579E+03  0.32166720162E+03  0.00000000000E+00 0. -1.
         -1    1    6    6    0  503 -0.28974065319E+02 -0.78032439661E+02  0.22952254973E+02  0.86344450365E+02  0.00000000000E+00 0.  1.
<mgrwt>
<rscale>  0 0.37835570E+03</rscale>
<asrwt>0</asrwt>
<pdfrwt beam="1">  1        1 0.19498922E+00 0.37835570E+03</pdfrwt>
<pdfrwt beam="2">  1       -1 0.25477544E-01 0.37835570E+03</pdfrwt>
<totfact> 0.13728116E+02</totfact>
</mgrwt>
</event>
<event>
12    1  0.1432447E-007  0.1132332E+04  0.7818608E-02  0.9174239E-01
          2   -1    0    0  501    0  0.00000000000E+00  0.00000000000E+00  0.12307235563E+04  0.12307235563E+04  0.00000000000E+00 0.  1.
         -2   -1    0    0    0  501 -0.00000000000E+00 -0.00000000000E+00 -0.21546962967E+04  0.21546962967E+04  0.00000000000E+00 0. -1.
         23    2    1    2    0    0  0.78233843024E+03 -0.74685118283E+03 -0.16322261040E+04  0.19600291829E+04  0.87819330552E+02 0.  0.
    5000000    2    1    2    0    0 -0.78233843024E+03  0.74685118283E+03  0.70825336351E+03  0.14253906701E+04  0.60022964496E+03 0.  0.
         23    2    4    4    0    0 -0.42696148960E+03  0.69625939360E+03  0.65584212990E+03  0.10512184174E+04  0.88645389371E+02 0.  0.
         23    2    4    4    0    0 -0.35537694065E+03  0.50591789226E+02  0.52411233609E+02  0.37417225263E+03  0.91682267352E+02 0.  0.
          4    1    3    3  502    0  0.11821072228E+03 -0.11772194770E+03 -0.19829868186E+03  0.25914204417E+03  0.00000000000E+00 0. -1.
         -4    1    3    3    0  502  0.66412770796E+03 -0.62912923513E+03 -0.14339274221E+04  0.17008871388E+04  0.00000000000E+00 0.  1.
         11    1    5    5    0    0 -0.26057449501E+03  0.48447027251E+03  0.40431997246E+03  0.68270429362E+03  0.00000000000E+00 0.  1.
        -11    1    5    5    0    0 -0.16638699458E+03  0.21178912110E+03  0.25152215744E+03  0.36851412383E+03  0.00000000000E+00 0. -1.
          2    1    6    6  503    0 -0.29103425932E+03  0.18307186595E+02  0.70365609657E+02  0.29997901960E+03  0.00000000000E+00 0. -1.
         -2    1    6    6    0  503 -0.64342681324E+02  0.32284602631E+02 -0.17954376048E+02  0.74193233022E+02  0.00000000000E+00 0.  1.
<mgrwt>
<rscale>  0 0.11323323E+04</rscale>
<asrwt>0</asrwt>
<pdfrwt beam="1">  1        2 0.18934209E+00 0.11323323E+04</pdfrwt>
<pdfrwt beam="2">  1       -2 0.33149174E+00 0.11323323E+04</pdfrwt>
<totfact> 0.36479376E-01</totfact>
</mgrwt>
</event>
<event>
12    1  0.1432447E-007  0.5573156E+03  0.7818608E-02  0.9998147E-01
          3   -1    0    0  501    0  0.00000000000E+00  0.00000000000E+00  0.37449616089E+03  0.37449616089E+03  0.00000000000E+00 0. -1.
         -3   -1    0    0    0  501 -0.00000000000E+00 -0.00000000000E+00 -0.22444086353E+04  0.22444086353E+04  0.00000000000E+00 0.  1.
         23    2    1    2    0    0  0.31312940165E+03  0.28873515278E+03  0.15725943478E+03  0.46229183722E+03  0.86978171396E+02 0.  0.
    5000000    2    1    2    0    0 -0.31312940165E+03 -0.28873515278E+03 -0.20271719091E+04  0.21566129589E+04  0.60011290169E+03 0.  0.
         23    2    4    4    0    0  0.10238733434E+03 -0.22079543414E+03 -0.11547695024E+04  0.11836868512E+04  0.91586942409E+02 0.  0.
         23    2    4    4    0    0 -0.41551673599E+03 -0.67939718633E+02 -0.87240240675E+03  0.97292610775E+03  0.90715426379E+02 0.  0.
          2    1    3    3  502    0  0.25196286929E+03  0.21573306482E+03  0.84102355989E+02  0.34219767539E+03  0.00000000000E+00 0. -1.
         -2    1    3    3    0  502  0.61166532361E+02  0.73002087954E+02  0.73157078795E+02  0.12009416183E+03  0.00000000000E+00 0.  1.
         11    1    5    5    0    0  0.17069973823E+02 -0.13549005391E+03 -0.69928609329E+03  0.71249559927E+03  0.00000000000E+00 0.  1.
        -11    1    5    5    0    0  0.85317360517E+02 -0.85305380232E+02 -0.45548340911E+03  0.47119125191E+03  0.00000000000E+00 0. -1.
          2    1    6    6  503    0 -0.18983890826E+03 -0.76419127812E+02 -0.39934930983E+03  0.44872994712E+03  0.00000000000E+00 0. -1.
         -2    1    6    6    0  503 -0.22567782773E+03  0.84794091785E+01 -0.47305309692E+03  0.52419616063E+03  0.00000000000E+00 0.  1.
<mgrwt>
<rscale>  0 0.55731561E+03</rscale>
<asrwt>0</asrwt>
<pdfrwt beam="1">  1        3 0.57614793E-01 0.55731561E+03</pdfrwt>
<pdfrwt beam="2">  1       -3 0.34529364E+00 0.55731561E+03</pdfrwt>
<totfact> 0.17245072E-01</totfact>
</mgrwt>
</event>
<event>
12    1  0.1432447E-007  0.3645901E+03  0.7818608E-02  0.1056781E+00
         -1   -1    0    0    0  501 -0.00000000000E+00  0.00000000000E+00  0.15152908339E+04  0.15152908339E+04  0.00000000000E+00 0.  1.
          1   -1    0    0  501    0  0.00000000000E+00 -0.00000000000E+00 -0.14383190534E+03  0.14383190534E+03  0.00000000000E+00 0. -1.
         23    2    1    2    0    0  0.33717029359E+02 -0.11959104366E+03  0.82168343479E+03  0.83593166521E+03  0.90439073925E+02 0.  0.
    5000000    2    1    2    0    0 -0.33717029359E+02  0.11959104366E+03  0.54977549372E+03  0.82319107399E+03  0.59995966115E+03 0.  0.
         23    2    4    4    0    0  0.25461385359E+03  0.99866222187E+02  0.15973334966E+03  0.32923598000E+03  0.89889436301E+02 0.  0.
         23    2    4    4    0    0 -0.28833088295E+03  0.19724821471E+02  0.39004214406E+03  0.49395509399E+03  0.91296188824E+02 0.  0.
          1    1    3    3  502    0 -0.16879871616E+02 -0.66164565565E+02  0.55838233765E+03  0.56254201159E+03  0.00000000000E+00 0. -1.
         -1    1    3    3    0  502  0.50596900975E+02 -0.53426478093E+02  0.26330109714E+03  0.27338965361E+03  0.00000000000E+00 0.  1.
         11    1    5    5    0    0  0.19136925159E+03  0.33768929893E+02  0.12666257083E+03  0.23196106986E+03  0.00000000000E+00 0.  1.
        -11    1    5    5    0    0  0.63244601999E+02  0.66097292294E+02  0.33070778833E+02  0.97274910143E+02  0.00000000000E+00 0. -1.
          1    1    6    6  503    0 -0.21650207078E+03  0.52156358495E+02  0.26499079989E+03  0.34614094876E+03  0.00000000000E+00 0. -1.
         -1    1    6    6    0  503 -0.71828812165E+02 -0.32431537023E+02  0.12505134417E+03  0.14781414523E+03  0.00000000000E+00 0.  1.
<mgrwt>
<rscale>  0 0.36459008E+03</rscale>
<asrwt>0</asrwt>
<pdfrwt beam="1">  1        1 0.22127987E-01 0.36459008E+03</pdfrwt>
<pdfrwt beam="2">  1       -1 0.23312166E+00 0.36459008E+03</pdfrwt>
<totfact> 0.22396393E+01</totfact>
</mgrwt>
</event>
<event>
12    1  0.1432447E-007  0.7452700E+03  0.7818608E-02  0.9642800E-01
          2   -1    0    0  501    0  0.00000000000E+00  0.00000000000E+00  0.37664099079E+03  0.37664099079E+03  0.00000000000E+00 0.  1.
         -2   -1    0    0    0  501 -0.00000000000E+00 -0.00000000000E+00 -0.26068391847E+04  0.26068391847E+04  0.00000000000E+00 0. -1.
         23    2    1    2    0    0 -0.41832372338E+03  0.50076517371E+03 -0.19430567638E+04  0.20517518815E+04  0.91954874802E+02 0.  0.
    5000000    2    1    2    0    0  0.41832372338E+03 -0.50076517371E+03 -0.28714143005E+03  0.93172829396E+03  0.59992242513E+03 0.  0.
         23    2    4    4    0    0  0.14813574282E+03  0.90863719560E+02 -0.17974067605E+03  0.26642695774E+03  0.92066276950E+02 0.  0.
         23    2    4    4    0    0  0.27018798056E+03 -0.59162889327E+03 -0.10740075400E+03  0.66530133622E+03  0.89803417659E+02 0.  0.
          2    1    3    3  502    0 -0.10683918208E+03  0.88568547751E+02 -0.50417032605E+03  0.52292132883E+03  0.00000000000E+00 0. -1.
         -2    1    3    3    0  502 -0.31148454130E+03  0.41219662596E+03 -0.14388864378E+04  0.15288305527E+04  0.00000000000E+00 0.  1.
         13    1    5    5    0    0  0.34205131290E+02  0.55637228697E+02 -0.22494779939E+02  0.69076098241E+02  0.00000000000E+00 0.  1.
        -13    1    5    5    0    0  0.11393061153E+03  0.35226490864E+02 -0.15724589611E+03  0.19735085950E+03  0.00000000000E+00 0. -1.
          1    1    6    6  503    0  0.13668619056E+03 -0.28282659187E+03 -0.96833511888E+02  0.32871070074E+03  0.00000000000E+00 0. -1.
         -1    1    6    6    0  503  0.13350179000E+03 -0.30880230141E+03 -0.10567242108E+02  0.33659063548E+03  0.00000000000E+00 0.  1.
<mgrwt>
<rscale>  0 0.74527002E+03</rscale>
<asrwt>0</asrwt>
<pdfrwt beam="1">  1        2 0.57944766E-01 0.74527002E+03</pdfrwt>
<pdfrwt beam="2">  1       -2 0.40105219E+00 0.74527002E+03</pdfrwt>
<totfact> 0.66136541E-01</totfact>
</mgrwt>
</event>
<event>
12    1  0.1432447E-007  0.1600343E+04  0.7818608E-02  0.8820337E-01
         -1   -1    0    0    0  501 -0.00000000000E+00  0.00000000000E+00  0.13682567168E+04  0.13682567168E+04  0.00000000000E+00 0.  1.
          1   -1    0    0  501    0  0.00000000000E+00 -0.00000000000E+00 -0.31933768624E+04  0.31933768624E+04  0.00000000000E+00 0. -1.
         23    2    1    2    0    0  0.15250756124E+04 -0.45781061385E+03  0.50832937791E+03  0.16736875420E+04  0.85936312563E+02 0.  0.
    5000000    2    1    2    0    0 -0.15250756124E+04  0.45781061385E+03 -0.23334495235E+04  0.28879460372E+04  0.59983285451E+03 0.  0.
         23    2    4    4    0    0 -0.13304733847E+04  0.37506023876E+03 -0.22518027838E+04  0.26438100268E+04  0.91027855777E+02 0.  0.
         23    2    4    4    0    0 -0.19460222779E+03  0.82750375092E+02 -0.81646739706E+02  0.24413601046E+03  0.90656217992E+02 0.  0.
          3    1    3    3  502    0  0.77058453026E+03 -0.26189463551E+03  0.29262661287E+03  0.86488129413E+03  0.00000000000E+00 0. -1.
         -3    1    3    3    0  502  0.75449108219E+03 -0.19591597834E+03  0.21570276505E+03  0.80880624782E+03  0.00000000000E+00 0.  1.
         11    1    5    5    0    0 -0.10408237679E+04  0.29098527099E+03 -0.18294479413E+04  0.21248214781E+04  0.00000000000E+00 0.  1.
        -11    1    5    5    0    0 -0.28964961675E+03  0.84074967773E+02 -0.42235484252E+03  0.51898854871E+03  0.00000000000E+00 0. -1.
          2    1    6    6  503    0 -0.12230876311E+03  0.10507752714E+02 -0.69888204456E+02  0.14125936260E+03  0.00000000000E+00 0. -1.
         -2    1    6    6    0  503 -0.72293464676E+02  0.72242622378E+02 -0.11758535250E+02  0.10287664786E+03  0.00000000000E+00 0.  1.
<mgrwt>
<rscale>  0 0.16003433E+04</rscale>
<asrwt>0</asrwt>
<pdfrwt beam="1">  1        1 0.49128874E+00 0.16003433E+04</pdfrwt>
<pdfrwt beam="2">  1       -1 0.21050104E+00 0.16003433E+04</pdfrwt>
<totfact> 0.51310772E-02</totfact>
</mgrwt>
</event>
<event>
12    1  0.1432447E-007  0.1394300E+04  0.7818608E-02  0.8957955E-01
          1   -1    0    0  501    0  0.00000000000E+00  0.00000000000E+00  0.10670942325E+04  0.10670942325E+04  0.00000000000E+00 0. -1.
         -1   -1    0    0    0  501 -0.00000000000E+00 -0.00000000000E+00 -0.27955095294E+04  0.27955095294E+04  0.00000000000E+00 0.  1.
         23    2    1    2    0    0 -0.11081080113E+04 -0.79279911794E+03 -0.19255491647E+04  0.23605957743E+04  0.90769034760E+02 0.  0.
    5000000    2    1    2    0    0  0.11081080113E+04  0.79279911794E+03  0.19713386783E+03  0.15020079876E+04  0.60061004555E+03 0.  0.
         23    2    4    4    0    0  0.85754017650E+03  0.39283557371E+03  0.33038859037E+03  0.10031613692E+04  0.86493754877E+02 0.  0.
         23    2    4    4    0    0  0.25056783484E+03  0.39996354422E+03 -0.13325472254E+03  0.49884661845E+03  0.91301977537E+02 0.  0.
          3    1    3    3  502    0 -0.72663503229E+03 -0.54250744426E+03 -0.12129987508E+04  0.15144896060E+04  0.00000000000E+00 0. -1.
         -3    1    3    3    0  502 -0.38147297905E+03 -0.25029167368E+03 -0.71255041391E+03  0.84610616829E+03  0.00000000000E+00 0.  1.
         13    1    5    5    0    0  0.33003045445E+03  0.11333318758E+03  0.96997750947E+02  0.36217823783E+03  0.00000000000E+00 0. -1.
        -13    1    5    5    0    0  0.52750972205E+03  0.27950238614E+03  0.23339083943E+03  0.64098313133E+03  0.00000000000E+00 0.  1.
          4    1    6    6  503    0  0.48162252479E+02  0.15239224641E+03 -0.28482860637E+02  0.16233999100E+03  0.00000000000E+00 0.  1.
         -4    1    6    6    0  503  0.20240558236E+03  0.24757129781E+03 -0.10477186190E+03  0.33650662745E+03  0.00000000000E+00 0. -1.
<mgrwt>
<rscale>  0 0.13943005E+04</rscale>
<asrwt>0</asrwt>
<pdfrwt beam="1">  1        1 0.16416835E+00 0.13943005E+04</pdfrwt>
<pdfrwt beam="2">  1       -1 0.43007838E+00 0.13943005E+04</pdfrwt>
<totfact> 0.57521224E-02</totfact>
</mgrwt>
</event>
<event>
12    1  0.1432447E-007  0.1333466E+04  0.7818608E-02  0.9003440E-01
         -2   -1    0    0    0  501 -0.00000000000E+00  0.00000000000E+00  0.14801172137E+04  0.14801172137E+04  0.00000000000E+00 0.  1.
          2   -1    0    0  501    0  0.00000000000E+00 -0.00000000000E+00 -0.12562945253E+04  0.12562945253E+04  0.00000000000E+00 0. -1.
         23    2    1    2    0    0 -0.38380083323E+03 -0.12134875635E+04 -0.13684047832E+03  0.12839728533E+04  0.10002912206E+03 0.  0.
    5000000    2    1    2    0    0  0.38380083323E+03  0.12134875635E+04  0.36066316664E+03  0.14524388857E+04  0.59970463605E+03 0.  0.
         23    2    4    4    0    0 -0.14362721250E+03  0.32789599539E+03  0.52647046107E+02  0.37258393917E+03  0.88896120815E+02 0.  0.
         23    2    4    4    0    0  0.52742804573E+03  0.88559156810E+03  0.30801612053E+03  0.10798549465E+04  0.93594904073E+02 0.  0.
          1    1    3    3  502    0  0.24294603009E+01 -0.60474300824E+02 -0.22554688033E+01  0.60565092892E+02  0.00000000000E+00 0. -1.
         -1    1    3    3    0  502 -0.38623029353E+03 -0.11530132627E+04 -0.13458500951E+03  0.12234077604E+04  0.00000000000E+00 0.  1.
         11    1    5    5    0    0 -0.25267938770E+02  0.34409025111E+02  0.35743715347E+02  0.55678208714E+02  0.00000000000E+00 0. -1.
        -11    1    5    5    0    0 -0.11835927373E+03  0.29348697028E+03  0.16903330760E+02  0.31690573046E+03  0.00000000000E+00 0.  1.
          1    1    6    6  503    0  0.82296512007E+02  0.16276791559E+03  0.90145803632E+02  0.20345116404E+03  0.00000000000E+00 0. -1.
         -1    1    6    6    0  503  0.44513153372E+03  0.72282365250E+03  0.21787031690E+03  0.87640378246E+03  0.00000000000E+00 0.  1.
<mgrwt>
<rscale>  0 0.13334657E+04</rscale>
<asrwt>0</asrwt>
<pdfrwt beam="1">  1        2 0.19327608E+00 0.13334657E+04</pdfrwt>
<pdfrwt beam="2">  1       -2 0.22771034E+00 0.13334657E+04</pdfrwt>
<totfact> 0.14849132E+00</totfact>
</mgrwt>
</event>
<event>
12    1  0.1432447E-007  0.7585706E+03  0.7818608E-02  0.9622000E-01
          1   -1    0    0  501    0  0.00000000000E+00  0.00000000000E+00  0.97618109839E+03  0.97618109839E+03  0.00000000000E+00 0. -1.
         -1   -1    0    0    0  501 -0.00000000000E+00 -0.00000000000E+00 -0.83009896256E+03  0.83009896256E+03  0.00000000000E+00 0.  1.
         23    2    1    2    0    0  0.58458060462E+03 -0.30746760773E+03  0.51328546551E+03  0.84124978584E+03  0.89266006804E+02 0.  0.
    5000000    2    1    2    0    0 -0.58458060462E+03  0.30746760773E+03 -0.36720332968E+03  0.96503027511E+03  0.60014526030E+03 0.  0.
         23    2    4    4    0    0  0.32235171420E+02  0.22223237236E+03 -0.14559582034E+02  0.24360167382E+03  0.93292338691E+02 0.  0.
         23    2    4    4    0    0 -0.61681577604E+03  0.85235235372E+02 -0.35264374764E+03  0.72142860130E+03  0.91514299933E+02 0.  0.
          4    1    3    3  502    0  0.24478935925E+03 -0.80298766987E+02  0.20730987811E+03  0.33067674237E+03  0.00000000000E+00 0. -1.
         -4    1    3    3    0  502  0.33979124537E+03 -0.22716884074E+03  0.30597558740E+03  0.51057304347E+03  0.00000000000E+00 0.  1.
         13    1    5    5    0    0  0.29917308071E+02  0.20400898678E+03  0.17205109000E+02  0.20690753438E+03  0.00000000000E+00 0. -1.
        -13    1    5    5    0    0  0.23178633495E+01  0.18223385576E+02 -0.31764691033E+02  0.36694139434E+02  0.00000000000E+00 0.  1.
          1    1    6    6  503    0 -0.19439391768E+03 -0.41888490379E+01 -0.76810799156E+02  0.20906085371E+03  0.00000000000E+00 0. -1.
         -1    1    6    6    0  503 -0.42242185837E+03  0.89424084410E+02 -0.27583294849E+03  0.51236774759E+03  0.00000000000E+00 0.  1.
<mgrwt>
<rscale>  0 0.75857058E+03</rscale>
<asrwt>0</asrwt>
<pdfrwt beam="1">  1        1 0.15018171E+00 0.75857058E+03</pdfrwt>
<pdfrwt beam="2">  1       -1 0.12770753E+00 0.75857058E+03</pdfrwt>
<totfact> 0.86471062E+00</totfact>
</mgrwt>
</event>
<event>
12    1  0.1432447E-007  0.4949990E+03  0.7818608E-02  0.1015093E+00
         -1   -1    0    0    0  501 -0.00000000000E+00  0.00000000000E+00  0.82657085810E+03  0.82657085810E+03  0.00000000000E+00 0.  1.
          1   -1    0    0  501    0  0.00000000000E+00 -0.00000000000E+00 -0.52782175518E+03  0.52782175518E+03  0.00000000000E+00 0. -1.
         23    2    1    2    0    0  0.47507633477E+03  0.25322709427E+02 -0.94490143839E+02  0.49365835198E+03  0.91822751663E+02 0.  0.
    5000000    2    1    2    0    0 -0.47507633477E+03 -0.25322709427E+02  0.39323924675E+03  0.86073426131E+03  0.59990632596E+03 0.  0.
         23    2    4    4    0    0 -0.32374872601E+03  0.15799997459E+02  0.53406816092E+03  0.63155674754E+03  0.92586431681E+02 0.  0.
         23    2    4    4    0    0 -0.15132760876E+03 -0.41122706886E+02 -0.14082891417E+03  0.22917751377E+03  0.89991263797E+02 0.  0.
          2    1    3    3  502    0  0.82536516365E+02 -0.30058121877E+02 -0.23455677535E+02  0.90917193275E+02  0.00000000000E+00 0. -1.
         -2    1    3    3    0  502  0.39253981840E+03  0.55380831304E+02 -0.71034466305E+02  0.40274115870E+03  0.00000000000E+00 0.  1.
         11    1    5    5    0    0 -0.48219417362E+02 -0.29669524422E+02  0.71106852040E+02  0.90893219204E+02  0.00000000000E+00 0. -1.
        -11    1    5    5    0    0 -0.27552930865E+03  0.45469521881E+02  0.46296130888E+03  0.54066352833E+03  0.00000000000E+00 0.  1.
          1    1    6    6  503    0 -0.22140167459E+02 -0.33875206064E+02 -0.36955176862E+01  0.40637094532E+02  0.00000000000E+00 0. -1.
         -1    1    6    6    0  503 -0.12918744130E+03 -0.72475008222E+01 -0.13713339648E+03  0.18854041924E+03  0.00000000000E+00 0.  1.
<mgrwt>
<rscale>  0 0.49499904E+03</rscale>
<asrwt>0</asrwt>
<pdfrwt beam="1">  1        1 0.81203347E-01 0.49499904E+03</pdfrwt>
<pdfrwt beam="2">  1       -1 0.12716475E+00 0.49499904E+03</pdfrwt>
<totfact> 0.23349953E+01</totfact>
</mgrwt>
</event>
<event>
12    1  0.1432447E-007  0.6400683E+03  0.7818608E-02  0.9825596E-01
         -2   -1    0    0    0  501 -0.00000000000E+00  0.00000000000E+00  0.52673493377E+03  0.52673493377E+03  0.00000000000E+00 0.  1.
          2   -1    0    0  501    0  0.00000000000E+00 -0.00000000000E+00 -0.10405329943E+04  0.10405329943E+04  0.00000000000E+00 0. -1.
         23    2    1    2    0    0  0.19549532052E+03 -0.53713234096E+03  0.25028306470E+02  0.57879829252E+03  0.87472711484E+02 0.  0.
    5000000    2    1    2    0    0 -0.19549532052E+03  0.53713234096E+03 -0.53882636705E+03  0.98846963560E+03  0.60000732880E+03 0.  0.
         23    2    4    4    0    0 -0.25920873872E+03  0.57506258334E+03 -0.58439915485E+03  0.86456670191E+03  0.89816840676E+02 0.  0.
         23    2    4    4    0    0  0.63713418199E+02 -0.37930242380E+02  0.45572787803E+02  0.12390293369E+03  0.88187045776E+02 0.  0.
          2    1    3    3  502    0  0.34971107957E+02 -0.10128656507E+03 -0.29502716780E+02  0.11114115778E+03  0.00000000000E+00 0. -1.
         -2    1    3    3    0  502  0.16052421257E+03 -0.43584577589E+03  0.54531023251E+02  0.46765713475E+03  0.00000000000E+00 0.  1.
         11    1    5    5    0    0 -0.17238694239E+03  0.32726508490E+03 -0.28947467258E+03  0.46969700847E+03  0.00000000000E+00 0. -1.
        -11    1    5    5    0    0 -0.86821796331E+02  0.24779749844E+03 -0.29492448227E+03  0.39486969344E+03  0.00000000000E+00 0.  1.
          3    1    6    6  503    0  0.80549765114E+01 -0.12485157946E+02  0.59342251661E+02  0.61174052079E+02  0.00000000000E+00 0. -1.
         -3    1    6    6    0  503  0.55658441688E+02 -0.25445084434E+02 -0.13769463858E+02  0.62728881609E+02  0.00000000000E+00 0.  1.
<mgrwt>
<rscale>  0 0.64006834E+03</rscale>
<asrwt>0</asrwt>
<pdfrwt beam="1">  1        2 0.16008200E+00 0.64006834E+03</pdfrwt>
<pdfrwt beam="2">  1       -2 0.81036145E-01 0.64006834E+03</pdfrwt>
<totfact> 0.32769184E+01</totfact>
</mgrwt>
</event>
<event>
12    1  0.1432447E-007  0.1404764E+04  0.7818608E-02  0.8950377E-01
         -1   -1    0    0    0  501 -0.00000000000E+00  0.00000000000E+00  0.18245377535E+04  0.18245377535E+04  0.00000000000E+00 0.  1.
          1   -1    0    0  501    0  0.00000000000E+00 -0.00000000000E+00 -0.24445123972E+04  0.24445123972E+04  0.00000000000E+00 0. -1.
         23    2    1    2    0    0  0.33594068369E+03 -0.13108322421E+04  0.12770533880E+04  0.18628326440E+04  0.90237430740E+02 0.  0.
    5000000    2    1    2    0    0 -0.33594068369E+03  0.13108322421E+04 -0.18970280317E+04  0.24062175068E+04  0.60002502204E+03 0.  0.
         23    2    4    4    0    0  0.41482884639E+01 -0.11714721533E+02 -0.41898055302E+02  0.10083197092E+03  0.90869116445E+02 0.  0.
         23    2    4    4    0    0 -0.34008897215E+03  0.13225469636E+04 -0.18551299764E+04  0.23053855359E+04  0.92218543225E+02 0.  0.
          4    1    3    3  502    0  0.22633540881E+03 -0.88569832732E+03  0.91976899353E+03  0.12967899775E+04  0.00000000000E+00 0.  1.
         -4    1    3    3    0  502  0.10960527487E+03 -0.42513391474E+03  0.35728439449E+03  0.56604266649E+03  0.00000000000E+00 0. -1.
         11    1    5    5    0    0 -0.75352605978E+01 -0.48625200821E+02 -0.89896357830E+01  0.50020034573E+02  0.00000000000E+00 0.  1.
        -11    1    5    5    0    0  0.11683549062E+02  0.36910479288E+02 -0.32908419519E+02  0.50811936346E+02  0.00000000000E+00 0. -1.
          3    1    6    6  503    0 -0.20440296001E+03  0.95470849943E+03 -0.13026363891E+04  0.16279159841E+04  0.00000000000E+00 0. -1.
         -3    1    6    6    0  503 -0.13568601214E+03  0.36783846416E+03 -0.55249358726E+03  0.67746955177E+03  0.00000000000E+00 0.  1.
<mgrwt>
<rscale>  0 0.14047639E+04</rscale>
<asrwt>0</asrwt>
<pdfrwt beam="1">  1        1 0.37607883E+00 0.14047639E+04</pdfrwt>
<pdfrwt beam="2">  1       -1 0.28069812E+00 0.14047639E+04</pdfrwt>
<totfact> 0.62334775E-02</totfact>
</mgrwt>
</event>
<event>
12    1  0.1432447E-007  0.1198090E+04  0.7818608E-02  0.9114530E-01
         -1   -1    0    0    0  501 -0.00000000000E+00  0.00000000000E+00  0.17071631726E+04  0.17071631726E+04  0.00000000000E+00 0.  1.
          1   -1    0    0  501    0  0.00000000000E+00 -0.00000000000E+00 -0.89984830890E+03  0.89984830890E+03  0.00000000000E+00 0. -1.
         23    2    1    2    0    0 -0.86687236066E+03 -0.75365282680E+03  0.17661290619E+03  0.11657311895E+04  0.90977000511E+02 0.  0.
    5000000    2    1    2    0    0  0.86687236066E+03  0.75365282680E+03  0.63070195750E+03  0.14412802919E+04  0.60003637198E+03 0.  0.
         23    2    4    4    0    0  0.90251250316E+03  0.60386142350E+03  0.62528542994E+03  0.12565646151E+04  0.93783399417E+02 0.  0.
         23    2    4    4    0    0 -0.35640142493E+02  0.14979140330E+03  0.54165275623E+01  0.18471567679E+03  0.10189631112E+03 0.  0.
          4    1    3    3  502    0 -0.73499446766E+02 -0.49117805080E+02 -0.79468785879E+01  0.88757424084E+02  0.00000000000E+00 0. -1.
         -4    1    3    3    0  502 -0.79337291390E+03 -0.70453502172E+03  0.18455978477E+03  0.10769737655E+04  0.00000000000E+00 0.  1.
         11    1    5    5    0    0  0.31458106253E+02  0.67777730338E+01  0.31475653565E+02  0.45014080283E+02  0.00000000000E+00 0. -1.
        -11    1    5    5    0    0  0.87105439690E+03  0.59708365047E+03  0.59380977637E+03  0.12115505349E+04  0.00000000000E+00 0.  1.
          4    1    6    6  503    0 -0.28173124386E+02  0.42716230893E+02  0.47122641043E+02  0.69562523087E+02  0.00000000000E+00 0. -1.
         -4    1    6    6    0  503 -0.74670181072E+01  0.10707517241E+03 -0.41706113481E+02  0.11515315370E+03  0.00000000000E+00 0.  1.
<mgrwt>
<rscale>  0 0.11980900E+04</rscale>
<asrwt>0</asrwt>
<pdfrwt beam="1">  1        1 0.13843820E+00 0.11980900E+04</pdfrwt>
<pdfrwt beam="2">  1       -1 0.26264049E+00 0.11980900E+04</pdfrwt>
<totfact> 0.10328394E+00</totfact>
</mgrwt>
</event>
<event>
12    1  0.1432447E-007  0.8019786E+03  0.7818608E-02  0.9557158E-01
         -1   -1    0    0    0  501 -0.00000000000E+00  0.00000000000E+00  0.52944473302E+03  0.52944473302E+03  0.00000000000E+00 0.  1.
          1   -1    0    0  501    0  0.00000000000E+00 -0.00000000000E+00 -0.13477340303E+04  0.13477340303E+04  0.00000000000E+00 0. -1.
         23    2    1    2    0    0  0.69160408478E+03  0.10449203440E+02 -0.82196627023E+02  0.70232751581E+03  0.89901379491E+02 0.  0.
    5000000    2    1    2    0    0 -0.69160408478E+03 -0.10449203440E+02 -0.73609267021E+03  0.11748512475E+04  0.60001469864E+03 0.  0.
         23    2    4    4    0    0 -0.75777624476E+03  0.85847427441E+02 -0.62080637413E+03  0.98759817114E+03  0.91405555498E+02 0.  0.
         23    2    4    4    0    0  0.66172159982E+02 -0.96296630881E+02 -0.11528629609E+03  0.18725307632E+03  0.90116528165E+02 0.  0.
          3    1    3    3  502    0  0.52807336796E+03  0.20193745178E+02 -0.25864315848E+02  0.52909189384E+03  0.00000000000E+00 0. -1.
         -3    1    3    3    0  502  0.16353071682E+03 -0.97445417383E+01 -0.56332311175E+02  0.17323562197E+03  0.00000000000E+00 0.  1.
         11    1    5    5    0    0 -0.54108328085E+03  0.19441237544E+02 -0.43538044207E+03  0.69476989563E+03  0.00000000000E+00 0.  1.
        -11    1    5    5    0    0 -0.21669296390E+03  0.66406189897E+02 -0.18542593206E+03  0.29282827552E+03  0.00000000000E+00 0. -1.
          3    1    6    6  503    0  0.32024124292E+02 -0.10381225487E+03 -0.67006315245E+02  0.12764158837E+03  0.00000000000E+00 0.  1.
         -3    1    6    6    0  503  0.34148035689E+02  0.75156239901E+01 -0.48279980841E+02  0.59611487948E+02  0.00000000000E+00 0. -1.
<mgrwt>
<rscale>  0 0.80197858E+03</rscale>
<asrwt>0</asrwt>
<pdfrwt beam="1">  1        1 0.20734370E+00 0.80197858E+03</pdfrwt>
<pdfrwt beam="2">  1       -1 0.81453036E-01 0.80197858E+03</pdfrwt>
<totfact> 0.12904983E+01</totfact>
</mgrwt>
</event>
<event>
12    1  0.1432447E-007  0.3749394E+03  0.7818608E-02  0.1052820E+00
         -1   -1    0    0    0  501 -0.00000000000E+00  0.00000000000E+00  0.64447551181E+03  0.64447551181E+03  0.00000000000E+00 0.  1.
          1   -1    0    0  501    0  0.00000000000E+00 -0.00000000000E+00 -0.43670222012E+03  0.43670222012E+03  0.00000000000E+00 0. -1.
         23    2    1    2    0    0  0.22752396455E+02 -0.28978156237E+03  0.27562895881E+03  0.41091156012E+03  0.91574897624E+02 0.  0.
    5000000    2    1    2    0    0 -0.22752396455E+02  0.28978156237E+03 -0.67855667121E+02  0.67026617181E+03  0.60013442167E+03 0.  0.
         23    2    4    4    0    0  0.76371181742E+02  0.29790346120E+03 -0.27485314122E+03  0.42227176361E+03  0.90499522141E+02 0.  0.
         23    2    4    4    0    0 -0.99123578198E+02 -0.81218988281E+01  0.20699747410E+03  0.24799440820E+03  0.93604611105E+02 0.  0.
          2    1    3    3  502    0  0.48766306376E+02 -0.82432371529E+02  0.87774145875E+02  0.12991362206E+03  0.00000000000E+00 0.  1.
         -2    1    3    3    0  502 -0.26013909920E+02 -0.20734919084E+03  0.18785481293E+03  0.28099793806E+03  0.00000000000E+00 0. -1.
         13    1    5    5    0    0  0.20767386428E+02  0.16387693886E+03 -0.92810630920E+02  0.18947492880E+03  0.00000000000E+00 0.  1.
        -13    1    5    5    0    0  0.55603795314E+02  0.13402652234E+03 -0.18204251030E+03  0.23279683481E+03  0.00000000000E+00 0. -1.
          4    1    6    6  503    0 -0.67158706754E+02 -0.48862179079E+02  0.14610176898E+03  0.16805811892E+03  0.00000000000E+00 0. -1.
         -4    1    6    6    0  503 -0.31964871444E+02  0.40740280251E+02  0.60895705120E+02  0.79936289277E+02  0.00000000000E+00 0.  1.
<mgrwt>
<rscale>  0 0.37493940E+03</rscale>
<asrwt>0</asrwt>
<pdfrwt beam="1">  1        1 0.67184957E-01 0.37493940E+03</pdfrwt>
<pdfrwt beam="2">  1       -1 0.99150079E-01 0.37493940E+03</pdfrwt>
<totfact> 0.55164966E+01</totfact>
</mgrwt>
</event>
<event>
12    1  0.1432447E-007  0.6642129E+03  0.7818608E-02  0.9780469E-01
         -1   -1    0    0    0  501 -0.00000000000E+00  0.00000000000E+00  0.35954108267E+03  0.35954108267E+03  0.00000000000E+00 0.  1.
          1   -1    0    0  501    0  0.00000000000E+00 -0.00000000000E+00 -0.36191351040E+04  0.36191351040E+04  0.00000000000E+00 0. -1.
         23    2    1    2    0    0 -0.23697601182E+03  0.51924410357E+03 -0.30766741895E+04  0.31305274742E+04  0.92228677518E+02 0.  0.
    5000000    2    1    2    0    0  0.23697601182E+03 -0.51924410357E+03 -0.18291983176E+03  0.84814871243E+03  0.60010374459E+03 0.  0.
         23    2    4    4    0    0  0.15483271295E+03  0.37415900527E+02  0.10336922477E+03  0.21005827564E+03  0.89811825085E+02 0.  0.
         23    2    4    4    0    0  0.82143298873E+02 -0.55666000410E+03 -0.28628905653E+03  0.63809043679E+03  0.92628828774E+02 0.  0.
          3    1    3    3  502    0 -0.60624303514E+02  0.24283454687E+03 -0.13383861997E+04  0.13615878756E+04  0.00000000000E+00 0.  1.
         -3    1    3    3    0  502 -0.17635170830E+03  0.27640955671E+03 -0.17382879898E+04  0.17689395986E+04  0.00000000000E+00 0. -1.
         13    1    5    5    0    0  0.23847093264E+02  0.42709542428E+02  0.12304813692E+02  0.50440036792E+02  0.00000000000E+00 0.  1.
        -13    1    5    5    0    0  0.13098561968E+03 -0.52936419019E+01  0.91064411077E+02  0.15961823885E+03  0.00000000000E+00 0. -1.
          2    1    6    6  503    0  0.32582240274E+01 -0.33430172305E+03 -0.16941499410E+03  0.37479287384E+03  0.00000000000E+00 0. -1.
         -2    1    6    6    0  503  0.78885074845E+02 -0.22235828105E+03 -0.11687406243E+03  0.26329756295E+03  0.00000000000E+00 0.  1.
<mgrwt>
<rscale>  0 0.66421288E+03</rscale>
<asrwt>0</asrwt>
<pdfrwt beam="1">  1        1 0.55679002E+00 0.66421288E+03</pdfrwt>
<pdfrwt beam="2">  1       -1 0.55314013E-01 0.66421288E+03</pdfrwt>
<totfact> 0.74361714E-01</totfact>
</mgrwt>
</event>
<event>
12    1  0.1432447E-007  0.1401568E+04  0.7818608E-02  0.8952684E-01
          1   -1    0    0  501    0  0.00000000000E+00  0.00000000000E+00  0.14138776905E+04  0.14138776905E+04  0.00000000000E+00 0. -1.
         -1   -1    0    0    0  501 -0.00000000000E+00 -0.00000000000E+00 -0.16828449541E+04  0.16828449541E+04  0.00000000000E+00 0.  1.
         23    2    1    2    0    0  0.11795523712E+04  0.73587974509E+03  0.38773463715E+03  0.14462667727E+04  0.92122924575E+02 0.  0.
    5000000    2    1    2    0    0 -0.11795523712E+04 -0.73587974509E+03 -0.65670190076E+03  0.16504558718E+04  0.59990366121E+03 0.  0.
         23    2    4    4    0    0 -0.17534333654E+03 -0.11594884897E+03 -0.36671244854E+03  0.43179594829E+03  0.88206007706E+02 0.  0.
         23    2    4    4    0    0 -0.10042090347E+04 -0.61993089612E+03 -0.28998945222E+03  0.12186599236E+04  0.91038593846E+02 0.  0.
          2    1    3    3  502    0  0.96671848175E+02  0.83112820911E+02  0.54733917178E+02  0.13874072552E+03  0.00000000000E+00 0.  1.
         -2    1    3    3    0  502  0.10828805231E+04  0.65276692418E+03  0.33300071997E+03  0.13075260472E+04  0.00000000000E+00 0. -1.
         11    1    5    5    0    0 -0.13087387668E+03 -0.35079884893E+02 -0.20952644777E+03  0.24951934241E+03  0.00000000000E+00 0.  1.
        -11    1    5    5    0    0 -0.44469459857E+02 -0.80868964082E+02 -0.15718600077E+03  0.18227660587E+03  0.00000000000E+00 0. -1.
          3    1    6    6  503    0 -0.38802647530E+03 -0.29062702311E+03 -0.12981269997E+03  0.50187642819E+03  0.00000000000E+00 0. -1.
         -3    1    6    6    0  503 -0.61618255939E+03 -0.32930387301E+03 -0.16017675224E+03  0.71678349537E+03  0.00000000000E+00 0.  1.
<mgrwt>
<rscale>  0 0.14015684E+04</rscale>
<asrwt>0</asrwt>
<pdfrwt beam="1">  1        1 0.21751965E+00 0.14015684E+04</pdfrwt>
<pdfrwt beam="2">  1       -1 0.25889922E+00 0.14015684E+04</pdfrwt>
<totfact> 0.43848814E-01</totfact>
</mgrwt>
</event>
<event>
12    1  0.1852419E-007  0.1490394E+04  0.7818608E-02  0.8890866E-01
          2   -1    0    0  501    0  0.00000000000E+00  0.00000000000E+00  0.22289843882E+04  0.22289843882E+04  0.00000000000E+00 0. -1.
         -2   -1    0    0    0  501 -0.00000000000E+00 -0.00000000000E+00 -0.11342891738E+04  0.11342891738E+04  0.00000000000E+00 0.  1.
         23    2    1    2    0    0 -0.13580161990E+03  0.14401634251E+04  0.10617456988E+04  0.17968714741E+04  0.94500765219E+02 0.  0.
    5000000    2    1    2    0    0  0.13580161990E+03 -0.14401634251E+04  0.32949515579E+02  0.15664020879E+04  0.60001421602E+03 0.  0.
         23    2    4    4    0    0 -0.12961878903E+03 -0.10313166461E+04 -0.11350013430E+03  0.10497019684E+04  0.92611483692E+02 0.  0.
         23    2    4    4    0    0  0.26542040893E+03 -0.40884677894E+03  0.14644964987E+03  0.51670011948E+03  0.89038370331E+02 0.  0.
          3    1    3    3  502    0 -0.95557530090E+02  0.81319661836E+03  0.65370628746E+03  0.10477365566E+04  0.00000000000E+00 0. -1.
         -3    1    3    3    0  502 -0.40244089810E+02  0.62696680671E+03  0.40803941135E+03  0.74913491755E+03  0.00000000000E+00 0.  1.
         11    1    5    5    0    0 -0.60214407369E+02 -0.57633166777E+03 -0.10784706790E+03  0.58941916849E+03  0.00000000000E+00 0. -1.
        -11    1    5    5    0    0 -0.69404381663E+02 -0.45498497836E+03 -0.56530663904E+01  0.46028279990E+03  0.00000000000E+00 0.  1.
          1    1    6    6  503    0  0.11665623086E+03 -0.25284616440E+03  0.10234688083E+03  0.29667278787E+03  0.00000000000E+00 0. -1.
         -1    1    6    6    0  503  0.14876417807E+03 -0.15600061454E+03  0.44102769047E+02  0.22002733160E+03  0.00000000000E+00 0.  1.
<mgrwt>
<rscale>  0 0.14903937E+04</rscale>
<asrwt>0</asrwt>
<pdfrwt beam="1">  1        2 0.34292067E+00 0.14903937E+04</pdfrwt>
<pdfrwt beam="2">  1       -2 0.17450603E+00 0.14903937E+04</pdfrwt>
<totfact> 0.92811390E-01</totfact>
</mgrwt>
</event>
<event>
12    1  0.1432447E-007  0.8689353E+03  0.7818608E-02  0.9465269E-01
          1   -1    0    0  501    0  0.00000000000E+00  0.00000000000E+00  0.49084693448E+04  0.49084693448E+04  0.00000000000E+00 0. -1.
         -1   -1    0    0    0  501 -0.00000000000E+00 -0.00000000000E+00 -0.16079459652E+03  0.16079459652E+03  0.00000000000E+00 0.  1.
         23    2    1    2    0    0 -0.76106652179E+03 -0.15306662984E+03  0.17904808511E+04  0.19535478978E+04  0.88747208777E+02 0.  0.
    5000000    2    1    2    0    0  0.76106652179E+03  0.15306662984E+03  0.29571938972E+04  0.31157160435E+04  0.60003256126E+03 0.  0.
         23    2    4    4    0    0  0.35177013276E+03 -0.20251730976E+03  0.15417126447E+04  0.15971433688E+04  0.96091490598E+02 0.  0.
         23    2    4    4    0    0  0.40929638903E+03  0.35558393960E+03  0.14154812525E+04  0.15185726748E+04  0.92262235851E+02 0.  0.
          3    1    3    3  502    0 -0.15031659699E+03  0.20166839495E+01  0.38314892563E+03  0.41158504049E+03  0.00000000000E+00 0. -1.
         -3    1    3    3    0  502 -0.61074992480E+03 -0.15508331379E+03  0.14073319255E+04  0.15419628573E+04  0.00000000000E+00 0.  1.
         13    1    5    5    0    0  0.10675727739E+03 -0.40994790787E+02  0.29580602905E+03  0.31714176006E+03  0.00000000000E+00 0.  1.
        -13    1    5    5    0    0  0.24501285537E+03 -0.16152251897E+03  0.12459066156E+04  0.12800016087E+04  0.00000000000E+00 0. -1.
          4    1    6    6  503    0  0.33654574672E+03  0.24129888623E+03  0.10413769568E+04  0.11206936059E+04  0.00000000000E+00 0.  1.
         -4    1    6    6    0  503  0.72750642308E+02  0.11428505337E+03  0.37410429567E+03  0.39787906884E+03  0.00000000000E+00 0. -1.
<mgrwt>
<rscale>  0 0.86893529E+03</rscale>
<asrwt>0</asrwt>
<pdfrwt beam="1">  1        1 0.75514901E+00 0.86893529E+03</pdfrwt>
<pdfrwt beam="2">  1       -1 0.24737634E-01 0.86893529E+03</pdfrwt>
<totfact> 0.18006395E-01</totfact>
</mgrwt>
</event>
<event>
12    1  0.1432447E-007  0.7550915E+03  0.7818608E-02  0.9627396E-01
          2   -1    0    0  501    0  0.00000000000E+00  0.00000000000E+00  0.88668506980E+03  0.88668506980E+03  0.00000000000E+00 0.  1.
         -2   -1    0    0    0  501 -0.00000000000E+00 -0.00000000000E+00 -0.82300995703E+03  0.82300995703E+03  0.00000000000E+00 0. -1.
         23    2    1    2    0    0  0.35352842523E+03  0.59614073789E+03  0.30291932879E+03  0.76229113637E+03  0.94665358050E+02 0.  0.
    5000000    2    1    2    0    0 -0.35352842523E+03 -0.59614073789E+03 -0.23924421602E+03  0.94740389046E+03  0.59997517444E+03 0.  0.
         23    2    4    4    0    0 -0.42669822729E+03 -0.38377286373E+03 -0.35264819122E+03  0.67961468542E+03  0.90345922787E+02 0.  0.
         23    2    4    4    0    0  0.73169802056E+02 -0.21236787416E+03  0.11340397520E+03  0.26778920504E+03  0.91633306374E+02 0.  0.
          3    1    3    3  502    0  0.14519919813E+03  0.26161962412E+03  0.18134489021E+03  0.34987655548E+03  0.00000000000E+00 0. -1.
         -3    1    3    3    0  502  0.20832922710E+03  0.33452111376E+03  0.12157443858E+03  0.41241458089E+03  0.00000000000E+00 0.  1.
         11    1    5    5    0    0 -0.29728838728E+03 -0.22565394547E+03 -0.26244638799E+03  0.45626548729E+03  0.00000000000E+00 0.  1.
        -11    1    5    5    0    0 -0.12940984000E+03 -0.15811891826E+03 -0.90201803228E+02  0.22334919813E+03  0.00000000000E+00 0. -1.
          3    1    6    6  503    0  0.42241969281E+02 -0.20250974901E+03  0.81708289274E+02  0.22242038339E+03  0.00000000000E+00 0. -1.
         -3    1    6    6    0  503  0.30927832774E+02 -0.98581251532E+01  0.31695685924E+02  0.45368821649E+02  0.00000000000E+00 0.  1.
<mgrwt>
<rscale>  0 0.75509152E+03</rscale>
<asrwt>0</asrwt>
<pdfrwt beam="1">  1        2 0.13641309E+00 0.75509152E+03</pdfrwt>
<pdfrwt beam="2">  1       -2 0.12661692E+00 0.75509152E+03</pdfrwt>
<totfact> 0.14111008E+01</totfact>
</mgrwt>
</event>
<event>
12    1  0.1432447E-007  0.5289093E+03  0.7818608E-02  0.1006497E+00
         -2   -1    0    0    0  501 -0.00000000000E+00  0.00000000000E+00  0.34285377915E+03  0.34285377915E+03  0.00000000000E+00 0. -1.
          2   -1    0    0  501    0  0.00000000000E+00 -0.00000000000E+00 -0.12289792697E+04  0.12289792697E+04  0.00000000000E+00 0.  1.
         23    2    1    2    0    0  0.33448586883E+03 -0.34330113645E+03 -0.54079683310E+03  0.72976737739E+03  0.10179756227E+03 0.  0.
    5000000    2    1    2    0    0 -0.33448586883E+03  0.34330113645E+03 -0.34532865748E+03  0.84206567148E+03  0.60007186792E+03 0.  0.
         23    2    4    4    0    0  0.20026982609E+02  0.49234820137E+02  0.13446260555E+03  0.17060332245E+03  0.90554700563E+02 0.  0.
         23    2    4    4    0    0 -0.35451285144E+03  0.29406631631E+03 -0.47979126303E+03  0.67146234903E+03  0.92237030772E+02 0.  0.
          1    1    3    3  502    0  0.12410169888E+03 -0.17676836608E+03 -0.18668295358E+03  0.28547996790E+03  0.00000000000E+00 0. -1.
         -1    1    3    3    0  502  0.21038416995E+03 -0.16653277037E+03 -0.35411387952E+03  0.44428740950E+03  0.00000000000E+00 0.  1.
         11    1    5    5    0    0  0.23416990031E+02  0.74898118253E+02  0.10884703722E+03  0.13418554711E+03  0.00000000000E+00 0. -1.
        -11    1    5    5    0    0 -0.33900074214E+01 -0.25663298115E+02  0.25615568331E+02  0.36417775350E+02  0.00000000000E+00 0.  1.
          1    1    6    6  503    0 -0.53576389498E+02  0.92690253509E+02 -0.95707164245E+02  0.14360283387E+03  0.00000000000E+00 0. -1.
         -1    1    6    6    0  503 -0.30093646195E+03  0.20137606281E+03 -0.38408409879E+03  0.52785951516E+03  0.00000000000E+00 0.  1.
<mgrwt>
<rscale>  0 0.52890926E+03</rscale>
<asrwt>0</asrwt>
<pdfrwt beam="1">  1        2 0.18907373E+00 0.52890926E+03</pdfrwt>
<pdfrwt beam="2">  1       -2 0.52746736E-01 0.52890926E+03</pdfrwt>
<totfact> 0.64300395E+01</totfact>
</mgrwt>
</event>
<event>
12    1  0.1432447E-007  0.6303373E+03  0.7818608E-02  0.9844391E-01
          2   -1    0    0  501    0  0.00000000000E+00  0.00000000000E+00  0.35714221560E+04  0.35714221560E+04  0.00000000000E+00 0. -1.
         -2   -1    0    0    0  501 -0.00000000000E+00 -0.00000000000E+00 -0.11711278965E+03  0.11711278965E+03  0.00000000000E+00 0.  1.
         23    2    1    2    0    0  0.26970172912E+03  0.40604808400E+03  0.10145621140E+04  0.11292761171E+04  0.91182215141E+02 0.  0.
    5000000    2    1    2    0    0 -0.26970172912E+03 -0.40604808400E+03  0.24397472523E+04  0.25592588285E+04  0.59985417129E+03 0.  0.
         23    2    4    4    0    0 -0.63032604573E+02 -0.51209266932E+03  0.16401742864E+04  0.17218010269E+04  0.90637052340E+02 0.  0.
         23    2    4    4    0    0 -0.20666912454E+03  0.10604458532E+03  0.79957296587E+03  0.83745780154E+03  0.89783408842E+02 0.  0.
          4    1    3    3  502    0  0.14914619249E+03  0.25594271123E+03  0.70531858749E+03  0.76500037126E+03  0.00000000000E+00 0.  1.
         -4    1    3    3    0  502  0.12055553663E+03  0.15010537277E+03  0.30924352651E+03  0.36427574588E+03  0.00000000000E+00 0. -1.
         11    1    5    5    0    0 -0.41196379170E+02 -0.49329085688E+03  0.15453550499E+04  0.16226999850E+04  0.00000000000E+00 0.  1.
        -11    1    5    5    0    0 -0.21836225403E+02 -0.18801812438E+02  0.94819236561E+02  0.99101041936E+02  0.00000000000E+00 0. -1.
          1    1    6    6  503    0 -0.21190776661E+03  0.88249905772E+02  0.75650677108E+03  0.79056653237E+03  0.00000000000E+00 0. -1.
         -1    1    6    6    0  503  0.52386420647E+01  0.17794679550E+02  0.43066194792E+02  0.46891269174E+02  0.00000000000E+00 0.  1.
<mgrwt>
<rscale>  0 0.63033726E+03</rscale>
<asrwt>0</asrwt>
<pdfrwt beam="1">  1        2 0.54944948E+00 0.63033726E+03</pdfrwt>
<pdfrwt beam="2">  1       -2 0.18017355E-01 0.63033726E+03</pdfrwt>
<totfact> 0.20476877E+01</totfact>
</mgrwt>
</event>
<event>
12    1  0.1432447E-007  0.4595372E+03  0.7818608E-02  0.1024916E+00
         -1   -1    0    0    0  501 -0.00000000000E+00  0.00000000000E+00  0.85473768728E+02  0.85473768728E+02  0.00000000000E+00 0.  1.
          1   -1    0    0  501    0  0.00000000000E+00 -0.00000000000E+00 -0.29919617299E+04  0.29919617299E+04  0.00000000000E+00 0. -1.
         23    2    1    2    0    0  0.29359101950E+03  0.28950130041E+02 -0.13231515638E+04  0.13586795786E+04  0.90809360692E+02 0.  0.
    5000000    2    1    2    0    0 -0.29359101950E+03 -0.28950130041E+02 -0.15833363974E+04  0.17187559200E+04  0.60011162990E+03 0.  0.
         23    2    4    4    0    0 -0.22761036845E+03  0.23901916826E+03 -0.57312815786E+03  0.66752954225E+03  0.90460830267E+02 0.  0.
         23    2    4    4    0    0 -0.65980651048E+02 -0.26796929830E+03 -0.10102082396E+04  0.10512263777E+04  0.91625426847E+02 0.  0.
          2    1    3    3  502    0  0.21397833563E+03 -0.20420394965E+02 -0.93223904307E+03  0.95669919727E+03  0.00000000000E+00 0. -1.
         -2    1    3    3    0  502  0.79612683876E+02  0.49370525006E+02 -0.39091252069E+03  0.40198038137E+03  0.00000000000E+00 0.  1.
         11    1    5    5    0    0 -0.16594181571E+03  0.17495932873E+03 -0.48850198690E+03  0.54477669198E+03  0.00000000000E+00 0. -1.
        -11    1    5    5    0    0 -0.61668552740E+02  0.64059839537E+02 -0.84626170956E+02  0.12275285027E+03  0.00000000000E+00 0.  1.
          1    1    6    6  503    0  0.26759508501E+01 -0.83723004697E+02 -0.44445367701E+03  0.45227842447E+03  0.00000000000E+00 0. -1.
         -1    1    6    6    0  503 -0.68656601899E+02 -0.18424629361E+03 -0.56575456255E+03  0.59894795328E+03  0.00000000000E+00 0.  1.
<mgrwt>
<rscale>  0 0.45953722E+03</rscale>
<asrwt>0</asrwt>
<pdfrwt beam="1">  1        1 0.46030184E+00 0.45953722E+03</pdfrwt>
<pdfrwt beam="2">  1       -1 0.13149809E-01 0.45953722E+03</pdfrwt>
<totfact> 0.27524570E+01</totfact>
</mgrwt>
</event>
<event>
12    1  0.1432447E-007  0.4822156E+03  0.7818608E-02  0.1018528E+00
         -3   -1    0    0    0  501 -0.00000000000E+00  0.00000000000E+00  0.14856620228E+04  0.14856620228E+04  0.00000000000E+00 0.  1.
          3   -1    0    0  501    0  0.00000000000E+00 -0.00000000000E+00 -0.22028861626E+03  0.22028861626E+03  0.00000000000E+00 0. -1.
         23    2    1    2    0    0 -0.30729338549E+03  0.22440296422E+01  0.86370284544E+03  0.92118636506E+03  0.90373964785E+02 0.  0.
    5000000    2    1    2    0    0  0.30729338549E+03 -0.22440296422E+01  0.40167056113E+03  0.78476427404E+03  0.60006788424E+03 0.  0.
         23    2    4    4    0    0  0.16635830051E+03  0.28225264804E+03  0.16038590781E+03  0.37584422103E+03  0.90518493038E+02 0.  0.
         23    2    4    4    0    0  0.14093508498E+03 -0.28449667768E+03  0.24128465332E+03  0.40892005301E+03  0.90533242717E+02 0.  0.
          1    1    3    3  502    0 -0.11786117263E+03 -0.27651321377E+02  0.43523355454E+03  0.45175668073E+03  0.00000000000E+00 0. -1.
         -1    1    3    3    0  502 -0.18943221286E+03  0.29895351020E+02  0.42846929090E+03  0.46942968433E+03  0.00000000000E+00 0.  1.
         11    1    5    5    0    0  0.78333777838E+02  0.12608143044E+03  0.12286978660E+03  0.19269066483E+03  0.00000000000E+00 0.  1.
        -11    1    5    5    0    0  0.88024522675E+02  0.15617121760E+03  0.37516121209E+02  0.18315355620E+03  0.00000000000E+00 0. -1.
          3    1    6    6  503    0  0.59303096752E+02 -0.18987559259E+03  0.10853847747E+03  0.22660582304E+03  0.00000000000E+00 0. -1.
         -3    1    6    6    0  503  0.81631988225E+02 -0.94621085092E+02  0.13274617585E+03  0.18231422997E+03  0.00000000000E+00 0.  1.
<mgrwt>
<rscale>  0 0.48221556E+03</rscale>
<asrwt>0</asrwt>
<pdfrwt beam="1">  1        3 0.33890557E-01 0.48221556E+03</pdfrwt>
<pdfrwt beam="2">  1       -3 0.22856338E+00 0.48221556E+03</pdfrwt>
<totfact> 0.22431438E+00</totfact>
</mgrwt>
</event>
<event>
12    1  0.1432447E-007  0.5022372E+03  0.7818608E-02  0.1013197E+00
          2   -1    0    0  501    0  0.00000000000E+00  0.00000000000E+00  0.50256977670E+03  0.50256977670E+03  0.00000000000E+00 0. -1.
         -2   -1    0    0    0  501 -0.00000000000E+00 -0.00000000000E+00 -0.71986716987E+03  0.71986716987E+03  0.00000000000E+00 0.  1.
         23    2    1    2    0    0 -0.44199925511E+03 -0.34929581773E+02 -0.33696782301E+02  0.45410485083E+03  0.92153812757E+02 0.  0.
    5000000    2    1    2    0    0  0.44199925511E+03  0.34929581773E+02 -0.18360061087E+03  0.76833209575E+03  0.60003467220E+03 0.  0.
         23    2    4    4    0    0  0.13517663059E+03 -0.13972533561E+03 -0.31468082082E+03  0.38099885217E+03  0.91324780273E+02 0.  0.
         23    2    4    4    0    0  0.30682262452E+03  0.17465491738E+03  0.13108020995E+03  0.38733324358E+03  0.90556927148E+02 0.  0.
          1    1    3    3  502    0 -0.26758953288E+03 -0.43548195385E+02 -0.59566090267E+02  0.27757651655E+03  0.00000000000E+00 0. -1.
         -1    1    3    3    0  502 -0.17440972223E+03  0.86186136123E+01  0.25869307966E+02  0.17652833428E+03  0.00000000000E+00 0.  1.
         11    1    5    5    0    0  0.40731782184E+02 -0.49462057036E+02 -0.18959448856E+03  0.20012906650E+03  0.00000000000E+00 0. -1.
        -11    1    5    5    0    0  0.94444848406E+02 -0.90263278571E+02 -0.12508633226E+03  0.18086978567E+03  0.00000000000E+00 0.  1.
          3    1    6    6  503    0  0.17130839171E+03  0.14696608572E+03  0.71857481576E+02  0.23687358038E+03  0.00000000000E+00 0. -1.
         -3    1    6    6    0  503  0.13551423281E+03  0.27688831656E+02  0.59222728377E+02  0.15045966319E+03  0.00000000000E+00 0.  1.
<mgrwt>
<rscale>  0 0.50223722E+03</rscale>
<asrwt>0</asrwt>
<pdfrwt beam="1">  1        2 0.77318427E-01 0.50223722E+03</pdfrwt>
<pdfrwt beam="2">  1       -2 0.11074880E+00 0.50223722E+03</pdfrwt>
<totfact> 0.40898714E+01</totfact>
</mgrwt>
</event>
<event>
12    1  0.1432447E-007  0.6206871E+03  0.7818608E-02  0.9863393E-01
         -1   -1    0    0    0  501 -0.00000000000E+00  0.00000000000E+00  0.64492405228E+03  0.64492405228E+03  0.00000000000E+00 0.  1.
          1   -1    0    0  501    0  0.00000000000E+00 -0.00000000000E+00 -0.94928135379E+03  0.94928135379E+03  0.00000000000E+00 0. -1.
         23    2    1    2    0    0  0.19469919038E+03  0.46339769611E+03  0.31118319434E+03  0.59815263623E+03  0.91139433299E+02 0.  0.
    5000000    2    1    2    0    0 -0.19469919038E+03 -0.46339769611E+03 -0.61554049584E+03  0.99605276984E+03  0.60048798388E+03 0.  0.
         23    2    4    4    0    0 -0.19058558132E+03 -0.56264424955E+03 -0.34347332843E+03  0.69241752213E+03  0.92610378749E+02 0.  0.
         23    2    4    4    0    0 -0.41136090538E+01  0.99246553438E+02 -0.27206716741E+03  0.30363524771E+03  0.91142854449E+02 0.  0.
          1    1    3    3  502    0  0.19806478610E+03  0.40295161142E+03  0.28743565461E+03  0.53312185866E+03  0.00000000000E+00 0. -1.
         -1    1    3    3    0  502 -0.33655957258E+01  0.60446084684E+02  0.23747539729E+02  0.65030777570E+02  0.00000000000E+00 0.  1.
         13    1    5    5    0    0 -0.49283168376E+02 -0.74085292550E+02 -0.25293184110E+02  0.92505169692E+02  0.00000000000E+00 0.  1.
        -13    1    5    5    0    0 -0.14130241295E+03 -0.48855895700E+03 -0.31818014432E+03  0.59991235244E+03  0.00000000000E+00 0. -1.
          3    1    6    6  503    0  0.42118518697E+02  0.33085269970E+02 -0.95480770488E+02  0.10947685709E+03  0.00000000000E+00 0. -1.
         -3    1    6    6    0  503 -0.46232127751E+02  0.66161283469E+02 -0.17658639692E+03  0.19415839061E+03  0.00000000000E+00 0.  1.
<mgrwt>
<rscale>  0 0.62068705E+03</rscale>
<asrwt>0</asrwt>
<pdfrwt beam="1">  1        1 0.14604328E+00 0.62068705E+03</pdfrwt>
<pdfrwt beam="2">  1       -1 0.99219085E-01 0.62068705E+03</pdfrwt>
<totfact> 0.16877616E+01</totfact>
</mgrwt>
</event>
<event>
12    1  0.1432447E-007  0.8335323E+03  0.7818608E-02  0.9512710E-01
         -1   -1    0    0    0  501 -0.00000000000E+00  0.00000000000E+00  0.74731682291E+03  0.74731682291E+03  0.00000000000E+00 0.  1.
          1   -1    0    0  501    0  0.00000000000E+00 -0.00000000000E+00 -0.10409388212E+04  0.10409388212E+04  0.00000000000E+00 0. -1.
         23    2    1    2    0    0  0.37231832831E+03  0.63799492093E+03 -0.37447378777E+03  0.83323684809E+03  0.91621889081E+02 0.  0.
    5000000    2    1    2    0    0 -0.37231832831E+03 -0.63799492093E+03  0.80851789454E+02  0.95501879604E+03  0.59988784969E+03 0.  0.
         23    2    4    4    0    0  0.14582318751E+03 -0.18734300555E+03 -0.16334658992E+02  0.25529614027E+03  0.92452660356E+02 0.  0.
         23    2    4    4    0    0 -0.51814151582E+03 -0.45065191538E+03  0.97186448447E+02  0.69972265577E+03  0.92783673058E+02 0.  0.
          2    1    3    3  502    0  0.32874299142E+03  0.51908956708E+03 -0.27989956179E+03  0.67518123326E+03  0.00000000000E+00 0. -1.
         -2    1    3    3    0  502  0.43575336894E+02  0.11890535386E+03 -0.94574225973E+02  0.15805561483E+03  0.00000000000E+00 0.  1.
         11    1    5    5    0    0  0.93119925486E+02 -0.13724978478E+03  0.30731582604E+02  0.16868092398E+03  0.00000000000E+00 0.  1.
        -11    1    5    5    0    0  0.52703262023E+02 -0.50093220777E+02 -0.47066241596E+02  0.86615216294E+02  0.00000000000E+00 0. -1.
          2    1    6    6  503    0 -0.29759121052E+03 -0.27937021666E+03  0.10084595183E+03  0.42044994058E+03  0.00000000000E+00 0. -1.
         -2    1    6    6    0  503 -0.22055030530E+03 -0.17128169872E+03 -0.36595033803E+01  0.27927271519E+03  0.00000000000E+00 0.  1.
<mgrwt>
<rscale>  0 0.83353233E+03</rscale>
<asrwt>0</asrwt>
<pdfrwt beam="1">  1        1 0.16014443E+00 0.83353233E+03</pdfrwt>
<pdfrwt beam="2">  1       -1 0.11497182E+00 0.83353233E+03</pdfrwt>
<totfact> 0.98681989E+00</totfact>
</mgrwt>
</event>
<event>
12    1  0.1432447E-007  0.1307257E+04  0.7818608E-02  0.9023830E-01
         -2   -1    0    0    0  501 -0.00000000000E+00  0.00000000000E+00  0.10224169724E+04  0.10224169724E+04  0.00000000000E+00 0.  1.
          2   -1    0    0  501    0  0.00000000000E+00 -0.00000000000E+00 -0.18660617599E+04  0.18660617599E+04  0.00000000000E+00 0. -1.
         23    2    1    2    0    0  0.12568662824E+04  0.34842499133E+03 -0.23127379416E+03  0.13277211780E+04  0.90791695969E+02 0.  0.
    5000000    2    1    2    0    0 -0.12568662824E+04 -0.34842499133E+03 -0.61237099336E+03  0.15607575543E+04  0.59987755690E+03 0.  0.
         23    2    4    4    0    0 -0.55913545641E+03 -0.11609574018E+03 -0.58079591099E+03  0.81971575553E+03  0.92191920150E+02 0.  0.
         23    2    4    4    0    0 -0.69773082604E+03 -0.23232925115E+03 -0.31575082368E+02  0.74104179877E+03  0.85678323743E+02 0.  0.
          2    1    3    3  502    0  0.34999640970E+03  0.59686786294E+02 -0.81483514175E+02  0.36427951129E+03  0.00000000000E+00 0. -1.
         -2    1    3    3    0  502  0.90686987274E+03  0.28873820503E+03 -0.14979027999E+03  0.96344166669E+03  0.00000000000E+00 0.  1.
         13    1    5    5    0    0 -0.30508780317E+03 -0.76830761480E+02 -0.25670454301E+03  0.40605265170E+03  0.00000000000E+00 0.  1.
        -13    1    5    5    0    0 -0.25404765323E+03 -0.39264978698E+02 -0.32409136798E+03  0.41366310383E+03  0.00000000000E+00 0. -1.
          1    1    6    6  503    0 -0.43901507813E+03 -0.16206598751E+03  0.18403520320E+02  0.46833568377E+03  0.00000000000E+00 0. -1.
         -1    1    6    6    0  503 -0.25871574791E+03 -0.70263263637E+02 -0.49978602688E+02  0.27270611501E+03  0.00000000000E+00 0.  1.
<mgrwt>
<rscale>  0 0.13072570E+04</rscale>
<asrwt>0</asrwt>
<pdfrwt beam="1">  1        2 0.28708643E+00 0.13072570E+04</pdfrwt>
<pdfrwt beam="2">  1       -2 0.15729492E+00 0.13072570E+04</pdfrwt>
<totfact> 0.20111464E+00</totfact>
</mgrwt>
</event>
<event>
12    1  0.1432447E-007  0.3177327E+03  0.7818608E-02  0.1076698E+00
         -2   -1    0    0    0  501 -0.00000000000E+00  0.00000000000E+00  0.25405846832E+03  0.25405846832E+03  0.00000000000E+00 0.  1.
          2   -1    0    0  501    0  0.00000000000E+00 -0.00000000000E+00 -0.56967323376E+03  0.56967323376E+03  0.00000000000E+00 0. -1.
         23    2    1    2    0    0  0.86790978253E+02  0.75277505145E+02 -0.31059489773E+02  0.14992121842E+03  0.91171833040E+02 0.  0.
    5000000    2    1    2    0    0 -0.86790978253E+02 -0.75277505145E+02 -0.28455527567E+03  0.67381048366E+03  0.59987455879E+03 0.  0.
         23    2    4    4    0    0 -0.59181563309E+02 -0.28248979488E+03  0.76465058351E+01  0.30352197163E+03  0.93617180932E+02 0.  0.
         23    2    4    4    0    0 -0.27609414943E+02  0.20721228973E+03 -0.29220178150E+03  0.37028851203E+03  0.89624149733E+02 0.  0.
          4    1    3    3  502    0  0.53096432249E+02  0.66031558978E+02 -0.60596084170E+02  0.10416949321E+03  0.00000000000E+00 0. -1.
         -4    1    3    3    0  502  0.33694546004E+02  0.92459461666E+01  0.29536594398E+02  0.45751725208E+02  0.00000000000E+00 0.  1.
         13    1    5    5    0    0 -0.57617940051E+02 -0.13567226840E+03  0.40916908278E+02  0.15297380433E+03  0.00000000000E+00 0.  1.
        -13    1    5    5    0    0 -0.15636232582E+01 -0.14681752648E+03 -0.33270402443E+02  0.15054816730E+03  0.00000000000E+00 0. -1.
          1    1    6    6  503    0  0.25133013407E+02  0.54818060170E+02 -0.45452139671E+02  0.75515462552E+02  0.00000000000E+00 0. -1.
         -1    1    6    6    0  503 -0.52742428351E+02  0.15239422956E+03 -0.24674964183E+03  0.29477304947E+03  0.00000000000E+00 0.  1.
<mgrwt>
<rscale>  0 0.31773268E+03</rscale>
<asrwt>0</asrwt>
<pdfrwt beam="1">  1        2 0.87642035E-01 0.31773268E+03</pdfrwt>
<pdfrwt beam="2">  1       -2 0.39085919E-01 0.31773268E+03</pdfrwt>
<totfact> 0.33535482E+02</totfact>
</mgrwt>
</event>
<event>
12    1  0.1432447E-007  0.9756853E+03  0.7818608E-02  0.9335622E-01
          1   -1    0    0  501    0  0.00000000000E+00  0.00000000000E+00  0.13314799573E+04  0.13314799573E+04  0.00000000000E+00 0. -1.
         -1   -1    0    0    0  501 -0.00000000000E+00 -0.00000000000E+00 -0.83902339650E+03  0.83902339650E+03  0.00000000000E+00 0.  1.
         23    2    1    2    0    0  0.60177993995E+03 -0.76030608529E+03  0.23058397871E+03  0.10008533107E+04  0.91290409842E+02 0.  0.
    5000000    2    1    2    0    0 -0.60177993995E+03  0.76030608529E+03  0.26187258205E+03  0.11696500430E+04  0.59941599452E+03 0.  0.
         23    2    4    4    0    0 -0.40063915350E+03  0.58360023343E+03 -0.88545837536E+02  0.71911888440E+03  0.90502158955E+02 0.  0.
         23    2    4    4    0    0 -0.20114078645E+03  0.17670585186E+03  0.35041841959E+03  0.45053115864E+03  0.92209988961E+02 0.  0.
          3    1    3    3  502    0  0.52113840550E+03 -0.66378564053E+03  0.23143271329E+03  0.87507583388E+03  0.00000000000E+00 0. -1.
         -3    1    3    3    0  502  0.80641534443E+02 -0.96520444756E+02 -0.84873458057E+00  0.12577747685E+03  0.00000000000E+00 0.  1.
         11    1    5    5    0    0 -0.19404836148E+03  0.20507165726E+03 -0.40418091385E+02  0.28520654501E+03  0.00000000000E+00 0. -1.
        -11    1    5    5    0    0 -0.20659079202E+03  0.37852857616E+03 -0.48127746151E+02  0.43391233938E+03  0.00000000000E+00 0.  1.
          2    1    6    6  503    0 -0.16328787843E+03  0.13575443219E+03  0.32732704575E+03  0.39017328456E+03  0.00000000000E+00 0.  1.
         -2    1    6    6    0  503 -0.37852908012E+02  0.40951419669E+02  0.23091373837E+02  0.60357874080E+02  0.00000000000E+00 0. -1.
<mgrwt>
<rscale>  0 0.97568525E+03</rscale>
<asrwt>0</asrwt>
<pdfrwt beam="1">  1        1 0.20484307E+00 0.97568525E+03</pdfrwt>
<pdfrwt beam="2">  1       -1 0.12908052E+00 0.97568525E+03</pdfrwt>
<totfact> 0.44666420E+00</totfact>
</mgrwt>
</event>
<event>
12    1  0.1432447E-007  0.5519318E+03  0.7818608E-02  0.1001048E+00
          2   -1    0    0  501    0  0.00000000000E+00  0.00000000000E+00  0.40966647892E+04  0.40966647892E+04  0.00000000000E+00 0.  1.
         -2   -1    0    0    0  501 -0.00000000000E+00 -0.00000000000E+00 -0.13006040019E+03  0.13006040019E+03  0.00000000000E+00 0. -1.
         23    2    1    2    0    0 -0.21894797943E+03 -0.39954171432E+03  0.28020603847E+04  0.28401480924E+04  0.85597829170E+02 0.  0.
    5000000    2    1    2    0    0  0.21894797943E+03  0.39954171432E+03  0.11645440044E+04  0.13865770970E+04  0.59905050591E+03 0.  0.
         23    2    4    4    0    0 -0.12954832157E+03  0.37739743996E+02  0.61563406427E+03  0.63677721375E+03  0.90955279976E+02 0.  0.
         23    2    4    4    0    0  0.34849630100E+03  0.36180197033E+03  0.54890994011E+03  0.74979988326E+03  0.92452177103E+02 0.  0.
          1    1    3    3  502    0 -0.14924991540E+03 -0.18966621901E+03  0.13652519150E+04  0.13864204280E+04  0.00000000000E+00 0. -1.
         -1    1    3    3    0  502 -0.69698064029E+02 -0.20987549531E+03  0.14368084697E+04  0.14537276644E+04  0.00000000000E+00 0.  1.
         11    1    5    5    0    0 -0.94314547215E+02  0.12195529202E+02  0.54909946508E+03  0.55727388895E+03  0.00000000000E+00 0. -1.
        -11    1    5    5    0    0 -0.35233774354E+02  0.25544214794E+02  0.66534599191E+02  0.79503324799E+02  0.00000000000E+00 0.  1.
          4    1    6    6  503    0  0.22273200391E+03  0.21709647777E+03  0.40194272971E+03  0.50823064075E+03  0.00000000000E+00 0. -1.
         -4    1    6    6    0  503  0.12576429709E+03  0.14470549256E+03  0.14696721039E+03  0.24156924251E+03  0.00000000000E+00 0.  1.
<mgrwt>
<rscale>  0 0.55193178E+03</rscale>
<asrwt>0</asrwt>
<pdfrwt beam="1">  1        2 0.63025602E+00 0.55193178E+03</pdfrwt>
<pdfrwt beam="2">  1       -2 0.20009296E-01 0.55193178E+03</pdfrwt>
<totfact> 0.70697490E+00</totfact>
</mgrwt>
</event>
<event>
12    1  0.1432447E-007  0.8728239E+03  0.7818608E-02  0.9460205E-01
         -1   -1    0    0    0  501 -0.00000000000E+00  0.00000000000E+00  0.24374665955E+04  0.24374665955E+04  0.00000000000E+00 0.  1.
          1   -1    0    0  501    0  0.00000000000E+00 -0.00000000000E+00 -0.44768037326E+03  0.44768037326E+03  0.00000000000E+00 0. -1.
         23    2    1    2    0    0 -0.82592028234E+03  0.86811932306E+02  0.26043298160E+03  0.87508207615E+03  0.90899272375E+02 0.  0.
    5000000    2    1    2    0    0  0.82592028234E+03 -0.86811932306E+02  0.17293532406E+04  0.20100648926E+04  0.60001468087E+03 0.  0.
         23    2    4    4    0    0  0.21492154960E+03  0.12230216153E+03  0.15472897930E+03  0.30586284083E+03  0.91988744765E+02 0.  0.
         23    2    4    4    0    0  0.61099873273E+03 -0.20911409384E+03  0.15746242613E+04  0.17042020517E+04  0.88401998283E+02 0.  0.
          3    1    3    3  502    0 -0.34025496387E+03  0.80550930585E+02  0.11438371377E+03  0.36789336339E+03  0.00000000000E+00 0. -1.
         -3    1    3    3    0  502 -0.48566531847E+03  0.62610017213E+01  0.14604926784E+03  0.50718871275E+03  0.00000000000E+00 0.  1.
         13    1    5    5    0    0  0.22340186810E+03  0.11041446761E+03  0.14733628692E+03  0.28949564897E+03  0.00000000000E+00 0. -1.
        -13    1    5    5    0    0 -0.84803184986E+01  0.11887693922E+02  0.73926923782E+01  0.16367191855E+02  0.00000000000E+00 0.  1.
          1    1    6    6  503    0  0.19092982884E+03 -0.50819873467E+02  0.38585289367E+03  0.43349661433E+03  0.00000000000E+00 0. -1.
         -1    1    6    6    0  503  0.42006890390E+03 -0.15829422037E+03  0.11887713676E+04  0.12707054374E+04  0.00000000000E+00 0.  1.
<mgrwt>
<rscale>  0 0.87282385E+03</rscale>
<asrwt>0</asrwt>
<pdfrwt beam="1">  1        1 0.68873905E-01 0.87282385E+03</pdfrwt>
<pdfrwt beam="2">  1       -1 0.37499485E+00 0.87282385E+03</pdfrwt>
<totfact> 0.56960474E-01</totfact>
</mgrwt>
</event>
<event>
12    1  0.1432447E-007  0.5564138E+03  0.7818608E-02  0.1000020E+00
          2   -1    0    0  501    0  0.00000000000E+00  0.00000000000E+00  0.24308202614E+04  0.24308202614E+04  0.00000000000E+00 0. -1.
         -2   -1    0    0    0  501 -0.00000000000E+00 -0.00000000000E+00 -0.18569818397E+03  0.18569818397E+03  0.00000000000E+00 0.  1.
         23    2    1    2    0    0 -0.24589456145E+03 -0.43493180909E+03  0.12649063017E+04  0.13633075356E+04  0.94813873265E+02 0.  0.
    5000000    2    1    2    0    0  0.24589456145E+03  0.43493180909E+03  0.98021577572E+03  0.12532109098E+04  0.60007066543E+03 0.  0.
         23    2    4    4    0    0  0.27885526153E+03  0.43510161557E+03  0.10194481446E+04  0.11468736352E+04  0.94715060481E+02 0.  0.
         23    2    4    4    0    0 -0.32960700077E+02 -0.16980647777E+00 -0.39232368915E+02  0.10633727462E+03  0.93177253761E+02 0.  0.
          1    1    3    3  502    0 -0.19422055775E+03 -0.31777427773E+03  0.82546679363E+03  0.90559237189E+03  0.00000000000E+00 0. -1.
         -1    1    3    3    0  502 -0.51674003698E+02 -0.11715753137E+03  0.43943950810E+03  0.45771516371E+03  0.00000000000E+00 0.  1.
         13    1    5    5    0    0  0.21969044809E+03  0.30792658020E+03  0.65518224388E+03  0.75653581836E+03  0.00000000000E+00 0. -1.
        -13    1    5    5    0    0  0.59164813442E+02  0.12717503538E+03  0.36426590075E+03  0.39033781680E+03  0.00000000000E+00 0.  1.
          2    1    6    6  503    0 -0.24481927124E+02 -0.43369582982E+02 -0.40220443842E+01  0.49964610723E+02  0.00000000000E+00 0. -1.
         -2    1    6    6    0  503 -0.84787729534E+01  0.43199776504E+02 -0.35210324531E+02  0.56372663893E+02  0.00000000000E+00 0.  1.
<mgrwt>
<rscale>  0 0.55641380E+03</rscale>
<asrwt>0</asrwt>
<pdfrwt beam="1">  1        2 0.37397232E+00 0.55641380E+03</pdfrwt>
<pdfrwt beam="2">  1       -2 0.28568953E-01 0.55641380E+03</pdfrwt>
<totfact> 0.45909201E+01</totfact>
</mgrwt>
</event>
<event>
12    1  0.1432447E-007  0.1032926E+04  0.7818608E-02  0.9273152E-01
          2   -1    0    0  501    0  0.00000000000E+00  0.00000000000E+00  0.75488292838E+03  0.75488292838E+03  0.00000000000E+00 0. -1.
         -2   -1    0    0    0  501 -0.00000000000E+00 -0.00000000000E+00 -0.14920664702E+04  0.14920664702E+04  0.00000000000E+00 0.  1.
         23    2    1    2    0    0  0.70507818803E+03  0.63530751388E+03 -0.57164143358E+03  0.11119447524E+04  0.94320280816E+02 0.  0.
    5000000    2    1    2    0    0 -0.70507818803E+03 -0.63530751388E+03 -0.16554210828E+03  0.11350046462E+04  0.60006705368E+03 0.  0.
         23    2    4    4    0    0 -0.75833431398E+03 -0.39647070385E+03 -0.12163484355E+03  0.86901060873E+03  0.90135742945E+02 0.  0.
         23    2    4    4    0    0  0.53256125949E+02 -0.23883681003E+03 -0.43907264731E+02  0.26599403749E+03  0.94581939650E+02 0.  0.
          1    1    3    3  502    0  0.50395538731E+03  0.48274763772E+03 -0.37704126298E+03  0.79320642213E+03  0.00000000000E+00 0. -1.
         -1    1    3    3    0  502  0.20112280071E+03  0.15255987616E+03 -0.19460017060E+03  0.31873833026E+03  0.00000000000E+00 0.  1.
         11    1    5    5    0    0 -0.41135903017E+03 -0.23400597094E+03 -0.10912910277E+03  0.48567911959E+03  0.00000000000E+00 0. -1.
        -11    1    5    5    0    0 -0.34697528381E+03 -0.16246473291E+03 -0.12505740783E+02  0.38333148914E+03  0.00000000000E+00 0.  1.
          2    1    6    6  503    0 -0.75575860335E+01 -0.15710290210E+03 -0.46727410664E+02  0.16407891352E+03  0.00000000000E+00 0. -1.
         -2    1    6    6    0  503  0.60813711983E+02 -0.81733907932E+02  0.28201459331E+01  0.10191512397E+03  0.00000000000E+00 0.  1.
<mgrwt>
<rscale>  0 0.10329258E+04</rscale>
<asrwt>0</asrwt>
<pdfrwt beam="1">  1        2 0.11613584E+00 0.10329258E+04</pdfrwt>
<pdfrwt beam="2">  1       -2 0.22954869E+00 0.10329258E+04</pdfrwt>
<totfact> 0.31744521E+00</totfact>
</mgrwt>
</event>
<event>
12    1  0.1432447E-007  0.8309103E+03  0.7818608E-02  0.9516323E-01
         -1   -1    0    0    0  501 -0.00000000000E+00  0.00000000000E+00  0.41669388354E+03  0.41669388354E+03  0.00000000000E+00 0.  1.
          1   -1    0    0  501    0  0.00000000000E+00 -0.00000000000E+00 -0.17098223456E+04  0.17098223456E+04  0.00000000000E+00 0. -1.
         23    2    1    2    0    0 -0.39885942336E+03 -0.61389748298E+03 -0.60571422287E+03  0.95666206629E+03  0.11114688518E+03 0.  0.
    5000000    2    1    2    0    0  0.39885942336E+03  0.61389748298E+03 -0.68741423916E+03  0.11698541628E+04  0.60005122018E+03 0.  0.
         23    2    4    4    0    0 -0.69932945519E+02 -0.48138577196E+02 -0.12947059855E+03  0.18117296245E+03  0.94090737853E+02 0.  0.
         23    2    4    4    0    0  0.46879236888E+03  0.66203606017E+03 -0.55794364061E+03  0.98868120037E+03  0.90174163519E+02 0.  0.
          2    1    3    3  502    0 -0.33880056632E+03 -0.47154127104E+03 -0.52278018518E+03  0.78130411240E+03  0.00000000000E+00 0. -1.
         -2    1    3    3    0  502 -0.60058857044E+02 -0.14235621194E+03 -0.82934037685E+02  0.17535795389E+03  0.00000000000E+00 0.  1.
         11    1    5    5    0    0 -0.51187031431E+02  0.86759382012E+01 -0.18522555073E+02  0.55122310699E+02  0.00000000000E+00 0. -1.
        -11    1    5    5    0    0 -0.18745914089E+02 -0.56814515397E+02 -0.11094804348E+03  0.12605065175E+03  0.00000000000E+00 0.  1.
          3    1    6    6  503    0  0.66344527745E+02  0.14724989887E+03 -0.13309308021E+03  0.20927947123E+03  0.00000000000E+00 0. -1.
         -3    1    6    6    0  503  0.40244784114E+03  0.51478616130E+03 -0.42485056040E+03  0.77940172914E+03  0.00000000000E+00 0.  1.
<mgrwt>
<rscale>  0 0.83091032E+03</rscale>
<asrwt>0</asrwt>
<pdfrwt beam="1">  1        1 0.26304959E+00 0.83091032E+03</pdfrwt>
<pdfrwt beam="2">  1       -1 0.64106753E-01 0.83091032E+03</pdfrwt>
<totfact> 0.11912175E+01</totfact>
</mgrwt>
</event>
<event>
12    1  0.1432447E-007  0.7348149E+03  0.7818608E-02  0.9659479E-01
          2   -1    0    0  501    0  0.00000000000E+00  0.00000000000E+00  0.13027280137E+04  0.13027280137E+04  0.00000000000E+00 0. -1.
         -2   -1    0    0    0  501 -0.00000000000E+00 -0.00000000000E+00 -0.55734115849E+03  0.55734115849E+03  0.00000000000E+00 0.  1.
         23    2    1    2    0    0 -0.41515673247E+02 -0.63039201056E+03 -0.10010388561E+03  0.64608782589E+03  0.91055218094E+02 0.  0.
    5000000    2    1    2    0    0  0.41515673247E+02  0.63039201056E+03  0.84549074083E+03  0.12139813463E+04  0.59981537015E+03 0.  0.
         23    2    4    4    0    0  0.17649877413E+03  0.65484282760E+03  0.77500151478E+03  0.10337493395E+04  0.89662717267E+02 0.  0.
         23    2    4    4    0    0 -0.13498310089E+03 -0.24450817038E+02  0.70489226050E+02  0.18023200682E+03  0.93255376865E+02 0.  0.
          1    1    3    3  502    0 -0.68956648066E+02 -0.51750798137E+03 -0.84390345599E+02  0.52885845037E+03  0.00000000000E+00 0. -1.
         -1    1    3    3    0  502  0.27440974819E+02 -0.11288402918E+03 -0.15713540015E+02  0.11722937552E+03  0.00000000000E+00 0.  1.
         11    1    5    5    0    0  0.59583452205E+01  0.16495202116E+03  0.17359431447E+03  0.23954051260E+03  0.00000000000E+00 0. -1.
        -11    1    5    5    0    0  0.17054042891E+03  0.48989080644E+03  0.60140720031E+03  0.79420882689E+03  0.00000000000E+00 0.  1.
          3    1    6    6  503    0 -0.55415156018E+02 -0.37567060991E+02  0.73646398593E+02  0.99528466349E+02  0.00000000000E+00 0. -1.
         -3    1    6    6    0  503 -0.79567944868E+02  0.13116243953E+02 -0.31571725427E+01  0.80703540470E+02  0.00000000000E+00 0.  1.
<mgrwt>
<rscale>  0 0.73481489E+03</rscale>
<asrwt>0</asrwt>
<pdfrwt beam="1">  1        2 0.20041969E+00 0.73481489E+03</pdfrwt>
<pdfrwt beam="2">  1       -2 0.85744794E-01 0.73481489E+03</pdfrwt>
<totfact> 0.19891778E+01</totfact>
</mgrwt>
</event>
<event>
12    1  0.1432447E-007  0.3779136E+03  0.7818608E-02  0.1051708E+00
          2   -1    0    0  501    0  0.00000000000E+00  0.00000000000E+00  0.13782647847E+04  0.13782647847E+04  0.00000000000E+00 0. -1.
         -2   -1    0    0    0  501 -0.00000000000E+00 -0.00000000000E+00 -0.17036354447E+03  0.17036354447E+03  0.00000000000E+00 0.  1.
         23    2    1    2    0    0 -0.12847375910E+03  0.17845965338E+03  0.78400513231E+02  0.25085989724E+03  0.91818804759E+02 0.  0.
    5000000    2    1    2    0    0  0.12847375910E+03 -0.17845965338E+03  0.11295007270E+04  0.12977684320E+04  0.60006470982E+03 0.  0.
         23    2    4    4    0    0 -0.16110809302E+03 -0.13704950731E+03  0.15910155597E+03  0.28010404107E+03  0.91687423474E+02 0.  0.
         23    2    4    4    0    0  0.28958185212E+03 -0.41410146070E+02  0.97039917107E+03  0.10176643909E+04  0.91617749415E+02 0.  0.
          1    1    3    3  502    0 -0.26289097656E+02  0.95057611307E+02  0.65358884340E+02  0.11831673544E+03  0.00000000000E+00 0. -1.
         -1    1    3    3    0  502 -0.10218466144E+03  0.83402042074E+02  0.13041628891E+02  0.13254316180E+03  0.00000000000E+00 0.  1.
         13    1    5    5    0    0 -0.19286705381E+02 -0.69339909460E+02  0.64676579205E+02  0.96762905837E+02  0.00000000000E+00 0. -1.
        -13    1    5    5    0    0 -0.14182138764E+03 -0.67709597852E+02  0.94424976762E+02  0.18334113524E+03  0.00000000000E+00 0.  1.
          4    1    6    6  503    0  0.13080498794E+03  0.45322759896E+01  0.56295472074E+03  0.57796929330E+03  0.00000000000E+00 0. -1.
         -4    1    6    6    0  503  0.15877686418E+03 -0.45942422059E+02  0.40744445032E+03  0.43969509759E+03  0.00000000000E+00 0.  1.
<mgrwt>
<rscale>  0 0.37791363E+03</rscale>
<asrwt>0</asrwt>
<pdfrwt beam="1">  1        2 0.21204073E+00 0.37791363E+03</pdfrwt>
<pdfrwt beam="2">  1       -2 0.26209777E-01 0.37791363E+03</pdfrwt>
<totfact> 0.20583447E+02</totfact>
</mgrwt>
</event>
<event>
12    1  0.1432447E-007  0.5154007E+03  0.7818608E-02  0.1009835E+00
          1   -1    0    0  501    0  0.00000000000E+00  0.00000000000E+00  0.22406880146E+04  0.22406880146E+04  0.00000000000E+00 0. -1.
         -1   -1    0    0    0  501 -0.00000000000E+00 -0.00000000000E+00 -0.29076900863E+03  0.29076900863E+03  0.00000000000E+00 0.  1.
         23    2    1    2    0    0 -0.67371100041E+02 -0.44301882625E+03  0.16850652409E+02  0.45838964655E+03  0.95039876069E+02 0.  0.
    5000000    2    1    2    0    0  0.67371100041E+02  0.44301882625E+03  0.19330683535E+04  0.20730673767E+04  0.60004211786E+03 0.  0.
         23    2    4    4    0    0 -0.55258925558E+02  0.41105762147E+03  0.62236157430E+03  0.75326219020E+03  0.89711097429E+02 0.  0.
         23    2    4    4    0    0  0.12263002560E+03  0.31961204782E+02  0.13107067792E+04  0.13198051864E+04  0.88734589006E+02 0.  0.
          2    1    3    3  502    0 -0.72716620728E+02 -0.16903539363E+03  0.41319928116E+01  0.18405907908E+03  0.00000000000E+00 0. -1.
         -2    1    3    3    0  502  0.53455206865E+01 -0.27398343262E+03  0.12718659598E+02  0.27433056746E+03  0.00000000000E+00 0.  1.
         13    1    5    5    0    0 -0.52728056048E+02  0.15655972725E+03  0.19212905537E+03  0.25338660187E+03  0.00000000000E+00 0. -1.
        -13    1    5    5    0    0 -0.25308695098E+01  0.25449789421E+03  0.43023251894E+03  0.49987558833E+03  0.00000000000E+00 0.  1.
          3    1    6    6  503    0  0.97043783998E+02 -0.16314091875E+02  0.74623640507E+03  0.75269676355E+03  0.00000000000E+00 0. -1.
         -3    1    6    6    0  503  0.25586241601E+02  0.48275296657E+02  0.56447037415E+03  0.56710842290E+03  0.00000000000E+00 0.  1.
<mgrwt>
<rscale>  0 0.51540068E+03</rscale>
<asrwt>0</asrwt>
<pdfrwt beam="1">  1        1 0.34472122E+00 0.51540068E+03</pdfrwt>
<pdfrwt beam="2">  1       -1 0.44733695E-01 0.51540068E+03</pdfrwt>
<totfact> 0.11108195E+01</totfact>
</mgrwt>
</event>
<event>
12    1  0.1432447E-007  0.9189475E+03  0.7818608E-02  0.9402201E-01
         -2   -1    0    0    0  501 -0.00000000000E+00  0.00000000000E+00  0.67444891527E+03  0.67444891527E+03  0.00000000000E+00 0.  1.
          2   -1    0    0  501    0  0.00000000000E+00 -0.00000000000E+00 -0.14175886667E+04  0.14175886667E+04  0.00000000000E+00 0. -1.
         23    2    1    2    0    0  0.18988960077E+03  0.85127171722E+03 -0.19015420495E+03  0.89766187701E+03  0.94427891801E+02 0.  0.
    5000000    2    1    2    0    0 -0.18988960077E+03 -0.85127171722E+03 -0.55298554644E+03  0.11943757049E+04  0.60001559390E+03 0.  0.
         23    2    4    4    0    0 -0.30051263040E+03 -0.57769678860E+03 -0.59094532593E+03  0.88304137773E+03  0.80649091507E+02 0.  0.
         23    2    4    4    0    0  0.11062302963E+03 -0.27357492862E+03  0.37959779491E+02  0.31133432719E+03  0.91691996233E+02 0.  0.
          2    1    3    3  502    0  0.13331401483E+03  0.51030299154E+03 -0.15775306123E+03  0.55051593805E+03  0.00000000000E+00 0.  1.
         -2    1    3    3    0  502  0.56575585933E+02  0.34096872568E+03 -0.32401143729E+02  0.34714593896E+03  0.00000000000E+00 0. -1.
         13    1    5    5    0    0 -0.22073480372E+03 -0.34111195455E+03 -0.37614687374E+03  0.55368555132E+03  0.00000000000E+00 0.  1.
        -13    1    5    5    0    0 -0.79777826678E+02 -0.23658483405E+03 -0.21479845219E+03  0.32935582641E+03  0.00000000000E+00 0. -1.
          1    1    6    6  503    0  0.92037368912E+02 -0.10652118893E+03  0.12441525561E+02  0.14132385689E+03  0.00000000000E+00 0. -1.
         -1    1    6    6    0  503  0.18585660721E+02 -0.16705373969E+03  0.25518253929E+02  0.17001047030E+03  0.00000000000E+00 0.  1.
<mgrwt>
<rscale>  0 0.91894748E+03</rscale>
<asrwt>0</asrwt>
<pdfrwt beam="1">  1        2 0.21809056E+00 0.91894748E+03</pdfrwt>
<pdfrwt beam="2">  1       -2 0.10376137E+00 0.91894748E+03</pdfrwt>
<totfact> 0.10725056E+01</totfact>
</mgrwt>
</event>
<event>
12    1  0.1432447E-007  0.9391385E+03  0.7818608E-02  0.9377937E-01
          1   -1    0    0  501    0  0.00000000000E+00  0.00000000000E+00  0.10958296608E+04  0.10958296608E+04  0.00000000000E+00 0. -1.
         -1   -1    0    0    0  501 -0.00000000000E+00 -0.00000000000E+00 -0.90368903028E+03  0.90368903028E+03  0.00000000000E+00 0.  1.
         23    2    1    2    0    0 -0.84251268877E+03 -0.65053414617E+02 -0.23028637721E+03  0.88046546070E+03  0.90155612474E+02 0.  0.
    5000000    2    1    2    0    0  0.84251268877E+03  0.65053414617E+02  0.42242700771E+03  0.11190532304E+04  0.59981328600E+03 0.  0.
         23    2    4    4    0    0  0.72647844381E+03 -0.17642911711E+03  0.30443150062E+03  0.81246012627E+03  0.92275432906E+02 0.  0.
         23    2    4    4    0    0  0.11603424496E+03  0.24148253173E+03  0.11799550709E+03  0.30659310410E+03  0.91096831187E+02 0.  0.
          4    1    3    3  502    0 -0.39107858364E+03  0.14843538184E+02 -0.10772734541E+03  0.40591621076E+03  0.00000000000E+00 0. -1.
         -4    1    3    3    0  502 -0.45143410513E+03 -0.79896952801E+02 -0.12255903180E+03  0.47454924994E+03  0.00000000000E+00 0.  1.
         11    1    5    5    0    0  0.11660455530E+03 -0.13987236606E+01  0.70199506528E+02  0.13611226786E+03  0.00000000000E+00 0. -1.
        -11    1    5    5    0    0  0.60987388851E+03 -0.17503039345E+03  0.23423199409E+03  0.67634785841E+03  0.00000000000E+00 0.  1.
          1    1    6    6  503    0  0.39330288592E+02  0.22451847731E+02  0.43658664338E+02  0.62904976266E+02  0.00000000000E+00 0. -1.
         -1    1    6    6    0  503  0.76703956370E+02  0.21903068400E+03  0.74336842752E+02  0.24368812783E+03  0.00000000000E+00 0.  1.
<mgrwt>
<rscale>  0 0.93913847E+03</rscale>
<asrwt>0</asrwt>
<pdfrwt beam="1">  1        1 0.16858918E+00 0.93913847E+03</pdfrwt>
<pdfrwt beam="2">  1       -1 0.13902908E+00 0.93913847E+03</pdfrwt>
<totfact> 0.55062369E+00</totfact>
</mgrwt>
</event>
<event>
12    1  0.1432447E-007  0.1173807E+04  0.7818608E-02  0.9136097E-01
         -1   -1    0    0    0  501 -0.00000000000E+00  0.00000000000E+00  0.72904108507E+03  0.72904108507E+03  0.00000000000E+00 0.  1.
          1   -1    0    0  501    0  0.00000000000E+00 -0.00000000000E+00 -0.31639062949E+04  0.31639062949E+04  0.00000000000E+00 0. -1.
         23    2    1    2    0    0  0.96755391805E+03 -0.60193782926E+03 -0.54497702469E+01  0.11432928939E+04  0.92731907578E+02 0.  0.
    5000000    2    1    2    0    0 -0.96755391805E+03  0.60193782926E+03 -0.24294154396E+04  0.27496544860E+04  0.60004223169E+03 0.  0.
         23    2    4    4    0    0 -0.27878909070E+03  0.70772205813E+01 -0.10805035200E+04  0.11196322376E+04  0.91186877115E+02 0.  0.
         23    2    4    4    0    0 -0.68876482736E+03  0.59486060868E+03 -0.13489119196E+04  0.16300222484E+04  0.95671482047E+02 0.  0.
          3    1    3    3  502    0  0.75076615315E+02 -0.78012746327E+02  0.41655729527E+01  0.10835053648E+03  0.00000000000E+00 0. -1.
         -3    1    3    3    0  502  0.89247730274E+03 -0.52392508293E+03 -0.96153431995E+01  0.10349423575E+04  0.00000000000E+00 0.  1.
         11    1    5    5    0    0 -0.89577461073E+02 -0.40200590828E+02 -0.34278660443E+03  0.35657098201E+03  0.00000000000E+00 0.  1.
        -11    1    5    5    0    0 -0.18921162962E+03  0.47277811410E+02 -0.73771691555E+03  0.76306125556E+03  0.00000000000E+00 0. -1.
          3    1    6    6  503    0 -0.28458866180E+03  0.21631268575E+03 -0.60350794930E+03  0.70142977504E+03  0.00000000000E+00 0. -1.
         -3    1    6    6    0  503 -0.40417616555E+03  0.37854792293E+03 -0.74540397027E+03  0.92859247340E+03  0.00000000000E+00 0.  1.
<mgrwt>
<rscale>  0 0.11738068E+04</rscale>
<asrwt>0</asrwt>
<pdfrwt beam="1">  1        1 0.48675481E+00 0.11738068E+04</pdfrwt>
<pdfrwt beam="2">  1       -1 0.11216017E+00 0.11738068E+04</pdfrwt>
<totfact> 0.33018041E-01</totfact>
</mgrwt>
</event>
<event>
12    1  0.1432447E-007  0.6716332E+03  0.7818608E-02  0.9767012E-01
         -1   -1    0    0    0  501 -0.00000000000E+00  0.00000000000E+00  0.12861306212E+04  0.12861306212E+04  0.00000000000E+00 0.  1.
          1   -1    0    0  501    0  0.00000000000E+00 -0.00000000000E+00 -0.73643652402E+03  0.73643652402E+03  0.00000000000E+00 0. -1.
         23    2    1    2    0    0  0.37357346894E+03  0.54642359181E+03 -0.35034064519E+03  0.75458049374E+03  0.92289086416E+02 0.  0.
    5000000    2    1    2    0    0 -0.37357346894E+03 -0.54642359181E+03  0.90003474236E+03  0.12679866515E+04  0.59965968054E+03 0.  0.
         23    2    4    4    0    0 -0.18568399178E+03 -0.34547893732E+03  0.89164821817E+03  0.97824312248E+03  0.89937871779E+02 0.  0.
         23    2    4    4    0    0 -0.18788947716E+03 -0.20094465449E+03  0.83865241905E+01  0.28974352899E+03  0.90552575930E+02 0.  0.
          4    1    3    3  502    0  0.21999870545E+03  0.28655524579E+03 -0.14383657190E+03  0.38884739771E+03  0.00000000000E+00 0.  1.
         -4    1    3    3    0  502  0.15357476350E+03  0.25986834602E+03 -0.20650407329E+03  0.36573309603E+03  0.00000000000E+00 0. -1.
         13    1    5    5    0    0 -0.19121385127E+03 -0.32219721681E+03  0.79785739040E+03  0.88144778567E+03  0.00000000000E+00 0. -1.
        -13    1    5    5    0    0  0.55298594833E+01 -0.23281720509E+02  0.93790827766E+02  0.96795336813E+02  0.00000000000E+00 0.  1.
          3    1    6    6  503    0 -0.10253378201E+03 -0.66206726736E+02 -0.30013207011E+02  0.12568730928E+03  0.00000000000E+00 0. -1.
         -3    1    6    6    0  503 -0.85355695153E+02 -0.13473792775E+03  0.38399731201E+02  0.16405621971E+03  0.00000000000E+00 0.  1.
<mgrwt>
<rscale>  0 0.67163316E+03</rscale>
<asrwt>0</asrwt>
<pdfrwt beam="1">  1        1 0.11329793E+00 0.67163316E+03</pdfrwt>
<pdfrwt beam="2">  1       -1 0.19786625E+00 0.67163316E+03</pdfrwt>
<totfact> 0.41242487E+00</totfact>
</mgrwt>
</event>
<event>
12    1  0.2176712E-007  0.1403179E+04  0.7818608E-02  0.8951520E-01
          1   -1    0    0  501    0  0.00000000000E+00  0.00000000000E+00  0.17972669393E+04  0.17972669393E+04  0.00000000000E+00 0. -1.
         -1   -1    0    0    0  501 -0.00000000000E+00 -0.00000000000E+00 -0.12331832520E+04  0.12331832520E+04  0.00000000000E+00 0.  1.
         23    2    1    2    0    0 -0.11599508932E+04  0.77441615599E+03 -0.35380865172E+02  0.13980993196E+04  0.90683210876E+02 0.  0.
    5000000    2    1    2    0    0  0.11599508932E+04 -0.77441615599E+03  0.59946455252E+03  0.16323508717E+04  0.60000430108E+03 0.  0.
         23    2    4    4    0    0  0.94449935073E+03 -0.53752236680E+03  0.68557046692E+03  0.12880882891E+04  0.90306461305E+02 0.  0.
         23    2    4    4    0    0  0.21545154244E+03 -0.23689378919E+03 -0.86105914402E+02  0.34426258262E+03  0.92544382873E+02 0.  0.
          2    1    3    3  502    0 -0.45103951098E+03  0.33162900712E+03  0.22306802080E+02  0.56027853096E+03  0.00000000000E+00 0. -1.
         -2    1    3    3    0  502 -0.70891138218E+03  0.44278714887E+03 -0.57687667252E+02  0.83782078868E+03  0.00000000000E+00 0.  1.
         11    1    5    5    0    0  0.53407032495E+03 -0.35460440764E+03  0.39588860354E+03  0.75346080477E+03  0.00000000000E+00 0.  1.
        -11    1    5    5    0    0  0.41042902577E+03 -0.18291795916E+03  0.28968186339E+03  0.53462748429E+03  0.00000000000E+00 0. -1.
          4    1    6    6  503    0  0.79606846003E+02 -0.83192798047E+02 -0.77802528729E+02  0.13896591328E+03  0.00000000000E+00 0. -1.
         -4    1    6    6    0  503  0.13584469644E+03 -0.15370099114E+03 -0.83033856730E+01  0.20529666934E+03  0.00000000000E+00 0.  1.
<mgrwt>
<rscale>  0 0.14031794E+04</rscale>
<asrwt>0</asrwt>
<pdfrwt beam="1">  1        1 0.27650261E+00 0.14031794E+04</pdfrwt>
<pdfrwt beam="2">  1       -1 0.18972050E+00 0.14031794E+04</pdfrwt>
<totfact> 0.69485426E-01</totfact>
</mgrwt>
</event>
<event>
12    1  0.1432447E-007  0.9653345E+03  0.7818608E-02  0.9347404E-01
          2   -1    0    0  501    0  0.00000000000E+00  0.00000000000E+00  0.14205443159E+04  0.14205443159E+04  0.00000000000E+00 0. -1.
         -2   -1    0    0    0  501 -0.00000000000E+00 -0.00000000000E+00 -0.74199508170E+03  0.74199508170E+03  0.00000000000E+00 0.  1.
         23    2    1    2    0    0 -0.80773095055E+03  0.47327085788E+03  0.28167646539E+03  0.98204823636E+03  0.93072627541E+02 0.  0.
    5000000    2    1    2    0    0  0.80773095055E+03 -0.47327085788E+03  0.39687276881E+03  0.11804911612E+04  0.59969725175E+03 0.  0.
         23    2    4    4    0    0  0.65656443880E+03 -0.23181830803E+03  0.50208481799E+03  0.86333852099E+03  0.91911082780E+02 0.  0.
         23    2    4    4    0    0  0.15116651175E+03 -0.24145254985E+03 -0.10521204918E+03  0.31715264025E+03  0.91463510886E+02 0.  0.
          1    1    3    3  502    0 -0.33434577321E+03  0.14474184099E+03  0.11988920308E+03  0.38355015006E+03  0.00000000000E+00 0. -1.
         -1    1    3    3    0  502 -0.47338517733E+03  0.32852901688E+03  0.16178726232E+03  0.59849808630E+03  0.00000000000E+00 0.  1.
         11    1    5    5    0    0  0.54197159834E+03 -0.22607663938E+03  0.40966499670E+03  0.71600926656E+03  0.00000000000E+00 0. -1.
        -11    1    5    5    0    0  0.11459284046E+03 -0.57416686472E+01  0.92419821291E+02  0.14732925443E+03  0.00000000000E+00 0.  1.
          3    1    6    6  503    0  0.13310772283E+03 -0.17853794912E+03 -0.42920127186E+02  0.22679418526E+03  0.00000000000E+00 0. -1.
         -3    1    6    6    0  503  0.18058788922E+02 -0.62914600732E+02 -0.62291921992E+02  0.90358454989E+02  0.00000000000E+00 0.  1.
<mgrwt>
<rscale>  0 0.96533446E+03</rscale>
<asrwt>0</asrwt>
<pdfrwt beam="1">  1        2 0.21854528E+00 0.96533446E+03</pdfrwt>
<pdfrwt beam="2">  1       -2 0.11415309E+00 0.96533446E+03</pdfrwt>
<totfact> 0.84348791E+00</totfact>
</mgrwt>
</event>
<event>
12    1  0.1432447E-007  0.1235108E+04  0.7818608E-02  0.9082670E-01
         -2   -1    0    0    0  501 -0.00000000000E+00  0.00000000000E+00  0.89524249469E+03  0.89524249469E+03  0.00000000000E+00 0.  1.
          2   -1    0    0  501    0  0.00000000000E+00 -0.00000000000E+00 -0.19173739541E+04  0.19173739541E+04  0.00000000000E+00 0. -1.
         23    2    1    2    0    0 -0.11539267758E+04  0.43708049683E+03 -0.61343055106E+03  0.13809336841E+04  0.89969073670E+02 0.  0.
    5000000    2    1    2    0    0  0.11539267758E+04 -0.43708049683E+03 -0.40870090833E+03  0.14316827647E+04  0.60007727974E+03 0.  0.
         23    2    4    4    0    0  0.58091549940E+03 -0.24259190422E+03  0.88371248503E+02  0.64323680147E+03  0.98134885579E+02 0.  0.
         23    2    4    4    0    0  0.57301127639E+03 -0.19448859261E+03 -0.49707215683E+03  0.78844596323E+03  0.91643724837E+02 0.  0.
          4    1    3    3  502    0 -0.10431245628E+04  0.39602132940E+03 -0.58305873547E+03  0.12589278120E+04  0.00000000000E+00 0. -1.
         -4    1    3    3    0  502 -0.11080221295E+03  0.41059167432E+02 -0.30371815596E+02  0.12200587202E+03  0.00000000000E+00 0.  1.
         11    1    5    5    0    0  0.15263298438E+02  0.67900773122E-01 -0.12237614819E+02  0.19563540226E+02  0.00000000000E+00 0.  1.
        -11    1    5    5    0    0  0.56565220096E+03 -0.24265980499E+03  0.10060886332E+03  0.62367326125E+03  0.00000000000E+00 0. -1.
          1    1    6    6  503    0  0.39037438969E+03 -0.12167931208E+03 -0.38759148684E+03  0.56340498736E+03  0.00000000000E+00 0. -1.
         -1    1    6    6    0  503  0.18263688670E+03 -0.72809280531E+02 -0.10948066999E+03  0.22504097586E+03  0.00000000000E+00 0.  1.
<mgrwt>
<rscale>  0 0.12351082E+04</rscale>
<asrwt>0</asrwt>
<pdfrwt beam="1">  1        2 0.29498060E+00 0.12351082E+04</pdfrwt>
<pdfrwt beam="2">  1       -2 0.13772962E+00 0.12351082E+04</pdfrwt>
<totfact> 0.27004393E+00</totfact>
</mgrwt>
</event>
<event>
12    1  0.1432447E-007  0.7618015E+03  0.7818608E-02  0.9617015E-01
          2   -1    0    0  501    0  0.00000000000E+00  0.00000000000E+00  0.75763540095E+03  0.75763540095E+03  0.00000000000E+00 0. -1.
         -2   -1    0    0    0  501 -0.00000000000E+00 -0.00000000000E+00 -0.99412931410E+03  0.99412931410E+03  0.00000000000E+00 0.  1.
         23    2    1    2    0    0 -0.15889485051E+03  0.68366207418E+03  0.19230009937E+03  0.73365554568E+03  0.92896320131E+02 0.  0.
    5000000    2    1    2    0    0  0.15889485051E+03 -0.68366207418E+03 -0.42879401252E+03  0.10181091694E+04  0.60003380772E+03 0.  0.
         23    2    4    4    0    0  0.17349991197E+03 -0.71144493602E+02  0.74293118361E+02  0.22015329920E+03  0.88228392745E+02 0.  0.
         23    2    4    4    0    0 -0.14605061466E+02 -0.61251758058E+03 -0.50308713088E+03  0.79795587018E+03  0.90806470927E+02 0.  0.
          1    1    3    3  502    0 -0.99229041737E+02  0.33153772032E+03  0.13726045190E+03  0.37229570824E+03  0.00000000000E+00 0. -1.
         -1    1    3    3    0  502 -0.59665808771E+02  0.35212435386E+03  0.55039647472E+02  0.36135983743E+03  0.00000000000E+00 0.  1.
         11    1    5    5    0    0  0.98390333327E+01 -0.38716861467E+02  0.87249871409E+01  0.40889208104E+02  0.00000000000E+00 0. -1.
        -11    1    5    5    0    0  0.16366087864E+03 -0.32427632135E+02  0.65568131220E+02  0.17926409109E+03  0.00000000000E+00 0.  1.
          3    1    6    6  503    0  0.10738828058E+02 -0.14558019821E+03 -0.75648352815E+02  0.16441286392E+03  0.00000000000E+00 0. -1.
         -3    1    6    6    0  503 -0.25343889523E+02 -0.46693738237E+03 -0.42743877807E+03  0.63354300626E+03  0.00000000000E+00 0.  1.
<mgrwt>
<rscale>  0 0.76180147E+03</rscale>
<asrwt>0</asrwt>
<pdfrwt beam="1">  1        2 0.11655929E+00 0.76180147E+03</pdfrwt>
<pdfrwt beam="2">  1       -2 0.15294297E+00 0.76180147E+03</pdfrwt>
<totfact> 0.10684088E+01</totfact>
</mgrwt>
</event>
<event>
12    1  0.1432447E-007  0.5633771E+03  0.7818608E-02  0.9984442E-01
         -1   -1    0    0    0  501 -0.00000000000E+00  0.00000000000E+00  0.58789745456E+03  0.58789745456E+03  0.00000000000E+00 0.  1.
          1   -1    0    0  501    0  0.00000000000E+00 -0.00000000000E+00 -0.79412788705E+03  0.79412788705E+03  0.00000000000E+00 0. -1.
         23    2    1    2    0    0  0.43875252671E+03  0.30811591290E+03 -0.19462063552E+03  0.57738237178E+03  0.89744169710E+02 0.  0.
    5000000    2    1    2    0    0 -0.43875252671E+03 -0.30811591290E+03 -0.11609796973E+02  0.80464296982E+03  0.59989692949E+03 0.  0.
         23    2    4    4    0    0 -0.42827569906E+02 -0.14863100433E+02  0.22776228509E+03  0.24931371758E+03  0.90700379093E+02 0.  0.
         23    2    4    4    0    0 -0.39592495681E+03 -0.29325281247E+03 -0.23937208206E+03  0.55532925224E+03  0.91311561584E+02 0.  0.
          3    1    3    3  502    0  0.38472447572E+03  0.26957574050E+03 -0.13659237773E+03  0.48922538746E+03  0.00000000000E+00 0. -1.
         -3    1    3    3    0  502  0.54028050992E+02  0.38540172402E+02 -0.58028257785E+02  0.88156984320E+02  0.00000000000E+00 0.  1.
         13    1    5    5    0    0  0.10639222057E+02  0.22115781370E+02  0.20127104372E+02  0.31739583519E+02  0.00000000000E+00 0. -1.
        -13    1    5    5    0    0 -0.53466791962E+02 -0.36978881803E+02  0.20763518072E+03  0.21757413406E+03  0.00000000000E+00 0.  1.
          4    1    6    6  503    0 -0.12227907171E+03 -0.14557573467E+03 -0.88283076388E+02  0.20961480740E+03  0.00000000000E+00 0.  1.
         -4    1    6    6    0  503 -0.27364588510E+03 -0.14767707780E+03 -0.15108900567E+03  0.34571444484E+03  0.00000000000E+00 0. -1.
<mgrwt>
<rscale>  0 0.56337713E+03</rscale>
<asrwt>0</asrwt>
<pdfrwt beam="1">  1        1 0.12217352E+00 0.56337713E+03</pdfrwt>
<pdfrwt beam="2">  1       -1 0.90445762E-01 0.56337713E+03</pdfrwt>
<totfact> 0.28066951E+01</totfact>
</mgrwt>
</event>
<event>
12    1  0.1432447E-007  0.2531484E+03  0.7818608E-02  0.1111331E+00
         -1   -1    0    0    0  501 -0.00000000000E+00  0.00000000000E+00  0.16675628512E+03  0.16675628512E+03  0.00000000000E+00 0.  1.
          1   -1    0    0  501    0  0.00000000000E+00 -0.00000000000E+00 -0.12861607701E+04  0.12861607701E+04  0.00000000000E+00 0. -1.
         23    2    1    2    0    0  0.13158566689E+02 -0.13630914509E+03 -0.67157292698E+03  0.69177391117E+03  0.93742290367E+02 0.  0.
    5000000    2    1    2    0    0 -0.13158566689E+02  0.13630914509E+03 -0.44783155803E+03  0.76114314409E+03  0.60002704148E+03 0.  0.
         23    2    4    4    0    0  0.86098765026E+02  0.16299826197E+03  0.75185014935E+02  0.21917988030E+03  0.91682074123E+02 0.  0.
         23    2    4    4    0    0 -0.99257331715E+02 -0.26689116877E+02 -0.52301657297E+03  0.54196326379E+03  0.98048543269E+02 0.  0.
          3    1    3    3  502    0 -0.34596211425E+02 -0.32691512771E+02 -0.27607240049E+03  0.28014568204E+03  0.00000000000E+00 0. -1.
         -3    1    3    3    0  502  0.47754778114E+02 -0.10361763232E+03 -0.39550052649E+03  0.41162822912E+03  0.00000000000E+00 0.  1.
         13    1    5    5    0    0  0.46807385281E+02  0.13823060382E+02  0.34103752429E+02  0.59540526072E+02  0.00000000000E+00 0.  1.
        -13    1    5    5    0    0  0.39291379745E+02  0.14917520158E+03  0.41081262507E+02  0.15963935423E+03  0.00000000000E+00 0. -1.
          3    1    6    6  503    0 -0.41790498104E+02  0.36955431281E+02 -0.18407399881E+03  0.19234184846E+03  0.00000000000E+00 0. -1.
         -3    1    6    6    0  503 -0.57466833612E+02 -0.63644548158E+02 -0.33894257416E+03  0.34962141533E+03  0.00000000000E+00 0.  1.
<mgrwt>
<rscale>  0 0.25314837E+03</rscale>
<asrwt>0</asrwt>
<pdfrwt beam="1">  1        1 0.19787089E+00 0.25314837E+03</pdfrwt>
<pdfrwt beam="2">  1       -1 0.25654813E-01 0.25314837E+03</pdfrwt>
<totfact> 0.13489376E+02</totfact>
</mgrwt>
</event>
<event>
12    1  0.1432447E-007  0.4215742E+03  0.7818608E-02  0.1036555E+00
          1   -1    0    0  501    0  0.00000000000E+00  0.00000000000E+00  0.95264470313E+03  0.95264470313E+03  0.00000000000E+00 0. -1.
         -1   -1    0    0    0  501 -0.00000000000E+00 -0.00000000000E+00 -0.46018750060E+03  0.46018750060E+03  0.00000000000E+00 0.  1.
         23    2    1    2    0    0 -0.12819538531E+03 -0.21703703511E+03  0.68359363886E+03  0.73455657312E+03  0.93455682548E+02 0.  0.
    5000000    2    1    2    0    0  0.12819538531E+03  0.21703703511E+03 -0.19113643633E+03  0.67827563061E+03  0.59998796852E+03 0.  0.
         23    2    4    4    0    0  0.26020555569E+03 -0.48622945260E+02  0.45489439522E+02  0.28745797224E+03  0.10242887620E+03 0.  0.
         23    2    4    4    0    0 -0.13201017038E+03  0.26565998037E+03 -0.23662587585E+03  0.39081765837E+03  0.93513243545E+02 0.  0.
          2    1    3    3  502    0 -0.78380256169E+02 -0.14253606458E+03  0.55105018858E+03  0.57455748589E+03  0.00000000000E+00 0. -1.
         -2    1    3    3    0  502 -0.49815129141E+02 -0.74500970530E+02  0.13254345028E+03  0.15999908723E+03  0.00000000000E+00 0.  1.
         13    1    5    5    0    0  0.55534312151E+02 -0.50892848100E+02 -0.84140550920E+01  0.75795370155E+02  0.00000000000E+00 0. -1.
        -13    1    5    5    0    0  0.20467124354E+03  0.22699028398E+01  0.53903494614E+02  0.21166260209E+03  0.00000000000E+00 0.  1.
          4    1    6    6  503    0 -0.38605848167E+02  0.18007230985E+03 -0.13345210324E+03  0.22743331363E+03  0.00000000000E+00 0. -1.
         -4    1    6    6    0  503 -0.93404322213E+02  0.85587670518E+02 -0.10317377261E+03  0.16338434474E+03  0.00000000000E+00 0.  1.
<mgrwt>
<rscale>  0 0.42157419E+03</rscale>
<asrwt>0</asrwt>
<pdfrwt beam="1">  1        1 0.14656072E+00 0.42157419E+03</pdfrwt>
<pdfrwt beam="2">  1       -1 0.70798078E-01 0.42157419E+03</pdfrwt>
<totfact> 0.35725004E+01</totfact>
</mgrwt>
</event>
<event>
12    1  0.1432447E-007  0.8132563E+03  0.7818608E-02  0.9541025E-01
         -1   -1    0    0    0  501 -0.00000000000E+00  0.00000000000E+00  0.53028613556E+03  0.53028613556E+03  0.00000000000E+00 0.  1.
          1   -1    0    0  501    0  0.00000000000E+00 -0.00000000000E+00 -0.12906886534E+04  0.12906886534E+04  0.00000000000E+00 0. -1.
         23    2    1    2    0    0 -0.61049672026E+03 -0.36731057104E+03 -0.39683832123E+03  0.82111114924E+03  0.95496414441E+02 0.  0.
    5000000    2    1    2    0    0  0.61049672026E+03  0.36731057104E+03 -0.36356419657E+03  0.99986363967E+03  0.59993755664E+03 0.  0.
         23    2    4    4    0    0 -0.10275441202E+03  0.59603717143E+02 -0.75743570071E+02  0.16618747153E+03  0.88148255800E+02 0.  0.
         23    2    4    4    0    0  0.71325113227E+03  0.30770685390E+03 -0.28782062650E+03  0.83367616814E+03  0.93619200299E+02 0.  0.
          4    1    3    3  502    0 -0.24164665226E+03 -0.13458249637E+03 -0.20687510793E+03  0.34540246548E+03  0.00000000000E+00 0.  1.
         -4    1    3    3    0  502 -0.36885006799E+03 -0.23272807467E+03 -0.18996321330E+03  0.47570868376E+03  0.00000000000E+00 0. -1.
         11    1    5    5    0    0 -0.37577222546E+02  0.58039998624E+02 -0.40178041836E+01  0.69259164339E+02  0.00000000000E+00 0. -1.
        -11    1    5    5    0    0 -0.65177189471E+02  0.15637185189E+01 -0.71725765888E+02  0.96928307192E+02  0.00000000000E+00 0.  1.
          3    1    6    6  503    0  0.49336652452E+03  0.18007913077E+03 -0.15950657722E+03  0.54889103567E+03  0.00000000000E+00 0. -1.
         -3    1    6    6    0  503  0.21988460775E+03  0.12762772312E+03 -0.12831404928E+03  0.28478513247E+03  0.00000000000E+00 0.  1.
<mgrwt>
<rscale>  0 0.81325634E+03</rscale>
<asrwt>0</asrwt>
<pdfrwt beam="1">  1        1 0.19856748E+00 0.81325634E+03</pdfrwt>
<pdfrwt beam="2">  1       -1 0.81582483E-01 0.81325634E+03</pdfrwt>
<totfact> 0.14090558E+01</totfact>
</mgrwt>
</event>
<event>
12    1  0.1432447E-007  0.1465143E+04  0.7818608E-02  0.8907969E-01
         -1   -1    0    0    0  501 -0.00000000000E+00  0.00000000000E+00  0.11036953876E+04  0.11036953876E+04  0.00000000000E+00 0.  1.
          1   -1    0    0  501    0  0.00000000000E+00 -0.00000000000E+00 -0.21707236192E+04  0.21707236192E+04  0.00000000000E+00 0. -1.
         23    2    1    2    0    0  0.54949263733E+03  0.13238256829E+04 -0.90099831884E+02  0.14390447632E+04  0.90968420923E+02 0.  0.
    5000000    2    1    2    0    0 -0.54949263733E+03 -0.13238256829E+04 -0.97692839976E+03  0.18353742435E+04  0.59979406333E+03 0.  0.
         23    2    4    4    0    0 -0.11646350541E+03 -0.82844613203E+03 -0.76738631196E+03  0.11389358172E+04  0.91685888134E+02 0.  0.
         23    2    4    4    0    0 -0.43302913191E+03 -0.49537955088E+03 -0.20954208780E+03  0.69643842637E+03  0.90572990749E+02 0.  0.
          1    1    3    3  502    0  0.37656338189E+03  0.91680416134E+03 -0.20280313132E+02  0.99133301263E+03  0.00000000000E+00 0. -1.
         -1    1    3    3    0  502  0.17292925544E+03  0.40702152157E+03 -0.69819518752E+02  0.44771175058E+03  0.00000000000E+00 0.  1.
         11    1    5    5    0    0 -0.98176857325E+02 -0.63752605322E+03 -0.53816701545E+03  0.84006065279E+03  0.00000000000E+00 0.  1.
        -11    1    5    5    0    0 -0.18286648089E+02 -0.19092007881E+03 -0.22921929651E+03  0.29887516438E+03  0.00000000000E+00 0. -1.
          1    1    6    6  503    0 -0.18813399633E+03 -0.17597369021E+03 -0.11965155983E+03  0.28403808898E+03  0.00000000000E+00 0. -1.
         -1    1    6    6    0  503 -0.24489513558E+03 -0.31940586067E+03 -0.89890527964E+02  0.41240033739E+03  0.00000000000E+00 0.  1.
<mgrwt>
<rscale>  0 0.14651429E+04</rscale>
<asrwt>0</asrwt>
<pdfrwt beam="1">  1        1 0.33395748E+00 0.14651429E+04</pdfrwt>
<pdfrwt beam="2">  1       -1 0.16979929E+00 0.14651429E+04</pdfrwt>
<totfact> 0.53576256E-01</totfact>
</mgrwt>
</event>
<event>
12    1  0.1432447E-007  0.8135693E+03  0.7818608E-02  0.9540581E-01
         -1   -1    0    0    0  501 -0.00000000000E+00  0.00000000000E+00  0.23852011647E+04  0.23852011647E+04  0.00000000000E+00 0.  1.
          1   -1    0    0  501    0  0.00000000000E+00 -0.00000000000E+00 -0.29858540192E+03  0.29858540192E+03  0.00000000000E+00 0. -1.
         23    2    1    2    0    0  0.67978399737E+03 -0.18402547845E+03  0.58249447764E+03  0.91787541029E+03  0.84992896956E+02 0.  0.
    5000000    2    1    2    0    0 -0.67978399737E+03  0.18402547845E+03  0.15041212851E+04  0.17659111563E+04  0.60007475518E+03 0.  0.
         23    2    4    4    0    0 -0.64846789532E+03  0.34276868480E+03  0.11880242279E+04  0.13991511136E+04  0.90671329358E+02 0.  0.
         23    2    4    4    0    0 -0.31316102050E+02 -0.15874320635E+03  0.31609705725E+03  0.36676004277E+03  0.91735901144E+02 0.  0.
          4    1    3    3  502    0  0.65559890751E+03 -0.19070172403E+03  0.57188674683E+03  0.89063546206E+03  0.00000000000E+00 0.  1.
         -4    1    3    3    0  502  0.24185089865E+02  0.66762455794E+01  0.10607730806E+02  0.27239948231E+02  0.00000000000E+00 0. -1.
         13    1    5    5    0    0 -0.10235741567E+03  0.76359278142E+02  0.15678258237E+03  0.20220919374E+03  0.00000000000E+00 0. -1.
        -13    1    5    5    0    0 -0.54611047966E+03  0.26640940665E+03  0.10312416455E+04  0.11969419198E+04  0.00000000000E+00 0.  1.
          4    1    6    6  503    0  0.30217242831E+02 -0.66770278271E+02  0.10004371278E+03  0.12401651621E+03  0.00000000000E+00 0. -1.
         -4    1    6    6    0  503 -0.61533344881E+02 -0.91972928076E+02  0.21605334447E+03  0.24274352656E+03  0.00000000000E+00 0.  1.
<mgrwt>
<rscale>  0 0.81356927E+03</rscale>
<asrwt>0</asrwt>
<pdfrwt beam="1">  1        1 0.45936217E-01 0.81356927E+03</pdfrwt>
<pdfrwt beam="2">  1       -1 0.36695401E+00 0.81356927E+03</pdfrwt>
<totfact> 0.11109597E+00</totfact>
</mgrwt>
</event>
<event>
12    1  0.1432447E-007  0.1385759E+04  0.7818608E-02  0.8964192E-01
          2   -1    0    0  501    0  0.00000000000E+00  0.00000000000E+00  0.13410701181E+04  0.13410701181E+04  0.00000000000E+00 0. -1.
         -2   -1    0    0    0  501 -0.00000000000E+00 -0.00000000000E+00 -0.14735857243E+04  0.14735857243E+04  0.00000000000E+00 0.  1.
         23    2    1    2    0    0 -0.50900228215E+03  0.12394531088E+04 -0.36428483214E+02  0.13434282683E+04  0.90250459124E+02 0.  0.
    5000000    2    1    2    0    0  0.50900228215E+03 -0.12394531088E+04 -0.96087122959E+02  0.14712275742E+04  0.59995875490E+03 0.  0.
         23    2    4    4    0    0 -0.72695362674E+02 -0.46666501706E+02  0.43833369126E+02  0.13341046917E+03  0.91731188253E+02 0.  0.
         23    2    4    4    0    0  0.58169764483E+03 -0.11927866071E+04 -0.13992049209E+03  0.13378171050E+04  0.95209359936E+02 0.  0.
          2    1    3    3  502    0 -0.49527994707E+02  0.20539900882E+03  0.45634119491E+00  0.21128649586E+03  0.00000000000E+00 0. -1.
         -2    1    3    3    0  502 -0.45947428745E+03  0.10340541000E+04 -0.36884824409E+02  0.11321417724E+04  0.00000000000E+00 0.  1.
         11    1    5    5    0    0  0.67011159316E+01  0.34714952012E+01 -0.18987415683E+02  0.20432282985E+02  0.00000000000E+00 0. -1.
        -11    1    5    5    0    0 -0.79396478605E+02 -0.50137996907E+02  0.62820784808E+02  0.11297818618E+03  0.00000000000E+00 0.  1.
          3    1    6    6  503    0  0.38060159915E+03 -0.80345915533E+03 -0.13748557257E+03  0.89961462540E+03  0.00000000000E+00 0. -1.
         -3    1    6    6    0  503  0.20109604568E+03 -0.38932745177E+03 -0.24349195131E+01  0.43820247960E+03  0.00000000000E+00 0.  1.
<mgrwt>
<rscale>  0 0.13857592E+04</rscale>
<asrwt>0</asrwt>
<pdfrwt beam="1">  1        2 0.20631848E+00 0.13857592E+04</pdfrwt>
<pdfrwt beam="2">  1       -2 0.22670550E+00 0.13857592E+04</pdfrwt>
<totfact> 0.13364604E+00</totfact>
</mgrwt>
</event>
<event>
12    1  0.1432447E-007  0.3291875E+03  0.7818608E-02  0.1071497E+00
          2   -1    0    0  501    0  0.00000000000E+00  0.00000000000E+00  0.10808296319E+04  0.10808296319E+04  0.00000000000E+00 0.  1.
         -2   -1    0    0    0  501 -0.00000000000E+00 -0.00000000000E+00 -0.17806507766E+03  0.17806507766E+03  0.00000000000E+00 0. -1.
         23    2    1    2    0    0 -0.56024654593E+02 -0.21131540323E+03  0.21315978698E+03  0.31899361821E+03  0.92341064029E+02 0.  0.
    5000000    2    1    2    0    0  0.56024654593E+02  0.21131540323E+03  0.68960476728E+03  0.93990109138E+03  0.60005530158E+03 0.  0.
         23    2    4    4    0    0  0.13929342867E+03  0.26426118583E+03  0.88951682355E+02  0.32446683268E+03  0.90164794194E+02 0.  0.
         23    2    4    4    0    0 -0.83268774076E+02 -0.52945782596E+02  0.60065308493E+03  0.61543425870E+03  0.90764826440E+02 0.  0.
          3    1    3    3  502    0 -0.19962808064E+02 -0.50465131990E+02  0.65233992126E+01  0.54660753653E+02  0.00000000000E+00 0. -1.
         -3    1    3    3    0  502 -0.36061846529E+02 -0.16085027124E+03  0.20663638777E+03  0.26433286455E+03  0.00000000000E+00 0.  1.
         11    1    5    5    0    0  0.70678466711E+02  0.70576794862E+02 -0.16587191174E+01  0.99896351179E+02  0.00000000000E+00 0.  1.
        -11    1    5    5    0    0  0.68614961957E+02  0.19368439096E+03  0.90610401473E+02  0.22457048150E+03  0.00000000000E+00 0. -1.
          1    1    6    6  503    0 -0.62856904375E+02 -0.78902349823E+02  0.46556021099E+03  0.47636423175E+03  0.00000000000E+00 0.  1.
         -1    1    6    6    0  503 -0.20411869701E+02  0.25956567227E+02  0.13509287393E+03  0.13907002695E+03  0.00000000000E+00 0. -1.
<mgrwt>
<rscale>  0 0.32918747E+03</rscale>
<asrwt>0</asrwt>
<pdfrwt beam="1">  1        2 0.16628148E+00 0.32918747E+03</pdfrwt>
<pdfrwt beam="2">  1       -2 0.27394628E-01 0.32918747E+03</pdfrwt>
<totfact> 0.28316038E+02</totfact>
</mgrwt>
</event>
<event>
12    1  0.1432447E-007  0.5689803E+03  0.7818608E-02  0.9971938E-01
         -1   -1    0    0    0  501 -0.00000000000E+00  0.00000000000E+00  0.25152007420E+03  0.25152007420E+03  0.00000000000E+00 0.  1.
          1   -1    0    0  501    0  0.00000000000E+00 -0.00000000000E+00 -0.15356941154E+04  0.15356941154E+04  0.00000000000E+00 0. -1.
         23    2    1    2    0    0 -0.89116777496E+02  0.40698374919E+03 -0.18141725130E+03  0.46447888897E+03  0.96181324041E+02 0.  0.
    5000000    2    1    2    0    0  0.89116777496E+02 -0.40698374919E+03 -0.11027567899E+04  0.13227353006E+04  0.59998213786E+03 0.  0.
         23    2    4    4    0    0  0.21413515046E+03 -0.49463751415E+03 -0.90085401716E+03  0.10537166315E+04  0.90888097703E+02 0.  0.
         23    2    4    4    0    0 -0.12501837297E+03  0.87653764962E+02 -0.20190277272E+03  0.26901866907E+03  0.91068867262E+02 0.  0.
          4    1    3    3  502    0 -0.28066348123E+02  0.38792376835E+02  0.34095467445E+01  0.48002014608E+02  0.00000000000E+00 0. -1.
         -4    1    3    3    0  502 -0.61050429373E+02  0.36819137235E+03 -0.18482679805E+03  0.41647687436E+03  0.00000000000E+00 0.  1.
         11    1    5    5    0    0  0.12256924593E+03 -0.17601496334E+03 -0.32992403488E+03  0.39351538237E+03  0.00000000000E+00 0. -1.
        -11    1    5    5    0    0  0.91565904531E+02 -0.31862255080E+03 -0.57092998228E+03  0.66020124918E+03  0.00000000000E+00 0.  1.
          1    1    6    6  503    0  0.10402042655E+02  0.19185683758E+01  0.79684812036E+00  0.10607467320E+02  0.00000000000E+00 0. -1.
         -1    1    6    6    0  503 -0.13542041562E+03  0.85735196587E+02 -0.20269962084E+03  0.25841120175E+03  0.00000000000E+00 0.  1.
<mgrwt>
<rscale>  0 0.56898028E+03</rscale>
<asrwt>0</asrwt>
<pdfrwt beam="1">  1        1 0.23626064E+00 0.56898028E+03</pdfrwt>
<pdfrwt beam="2">  1       -1 0.38695395E-01 0.56898028E+03</pdfrwt>
<totfact> 0.42178712E+01</totfact>
</mgrwt>
</event>
<event>
12    1  0.1432447E-007  0.6354014E+03  0.7818608E-02  0.9834565E-01
         -1   -1    0    0    0  501 -0.00000000000E+00  0.00000000000E+00  0.11520062374E+04  0.11520062374E+04  0.00000000000E+00 0. -1.
          1   -1    0    0  501    0  0.00000000000E+00 -0.00000000000E+00 -0.68435524309E+03  0.68435524309E+03  0.00000000000E+00 0.  1.
         23    2    1    2    0    0 -0.29268581420E+03  0.43656113348E+03  0.80890976190E+03  0.96916077701E+03  0.93204075614E+02 0.  0.
    5000000    2    1    2    0    0  0.29268581420E+03 -0.43656113348E+03 -0.34125876764E+03  0.86720070343E+03  0.59944049283E+03 0.  0.
         23    2    4    4    0    0  0.34630469155E+03 -0.50876326128E+03 -0.15065160368E+03  0.63925917001E+03  0.84790243158E+02 0.  0.
         23    2    4    4    0    0 -0.53618877353E+02  0.72202127800E+02 -0.19060716396E+03  0.22794153342E+03  0.86822349882E+02 0.  0.
          3    1    3    3  502    0 -0.26526376053E+03  0.34774149016E+03  0.70587855716E+03  0.83039360792E+03  0.00000000000E+00 0. -1.
         -3    1    3    3    0  502 -0.27422053674E+02  0.88819643318E+02  0.10303120474E+03  0.13876716909E+03  0.00000000000E+00 0.  1.
         11    1    5    5    0    0  0.11665952933E+03 -0.23747952881E+03 -0.84265645088E+02  0.27768088038E+03  0.00000000000E+00 0. -1.
        -11    1    5    5    0    0  0.22964516222E+03 -0.27128373246E+03 -0.66385958588E+02  0.36157828962E+03  0.00000000000E+00 0.  1.
          1    1    6    6  503    0 -0.65144701895E+02  0.21703586663E+02 -0.77528841624E+02  0.10356446853E+03  0.00000000000E+00 0. -1.
         -1    1    6    6    0  503  0.11525824542E+02  0.50498541137E+02 -0.11307832234E+03  0.12437706489E+03  0.00000000000E+00 0.  1.
<mgrwt>
<rscale>  0 0.63540139E+03</rscale>
<asrwt>0</asrwt>
<pdfrwt beam="1">  1        1 0.10528542E+00 0.63540139E+03</pdfrwt>
<pdfrwt beam="2">  1       -1 0.17723173E+00 0.63540139E+03</pdfrwt>
<totfact> 0.64655208E+00</totfact>
</mgrwt>
</event>
<event>
12    1  0.1432447E-007  0.5397727E+03  0.7818608E-02  0.1003889E+00
         -1   -1    0    0    0  501 -0.00000000000E+00  0.00000000000E+00  0.44742534733E+03  0.44742534733E+03  0.00000000000E+00 0.  1.
          1   -1    0    0  501    0  0.00000000000E+00 -0.00000000000E+00 -0.71873593505E+03  0.71873593505E+03  0.00000000000E+00 0. -1.
         23    2    1    2    0    0 -0.26661969402E+03 -0.30010374062E+03 -0.81434755263E+02  0.41956308637E+03  0.90847386867E+02 0.  0.
    5000000    2    1    2    0    0  0.26661969402E+03  0.30010374062E+03 -0.18987583245E+03  0.74659819601E+03  0.60017307351E+03 0.  0.
         23    2    4    4    0    0 -0.40960378322E+02 -0.11484183629E+03 -0.16058405220E+03  0.22130347899E+03  0.91222760523E+02 0.  0.
         23    2    4    4    0    0  0.30758007235E+03  0.41494557692E+03 -0.29291780253E+02  0.52529471702E+03  0.91056019202E+02 0.  0.
          3    1    3    3  502    0 -0.73587469350E+02 -0.14886708175E+03 -0.40752188968E+02  0.17098907737E+03  0.00000000000E+00 0. -1.
         -3    1    3    3    0  502 -0.19303222467E+03 -0.15123665888E+03 -0.40682566295E+02  0.24857400900E+03  0.00000000000E+00 0.  1.
         13    1    5    5    0    0  0.26142597135E+02 -0.40322461133E+02 -0.29973562831E+02  0.56637008445E+02  0.00000000000E+00 0.  1.
        -13    1    5    5    0    0 -0.67102975457E+02 -0.74519375161E+02 -0.13061048937E+03  0.16466647055E+03  0.00000000000E+00 0. -1.
          4    1    6    6  503    0  0.40018474662E+02  0.93447854600E+02 -0.33405525514E+02  0.10700424748E+03  0.00000000000E+00 0. -1.
         -4    1    6    6    0  503  0.26756159768E+03  0.32149772232E+03  0.41137452608E+01  0.41829046954E+03  0.00000000000E+00 0.  1.
<mgrwt>
<rscale>  0 0.53977270E+03</rscale>
<asrwt>0</asrwt>
<pdfrwt beam="1">  1        1 0.11057476E+00 0.53977270E+03</pdfrwt>
<pdfrwt beam="2">  1       -1 0.68834669E-01 0.53977270E+03</pdfrwt>
<totfact> 0.58330890E+01</totfact>
</mgrwt>
</event>
<event>
12    1  0.1432447E-007  0.8648692E+03  0.7818608E-02  0.9470595E-01
         -1   -1    0    0    0  501 -0.00000000000E+00  0.00000000000E+00  0.21656238890E+04  0.21656238890E+04  0.00000000000E+00 0.  1.
          1   -1    0    0  501    0  0.00000000000E+00 -0.00000000000E+00 -0.68658328561E+03  0.68658328561E+03  0.00000000000E+00 0. -1.
         23    2    1    2    0    0 -0.40960565405E+03 -0.64945000341E+03 -0.29558981218E+03  0.82764329955E+03  0.89766338103E+02 0.  0.
    5000000    2    1    2    0    0  0.40960565405E+03  0.64945000341E+03  0.17746304156E+04  0.20245638751E+04  0.59998639451E+03 0.  0.
         23    2    4    4    0    0  0.33002449724E+03  0.32707460331E+02  0.55706160316E+03  0.65443272033E+03  0.89323059577E+02 0.  0.
         23    2    4    4    0    0  0.79581156808E+02  0.61674254308E+03  0.12175688124E+04  0.13701311548E+04  0.89894623212E+02 0.  0.
          2    1    3    3  502    0 -0.19836779175E+03 -0.35932201091E+03 -0.19815144408E+03  0.45576976986E+03  0.00000000000E+00 0. -1.
         -2    1    3    3    0  502 -0.21123786230E+03 -0.29012799251E+03 -0.97438368105E+02  0.37187352969E+03  0.00000000000E+00 0.  1.
         13    1    5    5    0    0  0.50598492123E+02 -0.16211699406E+01  0.15909141089E+03  0.16695182723E+03  0.00000000000E+00 0. -1.
        -13    1    5    5    0    0  0.27942600512E+03  0.34328630272E+02  0.39797019228E+03  0.48748089310E+03  0.00000000000E+00 0.  1.
          3    1    6    6  503    0  0.77840615656E+02  0.25727412447E+03  0.52990103385E+03  0.59417526222E+03  0.00000000000E+00 0. -1.
         -3    1    6    6    0  503  0.17405411516E+01  0.35946841861E+03  0.68766777859E+03  0.77595589255E+03  0.00000000000E+00 0.  1.
<mgrwt>
<rscale>  0 0.86486920E+03</rscale>
<asrwt>0</asrwt>
<pdfrwt beam="1">  1        1 0.10562820E+00 0.86486920E+03</pdfrwt>
<pdfrwt beam="2">  1       -1 0.33317290E+00 0.86486920E+03</pdfrwt>
<totfact> 0.58604735E-01</totfact>
</mgrwt>
</event>
<event>
12    1  0.1432447E-007  0.3653506E+03  0.7818608E-02  0.1056485E+00
         -2   -1    0    0    0  501 -0.00000000000E+00  0.00000000000E+00  0.10443455010E+03  0.10443455010E+03  0.00000000000E+00 0. -1.
          2   -1    0    0  501    0  0.00000000000E+00 -0.00000000000E+00 -0.17632408297E+04  0.17632408297E+04  0.00000000000E+00 0.  1.
         23    2    1    2    0    0  0.47623110008E+01  0.15787729605E+03 -0.71696436035E+03  0.73984273120E+03  0.91550274072E+02 0.  0.
    5000000    2    1    2    0    0 -0.47623110008E+01 -0.15787729605E+03 -0.94184191927E+03  0.11278326486E+04  0.59999363511E+03 0.  0.
         23    2    4    4    0    0 -0.11322872063E+03  0.18148053547E+03 -0.22794847882E+03  0.32479830768E+03  0.88190156728E+02 0.  0.
         23    2    4    4    0    0  0.10846640963E+03 -0.33935783152E+03 -0.71389344045E+03  0.80303434094E+03  0.91058270179E+02 0.  0.
          3    1    3    3  502    0 -0.61981288038E+01  0.10534921077E+02 -0.58670622140E+01  0.13558162921E+02  0.00000000000E+00 0. -1.
         -3    1    3    3    0  502  0.10960439805E+02  0.14734237497E+03 -0.71109729814E+03  0.72628456828E+03  0.00000000000E+00 0.  1.
         13    1    5    5    0    0 -0.72620346557E+01  0.13344337380E+02  0.72842304226E+01  0.16848397559E+02  0.00000000000E+00 0. -1.
        -13    1    5    5    0    0 -0.10596668597E+03  0.16813619809E+03 -0.23523270924E+03  0.30794991012E+03  0.00000000000E+00 0.  1.
          2    1    6    6  503    0  0.47750359909E+02 -0.11896820350E+03 -0.16890639339E+03  0.21204457089E+03  0.00000000000E+00 0. -1.
         -2    1    6    6    0  503  0.60716049719E+02 -0.22038962802E+03 -0.54498704706E+03  0.59098977005E+03  0.00000000000E+00 0.  1.
<mgrwt>
<rscale>  0 0.36535058E+03</rscale>
<asrwt>0</asrwt>
<pdfrwt beam="1">  1        2 0.27126783E+00 0.36535058E+03</pdfrwt>
<pdfrwt beam="2">  1       -2 0.16066853E-01 0.36535058E+03</pdfrwt>
<totfact> 0.29865746E+02</totfact>
</mgrwt>
</event>
<event>
12    1  0.1432447E-007  0.1061868E+04  0.7818608E-02  0.9243176E-01
         -1   -1    0    0    0  501 -0.00000000000E+00  0.00000000000E+00  0.62843373106E+03  0.62843373106E+03  0.00000000000E+00 0.  1.
          1   -1    0    0  501    0  0.00000000000E+00 -0.00000000000E+00 -0.20436579351E+04  0.20436579351E+04  0.00000000000E+00 0. -1.
         23    2    1    2    0    0 -0.47313494280E+02  0.98603648334E+03 -0.23216261345E+03  0.10186560021E+04  0.96198016140E+02 0.  0.
    5000000    2    1    2    0    0  0.47313494280E+02 -0.98603648334E+03 -0.11830615906E+04  0.16534356640E+04  0.59975682974E+03 0.  0.
         23    2    4    4    0    0  0.23592107296E+03 -0.17516305126E+03 -0.41642552058E+03  0.51802596174E+03  0.92735298856E+02 0.  0.
         23    2    4    4    0    0 -0.18860757868E+03 -0.81087343208E+03 -0.76663606998E+03  0.11354097023E+04  0.91300529462E+02 0.  0.
          1    1    3    3  502    0 -0.42498328392E+01  0.39667693467E+03 -0.13945239475E+03  0.42049687511E+03  0.00000000000E+00 0. -1.
         -1    1    3    3    0  502 -0.43063661441E+02  0.58935954868E+03 -0.92710218703E+02  0.59815912699E+03  0.00000000000E+00 0.  1.
         13    1    5    5    0    0  0.12093474067E+03 -0.12452622450E+03 -0.30071372559E+03  0.34721857216E+03  0.00000000000E+00 0. -1.
        -13    1    5    5    0    0  0.11498633229E+03 -0.50636826761E+02 -0.11571179499E+03  0.17080738959E+03  0.00000000000E+00 0.  1.
          3    1    6    6  503    0  0.91405111166E+01 -0.41775703674E+02 -0.49449978036E+02  0.65376285369E+02  0.00000000000E+00 0. -1.
         -3    1    6    6    0  503 -0.19774808979E+03 -0.76909772841E+03 -0.71718609195E+03  0.10700334169E+04  0.00000000000E+00 0.  1.
<mgrwt>
<rscale>  0 0.10618677E+04</rscale>
<asrwt>0</asrwt>
<pdfrwt beam="1">  1        1 0.31440891E+00 0.10618677E+04</pdfrwt>
<pdfrwt beam="2">  1       -1 0.96682114E-01 0.10618677E+04</pdfrwt>
<totfact> 0.28742957E+00</totfact>
</mgrwt>
</event>
<event>
12    1  0.1432447E-007  0.7080457E+03  0.7818608E-02  0.9703571E-01
          2   -1    0    0  501    0  0.00000000000E+00  0.00000000000E+00  0.68624619387E+03  0.68624619387E+03  0.00000000000E+00 0. -1.
         -2   -1    0    0    0  501 -0.00000000000E+00 -0.00000000000E+00 -0.22252705350E+04  0.22252705350E+04  0.00000000000E+00 0.  1.
         23    2    1    2    0    0  0.38705040888E+03  0.48793652350E+03 -0.18795274802E+04  0.19823063420E+04  0.94999023889E+02 0.  0.
    5000000    2    1    2    0    0 -0.38705040888E+03 -0.48793652350E+03  0.34050313908E+03  0.92921038690E+03  0.59966614497E+03 0.  0.
         23    2    4    4    0    0 -0.13575711990E+03 -0.51081821788E+03  0.57351768794E+02  0.53955321985E+03  0.91995675668E+02 0.  0.
         23    2    4    4    0    0 -0.25129328899E+03  0.22881694383E+02  0.28315137029E+03  0.38965716705E+03  0.89365095606E+02 0.  0.
          1    1    3    3  502    0  0.23078794621E+03  0.21521062691E+03 -0.96177914524E+03  0.10122241917E+04  0.00000000000E+00 0. -1.
         -1    1    3    3    0  502  0.15626246267E+03  0.27272589659E+03 -0.91774833498E+03  0.97008215027E+03  0.00000000000E+00 0.  1.
         13    1    5    5    0    0 -0.10550857700E+03 -0.43753153946E+03  0.79933590612E+02  0.45711627268E+03  0.00000000000E+00 0. -1.
        -13    1    5    5    0    0 -0.30248542893E+02 -0.73286678425E+02 -0.22581821817E+02  0.82436947168E+02  0.00000000000E+00 0.  1.
          3    1    6    6  503    0 -0.21767592120E+03  0.36252728020E+02  0.27496072078E+03  0.35256271064E+03  0.00000000000E+00 0. -1.
         -3    1    6    6    0  503 -0.33617367791E+02 -0.13371033637E+02  0.81906495069E+01  0.37094456419E+02  0.00000000000E+00 0.  1.
<mgrwt>
<rscale>  0 0.70804569E+03</rscale>
<asrwt>0</asrwt>
<pdfrwt beam="1">  1        2 0.10557634E+00 0.70804569E+03</pdfrwt>
<pdfrwt beam="2">  1       -2 0.34234931E+00 0.70804569E+03</pdfrwt>
<totfact> 0.77585458E-01</totfact>
</mgrwt>
</event>
<event>
12    1  0.1432447E-007  0.3621470E+03  0.7818608E-02  0.1057737E+00
         -2   -1    0    0    0  501 -0.00000000000E+00  0.00000000000E+00  0.13458093528E+03  0.13458093528E+03  0.00000000000E+00 0.  1.
          2   -1    0    0  501    0  0.00000000000E+00 -0.00000000000E+00 -0.28875158883E+04  0.28875158883E+04  0.00000000000E+00 0. -1.
         23    2    1    2    0    0  0.73464797411E+02  0.19831617610E+03 -0.20915244211E+04  0.21043199474E+04  0.94666017034E+02 0.  0.
    5000000    2    1    2    0    0 -0.73464797411E+02 -0.19831617610E+03 -0.66141053192E+03  0.91777687619E+03  0.60010342490E+03 0.  0.
         23    2    4    4    0    0  0.17168064145E+03 -0.19741786842E+03 -0.58099554231E+03  0.64369538042E+03  0.91322862241E+02 0.  0.
         23    2    4    4    0    0 -0.24514543886E+03 -0.89830768023E+00 -0.80414989609E+02  0.27408149577E+03  0.92504068108E+02 0.  0.
          1    1    3    3  502    0  0.56197479087E+02  0.88674698606E+02 -0.14014243915E+04  0.14053510892E+04  0.00000000000E+00 0. -1.
         -1    1    3    3    0  502  0.17267318324E+02  0.10964147750E+03 -0.69010002961E+03  0.69896885820E+03  0.00000000000E+00 0.  1.
         11    1    5    5    0    0  0.10770488079E+03 -0.10244448734E+03 -0.42454367261E+03  0.44981389962E+03  0.00000000000E+00 0. -1.
        -11    1    5    5    0    0  0.63975760664E+02 -0.94973381083E+02 -0.15645186969E+03  0.19388148080E+03  0.00000000000E+00 0.  1.
          3    1    6    6  503    0 -0.47070190705E+02  0.91033635179E+00 -0.58047433387E+02  0.74739120199E+02  0.00000000000E+00 0. -1.
         -3    1    6    6    0  503 -0.19807524816E+03 -0.18086440320E+01 -0.22367556222E+02  0.19934237557E+03  0.00000000000E+00 0.  1.
<mgrwt>
<rscale>  0 0.36214696E+03</rscale>
<asrwt>0</asrwt>
<pdfrwt beam="1">  1        2 0.44423321E+00 0.36214696E+03</pdfrwt>
<pdfrwt beam="2">  1       -2 0.20704760E-01 0.36214696E+03</pdfrwt>
<totfact> 0.46832728E+01</totfact>
</mgrwt>
</event>
<event>
12    1  0.1432447E-007  0.1259029E+04  0.7818608E-02  0.9062702E-01
          2   -1    0    0  501    0  0.00000000000E+00  0.00000000000E+00  0.18181241490E+04  0.18181241490E+04  0.00000000000E+00 0. -1.
         -2   -1    0    0    0  501 -0.00000000000E+00 -0.00000000000E+00 -0.10544513065E+04  0.10544513065E+04  0.00000000000E+00 0.  1.
         23    2    1    2    0    0  0.31130609222E+03 -0.11800337820E+04  0.88099063254E+03  0.15079386636E+04  0.91341713509E+02 0.  0.
    5000000    2    1    2    0    0 -0.31130609222E+03  0.11800337820E+04 -0.11731779013E+03  0.13646367919E+04  0.59923192521E+03 0.  0.
         23    2    4    4    0    0 -0.11827338656E+03  0.32946660692E+02 -0.12328059914E+03  0.19792894859E+03  0.94359345828E+02 0.  0.
         23    2    4    4    0    0 -0.19303270566E+03  0.11470871214E+04  0.59628090144E+01  0.11667078433E+04  0.90006373125E+02 0.  0.
          4    1    3    3  502    0  0.94123886895E+02 -0.33303254092E+03  0.20064482546E+03  0.40003540516E+03  0.00000000000E+00 0. -1.
         -4    1    3    3    0  502  0.21718220533E+03 -0.84700124113E+03  0.68034580708E+03  0.11079032584E+04  0.00000000000E+00 0.  1.
         11    1    5    5    0    0 -0.36458458649E+00 -0.91528162212E+01 -0.54135171711E+02  0.54904679062E+02  0.00000000000E+00 0.  1.
        -11    1    5    5    0    0 -0.11790880197E+03  0.42099476914E+02 -0.69145427434E+02  0.14302426953E+03  0.00000000000E+00 0. -1.
          2    1    6    6  503    0 -0.34323784348E+02  0.19769623011E+03 -0.33025780194E+02  0.20335344534E+03  0.00000000000E+00 0. -1.
         -2    1    6    6    0  503 -0.15870892132E+03  0.94939089124E+03  0.38988589209E+02  0.96335439801E+03  0.00000000000E+00 0.  1.
<mgrwt>
<rscale>  0 0.12590292E+04</rscale>
<asrwt>0</asrwt>
<pdfrwt beam="1">  1        2 0.27971141E+00 0.12590292E+04</pdfrwt>
<pdfrwt beam="2">  1       -2 0.16222328E+00 0.12590292E+04</pdfrwt>
<totfact> 0.19745735E+00</totfact>
</mgrwt>
</event>
<event>
12    1  0.1432447E-007  0.5370764E+03  0.7818608E-02  0.1004530E+00
         -1   -1    0    0    0  501 -0.00000000000E+00  0.00000000000E+00  0.21976468331E+03  0.21976468331E+03  0.00000000000E+00 0.  1.
          1   -1    0    0  501    0  0.00000000000E+00 -0.00000000000E+00 -0.16401670564E+04  0.16401670564E+04  0.00000000000E+00 0. -1.
         23    2    1    2    0    0 -0.40096063932E+03  0.14891483501E+03 -0.34863731066E+03  0.55930663362E+03  0.91273619671E+02 0.  0.
    5000000    2    1    2    0    0  0.40096063932E+03 -0.14891483501E+03 -0.10717650624E+04  0.13006251060E+04  0.60000021265E+03 0.  0.
         23    2    4    4    0    0  0.10879423837E+03  0.16928513755E+03 -0.66365529396E+03  0.69962157538E+03  0.92403222014E+02 0.  0.
         23    2    4    4    0    0  0.29216640095E+03 -0.31819997256E+03 -0.40810976842E+03  0.60100353067E+03  0.89661766765E+02 0.  0.
          3    1    3    3  502    0 -0.16660305032E+03  0.95270265633E+02 -0.11324971958E+03  0.22284186966E+03  0.00000000000E+00 0. -1.
         -3    1    3    3    0  502 -0.23435758900E+03  0.53644569381E+02 -0.23538759108E+03  0.33646476395E+03  0.00000000000E+00 0.  1.
         11    1    5    5    0    0  0.92444292030E+02  0.12514468382E+03 -0.35778177965E+03  0.39014733225E+03  0.00000000000E+00 0. -1.
        -11    1    5    5    0    0  0.16349946343E+02  0.44140453728E+02 -0.30587351431E+03  0.30947424313E+03  0.00000000000E+00 0.  1.
          4    1    6    6  503    0  0.12729653331E+03 -0.19692877214E+03 -0.18901112069E+03  0.30118192581E+03  0.00000000000E+00 0.  1.
         -4    1    6    6    0  503  0.16486986764E+03 -0.12127120042E+03 -0.21909864772E+03  0.29982160486E+03  0.00000000000E+00 0. -1.
<mgrwt>
<rscale>  0 0.53707639E+03</rscale>
<asrwt>0</asrwt>
<pdfrwt beam="1">  1        1 0.25233339E+00 0.53707639E+03</pdfrwt>
<pdfrwt beam="2">  1       -1 0.33809951E-01 0.53707639E+03</pdfrwt>
<totfact> 0.45843901E+01</totfact>
</mgrwt>
</event>
<event>
12    1  0.1432447E-007  0.8049722E+03  0.7818608E-02  0.9552848E-01
          1   -1    0    0  501    0  0.00000000000E+00  0.00000000000E+00  0.87450714916E+03  0.87450714916E+03  0.00000000000E+00 0. -1.
         -1   -1    0    0    0  501 -0.00000000000E+00 -0.00000000000E+00 -0.76614580428E+03  0.76614580428E+03  0.00000000000E+00 0.  1.
         23    2    1    2    0    0 -0.50437255364E+03 -0.48148579898E+03 -0.57716610529E+02  0.70557880584E+03  0.91049418629E+02 0.  0.
    5000000    2    1    2    0    0  0.50437255364E+03  0.48148579898E+03  0.16607795541E+03  0.93507414761E+03  0.60046775664E+03 0.  0.
         23    2    4    4    0    0  0.57771928623E+02  0.44355848410E+03  0.14060006075E+03  0.47723624237E+03  0.88906295580E+02 0.  0.
         23    2    4    4    0    0  0.44660062502E+03  0.37927314885E+02  0.25477894660E+02  0.45783790524E+03  0.89865593400E+02 0.  0.
          3    1    3    3  502    0 -0.40055940507E+03 -0.32724310304E+03 -0.46195900238E+02  0.51929755119E+03  0.00000000000E+00 0. -1.
         -3    1    3    3    0  502 -0.10381314858E+03 -0.15424269594E+03 -0.11520710291E+02  0.18628125465E+03  0.00000000000E+00 0.  1.
         11    1    5    5    0    0  0.78279111966E+02  0.27348424651E+03  0.95862427051E+02  0.30018470544E+03  0.00000000000E+00 0. -1.
        -11    1    5    5    0    0 -0.20507183343E+02  0.17007423758E+03  0.44737633697E+02  0.17705153692E+03  0.00000000000E+00 0.  1.
          2    1    6    6  503    0  0.11575594418E+03  0.32051877711E+02 -0.26184220249E+02  0.12293239959E+03  0.00000000000E+00 0. -1.
         -2    1    6    6    0  503  0.33084468084E+03  0.58754371743E+01  0.51662114909E+02  0.33490550565E+03  0.00000000000E+00 0.  1.
<mgrwt>
<rscale>  0 0.80497221E+03</rscale>
<asrwt>0</asrwt>
<pdfrwt beam="1">  1        1 0.13453956E+00 0.80497221E+03</pdfrwt>
<pdfrwt beam="2">  1       -1 0.11786859E+00 0.80497221E+03</pdfrwt>
<totfact> 0.12642981E+01</totfact>
</mgrwt>
</event>
<event>
12    1  0.1432447E-007  0.1073370E+04  0.7818608E-02  0.9231543E-01
          2   -1    0    0  501    0  0.00000000000E+00  0.00000000000E+00  0.18137541339E+04  0.18137541339E+04  0.00000000000E+00 0. -1.
         -2   -1    0    0    0  501 -0.00000000000E+00 -0.00000000000E+00 -0.22015581067E+04  0.22015581067E+04  0.00000000000E+00 0.  1.
         23    2    1    2    0    0  0.99527525962E+03 -0.24267532028E+02 -0.18766773830E+04  0.21264267143E+04  0.92794481165E+02 0.  0.
    5000000    2    1    2    0    0 -0.99527525962E+03  0.24267532028E+02  0.14888734102E+04  0.18888855263E+04  0.59998562013E+03 0.  0.
         23    2    4    4    0    0 -0.17925009187E+03  0.23528751794E+03  0.32091817407E+03  0.44551798387E+03  0.89481774483E+02 0.  0.
         23    2    4    4    0    0 -0.81602516775E+03 -0.21101998592E+03  0.11679552361E+04  0.14433675424E+04  0.93615811233E+02 0.  0.
          1    1    3    3  502    0  0.87497514804E+03 -0.25540629655E+02 -0.15798461999E+04  0.18061417023E+04  0.00000000000E+00 0. -1.
         -1    1    3    3    0  502  0.12030011158E+03  0.12730976268E+01 -0.29683118317E+03  0.32028501202E+03  0.00000000000E+00 0.  1.
         11    1    5    5    0    0 -0.14063622487E+03  0.12710940810E+03  0.23581855832E+03  0.30256526870E+03  0.00000000000E+00 0. -1.
        -11    1    5    5    0    0 -0.38613867003E+02  0.10817810984E+03  0.85099615753E+02  0.14295271517E+03  0.00000000000E+00 0.  1.
          4    1    6    6  503    0 -0.68684733403E+03 -0.14665194304E+03  0.99875472562E+03  0.12209738141E+04  0.00000000000E+00 0. -1.
         -4    1    6    6    0  503 -0.12917783371E+03 -0.64368042875E+02  0.16920051050E+03  0.22239372837E+03  0.00000000000E+00 0.  1.
<mgrwt>
<rscale>  0 0.10733698E+04</rscale>
<asrwt>0</asrwt>
<pdfrwt beam="1">  1        2 0.27903910E+00 0.10733698E+04</pdfrwt>
<pdfrwt beam="2">  1       -2 0.33870124E+00 0.10733698E+04</pdfrwt>
<totfact> 0.15539621E-01</totfact>
</mgrwt>
</event>
<event>
12    1  0.1432447E-007  0.1094363E+04  0.7818608E-02  0.9210704E-01
         -2   -1    0    0    0  501 -0.00000000000E+00  0.00000000000E+00  0.10928204303E+04  0.10928204303E+04  0.00000000000E+00 0.  1.
          2   -1    0    0  501    0  0.00000000000E+00 -0.00000000000E+00 -0.15785316938E+04  0.15785316938E+04  0.00000000000E+00 0. -1.
         23    2    1    2    0    0  0.60433974008E+03  0.85020025666E+03  0.45730452878E+03  0.11424881694E+04  0.89915444980E+02 0.  0.
    5000000    2    1    2    0    0 -0.60433974008E+03 -0.85020025666E+03 -0.94301579236E+03  0.15288639547E+04  0.60006600438E+03 0.  0.
         23    2    4    4    0    0 -0.25613652084E+03 -0.71206369621E+03 -0.83277201544E+03  0.11290940917E+04  0.93293158952E+02 0.  0.
         23    2    4    4    0    0 -0.34820321924E+03 -0.13813656045E+03 -0.11024377692E+03  0.39976986302E+03  0.85644975367E+02 0.  0.
          3    1    3    3  502    0  0.13870557862E+03  0.13621983340E+03  0.77095525768E+02  0.20913823334E+03  0.00000000000E+00 0. -1.
         -3    1    3    3    0  502  0.46563416146E+03  0.71398042325E+03  0.38020900301E+03  0.93334993603E+03  0.00000000000E+00 0.  1.
         13    1    5    5    0    0 -0.19953005842E+03 -0.63242657332E+03 -0.74904304144E+03  0.10004204580E+04  0.00000000000E+00 0.  1.
        -13    1    5    5    0    0 -0.56606462422E+02 -0.79637122884E+02 -0.83728974007E+02  0.12867363373E+03  0.00000000000E+00 0. -1.
          4    1    6    6  503    0 -0.40112745140E+02 -0.42553918832E+02  0.11793715221E+01  0.58491531419E+02  0.00000000000E+00 0. -1.
         -4    1    6    6    0  503 -0.30809047410E+03 -0.95582641620E+02 -0.11142314844E+03  0.34127833160E+03  0.00000000000E+00 0.  1.
<mgrwt>
<rscale>  0 0.10943629E+04</rscale>
<asrwt>0</asrwt>
<pdfrwt beam="1">  1        2 0.24285103E+00 0.10943629E+04</pdfrwt>
<pdfrwt beam="2">  1       -2 0.16812622E+00 0.10943629E+04</pdfrwt>
<totfact> 0.24748379E+00</totfact>
</mgrwt>
</event>
<event>
12    1  0.1432447E-007  0.4768957E+03  0.7818608E-02  0.1019992E+00
          2   -1    0    0  501    0  0.00000000000E+00  0.00000000000E+00  0.21237531233E+04  0.21237531233E+04  0.00000000000E+00 0. -1.
         -2   -1    0    0    0  501 -0.00000000000E+00 -0.00000000000E+00 -0.26692160946E+03  0.26692160946E+03  0.00000000000E+00 0.  1.
         23    2    1    2    0    0  0.41892832282E+03 -0.14466212177E+03  0.75263092069E+02  0.45923733187E+03  0.93842020571E+02 0.  0.
    5000000    2    1    2    0    0 -0.41892832282E+03  0.14466212177E+03  0.17815684218E+04  0.19314374009E+04  0.60003026837E+03 0.  0.
         23    2    4    4    0    0 -0.28390458446E+02  0.38564497040E+02  0.12632830310E+04  0.12674686275E+04  0.91101408948E+02 0.  0.
         23    2    4    4    0    0 -0.39053786437E+03  0.10609762473E+03  0.51828539079E+03  0.66396877341E+03  0.91968778792E+02 0.  0.
          4    1    3    3  502    0  0.30745674963E+03 -0.89736234118E+02  0.13756032969E+02  0.32057990120E+03  0.00000000000E+00 0. -1.
         -4    1    3    3    0  502  0.11147157318E+03 -0.54925887649E+02  0.61507059101E+02  0.13865743067E+03  0.00000000000E+00 0.  1.
         11    1    5    5    0    0  0.27408189088E+02  0.34594530182E+02  0.70820544544E+03  0.70957941296E+03  0.00000000000E+00 0. -1.
        -11    1    5    5    0    0 -0.55798647534E+02  0.39699668583E+01  0.55507758557E+03  0.55788921455E+03  0.00000000000E+00 0.  1.
          1    1    6    6  503    0 -0.54150759045E+02  0.37457011596E+02  0.12962650483E+03  0.14539038200E+03  0.00000000000E+00 0. -1.
         -1    1    6    6    0  503 -0.33638710533E+03  0.68640613130E+02  0.38865888596E+03  0.51857839141E+03  0.00000000000E+00 0.  1.
<mgrwt>
<rscale>  0 0.47689568E+03</rscale>
<asrwt>0</asrwt>
<pdfrwt beam="1">  1        2 0.32673124E+00 0.47689568E+03</pdfrwt>
<pdfrwt beam="2">  1       -2 0.41064864E-01 0.47689568E+03</pdfrwt>
<totfact> 0.34644111E+01</totfact>
</mgrwt>
</event>
<event>
12    1  0.1432447E-007  0.9781444E+03  0.7818608E-02  0.9332846E-01
          1   -1    0    0  501    0  0.00000000000E+00  0.00000000000E+00  0.90543396928E+03  0.90543396928E+03  0.00000000000E+00 0. -1.
         -1   -1    0    0    0  501 -0.00000000000E+00 -0.00000000000E+00 -0.12419366707E+04  0.12419366707E+04  0.00000000000E+00 0.  1.
         23    2    1    2    0    0 -0.66103308095E+02  0.92069033780E+03  0.15724229459E+03  0.94077987650E+03  0.91111422750E+02 0.  0.
    5000000    2    1    2    0    0  0.66103308095E+02 -0.92069033780E+03 -0.49374499599E+03  0.12065907635E+04  0.60003066920E+03 0.  0.
         23    2    4    4    0    0 -0.18912436644E+03 -0.29920895591E+03  0.44315013826E+01  0.36544821154E+03  0.90767460239E+02 0.  0.
         23    2    4    4    0    0  0.25522767453E+03 -0.62148138189E+03 -0.49817649737E+03  0.84114255194E+03  0.89222733962E+02 0.  0.
          4    1    3    3  502    0  0.28402927551E+01  0.55929473088E+03  0.82541974241E+02  0.56535992144E+03  0.00000000000E+00 0.  1.
         -4    1    3    3    0  502 -0.68943600850E+02  0.36139560692E+03  0.74700320345E+02  0.37541995506E+03  0.00000000000E+00 0. -1.
         13    1    5    5    0    0 -0.14987483656E+03 -0.19593044971E+03 -0.32815614515E+02  0.24885351578E+03  0.00000000000E+00 0.  1.
        -13    1    5    5    0    0 -0.39249529874E+02 -0.10327850619E+03  0.37247115898E+02  0.11659469576E+03  0.00000000000E+00 0. -1.
          4    1    6    6  503    0  0.16536859093E+03 -0.41383277119E+03 -0.38114569745E+03  0.58640973394E+03  0.00000000000E+00 0. -1.
         -4    1    6    6    0  503  0.89859083599E+02 -0.20764861071E+03 -0.11703079993E+03  0.25473281800E+03  0.00000000000E+00 0.  1.
<mgrwt>
<rscale>  0 0.97814441E+03</rscale>
<asrwt>0</asrwt>
<pdfrwt beam="1">  1        1 0.13929753E+00 0.97814441E+03</pdfrwt>
<pdfrwt beam="2">  1       -1 0.19106718E+00 0.97814441E+03</pdfrwt>
<totfact> 0.31478983E+00</totfact>
</mgrwt>
</event>
<event>
12    1  0.1432447E-007  0.7598763E+03  0.7818608E-02  0.9619982E-01
          1   -1    0    0  501    0  0.00000000000E+00  0.00000000000E+00  0.18912765556E+04  0.18912765556E+04  0.00000000000E+00 0. -1.
         -1   -1    0    0    0  501 -0.00000000000E+00 -0.00000000000E+00 -0.50379952709E+03  0.50379952709E+03  0.00000000000E+00 0.  1.
         23    2    1    2    0    0 -0.65636875391E+03  0.11076960160E+03  0.13382246960E+04  0.14976105323E+04  0.94351065470E+02 0.  0.
    5000000    2    1    2    0    0  0.65636875391E+03 -0.11076960160E+03  0.49252332505E+02  0.89746555044E+03  0.59994064391E+03 0.  0.
         23    2    4    4    0    0  0.23823431473E+03 -0.30797135835E+03  0.12663765646E+03  0.41952446727E+03  0.91442530169E+02 0.  0.
         23    2    4    4    0    0  0.41813443918E+03  0.19720175675E+03 -0.77385323956E+02  0.47794108317E+03  0.93350139409E+02 0.  0.
          3    1    3    3  502    0 -0.36999943573E+03  0.81472775012E+02  0.66357171172E+03  0.76411047114E+03  0.00000000000E+00 0. -1.
         -3    1    3    3    0  502 -0.28636931818E+03  0.29296826586E+02  0.67465298429E+03  0.73350006112E+03  0.00000000000E+00 0.  1.
         13    1    5    5    0    0  0.62421854455E+02 -0.71621256075E+02  0.73688867656E+02  0.12023369516E+03  0.00000000000E+00 0. -1.
        -13    1    5    5    0    0  0.17581246028E+03 -0.23635010227E+03  0.52948788806E+02  0.29929077211E+03  0.00000000000E+00 0.  1.
          1    1    6    6  503    0  0.57098962614E+02  0.39760565570E+02 -0.44735542179E+02  0.82719180606E+02  0.00000000000E+00 0. -1.
         -1    1    6    6    0  503  0.36103547656E+03  0.15744119118E+03 -0.32649781777E+02  0.39522190256E+03  0.00000000000E+00 0.  1.
<mgrwt>
<rscale>  0 0.75987628E+03</rscale>
<asrwt>0</asrwt>
<pdfrwt beam="1">  1        1 0.29096562E+00 0.75987628E+03</pdfrwt>
<pdfrwt beam="2">  1       -1 0.77507621E-01 0.75987628E+03</pdfrwt>
<totfact> 0.61589303E+00</totfact>
</mgrwt>
</event>
<event>
12    1  0.1432447E-007  0.9992558E+03  0.7818608E-02  0.9309361E-01
         -2   -1    0    0    0  501 -0.00000000000E+00  0.00000000000E+00  0.90211562056E+03  0.90211562056E+03  0.00000000000E+00 0.  1.
          2   -1    0    0  501    0  0.00000000000E+00 -0.00000000000E+00 -0.21536066146E+04  0.21536066146E+04  0.00000000000E+00 0. -1.
         23    2    1    2    0    0  0.92519143466E+03  0.63600504723E+02  0.44391686032E+03  0.10322540594E+04  0.91989397491E+02 0.  0.
    5000000    2    1    2    0    0 -0.92519143466E+03 -0.63600504723E+02 -0.16954078543E+04  0.20234681757E+04  0.59999287560E+03 0.  0.
         23    2    4    4    0    0 -0.89743907641E+03 -0.18299506842E+03 -0.12492800448E+04  0.15519083597E+04  0.93993805580E+02 0.  0.
         23    2    4    4    0    0 -0.27752358256E+02  0.11939456370E+03 -0.44612780953E+03  0.47155981610E+03  0.91177752186E+02 0.  0.
          2    1    3    3  502    0  0.41330616979E+03 -0.10816159227E+02  0.22341643678E+03  0.46995093734E+03  0.00000000000E+00 0. -1.
         -2    1    3    3    0  502  0.51188526487E+03  0.74416663950E+02  0.22050042354E+03  0.56230312203E+03  0.00000000000E+00 0.  1.
         11    1    5    5    0    0 -0.66268099949E+03 -0.12371934099E+03 -0.98366679131E+03  0.11924986116E+04  0.00000000000E+00 0.  1.
        -11    1    5    5    0    0 -0.23475807692E+03 -0.59275727430E+02 -0.26561325349E+03  0.35940974802E+03  0.00000000000E+00 0. -1.
          2    1    6    6  503    0  0.78122482097E+01 -0.12607420269E+02 -0.28541489241E+02  0.32165118933E+02  0.00000000000E+00 0. -1.
         -2    1    6    6    0  503 -0.35564606466E+02  0.13200198397E+03 -0.41758632029E+03  0.43939469717E+03  0.00000000000E+00 0.  1.
<mgrwt>
<rscale>  0 0.99925577E+03</rscale>
<asrwt>0</asrwt>
<pdfrwt beam="1">  1        2 0.33132409E+00 0.99925577E+03</pdfrwt>
<pdfrwt beam="2">  1       -2 0.13878702E+00 0.99925577E+03</pdfrwt>
<totfact> 0.20150969E+00</totfact>
</mgrwt>
</event>
<event>
12    1  0.1432447E-007  0.6107439E+03  0.7818608E-02  0.9883363E-01
         -3   -1    0    0    0  501 -0.00000000000E+00  0.00000000000E+00  0.19377074760E+04  0.19377074760E+04  0.00000000000E+00 0.  1.
          3   -1    0    0  501    0  0.00000000000E+00 -0.00000000000E+00 -0.21050541178E+03  0.21050541178E+03  0.00000000000E+00 0. -1.
         23    2    1    2    0    0  0.21446458573E+03 -0.43760124014E+03  0.55065960068E+03  0.74054542295E+03  0.87701902643E+02 0.  0.
    5000000    2    1    2    0    0 -0.21446458573E+03  0.43760124014E+03  0.11765424635E+04  0.14076674648E+04  0.59982132265E+03 0.  0.
         23    2    4    4    0    0 -0.53887349147E+02 -0.11640018735E+03  0.43784821132E+03  0.46620339502E+03  0.95821184278E+02 0.  0.
         23    2    4    4    0    0 -0.16057723658E+03  0.55400142748E+03  0.73869425219E+03  0.94146406978E+03  0.89346325671E+02 0.  0.
          1    1    3    3  502    0  0.13682165790E+03 -0.34879370777E+03  0.38540134036E+03  0.53750479980E+03  0.00000000000E+00 0. -1.
         -1    1    3    3    0  502  0.77642927823E+02 -0.88807532365E+02  0.16525826032E+03  0.20304062315E+03  0.00000000000E+00 0.  1.
         13    1    5    5    0    0 -0.11792248795E+02 -0.10509918032E+03  0.37565249035E+03  0.39025592672E+03  0.00000000000E+00 0.  1.
        -13    1    5    5    0    0 -0.42095100352E+02 -0.11301007029E+02  0.62195720974E+02  0.75947468299E+02  0.00000000000E+00 0. -1.
          3    1    6    6  503    0 -0.13055525753E+03  0.50854164277E+03  0.63174121411E+03  0.82143547483E+03  0.00000000000E+00 0. -1.
         -3    1    6    6    0  503 -0.30021979050E+02  0.45459784712E+02  0.10695303808E+03  0.12002859495E+03  0.00000000000E+00 0.  1.
<mgrwt>
<rscale>  0 0.61074385E+03</rscale>
<asrwt>0</asrwt>
<pdfrwt beam="1">  1        3 0.32385449E-01 0.61074385E+03</pdfrwt>
<pdfrwt beam="2">  1       -3 0.29810883E+00 0.61074385E+03</pdfrwt>
<totfact> 0.98524446E-01</totfact>
</mgrwt>
</event>
<event>
12    1  0.1432447E-007  0.9513581E+03  0.7818608E-02  0.9363565E-01
          2   -1    0    0  501    0  0.00000000000E+00  0.00000000000E+00  0.20521091726E+04  0.20521091726E+04  0.00000000000E+00 0. -1.
         -2   -1    0    0    0  501 -0.00000000000E+00 -0.00000000000E+00 -0.52428565279E+03  0.52428565279E+03  0.00000000000E+00 0.  1.
         23    2    1    2    0    0  0.68426055539E+03 -0.63053804416E+03  0.92736317744E+03  0.13168628038E+04  0.91293199840E+02 0.  0.
    5000000    2    1    2    0    0 -0.68426055539E+03  0.63053804416E+03  0.60046034240E+03  0.12595320216E+04  0.60006462812E+03 0.  0.
         23    2    4    4    0    0 -0.41528119886E+03  0.24544217238E+03  0.60770177309E+03  0.78093501604E+03  0.88643782291E+02 0.  0.
         23    2    4    4    0    0 -0.26897935653E+03  0.38509587178E+03 -0.72414306941E+01  0.47859700559E+03  0.91399839957E+02 0.  0.
          3    1    3    3  502    0  0.11667872281E+03 -0.65192055385E+02  0.12348328982E+03  0.18196717096E+03  0.00000000000E+00 0. -1.
         -3    1    3    3    0  502  0.56758183258E+03 -0.56534598878E+03  0.80387988762E+03  0.11348956328E+04  0.00000000000E+00 0.  1.
         13    1    5    5    0    0 -0.26390681209E+02 -0.62499547464E+01  0.29891388276E+02  0.40361182863E+02  0.00000000000E+00 0.  1.
        -13    1    5    5    0    0 -0.38889051765E+03  0.25169212713E+03  0.57781038482E+03  0.74057383317E+03  0.00000000000E+00 0. -1.
          1    1    6    6  503    0 -0.15858433616E+03  0.15189475951E+03  0.11597536743E+02  0.21989886880E+03  0.00000000000E+00 0. -1.
         -1    1    6    6    0  503 -0.11039502037E+03  0.23320111227E+03 -0.18838967437E+02  0.25869813679E+03  0.00000000000E+00 0.  1.
<mgrwt>
<rscale>  0 0.95135811E+03</rscale>
<asrwt>0</asrwt>
<pdfrwt beam="1">  1        2 0.31570910E+00 0.95135811E+03</pdfrwt>
<pdfrwt beam="2">  1       -2 0.80659332E-01 0.95135811E+03</pdfrwt>
<totfact> 0.85528505E+00</totfact>
</mgrwt>
</event>
<event>
12    1  0.1432447E-007  0.1254431E+04  0.7818608E-02  0.9066503E-01
         -1   -1    0    0    0  501 -0.00000000000E+00  0.00000000000E+00  0.70622793062E+03  0.70622793062E+03  0.00000000000E+00 0.  1.
          1   -1    0    0  501    0  0.00000000000E+00 -0.00000000000E+00 -0.25055096317E+04  0.25055096317E+04  0.00000000000E+00 0. -1.
         23    2    1    2    0    0  0.97937484874E+03  0.77537791835E+03 -0.64938675088E+03  0.14108463108E+04  0.91641419845E+02 0.  0.
    5000000    2    1    2    0    0 -0.97937484874E+03 -0.77537791835E+03 -0.11498949502E+04  0.18008912516E+04  0.60047055944E+03 0.  0.
         23    2    4    4    0    0 -0.61322580271E+03 -0.52305610444E+03 -0.10623239868E+04  0.13366776382E+04  0.92419057294E+02 0.  0.
         23    2    4    4    0    0 -0.36614904603E+03 -0.25232181391E+03 -0.87570963454E+02  0.46421361333E+03  0.10046981375E+03 0.  0.
          3    1    3    3  502    0  0.25686025908E+03  0.23510668875E+03 -0.14451213869E+03  0.37700942431E+03  0.00000000000E+00 0. -1.
         -3    1    3    3    0  502  0.72251458966E+03  0.54027122961E+03 -0.50487461219E+03  0.10338368865E+04  0.00000000000E+00 0.  1.
         13    1    5    5    0    0 -0.69218683035E+02 -0.26529932769E+02 -0.11285137959E+03  0.13502035879E+03  0.00000000000E+00 0.  1.
        -13    1    5    5    0    0 -0.54400711968E+03 -0.49652617167E+03 -0.94947260720E+03  0.12016572794E+04  0.00000000000E+00 0. -1.
          1    1    6    6  503    0 -0.33591431910E+03 -0.21127491442E+03 -0.48094054552E+02  0.39973560927E+03  0.00000000000E+00 0. -1.
         -1    1    6    6    0  503 -0.30234726935E+02 -0.41046899493E+02 -0.39476908902E+02  0.64478004058E+02  0.00000000000E+00 0.  1.
<mgrwt>
<rscale>  0 0.12544315E+04</rscale>
<asrwt>0</asrwt>
<pdfrwt beam="1">  1        1 0.38546302E+00 0.12544315E+04</pdfrwt>
<pdfrwt beam="2">  1       -1 0.10865045E+00 0.12544315E+04</pdfrwt>
<totfact> 0.10368080E+00</totfact>
</mgrwt>
</event>
<event>
12    1  0.1432447E-007  0.7672339E+03  0.7818608E-02  0.9608694E-01
         -1   -1    0    0    0  501 -0.00000000000E+00  0.00000000000E+00  0.16499253884E+04  0.16499253884E+04  0.00000000000E+00 0.  1.
          1   -1    0    0  501    0  0.00000000000E+00 -0.00000000000E+00 -0.11724820565E+04  0.11724820565E+04  0.00000000000E+00 0. -1.
         23    2    1    2    0    0  0.22316401742E+02 -0.75450394270E+03 -0.87650847210E+03  0.11602011845E+04  0.89584962177E+02 0.  0.
    5000000    2    1    2    0    0 -0.22316401742E+02  0.75450394270E+03  0.13539518039E+04  0.16622062604E+04  0.59997495231E+03 0.  0.
         23    2    4    4    0    0 -0.50739384499E+02  0.41003392422E+03  0.12013001080E+04  0.12736179719E+04  0.90986177997E+02 0.  0.
         23    2    4    4    0    0  0.28422982757E+02  0.34447001847E+03  0.15265169592E+03  0.38858828853E+03  0.90724076948E+02 0.  0.
          1    1    3    3  502    0  0.38737355653E+02 -0.41385507003E+03 -0.42635849317E+03  0.59544787044E+03  0.00000000000E+00 0. -1.
         -1    1    3    3    0  502 -0.16420953911E+02 -0.34064887267E+03 -0.45014997893E+03  0.56475331403E+03  0.00000000000E+00 0.  1.
         13    1    5    5    0    0 -0.75421969281E+02  0.26949422345E+03  0.82503856042E+03  0.87120849176E+03  0.00000000000E+00 0. -1.
        -13    1    5    5    0    0  0.24682584782E+02  0.14053970077E+03  0.37626154761E+03  0.40240948013E+03  0.00000000000E+00 0.  1.
          4    1    6    6  503    0 -0.27628502171E+02  0.73696555317E+02  0.51967425725E+02  0.94313995432E+02  0.00000000000E+00 0. -1.
         -4    1    6    6    0  503  0.56051484928E+02  0.27077346316E+03  0.10068427019E+03  0.29427429310E+03  0.00000000000E+00 0.  1.
<mgrwt>
<rscale>  0 0.76723389E+03</rscale>
<asrwt>0</asrwt>
<pdfrwt beam="1">  1        1 0.18038185E+00 0.76723389E+03</pdfrwt>
<pdfrwt beam="2">  1       -1 0.25383468E+00 0.76723389E+03</pdfrwt>
<totfact> 0.77489207E-01</totfact>
</mgrwt>
</event>
<event>
12    1  0.1432447E-007  0.7580403E+03  0.7818608E-02  0.9622820E-01
         -1   -1    0    0    0  501 -0.00000000000E+00  0.00000000000E+00  0.78547842695E+03  0.78547842695E+03  0.00000000000E+00 0.  1.
          1   -1    0    0  501    0  0.00000000000E+00 -0.00000000000E+00 -0.87148094045E+03  0.87148094045E+03  0.00000000000E+00 0. -1.
         23    2    1    2    0    0 -0.48734726259E+03 -0.42038137207E+03  0.27407333270E+03  0.70630409731E+03  0.97577834781E+02 0.  0.
    5000000    2    1    2    0    0  0.48734726259E+03  0.42038137207E+03 -0.36007584620E+03  0.95065527009E+03  0.59988580180E+03 0.  0.
         23    2    4    4    0    0  0.60180114009E+03  0.32186089160E+03 -0.21578557880E+03  0.72170996342E+03  0.92427320239E+02 0.  0.
         23    2    4    4    0    0 -0.11445387750E+03  0.98520480473E+02 -0.14429026740E+03  0.22894530668E+03  0.93756583961E+02 0.  0.
          3    1    3    3  502    0 -0.36251339745E+03 -0.25419706917E+03  0.19737216418E+03  0.48475548939E+03  0.00000000000E+00 0. -1.
         -3    1    3    3    0  502 -0.12483386514E+03 -0.16618430290E+03  0.76701168513E+02  0.22154860791E+03  0.00000000000E+00 0.  1.
         13    1    5    5    0    0  0.38467849602E+03  0.25353225183E+03 -0.13337141428E+03  0.47962910896E+03  0.00000000000E+00 0. -1.
        -13    1    5    5    0    0  0.21712264407E+03  0.68328639767E+02 -0.82414164514E+02  0.24208085445E+03  0.00000000000E+00 0.  1.
          3    1    6    6  503    0 -0.12333522487E+02  0.70053146880E+02 -0.67318142579E+02  0.97935139174E+02  0.00000000000E+00 0. -1.
         -3    1    6    6    0  503 -0.10212035501E+03  0.28467333593E+02 -0.76972124817E+02  0.13101016750E+03  0.00000000000E+00 0.  1.
<mgrwt>
<rscale>  0 0.75804027E+03</rscale>
<asrwt>0</asrwt>
<pdfrwt beam="1">  1        1 0.13407399E+00 0.75804027E+03</pdfrwt>
<pdfrwt beam="2">  1       -1 0.12084283E+00 0.75804027E+03</pdfrwt>
<totfact> 0.12036778E+01</totfact>
</mgrwt>
</event>
<event>
12    1  0.1432447E-007  0.8114385E+03  0.7818608E-02  0.9543606E-01
         -2   -1    0    0    0  501 -0.00000000000E+00  0.00000000000E+00  0.52264638950E+03  0.52264638950E+03  0.00000000000E+00 0. -1.
          2   -1    0    0  501    0  0.00000000000E+00 -0.00000000000E+00 -0.14494709401E+04  0.14494709401E+04  0.00000000000E+00 0.  1.
         23    2    1    2    0    0 -0.22793998377E+02 -0.75614142053E+03 -0.28745391764E+03  0.81418208836E+03  0.89405279690E+02 0.  0.
    5000000    2    1    2    0    0  0.22793998377E+02  0.75614142053E+03 -0.63937063292E+03  0.11579352412E+04  0.59979146572E+03 0.  0.
         23    2    4    4    0    0  0.20070717080E+03  0.50705605164E+03 -0.15056718460E+03  0.57424097402E+03  0.98453091616E+02 0.  0.
         23    2    4    4    0    0 -0.17791317242E+03  0.24908536889E+03 -0.48880344832E+03  0.58369426717E+03  0.89853038504E+02 0.  0.
          4    1    3    3  502    0 -0.16668775520E+02 -0.32184245326E+02 -0.31640726193E+01  0.36382483149E+02  0.00000000000E+00 0.  1.
         -4    1    3    3    0  502 -0.61252228567E+01 -0.72395717520E+03 -0.28428984503E+03  0.77779960521E+03  0.00000000000E+00 0. -1.
         11    1    5    5    0    0  0.17507408364E+01  0.10636522495E+03 -0.37631972046E+02  0.11283967163E+03  0.00000000000E+00 0.  1.
        -11    1    5    5    0    0  0.19895642996E+03  0.40069082669E+03 -0.11293521255E+03  0.46140130239E+03  0.00000000000E+00 0. -1.
          2    1    6    6  503    0 -0.87742908510E+02  0.15803510782E+03 -0.21153634350E+03  0.27824726040E+03  0.00000000000E+00 0.  1.
         -2    1    6    6    0  503 -0.90170263909E+02  0.91050261071E+02 -0.27726710482E+03  0.30544700678E+03  0.00000000000E+00 0. -1.
<mgrwt>
<rscale>  0 0.81143846E+03</rscale>
<asrwt>0</asrwt>
<pdfrwt beam="1">  1        2 0.22299553E+00 0.81143846E+03</pdfrwt>
<pdfrwt beam="2">  1       -2 0.80407136E-01 0.81143846E+03</pdfrwt>
<totfact> 0.18823598E+01</totfact>
</mgrwt>
</event>
<event>
12    1  0.1432447E-007  0.9333902E+03  0.7818608E-02  0.9384778E-01
         -2   -1    0    0    0  501 -0.00000000000E+00  0.00000000000E+00  0.10782432869E+04  0.10782432869E+04  0.00000000000E+00 0.  1.
          2   -1    0    0  501    0  0.00000000000E+00 -0.00000000000E+00 -0.11406038609E+04  0.11406038609E+04  0.00000000000E+00 0. -1.
         23    2    1    2    0    0 -0.48662941842E+02 -0.89546216752E+03 -0.52627781602E+03  0.10443287741E+04  0.97127099457E+02 0.  0.
    5000000    2    1    2    0    0  0.48662941842E+02  0.89546216752E+03  0.46391724201E+03  0.11745183738E+04  0.60004468793E+03 0.  0.
         23    2    4    4    0    0  0.11852121610E+03  0.83765268279E+03  0.19074174456E+03  0.87202575334E+03  0.91308300472E+02 0.  0.
         23    2    4    4    0    0 -0.69858274259E+02  0.57809484734E+02  0.27317549745E+03  0.30249262042E+03  0.93031274269E+02 0.  0.
          3    1    3    3  502    0 -0.66121351657E+02 -0.34537406441E+03 -0.20822754992E+03  0.40867345161E+03  0.00000000000E+00 0. -1.
         -3    1    3    3    0  502  0.17458409815E+02 -0.55008810311E+03 -0.31805026611E+03  0.63565532251E+03  0.00000000000E+00 0.  1.
         13    1    5    5    0    0  0.95138133573E+02  0.62723907881E+03  0.10239858092E+03  0.64262399257E+03  0.00000000000E+00 0. -1.
        -13    1    5    5    0    0  0.23383082527E+02  0.21041360397E+03  0.88343163642E+02  0.22940176078E+03  0.00000000000E+00 0.  1.
          1    1    6    6  503    0  0.16507480646E+02  0.43382276581E+01  0.86510611087E+01  0.19135255284E+02  0.00000000000E+00 0. -1.
         -1    1    6    6    0  503 -0.86365754904E+02  0.53471257076E+02  0.26452443635E+03  0.28335736514E+03  0.00000000000E+00 0.  1.
<mgrwt>
<rscale>  0 0.93339018E+03</rscale>
<asrwt>0</asrwt>
<pdfrwt beam="1">  1        2 0.17547752E+00 0.93339018E+03</pdfrwt>
<pdfrwt beam="2">  1       -2 0.16588358E+00 0.93339018E+03</pdfrwt>
<totfact> 0.46853483E+00</totfact>
</mgrwt>
</event>
<event>
12    1  0.1432447E-007  0.6889520E+03  0.7818608E-02  0.9736314E-01
          2   -1    0    0  501    0  0.00000000000E+00  0.00000000000E+00  0.13463822184E+04  0.13463822184E+04  0.00000000000E+00 0. -1.
         -2   -1    0    0    0  501 -0.00000000000E+00 -0.00000000000E+00 -0.43623402772E+03  0.43623402772E+03  0.00000000000E+00 0.  1.
         23    2    1    2    0    0  0.39107531215E+03  0.47468812738E+03  0.16011864801E+03  0.64216560570E+03  0.92032416387E+02 0.  0.
    5000000    2    1    2    0    0 -0.39107531215E+03 -0.47468812738E+03  0.75002954264E+03  0.11404506404E+04  0.59984550534E+03 0.  0.
         23    2    4    4    0    0 -0.10146100304E+03 -0.43947101608E+03  0.18147295752E+03  0.49484572871E+03  0.92253735968E+02 0.  0.
         23    2    4    4    0    0 -0.28961430910E+03 -0.35217111296E+02  0.56855658512E+03  0.64560491167E+03  0.91828201176E+02 0.  0.
          1    1    3    3  502    0  0.18464468932E+03  0.15845123031E+03  0.45726310845E+02  0.24757089729E+03  0.00000000000E+00 0. -1.
         -1    1    3    3    0  502  0.20643062283E+03  0.31623689707E+03  0.11439233716E+03  0.39459470842E+03  0.00000000000E+00 0.  1.
         13    1    5    5    0    0 -0.11323364109E+03 -0.30432681682E+03  0.12883079633E+03  0.34933371294E+03  0.00000000000E+00 0.  1.
        -13    1    5    5    0    0  0.11772638049E+02 -0.13514419926E+03  0.52642161198E+02  0.14551201578E+03  0.00000000000E+00 0. -1.
          1    1    6    6  503    0 -0.36291381769E+02 -0.22986514334E+02  0.15163915947E+03  0.15760672231E+03  0.00000000000E+00 0. -1.
         -1    1    6    6    0  503 -0.25332292733E+03 -0.12230596962E+02  0.41691742564E+03  0.48799818936E+03  0.00000000000E+00 0.  1.
<mgrwt>
<rscale>  0 0.68895200E+03</rscale>
<asrwt>0</asrwt>
<pdfrwt beam="1">  1        2 0.20713573E+00 0.68895200E+03</pdfrwt>
<pdfrwt beam="2">  1       -2 0.67112928E-01 0.68895200E+03</pdfrwt>
<totfact> 0.32531596E+01</totfact>
</mgrwt>
</event>
<event>
12    1  0.1432447E-007  0.1359128E+04  0.7818608E-02  0.8983947E-01
         -2   -1    0    0    0  501 -0.00000000000E+00  0.00000000000E+00  0.82419904382E+03  0.82419904382E+03  0.00000000000E+00 0.  1.
          2   -1    0    0  501    0  0.00000000000E+00 -0.00000000000E+00 -0.26086018511E+04  0.26086018511E+04  0.00000000000E+00 0. -1.
         23    2    1    2    0    0  0.12272501090E+04  0.45328749683E+03 -0.26147240194E+03  0.13374216274E+04  0.93361702950E+02 0.  0.
    5000000    2    1    2    0    0 -0.12272501090E+04 -0.45328749683E+03 -0.15229304053E+04  0.20953792675E+04  0.59973733464E+03 0.  0.
         23    2    4    4    0    0 -0.38025992752E+02  0.84622774874E+02 -0.84157389151E+02  0.15061936374E+03  0.83646496839E+02 0.  0.
         23    2    4    4    0    0 -0.11892241162E+04 -0.53791027171E+03 -0.14387730162E+04  0.19447599038E+04  0.91770541511E+02 0.  0.
          2    1    3    3  502    0  0.76915448631E+03  0.26888621232E+03 -0.20645780896E+03  0.84054937146E+03  0.00000000000E+00 0. -1.
         -2    1    3    3    0  502  0.45809562267E+03  0.18440128452E+03 -0.55014592983E+02  0.49687225590E+03  0.00000000000E+00 0.  1.
         11    1    5    5    0    0 -0.29359489798E+01  0.58334931212E+02 -0.31329818545E+01  0.58492730926E+02  0.00000000000E+00 0. -1.
        -11    1    5    5    0    0 -0.35090043772E+02  0.26287843662E+02 -0.81024407297E+02  0.92126632817E+02  0.00000000000E+00 0.  1.
          1    1    6    6  503    0 -0.96158166675E+02 -0.66993683058E+02 -0.10756061367E+03  0.15907178317E+03  0.00000000000E+00 0. -1.
         -1    1    6    6    0  503 -0.10930659496E+04 -0.47091658865E+03 -0.13312124025E+04  0.17856881206E+04  0.00000000000E+00 0.  1.
<mgrwt>
<rscale>  0 0.13591281E+04</rscale>
<asrwt>0</asrwt>
<pdfrwt beam="1">  1        2 0.40132335E+00 0.13591281E+04</pdfrwt>
<pdfrwt beam="2">  1       -2 0.12679986E+00 0.13591281E+04</pdfrwt>
<totfact> 0.13399705E+00</totfact>
</mgrwt>
</event>
<event>
12    1  0.1432447E-007  0.2214618E+03  0.7818608E-02  0.1132798E+00
          2   -1    0    0  501    0  0.00000000000E+00  0.00000000000E+00  0.23464097952E+04  0.23464097952E+04  0.00000000000E+00 0.  1.
         -2   -1    0    0    0  501 -0.00000000000E+00 -0.00000000000E+00 -0.85357649912E+02  0.85357649912E+02  0.00000000000E+00 0. -1.
         23    2    1    2    0    0 -0.15005960325E+03 -0.60743081708E+02  0.17975215807E+03  0.25967983575E+03  0.94420189895E+02 0.  0.
    5000000    2    1    2    0    0  0.15005960325E+03  0.60743081708E+02  0.20812999873E+04  0.21720876094E+04  0.59995611462E+03 0.  0.
         23    2    4    4    0    0  0.57317076506E+01  0.76929054513E+02  0.19571884675E+04  0.19607960793E+04  0.90463447942E+02 0.  0.
         23    2    4    4    0    0  0.14432789560E+03 -0.16185972805E+02  0.12411151977E+03  0.21129153011E+03  0.90265797469E+02 0.  0.
          3    1    3    3  502    0 -0.15151851268E+03 -0.48522889584E+02  0.18690103505E+03  0.24544719880E+03  0.00000000000E+00 0. -1.
         -3    1    3    3    0  502  0.14589094302E+01 -0.12220192123E+02 -0.71488769799E+01  0.14232636942E+02  0.00000000000E+00 0.  1.
         13    1    5    5    0    0 -0.20941692017E+02  0.87590392079E+02  0.15182371411E+04  0.15209058642E+04  0.00000000000E+00 0.  1.
        -13    1    5    5    0    0  0.26673399668E+02 -0.10661337566E+02  0.43895132640E+03  0.43989021507E+03  0.00000000000E+00 0. -1.
          4    1    6    6  503    0  0.64485777018E+02 -0.30966006163E+02  0.10635439706E+03  0.12817397064E+03  0.00000000000E+00 0. -1.
         -4    1    6    6    0  503  0.79842118580E+02  0.14780033358E+02  0.17757122709E+02  0.83117559470E+02  0.00000000000E+00 0.  1.
<mgrwt>
<rscale>  0 0.22146182E+03</rscale>
<asrwt>0</asrwt>
<pdfrwt beam="1">  1        2 0.36098607E+00 0.22146182E+03</pdfrwt>
<pdfrwt beam="2">  1       -2 0.13131948E-01 0.22146182E+03</pdfrwt>
<totfact> 0.21123031E+02</totfact>
</mgrwt>
</event>
<event>
12    1  0.1432447E-007  0.6716653E+03  0.7818608E-02  0.9766954E-01
         -1   -1    0    0    0  501 -0.00000000000E+00  0.00000000000E+00  0.22941765030E+03  0.22941765030E+03  0.00000000000E+00 0.  1.
          1   -1    0    0  501    0  0.00000000000E+00 -0.00000000000E+00 -0.25130226708E+04  0.25130226708E+04  0.00000000000E+00 0. -1.
         23    2    1    2    0    0 -0.51694546030E+03 -0.16340644266E+03 -0.15712137941E+04  0.16646394748E+04  0.91528791398E+02 0.  0.
    5000000    2    1    2    0    0  0.51694546030E+03  0.16340644266E+03 -0.71239122637E+03  0.10778008463E+04  0.60018258098E+03 0.  0.
         23    2    4    4    0    0  0.30064931109E+03  0.37601182648E+03 -0.47626088567E+03  0.68332346034E+03  0.91277698915E+02 0.  0.
         23    2    4    4    0    0  0.21629614921E+03 -0.21260538383E+03 -0.23613034070E+03  0.39447738599E+03  0.88711875548E+02 0.  0.
          3    1    3    3  502    0 -0.13941176331E+03 -0.81707263411E+01 -0.34177266793E+03  0.36920313793E+03  0.00000000000E+00 0. -1.
         -3    1    3    3    0  502 -0.37753369698E+03 -0.15523571631E+03 -0.12294411262E+04  0.12954363368E+04  0.00000000000E+00 0.  1.
         13    1    5    5    0    0  0.17493714689E+03  0.17808845359E+03 -0.29823558965E+03  0.38892540364E+03  0.00000000000E+00 0.  1.
        -13    1    5    5    0    0  0.12571216420E+03  0.19792337290E+03 -0.17802529602E+03  0.29439805670E+03  0.00000000000E+00 0. -1.
          3    1    6    6  503    0  0.16102565683E+03 -0.11059810045E+03 -0.17983601723E+03  0.26552249448E+03  0.00000000000E+00 0. -1.
         -3    1    6    6    0  503  0.55270492380E+02 -0.10200728338E+03 -0.56294323467E+02  0.12895489151E+03  0.00000000000E+00 0.  1.
<mgrwt>
<rscale>  0 0.67166530E+03</rscale>
<asrwt>0</asrwt>
<pdfrwt beam="1">  1        1 0.38661888E+00 0.67166530E+03</pdfrwt>
<pdfrwt beam="2">  1       -1 0.35295023E-01 0.67166530E+03</pdfrwt>
<totfact> 0.10825397E+01</totfact>
</mgrwt>
</event>
<event>
12    1  0.1432447E-007  0.1557267E+04  0.7818608E-02  0.8847239E-01
         -3   -1    0    0    0  501 -0.00000000000E+00  0.00000000000E+00  0.19476872367E+04  0.19476872367E+04  0.00000000000E+00 0.  1.
          3   -1    0    0  501    0  0.00000000000E+00 -0.00000000000E+00 -0.33680195179E+04  0.33680195179E+04  0.00000000000E+00 0. -1.
         23    2    1    2    0    0 -0.12547873374E+04 -0.83229143975E+03 -0.28043840533E+04  0.31843276241E+04  0.90400204217E+02 0.  0.
    5000000    2    1    2    0    0  0.12547873374E+04  0.83229143975E+03  0.13840517721E+04  0.21313791305E+04  0.59998115598E+03 0.  0.
         23    2    4    4    0    0  0.12277955669E+04  0.59797402644E+03  0.12168269487E+04  0.18313682439E+04  0.90481663441E+02 0.  0.
         23    2    4    4    0    0  0.26991770446E+02  0.23431741330E+03  0.16722482339E+03  0.30001088658E+03  0.80057383534E+02 0.  0.
          3    1    3    3  502    0 -0.54103350900E+03 -0.38338309422E+03 -0.11506813316E+04  0.13280690425E+04  0.00000000000E+00 0. -1.
         -3    1    3    3    0  502 -0.71375382836E+03 -0.44890834553E+03 -0.16537027216E+04  0.18562585816E+04  0.00000000000E+00 0.  1.
         13    1    5    5    0    0  0.70302945941E+03  0.29522034078E+03  0.69792471630E+03  0.10336848553E+04  0.00000000000E+00 0.  1.
        -13    1    5    5    0    0  0.52476610751E+03  0.30275368566E+03  0.51890223236E+03  0.79768338865E+03  0.00000000000E+00 0. -1.
          3    1    6    6  503    0  0.30720793313E+02  0.82254105772E+02  0.10178199569E+03  0.13442127698E+03  0.00000000000E+00 0. -1.
         -3    1    6    6    0  503 -0.37290228666E+01  0.15206330753E+03  0.65442827694E+02  0.16558960959E+03  0.00000000000E+00 0.  1.
<mgrwt>
<rscale>  0 0.15572675E+04</rscale>
<asrwt>0</asrwt>
<pdfrwt beam="1">  1        3 0.51815685E+00 0.15572675E+04</pdfrwt>
<pdfrwt beam="2">  1       -3 0.29964419E+00 0.15572675E+04</pdfrwt>
<totfact> 0.25009667E-04</totfact>
</mgrwt>
</event>
<event>
12    1  0.1901423E-007  0.1901255E+04  0.7818608E-02  0.8654232E-01
         -2   -1    0    0    0  501 -0.00000000000E+00  0.00000000000E+00  0.19319077243E+04  0.19319077243E+04  0.00000000000E+00 0.  1.
          2   -1    0    0  501    0  0.00000000000E+00 -0.00000000000E+00 -0.20092047030E+04  0.20092047030E+04  0.00000000000E+00 0. -1.
         23    2    1    2    0    0 -0.96141936498E+03  0.16010012133E+04  0.42253439781E+03  0.19168837752E+04  0.91520542328E+02 0.  0.
    5000000    2    1    2    0    0  0.96141936498E+03 -0.16010012133E+04 -0.49983137643E+03  0.20242286521E+04  0.60011511460E+03 0.  0.
         23    2    4    4    0    0  0.10136333404E+04 -0.14287123892E+04 -0.39709616228E+03  0.17984320188E+04  0.89446767729E+02 0.  0.
         23    2    4    4    0    0 -0.52213975385E+02 -0.17228882412E+03 -0.10273521414E+03  0.22579663335E+03  0.89553655795E+02 0.  0.
          2    1    3    3  502    0 -0.56346410104E+03  0.10033933245E+04  0.23009831062E+03  0.11735566409E+04  0.00000000000E+00 0.  1.
         -2    1    3    3    0  502 -0.39795526394E+03  0.59760788887E+03  0.19243608719E+03  0.74332713430E+03  0.00000000000E+00 0. -1.
         11    1    5    5    0    0  0.62277004331E+03 -0.81252437414E+03 -0.25514602094E+03  0.10550534950E+04  0.00000000000E+00 0. -1.
        -11    1    5    5    0    0  0.39086329706E+03 -0.61618801509E+03 -0.14195014134E+03  0.74337852374E+03  0.00000000000E+00 0.  1.
          1    1    6    6  503    0 -0.23152985634E+02 -0.59745165872E+02  0.88342161591E+01  0.64680669168E+02  0.00000000000E+00 0. -1.
         -1    1    6    6    0  503 -0.29060989750E+02 -0.11254365825E+03 -0.11156943030E+03  0.16111596418E+03  0.00000000000E+00 0.  1.
<mgrwt>
<rscale>  0 0.19012554E+04</rscale>
<asrwt>0</asrwt>
<pdfrwt beam="1">  1        2 0.30910841E+00 0.19012554E+04</pdfrwt>
<pdfrwt beam="2">  1       -2 0.29721657E+00 0.19012554E+04</pdfrwt>
<totfact> 0.19622769E-01</totfact>
</mgrwt>
</event>
<event>
12    1  0.1432447E-007  0.1630572E+04  0.7818608E-02  0.8801984E-01
         -1   -1    0    0    0  501 -0.00000000000E+00  0.00000000000E+00  0.88861367664E+03  0.88861367664E+03  0.00000000000E+00 0. -1.
          1   -1    0    0  501    0  0.00000000000E+00 -0.00000000000E+00 -0.31563292755E+04  0.31563292755E+04  0.00000000000E+00 0.  1.
         23    2    1    2    0    0  0.38496126747E+03 -0.15727666738E+04 -0.10502955519E+04  0.19320759637E+04  0.89479581915E+02 0.  0.
    5000000    2    1    2    0    0 -0.38496126747E+03  0.15727666738E+04 -0.12174200470E+04  0.21128669885E+04  0.60025423970E+03 0.  0.
         23    2    4    4    0    0 -0.36139488195E+03  0.11978955592E+04 -0.61578650837E+03  0.13976390729E+04  0.92961942391E+02 0.  0.
         23    2    4    4    0    0 -0.23566385518E+02  0.37487111458E+03 -0.60163353866E+03  0.71522791553E+03  0.92218920198E+02 0.  0.
          1    1    3    3  502    0  0.20047083218E+03 -0.10007111515E+04 -0.65956085904E+03  0.12151674330E+04  0.00000000000E+00 0. -1.
         -1    1    3    3    0  502  0.18449043529E+03 -0.57205552230E+03 -0.39073469281E+03  0.71690853076E+03  0.00000000000E+00 0.  1.
         13    1    5    5    0    0 -0.25393610098E+03  0.68356549389E+03 -0.35332996763E+03  0.81030080454E+03  0.00000000000E+00 0. -1.
        -13    1    5    5    0    0 -0.10745878097E+03  0.51433006535E+03 -0.26245654074E+03  0.58733826838E+03  0.00000000000E+00 0.  1.
          1    1    6    6  503    0 -0.46854368798E+02  0.11876814005E+03 -0.16698486641E+03  0.21020263694E+03  0.00000000000E+00 0. -1.
         -1    1    6    6    0  503  0.23287983281E+02  0.25610297453E+03 -0.43464867225E+03  0.50502527860E+03  0.00000000000E+00 0.  1.
<mgrwt>
<rscale>  0 0.16305716E+04</rscale>
<asrwt>0</asrwt>
<pdfrwt beam="1">  1        1 0.48558912E+00 0.16305716E+04</pdfrwt>
<pdfrwt beam="2">  1       -1 0.13670979E+00 0.16305716E+04</pdfrwt>
<totfact> 0.19212319E-01</totfact>
</mgrwt>
</event>
<event>
12    1  0.1432447E-007  0.8339500E+03  0.7818608E-02  0.9512136E-01
          2   -1    0    0  501    0  0.00000000000E+00  0.00000000000E+00  0.33274878982E+03  0.33274878982E+03  0.00000000000E+00 0. -1.
         -2   -1    0    0    0  501 -0.00000000000E+00 -0.00000000000E+00 -0.25864320555E+04  0.25864320555E+04  0.00000000000E+00 0.  1.
         23    2    1    2    0    0  0.75104052783E+03  0.96549750599E+02 -0.48556039156E+03  0.90431724398E+03  0.92935758056E+02 0.  0.
    5000000    2    1    2    0    0 -0.75104052783E+03 -0.96549750599E+02 -0.17681228742E+04  0.20148636014E+04  0.60002758709E+03 0.  0.
         23    2    4    4    0    0  0.25377461115E+02  0.52060569588E+02 -0.54352312477E+03  0.55465306486E+03  0.94171740775E+02 0.  0.
         23    2    4    4    0    0 -0.77641798894E+03 -0.14861032019E+03 -0.12245997494E+04  0.14602105365E+04  0.87523390889E+02 0.  0.
          1    1    3    3  502    0  0.51057419269E+03  0.10633891616E+03 -0.31398348839E+03  0.60875249676E+03  0.00000000000E+00 0. -1.
         -1    1    3    3    0  502  0.24046633514E+03 -0.97891655590E+01 -0.17157690317E+03  0.29556474722E+03  0.00000000000E+00 0.  1.
         11    1    5    5    0    0  0.49735442990E+02 -0.33354778818E+01 -0.26193598831E+03  0.26663683481E+03  0.00000000000E+00 0. -1.
        -11    1    5    5    0    0 -0.24357981875E+02  0.55396047470E+02 -0.28158713645E+03  0.28801623005E+03  0.00000000000E+00 0.  1.
          2    1    6    6  503    0 -0.37914321117E+03 -0.28060525287E+02 -0.58442716755E+03  0.69720304203E+03  0.00000000000E+00 0. -1.
         -2    1    6    6    0  503 -0.39727477778E+03 -0.12054979490E+03 -0.64017258185E+03  0.76300749450E+03  0.00000000000E+00 0.  1.
<mgrwt>
<rscale>  0 0.83395001E+03</rscale>
<asrwt>0</asrwt>
<pdfrwt beam="1">  1        2 0.51192122E-01 0.83395001E+03</pdfrwt>
<pdfrwt beam="2">  1       -2 0.39791262E+00 0.83395001E+03</pdfrwt>
<totfact> 0.78420768E-01</totfact>
</mgrwt>
</event>
<event>
12    1  0.1432447E-007  0.4119569E+03  0.7818608E-02  0.1039716E+00
         -2   -1    0    0    0  501 -0.00000000000E+00  0.00000000000E+00  0.28556344177E+03  0.28556344177E+03  0.00000000000E+00 0.  1.
          2   -1    0    0  501    0  0.00000000000E+00 -0.00000000000E+00 -0.70988128111E+03  0.70988128111E+03  0.00000000000E+00 0. -1.
         23    2    1    2    0    0  0.81091480587E+01  0.21485167554E+03 -0.55239708238E+01  0.23272130070E+03  0.88891443817E+02 0.  0.
    5000000    2    1    2    0    0 -0.81091480587E+01 -0.21485167554E+03 -0.41879386852E+03  0.76272342218E+03  0.60010975136E+03 0.  0.
         23    2    4    4    0    0  0.19530830983E+03  0.82239078328E+02 -0.28550908082E+03  0.36801820920E+03  0.94938744352E+02 0.  0.
         23    2    4    4    0    0 -0.20341745788E+03 -0.29709075386E+03 -0.13328478769E+03  0.39470521298E+03  0.91573971871E+02 0.  0.
          4    1    3    3  502    0 -0.38386713744E+02  0.10857453794E+03  0.10405170710E+02  0.11562974383E+03  0.00000000000E+00 0.  1.
         -4    1    3    3    0  502  0.46495861803E+02  0.10627713760E+03 -0.15929141534E+02  0.11709155687E+03  0.00000000000E+00 0. -1.
         13    1    5    5    0    0  0.39317830660E+02  0.64009207172E+02 -0.89255977491E+02  0.11666061858E+03  0.00000000000E+00 0. -1.
        -13    1    5    5    0    0  0.15599047917E+03  0.18229871156E+02 -0.19625310333E+03  0.25135759062E+03  0.00000000000E+00 0.  1.
          3    1    6    6  503    0 -0.97672076919E+02 -0.15976775847E+03 -0.11658075731E+03  0.22058251116E+03  0.00000000000E+00 0. -1.
         -3    1    6    6    0  503 -0.10574538096E+03 -0.13732299539E+03 -0.16704030387E+02  0.17412270182E+03  0.00000000000E+00 0.  1.
<mgrwt>
<rscale>  0 0.41195687E+03</rscale>
<asrwt>0</asrwt>
<pdfrwt beam="1">  1        2 0.10921251E+00 0.41195687E+03</pdfrwt>
<pdfrwt beam="2">  1       -2 0.43932837E-01 0.41195687E+03</pdfrwt>
<totfact> 0.20389158E+02</totfact>
</mgrwt>
</event>
<event>
12    1  0.1432447E-007  0.2185618E+04  0.7818608E-02  0.8524438E-01
          2   -1    0    0  501    0  0.00000000000E+00  0.00000000000E+00  0.30363998252E+04  0.30363998252E+04  0.00000000000E+00 0.  1.
         -2   -1    0    0    0  501 -0.00000000000E+00 -0.00000000000E+00 -0.15785882555E+04  0.15785882555E+04  0.00000000000E+00 0. -1.
         23    2    1    2    0    0 -0.28233576922E+03 -0.21283763519E+04  0.68170308932E+03  0.22545002472E+04  0.91394095211E+02 0.  0.
    5000000    2    1    2    0    0  0.28233576922E+03  0.21283763519E+04  0.77610848030E+03  0.23604878335E+04  0.59988253588E+03 0.  0.
         23    2    4    4    0    0 -0.15314921884E+03  0.99189802557E+03  0.30875325671E+03  0.10536100213E+04  0.86308325631E+02 0.  0.
         23    2    4    4    0    0  0.43548498806E+03  0.11364783264E+04  0.46735522359E+03  0.13068778122E+04  0.90986536981E+02 0.  0.
          3    1    3    3  502    0 -0.23389008632E+03 -0.17822995990E+04  0.53501286462E+03  0.18755093171E+04  0.00000000000E+00 0. -1.
         -3    1    3    3    0  502 -0.48445682902E+02 -0.34607675290E+03  0.14669022471E+03  0.37899093012E+03  0.00000000000E+00 0.  1.
         11    1    5    5    0    0 -0.83637481400E+02  0.76546691694E+03  0.22235646662E+03  0.80148439004E+03  0.00000000000E+00 0. -1.
        -11    1    5    5    0    0 -0.69511737438E+02  0.22643110863E+03  0.86396790089E+02  0.25212563125E+03  0.00000000000E+00 0.  1.
          3    1    6    6  503    0  0.25626500275E+03  0.70317801993E+03  0.33260864822E+03  0.81899914055E+03  0.00000000000E+00 0. -1.
         -3    1    6    6    0  503  0.17921998531E+03  0.43330030642E+03  0.13474657537E+03  0.48787867165E+03  0.00000000000E+00 0.  1.
<mgrwt>
<rscale>  0 0.21856180E+04</rscale>
<asrwt>0</asrwt>
<pdfrwt beam="1">  1        2 0.46713843E+00 0.21856180E+04</pdfrwt>
<pdfrwt beam="2">  1       -2 0.24285973E+00 0.21856180E+04</pdfrwt>
<totfact> 0.10258040E-01</totfact>
</mgrwt>
</event>
<event>
12    1  0.1432447E-007  0.8383109E+03  0.7818608E-02  0.9506161E-01
          1   -1    0    0  501    0  0.00000000000E+00  0.00000000000E+00  0.76494447659E+03  0.76494447659E+03  0.00000000000E+00 0. -1.
         -1   -1    0    0    0  501 -0.00000000000E+00 -0.00000000000E+00 -0.11704625355E+04  0.11704625355E+04  0.00000000000E+00 0.  1.
         23    2    1    2    0    0 -0.29548601671E+02  0.77444018693E+03  0.17059535206E+03  0.79861018223E+03  0.89692396619E+02 0.  0.
    5000000    2    1    2    0    0  0.29548601671E+02 -0.77444018693E+03 -0.57611341092E+03  0.11367968298E+04  0.59980800850E+03 0.  0.
         23    2    4    4    0    0  0.21353942492E+03 -0.53917137921E+03 -0.14778541791E+03  0.60673741611E+03  0.99924472528E+02 0.  0.
         23    2    4    4    0    0 -0.18399082325E+03 -0.23526880773E+03 -0.42832799301E+03  0.53005941371E+03  0.91071826267E+02 0.  0.
          1    1    3    3  502    0  0.18087869032E+02  0.56679782845E+03  0.11983263028E+03  0.57960918610E+03  0.00000000000E+00 0. -1.
         -1    1    3    3    0  502 -0.47636470703E+02  0.20764235849E+03  0.50762721783E+02  0.21900099612E+03  0.00000000000E+00 0.  1.
         11    1    5    5    0    0  0.94348729964E+01 -0.98042711294E+02 -0.51820363953E+02  0.11129573301E+03  0.00000000000E+00 0. -1.
        -11    1    5    5    0    0  0.20410455192E+03 -0.44112866791E+03 -0.95965053958E+02  0.49544168310E+03  0.00000000000E+00 0.  1.
          4    1    6    6  503    0 -0.28656947348E+02 -0.10616056945E+03 -0.13996358137E+03  0.17799182915E+03  0.00000000000E+00 0. -1.
         -4    1    6    6    0  503 -0.15533387590E+03 -0.12910823828E+03 -0.28836441165E+03  0.35206758456E+03  0.00000000000E+00 0.  1.
<mgrwt>
<rscale>  0 0.83831091E+03</rscale>
<asrwt>0</asrwt>
<pdfrwt beam="1">  1        1 0.11768377E+00 0.83831091E+03</pdfrwt>
<pdfrwt beam="2">  1       -1 0.18007116E+00 0.83831091E+03</pdfrwt>
<totfact> 0.50487754E+00</totfact>
</mgrwt>
</event>
<event>
12    1  0.1432447E-007  0.6255250E+03  0.7818608E-02  0.9853820E-01
          2   -1    0    0  501    0  0.00000000000E+00  0.00000000000E+00  0.18695514178E+04  0.18695514178E+04  0.00000000000E+00 0.  1.
         -2   -1    0    0    0  501 -0.00000000000E+00 -0.00000000000E+00 -0.24908341373E+03  0.24908341373E+03  0.00000000000E+00 0. -1.
         23    2    1    2    0    0 -0.48264354065E+03 -0.22697068502E+03  0.47577113905E+03  0.72042917173E+03  0.90551286725E+02 0.  0.
    5000000    2    1    2    0    0  0.48264354065E+03  0.22697068502E+03  0.11446968650E+04  0.13982056598E+04  0.60015637557E+03 0.  0.
         23    2    4    4    0    0  0.33623033739E+03  0.37374468583E+03  0.10132037653E+04  0.11346983882E+04  0.90678730283E+02 0.  0.
         23    2    4    4    0    0  0.14641320327E+03 -0.14677400081E+03  0.13149309971E+03  0.26350727163E+03  0.95740344301E+02 0.  0.
          2    1    3    3  502    0 -0.27283831225E+03 -0.13384708360E+03  0.32947440922E+03  0.44822892895E+03  0.00000000000E+00 0. -1.
         -2    1    3    3    0  502 -0.20980522840E+03 -0.93123601426E+02  0.14629672983E+03  0.27220024278E+03  0.00000000000E+00 0.  1.
         13    1    5    5    0    0  0.20364806507E+03  0.28240167113E+03  0.64898872448E+03  0.73648462493E+03  0.00000000000E+00 0.  1.
        -13    1    5    5    0    0  0.13258227232E+03  0.91343014700E+02  0.36421504085E+03  0.39821376326E+03  0.00000000000E+00 0. -1.
          1    1    6    6  503    0  0.24865079937E+02 -0.37446773632E+02  0.80599391485E+02  0.92286483103E+02  0.00000000000E+00 0. -1.
         -1    1    6    6    0  503  0.12154812333E+03 -0.10932722718E+03  0.50893708224E+02  0.17122078853E+03  0.00000000000E+00 0.  1.
<mgrwt>
<rscale>  0 0.62552503E+03</rscale>
<asrwt>0</asrwt>
<pdfrwt beam="1">  1        2 0.28762329E+00 0.62552503E+03</pdfrwt>
<pdfrwt beam="2">  1       -2 0.38320526E-01 0.62552503E+03</pdfrwt>
<totfact> 0.52986176E+01</totfact>
</mgrwt>
</event>
<event>
12    1  0.1432447E-007  0.1162489E+04  0.7818608E-02  0.9146339E-01
         -1   -1    0    0    0  501 -0.00000000000E+00  0.00000000000E+00  0.13704315841E+04  0.13704315841E+04  0.00000000000E+00 0.  1.
          1   -1    0    0  501    0  0.00000000000E+00 -0.00000000000E+00 -0.13259704221E+04  0.13259704221E+04  0.00000000000E+00 0. -1.
         23    2    1    2    0    0  0.81561837231E+03  0.80124215261E+03  0.59564204389E+03  0.12924700528E+04  0.92016719663E+02 0.  0.
    5000000    2    1    2    0    0 -0.81561837231E+03 -0.80124215261E+03 -0.55118088186E+03  0.14039319533E+04  0.60000187395E+03 0.  0.
         23    2    4    4    0    0 -0.72082613799E+03 -0.59189672132E+03 -0.17363294594E+03  0.95295848060E+03  0.89718537249E+02 0.  0.
         23    2    4    4    0    0 -0.94792234327E+02 -0.20934543129E+03 -0.37754793592E+03  0.45097347275E+03  0.89574281546E+02 0.  0.
          1    1    3    3  502    0  0.34589450984E+03  0.36871957400E+03  0.30933230383E+03  0.59269183425E+03  0.00000000000E+00 0. -1.
         -1    1    3    3    0  502  0.46972386247E+03  0.43252257860E+03  0.28630974006E+03  0.69977821860E+03  0.00000000000E+00 0.  1.
         11    1    5    5    0    0 -0.44148437452E+03 -0.31229398924E+03 -0.12202352818E+03  0.55436966917E+03  0.00000000000E+00 0.  1.
        -11    1    5    5    0    0 -0.27934176346E+03 -0.27960273208E+03 -0.51609417758E+02  0.39858881143E+03  0.00000000000E+00 0. -1.
          1    1    6    6  503    0  0.92300191672E+01 -0.71982705611E+02 -0.13764722866E+03  0.15560675666E+03  0.00000000000E+00 0. -1.
         -1    1    6    6    0  503 -0.10402225349E+03 -0.13736272567E+03 -0.23990070726E+03  0.29536671608E+03  0.00000000000E+00 0.  1.
<mgrwt>
<rscale>  0 0.11624886E+04</rscale>
<asrwt>0</asrwt>
<pdfrwt beam="1">  1        1 0.20399545E+00 0.11624886E+04</pdfrwt>
<pdfrwt beam="2">  1       -1 0.21083563E+00 0.11624886E+04</pdfrwt>
<totfact> 0.10828096E+00</totfact>
</mgrwt>
</event>
<event>
12    1  0.1432447E-007  0.1040170E+04  0.7818608E-02  0.9265552E-01
          1   -1    0    0  501    0  0.00000000000E+00  0.00000000000E+00  0.28476737961E+04  0.28476737961E+04  0.00000000000E+00 0. -1.
         -1   -1    0    0    0  501 -0.00000000000E+00 -0.00000000000E+00 -0.53329010051E+03  0.53329010051E+03  0.00000000000E+00 0.  1.
         23    2    1    2    0    0 -0.71340595666E+03  0.65493938296E+03  0.22072499075E+03  0.99744967761E+03  0.91064172178E+02 0.  0.
    5000000    2    1    2    0    0  0.71340595666E+03 -0.65493938296E+03  0.20936587049E+04  0.23835142190E+04  0.59986632303E+03 0.  0.
         23    2    4    4    0    0  0.63516138366E+03 -0.24927249650E+03  0.10286130587E+04  0.12377273068E+04  0.91418272397E+02 0.  0.
         23    2    4    4    0    0  0.78244573007E+02 -0.40566688646E+03  0.10650456461E+04  0.11457869123E+04  0.88417102325E+02 0.  0.
          2    1    3    3  502    0 -0.32456762506E+03  0.26202224500E+03  0.13243351783E+03  0.43765104451E+03  0.00000000000E+00 0. -1.
         -2    1    3    3    0  502 -0.38883833160E+03  0.39291713797E+03  0.88291472920E+02  0.55979863310E+03  0.00000000000E+00 0.  1.
         13    1    5    5    0    0  0.35069106944E+03 -0.18489047698E+03  0.57415386932E+03  0.69772586330E+03  0.00000000000E+00 0.  1.
        -13    1    5    5    0    0  0.28447031422E+03 -0.64382019523E+02  0.45445918939E+03  0.54000144345E+03  0.00000000000E+00 0. -1.
          2    1    6    6  503    0  0.40445891322E+02 -0.36323206173E+03  0.93321621081E+03  0.10022304610E+04  0.00000000000E+00 0. -1.
         -2    1    6    6    0  503  0.37798681685E+02 -0.42434824726E+02  0.13182943533E+03  0.14355645129E+03  0.00000000000E+00 0.  1.
<mgrwt>
<rscale>  0 0.10401701E+04</rscale>
<asrwt>0</asrwt>
<pdfrwt beam="1">  1        1 0.43810365E+00 0.10401701E+04</pdfrwt>
<pdfrwt beam="2">  1       -1 0.82044633E-01 0.10401701E+04</pdfrwt>
<totfact> 0.11597732E+00</totfact>
</mgrwt>
</event>
<event>
12    1  0.1432447E-007  0.2284638E+04  0.7818608E-02  0.8484003E-01
          2   -1    0    0  501    0  0.00000000000E+00  0.00000000000E+00  0.32386109166E+04  0.32386109166E+04  0.00000000000E+00 0. -1.
         -2   -1    0    0    0  501 -0.00000000000E+00 -0.00000000000E+00 -0.17118981719E+04  0.17118981719E+04  0.00000000000E+00 0.  1.
         23    2    1    2    0    0  0.18609318352E+04 -0.13151017028E+04  0.31927785515E+03  0.23027951537E+04  0.91473424449E+02 0.  0.
    5000000    2    1    2    0    0 -0.18609318352E+04  0.13151017028E+04  0.12074348896E+04  0.26477139348E+04  0.59994190035E+03 0.  0.
         23    2    4    4    0    0 -0.70081799388E+03  0.36568004578E+03  0.70776197556E+03  0.10648991952E+04  0.90639535394E+02 0.  0.
         23    2    4    4    0    0 -0.11601138413E+04  0.94942165701E+03  0.49967291403E+03  0.15828147396E+04  0.91454203127E+02 0.  0.
          3    1    3    3  502    0  0.12327700189E+04 -0.89470104491E+03  0.17439324239E+03  0.15331747722E+04  0.00000000000E+00 0. -1.
         -3    1    3    3    0  502  0.62816181632E+03 -0.42040065788E+03  0.14488461276E+03  0.76962038151E+03  0.00000000000E+00 0.  1.
         11    1    5    5    0    0 -0.28095154184E+03  0.13265420974E+03  0.33584995531E+03  0.45752169424E+03  0.00000000000E+00 0. -1.
        -11    1    5    5    0    0 -0.41986645204E+03  0.23302583604E+03  0.37191202025E+03  0.60737750091E+03  0.00000000000E+00 0.  1.
          1    1    6    6  503    0 -0.40961450711E+03  0.31966090486E+03  0.21750686844E+03  0.56327291463E+03  0.00000000000E+00 0. -1.
         -1    1    6    6    0  503 -0.75049933420E+03  0.62976075215E+03  0.28216604559E+03  0.10195418250E+04  0.00000000000E+00 0.  1.
<mgrwt>
<rscale>  0 0.22846384E+04</rscale>
<asrwt>0</asrwt>
<pdfrwt beam="1">  1        2 0.49824783E+00 0.22846384E+04</pdfrwt>
<pdfrwt beam="2">  1       -2 0.26336895E+00 0.22846384E+04</pdfrwt>
<totfact> 0.56129981E-02</totfact>
</mgrwt>
</event>
<event>
12    1  0.1432447E-007  0.5262236E+03  0.7818608E-02  0.1007152E+00
         -2   -1    0    0    0  501 -0.00000000000E+00  0.00000000000E+00  0.10996045199E+04  0.10996045199E+04  0.00000000000E+00 0. -1.
          2   -1    0    0  501    0  0.00000000000E+00 -0.00000000000E+00 -0.17086740295E+04  0.17086740295E+04  0.00000000000E+00 0.  1.
         23    2    1    2    0    0 -0.29146011322E+03  0.36320803711E+03  0.95691160827E+03  0.10679058719E+04  0.88735840187E+02 0.  0.
    5000000    2    1    2    0    0  0.29146011322E+03 -0.36320803711E+03 -0.15659811179E+04  0.17403726775E+04  0.59977589072E+03 0.  0.
         23    2    4    4    0    0  0.91738662405E+02 -0.33676667862E+03 -0.14432079772E+04  0.14876815933E+04  0.92301026870E+02 0.  0.
         23    2    4    4    0    0  0.19972145081E+03 -0.26441358488E+02 -0.12277314076E+03  0.25269108425E+03  0.90508212956E+02 0.  0.
          1    1    3    3  502    0 -0.62103345844E+02  0.13937529293E+03  0.34192111906E+03  0.37442268829E+03  0.00000000000E+00 0. -1.
         -1    1    3    3    0  502 -0.22935676737E+03  0.22383274418E+03  0.61499048921E+03  0.69348318359E+03  0.00000000000E+00 0.  1.
         11    1    5    5    0    0  0.10271410459E+01  0.61088114913E+01 -0.19464090798E+02  0.20426047762E+02  0.00000000000E+00 0.  1.
        -11    1    5    5    0    0  0.90711521359E+02 -0.34287549011E+03 -0.14237438864E+04  0.14672555455E+04  0.00000000000E+00 0. -1.
          2    1    6    6  503    0  0.44697370402E+02 -0.43732005219E+02 -0.52317616398E+02  0.81532056192E+02  0.00000000000E+00 0.  1.
         -2    1    6    6    0  503  0.15502408041E+03  0.17290646731E+02 -0.70455524361E+02  0.17115902805E+03  0.00000000000E+00 0. -1.
<mgrwt>
<rscale>  0 0.52622358E+03</rscale>
<asrwt>0</asrwt>
<pdfrwt beam="1">  1        2 0.26287293E+00 0.52622358E+03</pdfrwt>
<pdfrwt beam="2">  1       -2 0.16916993E+00 0.52622358E+03</pdfrwt>
<totfact> 0.22692138E+00</totfact>
</mgrwt>
</event>
<event>
12    1  0.1432447E-007  0.9802040E+03  0.7818608E-02  0.9330527E-01
          2   -1    0    0  501    0  0.00000000000E+00  0.00000000000E+00  0.97298021958E+03  0.97298021958E+03  0.00000000000E+00 0. -1.
         -2   -1    0    0    0  501 -0.00000000000E+00 -0.00000000000E+00 -0.16959253778E+04  0.16959253778E+04  0.00000000000E+00 0.  1.
         23    2    1    2    0    0  0.69088557317E+03 -0.62823174319E+03  0.46121445101E+03  0.10459085381E+04  0.95957812781E+02 0.  0.
    5000000    2    1    2    0    0 -0.69088557317E+03  0.62823174319E+03 -0.11841596092E+04  0.16229970593E+04  0.59990622269E+03 0.  0.
         23    2    4    4    0    0 -0.24692591189E+03 -0.23459298259E+01 -0.58578957057E+03  0.64287601481E+03  0.95719590828E+02 0.  0.
         23    2    4    4    0    0 -0.44395966127E+03  0.63057767301E+03 -0.59837003863E+03  0.98012104448E+03  0.88668913175E+02 0.  0.
          3    1    3    3  502    0  0.50111602007E+03 -0.41155123272E+03  0.28560212481E+03  0.70856210485E+03  0.00000000000E+00 0. -1.
         -3    1    3    3    0  502  0.18976955309E+03 -0.21668051046E+03  0.17561232619E+03  0.33734643322E+03  0.00000000000E+00 0.  1.
         13    1    5    5    0    0 -0.52630891769E+02 -0.22796627426E+02 -0.65216321402E+02  0.86849672237E+02  0.00000000000E+00 0. -1.
        -13    1    5    5    0    0 -0.19429502012E+03  0.20450697600E+02 -0.52057324917E+03  0.55602634257E+03  0.00000000000E+00 0.  1.
          4    1    6    6  503    0 -0.17771993679E+03  0.25597868039E+03 -0.29742547863E+03  0.43077996249E+03  0.00000000000E+00 0.  1.
         -4    1    6    6    0  503 -0.26623972448E+03  0.37459899262E+03 -0.30094456000E+03  0.54934108199E+03  0.00000000000E+00 0. -1.
<mgrwt>
<rscale>  0 0.98020400E+03</rscale>
<asrwt>0</asrwt>
<pdfrwt beam="1">  1        2 0.14968927E+00 0.98020400E+03</pdfrwt>
<pdfrwt beam="2">  1       -2 0.26091159E+00 0.98020400E+03</pdfrwt>
<totfact> 0.14456916E+00</totfact>
</mgrwt>
</event>
<event>
12    1  0.1432447E-007  0.4442010E+03  0.7818608E-02  0.1029466E+00
         -2   -1    0    0    0  501 -0.00000000000E+00  0.00000000000E+00  0.82795530521E+02  0.82795530521E+02  0.00000000000E+00 0.  1.
          2   -1    0    0  501    0  0.00000000000E+00 -0.00000000000E+00 -0.29271543087E+04  0.29271543087E+04  0.00000000000E+00 0. -1.
         23    2    1    2    0    0  0.13369824906E+03 -0.24188994602E+03 -0.12608593737E+04  0.12942009935E+04  0.93829012737E+02 0.  0.
    5000000    2    1    2    0    0 -0.13369824906E+03  0.24188994602E+03 -0.15834994045E+04  0.17157488457E+04  0.59994813918E+03 0.  0.
         23    2    4    4    0    0  0.44654981805E+02  0.36478116507E+03 -0.12612842048E+04  0.13169154873E+04  0.91483276319E+02 0.  0.
         23    2    4    4    0    0 -0.17835323087E+03 -0.12289121905E+03 -0.32221519974E+03  0.39883335836E+03  0.91286834306E+02 0.  0.
          1    1    3    3  502    0  0.70926196267E+01 -0.10546036846E+03 -0.44514684990E+03  0.45752367430E+03  0.00000000000E+00 0. -1.
         -1    1    3    3    0  502  0.12660562944E+03 -0.13642957756E+03 -0.81571252375E+03  0.83667731919E+03  0.00000000000E+00 0.  1.
         11    1    5    5    0    0  0.20671133164E+02  0.95010843728E+02 -0.21187737165E+03  0.23312309365E+03  0.00000000000E+00 0. -1.
        -11    1    5    5    0    0  0.23983848641E+02  0.26977032134E+03 -0.10494068331E+04  0.10837923937E+04  0.00000000000E+00 0.  1.
          1    1    6    6  503    0  0.65429846974E+01 -0.97622774489E+01 -0.47327388478E+02  0.48764684043E+02  0.00000000000E+00 0. -1.
         -1    1    6    6    0  503 -0.18489621556E+03 -0.11312894160E+03 -0.27488781126E+03  0.35006867432E+03  0.00000000000E+00 0.  1.
<mgrwt>
<rscale>  0 0.44420099E+03</rscale>
<asrwt>0</asrwt>
<pdfrwt beam="1">  1        2 0.45033145E+00 0.44420099E+03</pdfrwt>
<pdfrwt beam="2">  1       -2 0.12737774E-01 0.44420099E+03</pdfrwt>
<totfact> 0.98648705E+01</totfact>
</mgrwt>
</event>
<event>
12    1  0.1432447E-007  0.1939186E+04  0.7818608E-02  0.8635593E-01
         -2   -1    0    0    0  501 -0.00000000000E+00  0.00000000000E+00  0.15235548951E+04  0.15235548951E+04  0.00000000000E+00 0.  1.
          2   -1    0    0  501    0  0.00000000000E+00 -0.00000000000E+00 -0.31495627890E+04  0.31495627890E+04  0.00000000000E+00 0. -1.
         23    2    1    2    0    0  0.23939720300E+03  0.19156943240E+04 -0.18036550599E+04  0.26436506511E+04  0.92311572230E+02 0.  0.
    5000000    2    1    2    0    0 -0.23939720300E+03 -0.19156943240E+04  0.17764716601E+03  0.20294670329E+04  0.59998513162E+03 0.  0.
         23    2    4    4    0    0 -0.18244283503E+03 -0.72361885517E+03 -0.19314008537E+03  0.77652849112E+03  0.93721765497E+02 0.  0.
         23    2    4    4    0    0 -0.56954367963E+02 -0.11920754688E+04  0.37078725138E+03  0.12529385418E+04  0.89911513368E+02 0.  0.
          3    1    3    3  502    0  0.19470402655E+03  0.12527831442E+04 -0.11530300405E+04  0.17137250476E+04  0.00000000000E+00 0. -1.
         -3    1    3    3    0  502  0.44693176442E+02  0.66291117984E+03 -0.65062501936E+03  0.92992560359E+03  0.00000000000E+00 0.  1.
         11    1    5    5    0    0 -0.43471718129E+02 -0.33773124069E+03 -0.11171837070E+03  0.35837574634E+03  0.00000000000E+00 0.  1.
        -11    1    5    5    0    0 -0.13897111690E+03 -0.38588761448E+03 -0.81421714673E+02  0.41815274478E+03  0.00000000000E+00 0. -1.
          1    1    6    6  503    0 -0.56568836410E+02 -0.47022660418E+03  0.11786958095E+03  0.48806385919E+03  0.00000000000E+00 0. -1.
         -1    1    6    6    0  503 -0.38553155226E+00 -0.72184886466E+03  0.25291767044E+03  0.76487468259E+03  0.00000000000E+00 0.  1.
<mgrwt>
<rscale>  0 0.19391858E+04</rscale>
<asrwt>0</asrwt>
<pdfrwt beam="1">  1        2 0.48454812E+00 0.19391858E+04</pdfrwt>
<pdfrwt beam="2">  1       -2 0.23439306E+00 0.19391858E+04</pdfrwt>
<totfact> 0.10044769E-01</totfact>
</mgrwt>
</event>
<event>
12    1  0.1432447E-007  0.9086885E+03  0.7818608E-02  0.9414785E-01
          2   -1    0    0  501    0  0.00000000000E+00  0.00000000000E+00  0.79243331352E+03  0.79243331352E+03  0.00000000000E+00 0. -1.
         -2   -1    0    0    0  501 -0.00000000000E+00 -0.00000000000E+00 -0.13164263122E+04  0.13164263122E+04  0.00000000000E+00 0.  1.
         23    2    1    2    0    0 -0.81982447173E+03 -0.34773197321E+03  0.39756593270E+02  0.89606741239E+03  0.91249828542E+02 0.  0.
    5000000    2    1    2    0    0  0.81982447173E+03  0.34773197321E+03 -0.56374959200E+03  0.12127922134E+04  0.60001805030E+03 0.  0.
         23    2    4    4    0    0  0.62851625546E+03  0.32799808423E+03 -0.66332814151E+03  0.97493386034E+03  0.88748983514E+02 0.  0.
         23    2    4    4    0    0  0.19130821627E+03  0.19733888979E+02  0.99578549518E+02  0.23785835303E+03  0.98348607485E+02 0.  0.
          3    1    3    3  502    0 -0.57827593577E+03 -0.26622566381E+03 -0.81916242794E+01  0.63666809617E+03  0.00000000000E+00 0. -1.
         -3    1    3    3    0  502 -0.24154853595E+03 -0.81506309399E+02  0.47948217550E+02  0.25939931623E+03  0.00000000000E+00 0.  1.
         13    1    5    5    0    0  0.11605142809E+03  0.10158311485E+03 -0.14436812126E+03  0.21125628421E+03  0.00000000000E+00 0.  1.
        -13    1    5    5    0    0  0.51246482737E+03  0.22641496938E+03 -0.51896002026E+03  0.76367757613E+03  0.00000000000E+00 0. -1.
          2    1    6    6  503    0  0.10961147163E+03  0.54677636587E+02  0.81651687028E+02  0.14721180880E+03  0.00000000000E+00 0.  1.
         -2    1    6    6    0  503  0.81696744637E+02 -0.34943747608E+02  0.17926862490E+02  0.90646544225E+02  0.00000000000E+00 0. -1.
<mgrwt>
<rscale>  0 0.90868853E+03</rscale>
<asrwt>0</asrwt>
<pdfrwt beam="1">  1        2 0.12191282E+00 0.90868853E+03</pdfrwt>
<pdfrwt beam="2">  1       -2 0.20252712E+00 0.90868853E+03</pdfrwt>
<totfact> 0.44778448E+00</totfact>
</mgrwt>
</event>
<event>
12    1  0.1487190E-007  0.7927599E+03  0.7818608E-02  0.9570556E-01
          2   -1    0    0  501    0  0.00000000000E+00  0.00000000000E+00  0.96976705968E+03  0.96976705968E+03  0.00000000000E+00 0. -1.
         -2   -1    0    0    0  501 -0.00000000000E+00 -0.00000000000E+00 -0.75636792784E+03  0.75636792784E+03  0.00000000000E+00 0.  1.
         23    2    1    2    0    0 -0.49583970692E+03  0.48527461901E+03  0.37540428716E+03  0.79465639763E+03  0.95926746289E+02 0.  0.
    5000000    2    1    2    0    0  0.49583970692E+03 -0.48527461901E+03 -0.16200515533E+03  0.93147858989E+03  0.60004851659E+03 0.  0.
         23    2    4    4    0    0  0.49902262894E+03 -0.12752182023E+03 -0.19973869618E+03  0.56027697606E+03  0.93430960197E+02 0.  0.
         23    2    4    4    0    0 -0.31829220202E+01 -0.35775279878E+03  0.37733540847E+02  0.37120161383E+03  0.91485638105E+02 0.  0.
          1    1    3    3  502    0 -0.31718973508E+03  0.25411124208E+03  0.19003614472E+03  0.44865976830E+03  0.00000000000E+00 0. -1.
         -1    1    3    3    0  502 -0.17864997184E+03  0.23116337692E+03  0.18536814244E+03  0.34599662932E+03  0.00000000000E+00 0.  1.
         11    1    5    5    0    0  0.39394925570E+03 -0.12579246016E+03 -0.12749595771E+03  0.43275279125E+03  0.00000000000E+00 0. -1.
        -11    1    5    5    0    0  0.10507337324E+03 -0.17293600628E+01 -0.72242738470E+02  0.12752418481E+03  0.00000000000E+00 0.  1.
          4    1    6    6  503    0  0.34183567742E+02 -0.27962070394E+03  0.17401207300E+02  0.28223936011E+03  0.00000000000E+00 0. -1.
         -4    1    6    6    0  503 -0.37366489762E+02 -0.78132094836E+02  0.20332333547E+02  0.88962253726E+02  0.00000000000E+00 0.  1.
<mgrwt>
<rscale>  0 0.79275994E+03</rscale>
<asrwt>0</asrwt>
<pdfrwt beam="1">  1        2 0.14919493E+00 0.79275994E+03</pdfrwt>
<pdfrwt beam="2">  1       -2 0.11636430E+00 0.79275994E+03</pdfrwt>
<totfact> 0.15275137E+01</totfact>
</mgrwt>
</event>
<event>
12    1  0.1432447E-007  0.4450137E+03  0.7818608E-02  0.1029220E+00
         -1   -1    0    0    0  501 -0.00000000000E+00  0.00000000000E+00  0.25355119210E+03  0.25355119210E+03  0.00000000000E+00 0.  1.
          1   -1    0    0  501    0  0.00000000000E+00 -0.00000000000E+00 -0.99069607918E+03  0.99069607918E+03  0.00000000000E+00 0. -1.
         23    2    1    2    0    0 -0.20735224243E+03  0.15735313991E+03 -0.40859042034E+02  0.28896125732E+03  0.11863466540E+03 0.  0.
    5000000    2    1    2    0    0  0.20735224243E+03 -0.15735313991E+03 -0.69628584505E+03  0.95528601396E+03  0.60000202281E+03 0.  0.
         23    2    4    4    0    0  0.32554262268E+03  0.78097877121E+02 -0.24415445777E+03  0.42418312366E+03  0.90789016717E+02 0.  0.
         23    2    4    4    0    0 -0.11819038024E+03 -0.23545101703E+03 -0.45213138728E+03  0.53110289030E+03  0.90781833670E+02 0.  0.
          1    1    3    3  502    0 -0.10775496266E+02  0.63618549681E+02  0.10066750193E+02  0.65305211452E+02  0.00000000000E+00 0. -1.
         -1    1    3    3    0  502 -0.19657674617E+03  0.93734590224E+02 -0.50925792227E+02  0.22365604586E+03  0.00000000000E+00 0.  1.
         11    1    5    5    0    0  0.18310908926E+03  0.60170684808E+02 -0.19029895593E+03  0.27085631340E+03  0.00000000000E+00 0.  1.
        -11    1    5    5    0    0  0.14243353341E+03  0.17927192313E+02 -0.53855501839E+02  0.15332681026E+03  0.00000000000E+00 0. -1.
          3    1    6    6  503    0 -0.78103895597E+02 -0.83763299654E+02 -0.13318333121E+03  0.17565394555E+03  0.00000000000E+00 0. -1.
         -3    1    6    6    0  503 -0.40086484648E+02 -0.15168771737E+03 -0.31894805607E+03  0.35544894475E+03  0.00000000000E+00 0.  1.
<mgrwt>
<rscale>  0 0.44501371E+03</rscale>
<asrwt>0</asrwt>
<pdfrwt beam="1">  1        1 0.15241478E+00 0.44501371E+03</pdfrwt>
<pdfrwt beam="2">  1       -1 0.39007876E-01 0.44501371E+03</pdfrwt>
<totfact> 0.10319334E+02</totfact>
</mgrwt>
</event>
<event>
12    1  0.1432447E-007  0.3923384E+03  0.7818608E-02  0.1046465E+00
          2   -1    0    0  501    0  0.00000000000E+00  0.00000000000E+00  0.66745527139E+03  0.66745527139E+03  0.00000000000E+00 0. -1.
         -2   -1    0    0    0  501 -0.00000000000E+00 -0.00000000000E+00 -0.30909245097E+03  0.30909245097E+03  0.00000000000E+00 0.  1.
         23    2    1    2    0    0 -0.54452147590E+02 -0.17223922175E+03  0.28444083328E+03  0.34548473096E+03  0.76300234600E+02 0.  0.
    5000000    2    1    2    0    0  0.54452147590E+02  0.17223922175E+03  0.73921987139E+02  0.63106299140E+03  0.60012053210E+03 0.  0.
         23    2    4    4    0    0  0.19794680761E+02  0.37894872426E+03  0.95430630531E+02  0.40187338788E+03  0.91658330985E+02 0.  0.
         23    2    4    4    0    0  0.34657466829E+02 -0.20670950251E+03 -0.21508643392E+02  0.22918960352E+03  0.90195865686E+02 0.  0.
          2    1    3    3  502    0 -0.63903738018E+02 -0.77782796971E+02  0.15868842760E+03  0.18792516673E+03  0.00000000000E+00 0. -1.
         -2    1    3    3    0  502  0.94515904279E+01 -0.94456424782E+02  0.12575240568E+03  0.15755956423E+03  0.00000000000E+00 0.  1.
         11    1    5    5    0    0  0.26363100540E+01  0.65847938870E+02  0.54747034548E+02  0.85674611035E+02  0.00000000000E+00 0. -1.
        -11    1    5    5    0    0  0.17158370707E+02  0.31310078539E+03  0.40683595983E+02  0.31619877685E+03  0.00000000000E+00 0.  1.
          3    1    6    6  503    0  0.17136580685E+02 -0.10993267229E+03 -0.56520357635E+02  0.12479345199E+03  0.00000000000E+00 0.  1.
         -3    1    6    6    0  503  0.17520886144E+02 -0.96776830221E+02  0.35011714243E+02  0.10439615152E+03  0.00000000000E+00 0. -1.
<mgrwt>
<rscale>  0 0.39233840E+03</rscale>
<asrwt>0</asrwt>
<pdfrwt beam="1">  1        2 0.10268543E+00 0.39233840E+03</pdfrwt>
<pdfrwt beam="2">  1       -2 0.47552685E-01 0.39233840E+03</pdfrwt>
<totfact> 0.18834339E+02</totfact>
</mgrwt>
</event>
<event>
12    1  0.1432447E-007  0.6875836E+03  0.7818608E-02  0.9738705E-01
         -2   -1    0    0    0  501 -0.00000000000E+00  0.00000000000E+00  0.48762462659E+03  0.48762462659E+03  0.00000000000E+00 0.  1.
          2   -1    0    0  501    0  0.00000000000E+00 -0.00000000000E+00 -0.12515925231E+04  0.12515925231E+04  0.00000000000E+00 0. -1.
         23    2    1    2    0    0  0.15209108296E+03  0.54641669286E+03  0.53023030088E+02  0.57766156941E+03  0.95804735244E+02 0.  0.
    5000000    2    1    2    0    0 -0.15209108296E+03 -0.54641669286E+03 -0.81699092659E+03  0.11615555803E+04  0.60002857613E+03 0.  0.
         23    2    4    4    0    0 -0.29116798580E+03 -0.61944977482E+02 -0.26763808991E+03  0.41043257155E+03  0.90602276061E+02 0.  0.
         23    2    4    4    0    0  0.13907690284E+03 -0.48447171538E+03 -0.54935283667E+03  0.75112300871E+03  0.91334589031E+02 0.  0.
          4    1    3    3  502    0  0.88846614377E+02  0.27063226309E+03 -0.19695344068E+02  0.28552311516E+03  0.00000000000E+00 0. -1.
         -4    1    3    3    0  502  0.63244468588E+02  0.27578442977E+03  0.72718374155E+02  0.29213845425E+03  0.00000000000E+00 0.  1.
         13    1    5    5    0    0 -0.49608152840E+02 -0.13620741491E+02 -0.72033032753E+01  0.51945943104E+02  0.00000000000E+00 0. -1.
        -13    1    5    5    0    0 -0.24155983296E+03 -0.48324235991E+02 -0.26043478664E+03  0.35848662845E+03  0.00000000000E+00 0.  1.
          2    1    6    6  503    0  0.10716686015E+03 -0.45013312033E+03 -0.51880629953E+03  0.69517230840E+03  0.00000000000E+00 0.  1.
         -2    1    6    6    0  503  0.31910042691E+02 -0.34338595043E+02 -0.30546537148E+02  0.55950700315E+02  0.00000000000E+00 0. -1.
<mgrwt>
<rscale>  0 0.68758357E+03</rscale>
<asrwt>0</asrwt>
<pdfrwt beam="1">  1        2 0.19255270E+00 0.68758357E+03</pdfrwt>
<pdfrwt beam="2">  1       -2 0.75019173E-01 0.68758357E+03</pdfrwt>
<totfact> 0.28915552E+01</totfact>
</mgrwt>
</event>
<event>
12    1  0.1432447E-007  0.6772005E+03  0.7818608E-02  0.9757037E-01
          2   -1    0    0  501    0  0.00000000000E+00  0.00000000000E+00  0.46283515126E+04  0.46283515126E+04  0.00000000000E+00 0. -1.
         -2   -1    0    0    0  501 -0.00000000000E+00 -0.00000000000E+00 -0.16239493841E+03  0.16239493841E+03  0.00000000000E+00 0.  1.
         23    2    1    2    0    0 -0.32494006209E+03  0.58624349568E+03  0.29614215298E+04  0.30378170747E+04  0.95118990657E+02 0.  0.
    5000000    2    1    2    0    0  0.32494006209E+03 -0.58624349568E+03  0.15045350444E+04  0.17529293763E+04  0.59989017176E+03 0.  0.
         23    2    4    4    0    0  0.18221209780E+03 -0.27914401148E+03  0.19462856613E+03  0.39685812088E+03  0.92159978414E+02 0.  0.
         23    2    4    4    0    0  0.14272796430E+03 -0.30709948420E+03  0.13099064783E+04  0.13560712554E+04  0.91612787796E+02 0.  0.
          4    1    3    3  502    0 -0.21706391002E+03  0.42048309082E+03  0.18932684356E+04  0.19515091955E+04  0.00000000000E+00 0. -1.
         -4    1    3    3    0  502 -0.10787615208E+03  0.16576040486E+03  0.10681530942E+04  0.10863078793E+04  0.00000000000E+00 0.  1.
         11    1    5    5    0    0  0.17233839251E+03 -0.19581952906E+03  0.13340654963E+03  0.29298996054E+03  0.00000000000E+00 0.  1.
        -11    1    5    5    0    0  0.98737052902E+01 -0.83324482424E+02  0.61222016502E+02  0.10386816034E+03  0.00000000000E+00 0. -1.
          1    1    6    6  503    0  0.13435375776E+03 -0.29075615503E+03  0.11089960503E+04  0.11543233141E+04  0.00000000000E+00 0. -1.
         -1    1    6    6    0  503  0.83742065375E+01 -0.16343329168E+02  0.20091042798E+03  0.20174794129E+03  0.00000000000E+00 0.  1.
<mgrwt>
<rscale>  0 0.67720045E+03</rscale>
<asrwt>0</asrwt>
<pdfrwt beam="1">  1        2 0.71205398E+00 0.67720045E+03</pdfrwt>
<pdfrwt beam="2">  1       -2 0.24983840E-01 0.67720045E+03</pdfrwt>
<totfact> 0.15297810E+00</totfact>
</mgrwt>
</event>
<event>
12    1  0.1432447E-007  0.7076127E+03  0.7818608E-02  0.9704301E-01
         -2   -1    0    0    0  501 -0.00000000000E+00  0.00000000000E+00  0.13709809461E+03  0.13709809461E+03  0.00000000000E+00 0.  1.
          2   -1    0    0  501    0  0.00000000000E+00 -0.00000000000E+00 -0.37451318655E+04  0.37451318655E+04  0.00000000000E+00 0. -1.
         23    2    1    2    0    0  0.58259185422E+03  0.21051206069E+02 -0.13180670319E+04  0.14442582909E+04  0.93407110743E+02 0.  0.
    5000000    2    1    2    0    0 -0.58259185422E+03 -0.21051206069E+02 -0.22899667390E+04  0.24379716692E+04  0.59991813802E+03 0.  0.
         23    2    4    4    0    0 -0.50374254775E+03 -0.25306672971E+03 -0.16605033829E+04  0.17563392979E+04  0.98269631965E+02 0.  0.
         23    2    4    4    0    0 -0.78849306474E+02  0.23201552364E+03 -0.62946335608E+03  0.68163237132E+03  0.91379191532E+02 0.  0.
          3    1    3    3  502    0  0.16413904456E+03 -0.18073512076E+02 -0.29207930011E+03  0.33552733918E+03  0.00000000000E+00 0. -1.
         -3    1    3    3    0  502  0.41845280966E+03  0.39124718144E+02 -0.10259877318E+04  0.11087309517E+04  0.00000000000E+00 0.  1.
         11    1    5    5    0    0 -0.32540194934E+03 -0.12153916497E+03 -0.11033062557E+04  0.11566948133E+04  0.00000000000E+00 0.  1.
        -11    1    5    5    0    0 -0.17834059840E+03 -0.13152756474E+03 -0.55719712723E+03  0.59964448461E+03  0.00000000000E+00 0. -1.
          3    1    6    6  503    0 -0.49273835052E+02  0.32184918139E+02 -0.12249670877E+03  0.13590152109E+03  0.00000000000E+00 0. -1.
         -3    1    6    6    0  503 -0.29575471422E+02  0.19983060550E+03 -0.50696664731E+03  0.54573085023E+03  0.00000000000E+00 0.  1.
<mgrwt>
<rscale>  0 0.70761265E+03</rscale>
<asrwt>0</asrwt>
<pdfrwt beam="1">  1        2 0.57617416E+00 0.70761265E+03</pdfrwt>
<pdfrwt beam="2">  1       -2 0.21092014E-01 0.70761265E+03</pdfrwt>
<totfact> 0.11530583E+01</totfact>
</mgrwt>
</event>
<event>
12    1  0.1432447E-007  0.9547333E+03  0.7818608E-02  0.9359635E-01
         -2   -1    0    0    0  501 -0.00000000000E+00  0.00000000000E+00  0.40427466415E+03  0.40427466415E+03  0.00000000000E+00 0.  1.
          2   -1    0    0  501    0  0.00000000000E+00 -0.00000000000E+00 -0.28419570337E+04  0.28419570337E+04  0.00000000000E+00 0. -1.
         23    2    1    2    0    0 -0.68556600865E+03  0.63539434187E+03 -0.65322062962E+03  0.11443709232E+04  0.95712575124E+02 0.  0.
    5000000    2    1    2    0    0  0.68556600865E+03 -0.63539434187E+03 -0.17844617399E+04  0.21018607746E+04  0.59982355134E+03 0.  0.
         23    2    4    4    0    0  0.10455095978E+03 -0.49144003358E+02 -0.80292168886E+03  0.81623979836E+03  0.90653922860E+02 0.  0.
         23    2    4    4    0    0  0.58101504888E+03 -0.58625033852E+03 -0.98154005105E+03  0.12856209763E+04  0.90180243552E+02 0.  0.
          3    1    3    3  502    0 -0.12488694286E+03  0.81675402231E+02 -0.75259869364E+02  0.16712769897E+03  0.00000000000E+00 0. -1.
         -3    1    3    3    0  502 -0.56067906579E+03  0.55371893964E+03 -0.57796076026E+03  0.97724322425E+03  0.00000000000E+00 0.  1.
         11    1    5    5    0    0  0.44910537261E+01  0.22970744827E+02 -0.11726401560E+03  0.11957706317E+03  0.00000000000E+00 0. -1.
        -11    1    5    5    0    0  0.10005990605E+03 -0.72114748184E+02 -0.68565767326E+03  0.69666273519E+03  0.00000000000E+00 0.  1.
          3    1    6    6  503    0  0.29997242247E+03 -0.29377441443E+03 -0.43001267747E+03  0.60099730748E+03  0.00000000000E+00 0. -1.
         -3    1    6    6    0  503  0.28104262640E+03 -0.29247592408E+03 -0.55152737358E+03  0.68462366877E+03  0.00000000000E+00 0.  1.
<mgrwt>
<rscale>  0 0.95473329E+03</rscale>
<asrwt>0</asrwt>
<pdfrwt beam="1">  1        2 0.43722415E+00 0.95473329E+03</pdfrwt>
<pdfrwt beam="2">  1       -2 0.62196103E-01 0.95473329E+03</pdfrwt>
<totfact> 0.53650876E+00</totfact>
</mgrwt>
</event>
<event>
12    1  0.1432447E-007  0.1201885E+04  0.7818608E-02  0.9111209E-01
         -1   -1    0    0    0  501 -0.00000000000E+00  0.00000000000E+00  0.15148963716E+04  0.15148963716E+04  0.00000000000E+00 0.  1.
          1   -1    0    0  501    0  0.00000000000E+00 -0.00000000000E+00 -0.10487942595E+04  0.10487942595E+04  0.00000000000E+00 0. -1.
         23    2    1    2    0    0 -0.11372133527E+04  0.27752370467E+03  0.21122541039E+02  0.11750778143E+04  0.10043949258E+03 0.  0.
    5000000    2    1    2    0    0  0.11372133527E+04 -0.27752370467E+03  0.44497957102E+03  0.13886128169E+04  0.59997093293E+03 0.  0.
         23    2    4    4    0    0  0.35143520455E+03  0.87237100422E+02  0.35139156349E+03  0.51246687220E+03  0.89606079776E+02 0.  0.
         23    2    4    4    0    0  0.78577814813E+03 -0.36476080509E+03  0.93588007530E+02  0.87614594466E+03  0.91516436604E+02 0.  0.
          3    1    3    3  502    0 -0.40144637464E+03  0.70202027947E+02  0.46878902700E+02  0.41022572806E+03  0.00000000000E+00 0. -1.
         -3    1    3    3    0  502 -0.73576697804E+03  0.20732167673E+03 -0.25756361661E+02  0.76485208621E+03  0.00000000000E+00 0.  1.
         13    1    5    5    0    0  0.11255419710E+03  0.50603753464E+02  0.17105963241E+03  0.21092791420E+03  0.00000000000E+00 0. -1.
        -13    1    5    5    0    0  0.23888100744E+03  0.36633346957E+02  0.18033193108E+03  0.30153895800E+03  0.00000000000E+00 0.  1.
          2    1    6    6  503    0  0.45133189735E+03 -0.22417374118E+03  0.10939664558E+02  0.50405756026E+03  0.00000000000E+00 0. -1.
         -2    1    6    6    0  503  0.33444625079E+03 -0.14058706391E+03  0.82648342972E+02  0.37208838440E+03  0.00000000000E+00 0.  1.
<mgrwt>
<rscale>  0 0.12018845E+04</rscale>
<asrwt>0</asrwt>
<pdfrwt beam="1">  1        1 0.16135296E+00 0.12018845E+04</pdfrwt>
<pdfrwt beam="2">  1       -1 0.23306098E+00 0.12018845E+04</pdfrwt>
<totfact> 0.12257508E+00</totfact>
</mgrwt>
</event>
<event>
12    1  0.1432447E-007  0.7733338E+03  0.7818608E-02  0.9599438E-01
         -2   -1    0    0    0  501 -0.00000000000E+00  0.00000000000E+00  0.63576786093E+03  0.63576786093E+03  0.00000000000E+00 0.  1.
          2   -1    0    0  501    0  0.00000000000E+00 -0.00000000000E+00 -0.12243069580E+04  0.12243069580E+04  0.00000000000E+00 0. -1.
         23    2    1    2    0    0  0.55861071643E+03  0.48356168216E+03 -0.64409755765E+01  0.74437037677E+03  0.90376648904E+02 0.  0.
    5000000    2    1    2    0    0 -0.55861071643E+03 -0.48356168216E+03 -0.58209812145E+03  0.11157044421E+04  0.60006695143E+03 0.  0.
         23    2    4    4    0    0 -0.15456087448E+03  0.10237830452E+02 -0.41169419497E+03  0.44937732404E+03  0.91945593159E+02 0.  0.
         23    2    4    4    0    0 -0.40404984195E+03 -0.49379951262E+03 -0.17040392649E+03  0.66632711808E+03  0.88657186326E+02 0.  0.
          1    1    3    3  502    0  0.42207012656E+03  0.35243978292E+03 -0.43071101368E+02  0.55155426940E+03  0.00000000000E+00 0. -1.
         -1    1    3    3    0  502  0.13654058988E+03  0.13112189924E+03  0.36630125792E+02  0.19281610737E+03  0.00000000000E+00 0.  1.
         13    1    5    5    0    0 -0.15372004843E+03  0.19700799995E+02 -0.30361387779E+03  0.34088027458E+03  0.00000000000E+00 0. -1.
        -13    1    5    5    0    0 -0.84082604675E+00 -0.94629695435E+01 -0.10808031717E+03  0.10849704946E+03  0.00000000000E+00 0.  1.
          3    1    6    6  503    0 -0.13509825379E+03 -0.10923930754E+03 -0.63895293736E+02  0.18511448633E+03  0.00000000000E+00 0. -1.
         -3    1    6    6    0  503 -0.26895158817E+03 -0.38456020508E+03 -0.10650863275E+03  0.48121263175E+03  0.00000000000E+00 0.  1.
<mgrwt>
<rscale>  0 0.77333379E+03</rscale>
<asrwt>0</asrwt>
<pdfrwt beam="1">  1        2 0.18835492E+00 0.77333379E+03</pdfrwt>
<pdfrwt beam="2">  1       -2 0.97810440E-01 0.77333379E+03</pdfrwt>
<totfact> 0.16213854E+01</totfact>
</mgrwt>
</event>
<event>
12    1  0.1432447E-007  0.5437381E+03  0.7818608E-02  0.1002954E+00
         -2   -1    0    0    0  501 -0.00000000000E+00  0.00000000000E+00  0.18790324901E+03  0.18790324901E+03  0.00000000000E+00 0.  1.
          2   -1    0    0  501    0  0.00000000000E+00 -0.00000000000E+00 -0.23052393925E+04  0.23052393925E+04  0.00000000000E+00 0. -1.
         23    2    1    2    0    0  0.22080849050E+03  0.36352511431E+03 -0.28629804907E+03  0.51990468433E+03  0.86182420941E+02 0.  0.
    5000000    2    1    2    0    0 -0.22080849050E+03 -0.36352511431E+03 -0.18310380944E+04  0.19732379572E+04  0.60005052641E+03 0.  0.
         23    2    4    4    0    0  0.11276403935E+03  0.22195133800E+02 -0.86462652084E+03  0.87678316348E+03  0.89226356496E+02 0.  0.
         23    2    4    4    0    0 -0.33357252985E+03 -0.38572024811E+03 -0.96641157360E+03  0.10964547937E+04  0.90614803486E+02 0.  0.
          1    1    3    3  502    0  0.10597975763E+03  0.11025253186E+03 -0.73132480216E+02  0.16951604488E+03  0.00000000000E+00 0. -1.
         -1    1    3    3    0  502  0.11482873287E+03  0.25327258246E+03 -0.21316556885E+03  0.35038863946E+03  0.00000000000E+00 0.  1.
         13    1    5    5    0    0  0.10083169171E+03 -0.15115189000E+02 -0.70944056948E+03  0.71672967053E+03  0.00000000000E+00 0.  1.
        -13    1    5    5    0    0  0.11932347641E+02  0.37310322801E+02 -0.15518595136E+03  0.16005349296E+03  0.00000000000E+00 0. -1.
          3    1    6    6  503    0 -0.59306472369E+02 -0.30922599702E+02 -0.16620223157E+03  0.17915537004E+03  0.00000000000E+00 0. -1.
         -3    1    6    6    0  503 -0.27426605748E+03 -0.35479764841E+03 -0.80020934204E+03  0.91729942368E+03  0.00000000000E+00 0.  1.
<mgrwt>
<rscale>  0 0.54373811E+03</rscale>
<asrwt>0</asrwt>
<pdfrwt beam="1">  1        2 0.35465223E+00 0.54373811E+03</pdfrwt>
<pdfrwt beam="2">  1       -2 0.28908191E-01 0.54373811E+03</pdfrwt>
<totfact> 0.52844979E+01</totfact>
</mgrwt>
</event>
<event>
12    1  0.1432447E-007  0.6298739E+03  0.7818608E-02  0.9845295E-01
         -2   -1    0    0    0  501 -0.00000000000E+00  0.00000000000E+00  0.98900394569E+03  0.98900394569E+03  0.00000000000E+00 0.  1.
          2   -1    0    0  501    0  0.00000000000E+00 -0.00000000000E+00 -0.50073028312E+03  0.50073028312E+03  0.00000000000E+00 0. -1.
         23    2    1    2    0    0  0.51124942020E+03  0.19752987249E+03  0.37265510738E+03  0.66888521254E+03  0.90230694967E+02 0.  0.
    5000000    2    1    2    0    0 -0.51124942020E+03 -0.19752987249E+03  0.11561855520E+03  0.82084901627E+03  0.60002619695E+03 0.  0.
         23    2    4    4    0    0 -0.43600001386E+03 -0.31558800994E+03 -0.92586848227E+02  0.55357727667E+03  0.90463653879E+02 0.  0.
         23    2    4    4    0    0 -0.75249406344E+02  0.11805813745E+03  0.20820540342E+03  0.26727173960E+03  0.92111322876E+02 0.  0.
          3    1    3    3  502    0  0.23709231069E+03  0.13910832555E+03  0.19470590385E+03  0.33685943511E+03  0.00000000000E+00 0. -1.
         -3    1    3    3    0  502  0.27415710951E+03  0.58421546936E+02  0.17794920352E+03  0.33202577743E+03  0.00000000000E+00 0.  1.
         13    1    5    5    0    0 -0.34389684913E+03 -0.23617519998E+03 -0.33942234424E+02  0.41856402522E+03  0.00000000000E+00 0.  1.
        -13    1    5    5    0    0 -0.92103164726E+02 -0.79412809964E+02 -0.58644613803E+02  0.13501325145E+03  0.00000000000E+00 0. -1.
          1    1    6    6  503    0  0.17591719740E+02  0.29030003609E+01  0.11741584074E+02  0.21348555246E+02  0.00000000000E+00 0. -1.
         -1    1    6    6    0  503 -0.92841126084E+02  0.11515513709E+03  0.19646381935E+03  0.24592318436E+03  0.00000000000E+00 0.  1.
<mgrwt>
<rscale>  0 0.62987392E+03</rscale>
<asrwt>0</asrwt>
<pdfrwt beam="1">  1        2 0.77035429E-01 0.62987392E+03</pdfrwt>
<pdfrwt beam="2">  1       -2 0.15215445E+00 0.62987392E+03</pdfrwt>
<totfact> 0.18190481E+01</totfact>
</mgrwt>
</event>
<event>
12    1  0.1432447E-007  0.1816710E+04  0.7818608E-02  0.8697464E-01
         -2   -1    0    0    0  501 -0.00000000000E+00  0.00000000000E+00  0.23526769352E+04  0.23526769352E+04  0.00000000000E+00 0.  1.
          2   -1    0    0  501    0  0.00000000000E+00 -0.00000000000E+00 -0.16063251142E+04  0.16063251142E+04  0.00000000000E+00 0. -1.
         23    2    1    2    0    0  0.59924789691E+03 -0.17093948866E+04  0.93669540908E+03  0.20413097719E+04  0.91751705497E+02 0.  0.
    5000000    2    1    2    0    0 -0.59924789691E+03  0.17093948866E+04 -0.19034358811E+03  0.19176922775E+04  0.60015337169E+03 0.  0.
         23    2    4    4    0    0 -0.48253278213E+03  0.14761391654E+04 -0.35720448726E+03  0.15960374834E+04  0.88971239174E+02 0.  0.
         23    2    4    4    0    0 -0.11671511478E+03  0.23325572121E+03  0.16686089916E+03  0.32165479411E+03  0.87112555987E+02 0.  0.
          3    1    3    3  502    0  0.24195818850E+03 -0.76363756267E+03  0.45757316654E+03  0.92252875014E+03  0.00000000000E+00 0. -1.
         -3    1    3    3    0  502  0.35728970841E+03 -0.94575732390E+03  0.47912224253E+03  0.11187810218E+04  0.00000000000E+00 0.  1.
         13    1    5    5    0    0 -0.32810497862E+03  0.98946785240E+03 -0.28222098948E+03  0.10799760159E+04  0.00000000000E+00 0.  1.
        -13    1    5    5    0    0 -0.15442780350E+03  0.48667131295E+03 -0.74983497789E+02  0.51606146755E+03  0.00000000000E+00 0. -1.
          3    1    6    6  503    0 -0.10198851610E+03  0.13611163802E+03  0.70753271235E+02  0.18421199964E+03  0.00000000000E+00 0. -1.
         -3    1    6    6    0  503 -0.14726598685E+02  0.97144083193E+02  0.96107627920E+02  0.13744279447E+03  0.00000000000E+00 0.  1.
<mgrwt>
<rscale>  0 0.18167096E+04</rscale>
<asrwt>0</asrwt>
<pdfrwt beam="1">  1        2 0.24712694E+00 0.18167096E+04</pdfrwt>
<pdfrwt beam="2">  1       -2 0.36195030E+00 0.18167096E+04</pdfrwt>
<totfact> 0.13145136E-01</totfact>
</mgrwt>
</event>
<event>
12    1  0.1432447E-007  0.3318623E+03  0.7818608E-02  0.1070316E+00
         -1   -1    0    0    0  501 -0.00000000000E+00  0.00000000000E+00  0.14045470789E+03  0.14045470789E+03  0.00000000000E+00 0.  1.
          1   -1    0    0  501    0  0.00000000000E+00 -0.00000000000E+00 -0.13046809440E+04  0.13046809440E+04  0.00000000000E+00 0. -1.
         23    2    1    2    0    0 -0.10151813316E+03  0.45831211008E+02 -0.15689404532E+02  0.14456893219E+03  0.90816229144E+02 0.  0.
    5000000    2    1    2    0    0  0.10151813316E+03 -0.45831211008E+02 -0.11485368316E+04  0.13005667197E+04  0.59994208692E+03 0.  0.
         23    2    4    4    0    0 -0.15978343274E+03 -0.17744345647E+03 -0.78353336695E+03  0.82426378213E+03  0.92028907384E+02 0.  0.
         23    2    4    4    0    0  0.26130156590E+03  0.13161224546E+03 -0.36500346460E+03  0.47630293755E+03  0.89647463130E+02 0.  0.
          3    1    3    3  502    0 -0.11161038011E+03  0.34703207051E+02 -0.33192541157E+02  0.12150281608E+03  0.00000000000E+00 0. -1.
         -3    1    3    3    0  502  0.10092246945E+02  0.11128003957E+02  0.17503136625E+02  0.23066116105E+02  0.00000000000E+00 0.  1.
         11    1    5    5    0    0 -0.48042714540E+02 -0.63328136832E+02 -0.13790348240E+03  0.15917262891E+03  0.00000000000E+00 0.  1.
        -11    1    5    5    0    0 -0.11174071820E+03 -0.11411531964E+03 -0.64562988455E+03  0.66509115323E+03  0.00000000000E+00 0. -1.
          4    1    6    6  503    0  0.15225268249E+03  0.79446538135E+02 -0.14281042537E+03  0.22335498504E+03  0.00000000000E+00 0. -1.
         -4    1    6    6    0  503  0.10904888341E+03  0.52165707329E+02 -0.22219303923E+03  0.25294795251E+03  0.00000000000E+00 0.  1.
<mgrwt>
<rscale>  0 0.33186227E+03</rscale>
<asrwt>0</asrwt>
<pdfrwt beam="1">  1        1 0.20072015E+00 0.33186227E+03</pdfrwt>
<pdfrwt beam="2">  1       -1 0.21608416E-01 0.33186227E+03</pdfrwt>
<totfact> 0.17154939E+02</totfact>
</mgrwt>
</event>
<event>
12    1  0.1432447E-007  0.5856735E+03  0.7818608E-02  0.9935583E-01
          2   -1    0    0  501    0  0.00000000000E+00  0.00000000000E+00  0.43762445813E+03  0.43762445813E+03  0.00000000000E+00 0. -1.
         -2   -1    0    0    0  501 -0.00000000000E+00 -0.00000000000E+00 -0.10143076063E+04  0.10143076063E+04  0.00000000000E+00 0.  1.
         23    2    1    2    0    0  0.13788162180E+03  0.42218811509E+03  0.77060092340E+02  0.45970974653E+03  0.90225534488E+02 0.  0.
    5000000    2    1    2    0    0 -0.13788162180E+03 -0.42218811509E+03 -0.65374324053E+03  0.99222231791E+03  0.59989228822E+03 0.  0.
         23    2    4    4    0    0  0.46158405925E+02  0.12458017114E+03 -0.11490245745E+03  0.19760348374E+03  0.90519305009E+02 0.  0.
         23    2    4    4    0    0 -0.18404002772E+03 -0.54676828623E+03 -0.53884078308E+03  0.79461883417E+03  0.90793234735E+02 0.  0.
          3    1    3    3  502    0  0.50208431530E+02  0.12852341924E+03  0.66208784636E+02  0.15304495762E+03  0.00000000000E+00 0. -1.
         -3    1    3    3    0  502  0.87673190268E+02  0.29366469585E+03  0.10851307704E+02  0.30666478892E+03  0.00000000000E+00 0.  1.
         13    1    5    5    0    0  0.61596398949E+02  0.70002049115E+02 -0.10429710933E+03  0.13990100163E+03  0.00000000000E+00 0.  1.
        -13    1    5    5    0    0 -0.15437993024E+02  0.54578122025E+02 -0.10605348120E+02  0.57702482105E+02  0.00000000000E+00 0. -1.
          1    1    6    6  503    0 -0.60633964561E+02 -0.17355252079E+03 -0.23165420802E+03  0.29573742953E+03  0.00000000000E+00 0. -1.
         -1    1    6    6    0  503 -0.12340606316E+03 -0.37321576544E+03 -0.30718657506E+03  0.49888140464E+03  0.00000000000E+00 0.  1.
<mgrwt>
<rscale>  0 0.58567355E+03</rscale>
<asrwt>0</asrwt>
<pdfrwt beam="1">  1        2 0.67326841E-01 0.58567355E+03</pdfrwt>
<pdfrwt beam="2">  1       -2 0.15604732E+00 0.58567355E+03</pdfrwt>
<totfact> 0.19933350E+01</totfact>
</mgrwt>
</event>
<event>
12    1  0.1432447E-007  0.8285791E+03  0.7818608E-02  0.9519547E-01
         -3   -1    0    0    0  501 -0.00000000000E+00  0.00000000000E+00  0.14475721870E+04  0.14475721870E+04  0.00000000000E+00 0.  1.
          3   -1    0    0  501    0  0.00000000000E+00 -0.00000000000E+00 -0.90192224705E+03  0.90192224705E+03  0.00000000000E+00 0. -1.
         23    2    1    2    0    0  0.69636245565E+03 -0.42863019604E+03  0.95078682028E+03  0.12571849690E+04  0.88735303319E+02 0.  0.
    5000000    2    1    2    0    0 -0.69636245565E+03  0.42863019604E+03 -0.40513688030E+03  0.10923094651E+04  0.60029955949E+03 0.  0.
         23    2    4    4    0    0 -0.50873070967E+03  0.35774509723E+03  0.23895798579E+01  0.62850310494E+03  0.90674987050E+02 0.  0.
         23    2    4    4    0    0 -0.18763174598E+03  0.70885098810E+02 -0.40752646016E+03  0.46380636014E+03  0.93851769510E+02 0.  0.
          1    1    3    3  502    0  0.29992131057E+03 -0.15479328800E+03  0.44662464612E+03  0.55981008303E+03  0.00000000000E+00 0. -1.
         -1    1    3    3    0  502  0.39644114508E+03 -0.27383690804E+03  0.50416217416E+03  0.69737488596E+03  0.00000000000E+00 0.  1.
         11    1    5    5    0    0 -0.17447877328E+03  0.77169132656E+02  0.19420714470E+02  0.19176830163E+03  0.00000000000E+00 0.  1.
        -11    1    5    5    0    0 -0.33425193640E+03  0.28057596457E+03 -0.17031134612E+02  0.43673480331E+03  0.00000000000E+00 0. -1.
          4    1    6    6  503    0 -0.52303411559E+01  0.20856691033E+02 -0.10379808067E+03  0.10600188480E+03  0.00000000000E+00 0. -1.
         -4    1    6    6    0  503 -0.18240140483E+03  0.50028407777E+02 -0.30372837949E+03  0.35780447534E+03  0.00000000000E+00 0.  1.
<mgrwt>
<rscale>  0 0.82857911E+03</rscale>
<asrwt>0</asrwt>
<pdfrwt beam="1">  1        3 0.13875727E+00 0.82857911E+03</pdfrwt>
<pdfrwt beam="2">  1       -3 0.22270341E+00 0.82857911E+03</pdfrwt>
<totfact> 0.10791556E-01</totfact>
</mgrwt>
</event>
<event>
12    1  0.1432447E-007  0.7587620E+03  0.7818608E-02  0.9621703E-01
          2   -1    0    0  501    0  0.00000000000E+00  0.00000000000E+00  0.20745486990E+04  0.20745486990E+04  0.00000000000E+00 0. -1.
         -2   -1    0    0    0  501 -0.00000000000E+00 -0.00000000000E+00 -0.33980179359E+03  0.33980179359E+03  0.00000000000E+00 0.  1.
         23    2    1    2    0    0 -0.13591182036E+03  0.71566360369E+03  0.80859537681E+03  0.10921355748E+04  0.91034135114E+02 0.  0.
    5000000    2    1    2    0    0  0.13591182036E+03 -0.71566360369E+03  0.92615152861E+03  0.13222149178E+04  0.59987433546E+03 0.  0.
         23    2    4    4    0    0 -0.61884020542E+02 -0.28412029372E+03  0.33499458135E+02  0.30671229692E+03  0.91631032348E+02 0.  0.
         23    2    4    4    0    0  0.19779584091E+03 -0.43154330998E+03  0.89265207047E+03  0.10155026209E+04  0.95210456482E+02 0.  0.
          4    1    3    3  502    0 -0.43278293067E+02  0.43481456139E+03  0.51531437208E+03  0.67563719222E+03  0.00000000000E+00 0. -1.
         -4    1    3    3    0  502 -0.92633527298E+02  0.28084904231E+03  0.29328100474E+03  0.41649838257E+03  0.00000000000E+00 0.  1.
         11    1    5    5    0    0  0.10243589778E+02 -0.13467225814E+03  0.39315935823E+02  0.14066730627E+03  0.00000000000E+00 0. -1.
        -11    1    5    5    0    0 -0.72127610320E+02 -0.14944803558E+03 -0.58164776882E+01  0.16604499065E+03  0.00000000000E+00 0.  1.
          3    1    6    6  503    0  0.18632987109E+03 -0.30961541575E+03  0.64979428121E+03  0.74351404453E+03  0.00000000000E+00 0. -1.
         -3    1    6    6    0  503  0.11465969820E+02 -0.12192789422E+03  0.24285778926E+03  0.27198857634E+03  0.00000000000E+00 0.  1.
<mgrwt>
<rscale>  0 0.75876204E+03</rscale>
<asrwt>0</asrwt>
<pdfrwt beam="1">  1        2 0.31916133E+00 0.75876204E+03</pdfrwt>
<pdfrwt beam="2">  1       -2 0.52277200E-01 0.75876204E+03</pdfrwt>
<totfact> 0.21685406E+01</totfact>
</mgrwt>
</event>
<event>
12    1  0.1432447E-007  0.1099862E+04  0.7818608E-02  0.9205326E-01
          2   -1    0    0  501    0  0.00000000000E+00  0.00000000000E+00  0.75625303536E+03  0.75625303536E+03  0.00000000000E+00 0. -1.
         -2   -1    0    0    0  501 -0.00000000000E+00 -0.00000000000E+00 -0.18226141421E+04  0.18226141421E+04  0.00000000000E+00 0.  1.
         23    2    1    2    0    0 -0.10594480378E+04 -0.56121512736E+02 -0.79838280193E+03  0.13309516290E+04  0.91855166029E+02 0.  0.
    5000000    2    1    2    0    0  0.10594480378E+04  0.56121512736E+02 -0.26797830477E+03  0.12479155484E+04  0.59991755694E+03 0.  0.
         23    2    4    4    0    0  0.39691912336E+03 -0.16949050698E+03  0.98768518417E+02  0.45223726007E+03  0.92149317493E+02 0.  0.
         23    2    4    4    0    0  0.66252891440E+03  0.22561201972E+03 -0.36674682318E+03  0.79567828830E+03  0.93570082310E+02 0.  0.
          2    1    3    3  502    0 -0.62404717460E+03 -0.37420063070E+02 -0.41369142755E+03  0.74965040817E+03  0.00000000000E+00 0. -1.
         -2    1    3    3    0  502 -0.43540086316E+03 -0.18701449665E+02 -0.38469137439E+03  0.58130122087E+03  0.00000000000E+00 0.  1.
         11    1    5    5    0    0  0.17732604454E+02 -0.29147002041E+02  0.22260745554E+02  0.40737375730E+02  0.00000000000E+00 0.  1.
        -11    1    5    5    0    0  0.37918651891E+03 -0.14034350494E+03  0.76507772864E+02  0.41149988434E+03  0.00000000000E+00 0. -1.
          3    1    6    6  503    0  0.21072339587E+03  0.59853996720E+02 -0.16311295082E+03  0.27311661469E+03  0.00000000000E+00 0. -1.
         -3    1    6    6    0  503  0.45180551853E+03  0.16575802300E+03 -0.20363387236E+03  0.52256167362E+03  0.00000000000E+00 0.  1.
<mgrwt>
<rscale>  0 0.10998621E+04</rscale>
<asrwt>0</asrwt>
<pdfrwt beam="1">  1        2 0.11634662E+00 0.10998621E+04</pdfrwt>
<pdfrwt beam="2">  1       -2 0.28040217E+00 0.10998621E+04</pdfrwt>
<totfact> 0.15381002E+00</totfact>
</mgrwt>
</event>
<event>
12    1  0.1432447E-007  0.5329927E+03  0.7818608E-02  0.1005509E+00
          1   -1    0    0  501    0  0.00000000000E+00  0.00000000000E+00  0.47368480938E+03  0.47368480938E+03  0.00000000000E+00 0. -1.
         -1   -1    0    0    0  501 -0.00000000000E+00 -0.00000000000E+00 -0.71210671214E+03  0.71210671214E+03  0.00000000000E+00 0.  1.
         23    2    1    2    0    0 -0.39431806998E+03  0.27518120487E+02  0.53051530644E+02  0.41014593016E+03  0.95714324180E+02 0.  0.
    5000000    2    1    2    0    0  0.39431806998E+03 -0.27518120487E+02 -0.29147343340E+03  0.77564559137E+03  0.60035434017E+03 0.  0.
         23    2    4    4    0    0  0.37268146989E+03  0.20978461225E+03 -0.28279829496E+03  0.52008783899E+03  0.87266391576E+02 0.  0.
         23    2    4    4    0    0  0.21636600095E+02 -0.23730273274E+03 -0.86751384460E+01  0.25555775238E+03  0.91944425308E+02 0.  0.
          4    1    3    3  502    0 -0.26143525464E+03  0.17817085352E+02 -0.11085418172E+02  0.26227605189E+03  0.00000000000E+00 0.  1.
         -4    1    3    3    0  502 -0.13288281534E+03  0.97010351355E+01  0.64136948816E+02  0.14786987827E+03  0.00000000000E+00 0. -1.
         13    1    5    5    0    0  0.30073597091E+03  0.19228765107E+03 -0.20060380972E+03  0.40946129662E+03  0.00000000000E+00 0. -1.
        -13    1    5    5    0    0  0.71945498979E+02  0.17496961179E+02 -0.82194485236E+02  0.11062654237E+03  0.00000000000E+00 0.  1.
          1    1    6    6  503    0  0.95583729341E+01 -0.21031028383E+02  0.27536164367E+02  0.35943107768E+02  0.00000000000E+00 0. -1.
         -1    1    6    6    0  503  0.12078227161E+02 -0.21627170435E+03 -0.36211302813E+02  0.21961464461E+03  0.00000000000E+00 0.  1.
<mgrwt>
<rscale>  0 0.53299266E+03</rscale>
<asrwt>0</asrwt>
<pdfrwt beam="1">  1        1 0.72874586E-01 0.53299266E+03</pdfrwt>
<pdfrwt beam="2">  1       -1 0.10955488E+00 0.53299266E+03</pdfrwt>
<totfact> 0.38504673E+01</totfact>
</mgrwt>
</event>
<event>
12    1  0.1432447E-007  0.7319697E+03  0.7818608E-02  0.9664069E-01
          1   -1    0    0  501    0  0.00000000000E+00  0.00000000000E+00  0.24401537221E+04  0.24401537221E+04  0.00000000000E+00 0. -1.
         -1   -1    0    0    0  501 -0.00000000000E+00 -0.00000000000E+00 -0.27214684369E+03  0.27214684369E+03  0.00000000000E+00 0.  1.
         23    2    1    2    0    0  0.17737479170E+03  0.65143060552E+03  0.12593344369E+04  0.14310546423E+04  0.78552625314E+02 0.  0.
    5000000    2    1    2    0    0 -0.17737479170E+03 -0.65143060552E+03  0.90867244152E+03  0.12812459234E+04  0.60006821261E+03 0.  0.
         23    2    4    4    0    0 -0.24445374065E+03 -0.19060126194E+03  0.68394738688E+03  0.75633912463E+03  0.90434346714E+02 0.  0.
         23    2    4    4    0    0  0.67078948946E+02 -0.46082934358E+03  0.22472505464E+03  0.52490679879E+03  0.90346709624E+02 0.  0.
          1    1    3    3  502    0  0.13671918063E+03  0.52864091733E+03  0.94957935870E+03  0.10953786160E+04  0.00000000000E+00 0. -1.
         -1    1    3    3    0  502  0.40655611074E+02  0.12278968818E+03  0.30975507815E+03  0.33567602637E+03  0.00000000000E+00 0.  1.
         11    1    5    5    0    0 -0.23660509670E+03 -0.15216943265E+03  0.56627542001E+03  0.63230163635E+03  0.00000000000E+00 0. -1.
        -11    1    5    5    0    0 -0.78486439451E+01 -0.38431829283E+02  0.11767196687E+03  0.12403748829E+03  0.00000000000E+00 0.  1.
          4    1    6    6  503    0  0.35315025045E+02 -0.10506071467E+03  0.91361127760E+02  0.14363760102E+03  0.00000000000E+00 0.  1.
         -4    1    6    6    0  503  0.31763923901E+02 -0.35576862891E+03  0.13336392688E+03  0.38126919778E+03  0.00000000000E+00 0. -1.
<mgrwt>
<rscale>  0 0.73196974E+03</rscale>
<asrwt>0</asrwt>
<pdfrwt beam="1">  1        1 0.37540825E+00 0.73196974E+03</pdfrwt>
<pdfrwt beam="2">  1       -1 0.41868747E-01 0.73196974E+03</pdfrwt>
<totfact> 0.88203628E+00</totfact>
</mgrwt>
</event>
<event>
12    1  0.1432447E-007  0.1570319E+04  0.7818608E-02  0.8838992E-01
          1   -1    0    0  501    0  0.00000000000E+00  0.00000000000E+00  0.15562841003E+04  0.15562841003E+04  0.00000000000E+00 0. -1.
         -1   -1    0    0    0  501 -0.00000000000E+00 -0.00000000000E+00 -0.16609097560E+04  0.16609097560E+04  0.00000000000E+00 0.  1.
         23    2    1    2    0    0  0.12412804314E+04  0.90275156456E+03  0.16843536269E+03  0.15467230678E+04  0.90798020205E+02 0.  0.
    5000000    2    1    2    0    0 -0.12412804314E+04 -0.90275156456E+03 -0.27306101841E+03  0.16704707884E+04  0.60014401482E+03 0.  0.
         23    2    4    4    0    0 -0.53626957122E+03 -0.66046661653E+03  0.40122329723E+02  0.85659627081E+03  0.91357349226E+02 0.  0.
         23    2    4    4    0    0 -0.70501086018E+03 -0.24228494803E+03 -0.31318334813E+03  0.81387451761E+03  0.92550590842E+02 0.  0.
          1    1    3    3  502    0  0.76304802788E+03  0.60705807925E+03  0.95104178656E+02  0.97969720283E+03  0.00000000000E+00 0. -1.
         -1    1    3    3    0  502  0.47823240352E+03  0.29569348530E+03  0.73331184032E+02  0.56702586500E+03  0.00000000000E+00 0.  1.
         11    1    5    5    0    0 -0.37159862776E+03 -0.39751302737E+03  0.47741514618E+02  0.54624298559E+03  0.00000000000E+00 0. -1.
        -11    1    5    5    0    0 -0.16467094346E+03 -0.26295358916E+03 -0.76191848952E+01  0.31035328523E+03  0.00000000000E+00 0.  1.
          2    1    6    6  503    0 -0.54290286529E+03 -0.21772645687E+03 -0.21765281034E+03  0.62411623678E+03  0.00000000000E+00 0. -1.
         -2    1    6    6    0  503 -0.16210799489E+03 -0.24558491153E+02 -0.95530537795E+02  0.18975828084E+03  0.00000000000E+00 0.  1.
<mgrwt>
<rscale>  0 0.15703194E+04</rscale>
<asrwt>0</asrwt>
<pdfrwt beam="1">  1        1 0.23942832E+00 0.15703194E+04</pdfrwt>
<pdfrwt beam="2">  1       -1 0.25552458E+00 0.15703194E+04</pdfrwt>
<totfact> 0.36000149E-01</totfact>
</mgrwt>
</event>
<event>
12    1  0.1432447E-007  0.8954869E+03  0.7818608E-02  0.9431241E-01
         -1   -1    0    0    0  501 -0.00000000000E+00  0.00000000000E+00  0.51290613718E+03  0.51290613718E+03  0.00000000000E+00 0.  1.
          1   -1    0    0  501    0  0.00000000000E+00 -0.00000000000E+00 -0.16814051854E+04  0.16814051854E+04  0.00000000000E+00 0. -1.
         23    2    1    2    0    0  0.71323368127E+03  0.40271368584E+03 -0.67608654948E+03  0.10659537854E+04  0.91015676939E+02 0.  0.
    5000000    2    1    2    0    0 -0.71323368127E+03 -0.40271368584E+03 -0.49241249871E+03  0.11283575371E+04  0.59986670668E+03 0.  0.
         23    2    4    4    0    0 -0.10759119758E+03  0.11103964696E+03 -0.22161115367E+03  0.28377320755E+03  0.86660607514E+02 0.  0.
         23    2    4    4    0    0 -0.60564248369E+03 -0.51375333280E+03 -0.27080134504E+03  0.84458432956E+03  0.96145807187E+02 0.  0.
          3    1    3    3  502    0  0.45862357535E+03  0.23894806984E+03 -0.37336426793E+03  0.63783433626E+03  0.00000000000E+00 0. -1.
         -3    1    3    3    0  502  0.25461010593E+03  0.16376561600E+03 -0.30272228155E+03  0.42811944918E+03  0.00000000000E+00 0.  1.
         13    1    5    5    0    0 -0.17922373585E+01  0.53355148891E+02 -0.95077839342E+02  0.10904026578E+03  0.00000000000E+00 0. -1.
        -13    1    5    5    0    0 -0.10579896023E+03  0.57684498069E+02 -0.12653331433E+03  0.17473294177E+03  0.00000000000E+00 0.  1.
          1    1    6    6  503    0 -0.24709728178E+03 -0.16563082936E+03 -0.67279370731E+02  0.30498713420E+03  0.00000000000E+00 0. -1.
         -1    1    6    6    0  503 -0.35854520191E+03 -0.34812250344E+03 -0.20352197431E+03  0.53959719536E+03  0.00000000000E+00 0.  1.
<mgrwt>
<rscale>  0 0.89548688E+03</rscale>
<asrwt>0</asrwt>
<pdfrwt beam="1">  1        1 0.25867772E+00 0.89548688E+03</pdfrwt>
<pdfrwt beam="2">  1       -1 0.78908637E-01 0.89548688E+03</pdfrwt>
<totfact> 0.80448156E+00</totfact>
</mgrwt>
</event>
<event>
12    1  0.1512809E-007  0.1365360E+04  0.7818608E-02  0.8979281E-01
          1   -1    0    0  501    0  0.00000000000E+00  0.00000000000E+00  0.16423795169E+04  0.16423795169E+04  0.00000000000E+00 0.  1.
         -1   -1    0    0    0  501 -0.00000000000E+00 -0.00000000000E+00 -0.13425977707E+04  0.13425977707E+04  0.00000000000E+00 0. -1.
         23    2    1    2    0    0  0.10019132072E+04  0.85948429345E+03  0.67629942472E+03  0.14869128761E+04  0.10481251718E+03 0.  0.
    5000000    2    1    2    0    0 -0.10019132072E+04 -0.85948429345E+03 -0.37651767846E+03  0.14980644115E+04  0.59990673730E+03 0.  0.
         23    2    4    4    0    0 -0.82381036014E+03 -0.40873535439E+03 -0.39366015046E+03  0.10046734820E+04  0.93125678761E+02 0.  0.
         23    2    4    4    0    0 -0.17810284705E+03 -0.45074893906E+03  0.17142472004E+02  0.49339092949E+03  0.90804816850E+02 0.  0.
          2    1    3    3  502    0  0.56721962977E+03  0.55162448360E+03  0.42020576221E+03  0.89587976978E+03  0.00000000000E+00 0. -1.
         -2    1    3    3    0  502  0.43469357742E+03  0.30785980985E+03  0.25609366251E+03  0.59103310631E+03  0.00000000000E+00 0.  1.
         13    1    5    5    0    0 -0.71074269009E+03 -0.36346846504E+03 -0.30740569500E+03  0.85543132858E+03  0.00000000000E+00 0.  1.
        -13    1    5    5    0    0 -0.11306767005E+03 -0.45266889345E+02 -0.86254455460E+02  0.14924215346E+03  0.00000000000E+00 0. -1.
          1    1    6    6  503    0 -0.16151726427E+03 -0.36103820013E+03 -0.17240165013E+02  0.39589598622E+03  0.00000000000E+00 0. -1.
         -1    1    6    6    0  503 -0.16585582774E+02 -0.89710738933E+02  0.34382637017E+02  0.97494943275E+02  0.00000000000E+00 0.  1.
<mgrwt>
<rscale>  0 0.13653602E+04</rscale>
<asrwt>0</asrwt>
<pdfrwt beam="1">  1        1 0.25267377E+00 0.13653602E+04</pdfrwt>
<pdfrwt beam="2">  1       -1 0.20655350E+00 0.13653602E+04</pdfrwt>
<totfact> 0.68016212E-01</totfact>
</mgrwt>
</event>
<event>
12    1  0.1432447E-007  0.6191154E+03  0.7818608E-02  0.9866523E-01
         -2   -1    0    0    0  501 -0.00000000000E+00  0.00000000000E+00  0.12558204409E+03  0.12558204409E+03  0.00000000000E+00 0.  1.
          2   -1    0    0  501    0  0.00000000000E+00 -0.00000000000E+00 -0.47423718878E+04  0.47423718878E+04  0.00000000000E+00 0. -1.
         23    2    1    2    0    0  0.51042778617E+03  0.78496505351E+01 -0.32441118933E+04  0.32853134639E+04  0.91784737567E+02 0.  0.
    5000000    2    1    2    0    0 -0.51042778617E+03 -0.78496505351E+01 -0.13726779504E+04  0.15826404679E+04  0.59992328955E+03 0.  0.
         23    2    4    4    0    0 -0.53327197566E+03 -0.15094528069E+03 -0.12579286523E+04  0.13777770043E+04  0.93388978824E+02 0.  0.
         23    2    4    4    0    0  0.22844189486E+02  0.14309563015E+03 -0.11474929801E+03  0.20486346362E+03  0.88336973970E+02 0.  0.
          3    1    3    3  502    0  0.28091314519E+03  0.56940171997E+01 -0.14912863791E+04  0.15175241947E+04  0.00000000000E+00 0. -1.
         -3    1    3    3    0  502  0.22951464098E+03  0.21556333354E+01 -0.17528255143E+04  0.17677892693E+04  0.00000000000E+00 0.  1.
         11    1    5    5    0    0 -0.12962988077E+03 -0.79503556813E+02 -0.34881610113E+03  0.38052252751E+03  0.00000000000E+00 0. -1.
        -11    1    5    5    0    0 -0.40364209489E+03 -0.71441723873E+02 -0.90911255121E+03  0.99725447678E+03  0.00000000000E+00 0.  1.
          1    1    6    6  503    0  0.24735764778E+02  0.21894713139E+01 -0.29991796545E+01  0.25012935101E+02  0.00000000000E+00 0. -1.
         -1    1    6    6    0  503 -0.18915752916E+01  0.14090615884E+03 -0.11175011835E+03  0.17985052851E+03  0.00000000000E+00 0.  1.
<mgrwt>
<rscale>  0 0.61911538E+03</rscale>
<asrwt>0</asrwt>
<pdfrwt beam="1">  1        2 0.72959551E+00 0.61911538E+03</pdfrwt>
<pdfrwt beam="2">  1       -2 0.19320319E-01 0.61911538E+03</pdfrwt>
<totfact> 0.18687578E+00</totfact>
</mgrwt>
</event>
<event>
12    1  0.1432447E-007  0.3455577E+03  0.7818608E-02  0.1064453E+00
          1   -1    0    0  501    0  0.00000000000E+00  0.00000000000E+00  0.14454170520E+04  0.14454170520E+04  0.00000000000E+00 0. -1.
         -1   -1    0    0    0  501 -0.00000000000E+00 -0.00000000000E+00 -0.19857298442E+03  0.19857298442E+03  0.00000000000E+00 0.  1.
         23    2    1    2    0    0  0.21628739707E+03 -0.26304586164E+03  0.61122048663E+03  0.70577688953E+03  0.92504978585E+02 0.  0.
    5000000    2    1    2    0    0 -0.21628739707E+03  0.26304586164E+03  0.63562358097E+03  0.93821314689E+03  0.60021097030E+03 0.  0.
         23    2    4    4    0    0 -0.96612047488E+02  0.13578278309E+03  0.70425222487E+03  0.72975388486E+03  0.93801302410E+02 0.  0.
         23    2    4    4    0    0 -0.11967534958E+03  0.12726307856E+03 -0.68628643901E+02  0.20845926203E+03  0.90704424934E+02 0.  0.
          4    1    3    3  502    0  0.53955542593E+02 -0.60577115733E+02  0.23603947400E+03  0.24959050626E+03  0.00000000000E+00 0.  1.
         -4    1    3    3    0  502  0.16233185448E+03 -0.20246874591E+03  0.37518101263E+03  0.45618638328E+03  0.00000000000E+00 0. -1.
         11    1    5    5    0    0 -0.29278519793E+02  0.39503253158E+02  0.40961639659E+03  0.41255706403E+03  0.00000000000E+00 0. -1.
        -11    1    5    5    0    0 -0.67333527695E+02  0.96279529929E+02  0.29463582828E+03  0.31719682082E+03  0.00000000000E+00 0.  1.
          4    1    6    6  503    0 -0.45478240051E+02  0.12499076669E+02 -0.52938781672E+02  0.70901423403E+02  0.00000000000E+00 0. -1.
         -4    1    6    6    0  503 -0.74197109534E+02  0.11476400189E+03 -0.15689862229E+02  0.13755783863E+03  0.00000000000E+00 0.  1.
<mgrwt>
<rscale>  0 0.34555768E+03</rscale>
<asrwt>0</asrwt>
<pdfrwt beam="1">  1        1 0.22237185E+00 0.34555768E+03</pdfrwt>
<pdfrwt beam="2">  1       -1 0.30549691E-01 0.34555768E+03</pdfrwt>
<totfact> 0.76576987E+01</totfact>
</mgrwt>
</event>
<event>
12    1  0.1432447E-007  0.3958140E+03  0.7818608E-02  0.1045239E+00
          1   -1    0    0  501    0  0.00000000000E+00  0.00000000000E+00  0.20544266383E+04  0.20544266383E+04  0.00000000000E+00 0. -1.
         -1   -1    0    0    0  501 -0.00000000000E+00 -0.00000000000E+00 -0.94550852174E+02  0.94550852174E+02  0.00000000000E+00 0.  1.
         23    2    1    2    0    0 -0.20973341856E+03  0.63942449653E+02  0.48582772817E+03  0.54243111715E+03  0.10062898028E+03 0.  0.
    5000000    2    1    2    0    0  0.20973341856E+03 -0.63942449653E+02  0.14740480580E+04  0.16065463734E+04  0.60008068520E+03 0.  0.
         23    2    4    4    0    0  0.33543081858E+03  0.85989485950E+02  0.53703587406E+03  0.64519924069E+03  0.89255276699E+02 0.  0.
         23    2    4    4    0    0 -0.12569740002E+03 -0.14993193560E+03  0.93701218395E+03  0.96134713268E+03  0.88977834042E+02 0.  0.
          1    1    3    3  502    0 -0.32529470723E+02 -0.26417581322E+02  0.72749761541E+02  0.83955838824E+02  0.00000000000E+00 0. -1.
         -1    1    3    3    0  502 -0.17720394783E+03  0.90360030975E+02  0.41307796663E+03  0.45847527833E+03  0.00000000000E+00 0.  1.
         11    1    5    5    0    0  0.18309728173E+03  0.90725495023E+01  0.32371063460E+03  0.37201545759E+03  0.00000000000E+00 0. -1.
        -11    1    5    5    0    0  0.15233353685E+03  0.76916936448E+02  0.21332523946E+03  0.27318378310E+03  0.00000000000E+00 0.  1.
          3    1    6    6  503    0 -0.46797195993E+02 -0.72482775850E+02  0.22821782299E+03  0.24398177202E+03  0.00000000000E+00 0. -1.
         -3    1    6    6    0  503 -0.78900204030E+02 -0.77449159753E+02  0.70879436097E+03  0.71736536066E+03  0.00000000000E+00 0.  1.
<mgrwt>
<rscale>  0 0.39581405E+03</rscale>
<asrwt>0</asrwt>
<pdfrwt beam="1">  1        1 0.31606560E+00 0.39581405E+03</pdfrwt>
<pdfrwt beam="2">  1       -1 0.14546287E-01 0.39581405E+03</pdfrwt>
<totfact> 0.10248662E+02</totfact>
</mgrwt>
</event>
<event>
12    1  0.1432447E-007  0.6005135E+03  0.7818608E-02  0.9904341E-01
         -2   -1    0    0    0  501 -0.00000000000E+00  0.00000000000E+00  0.28755842820E+03  0.28755842820E+03  0.00000000000E+00 0.  1.
          2   -1    0    0  501    0  0.00000000000E+00 -0.00000000000E+00 -0.14717113297E+04  0.14717113297E+04  0.00000000000E+00 0. -1.
         23    2    1    2    0    0 -0.22691781184E+03 -0.45199068797E+03 -0.41550117471E+03  0.66081107821E+03  0.90789754705E+02 0.  0.
    5000000    2    1    2    0    0  0.22691781184E+03  0.45199068797E+03 -0.76865172680E+03  0.10984586797E+04  0.59999893215E+03 0.  0.
         23    2    4    4    0    0 -0.24499463813E+02 -0.82598208750E+02 -0.34166753009E+03  0.36371451005E+03  0.90160167931E+02 0.  0.
         23    2    4    4    0    0  0.25141727565E+03  0.53458889671E+03 -0.42698419671E+03  0.73474416966E+03  0.92398894088E+02 0.  0.
          2    1    3    3  502    0 -0.18217683371E+03 -0.29469607417E+03 -0.31885784366E+03  0.47085507254E+03  0.00000000000E+00 0. -1.
         -2    1    3    3    0  502 -0.44740978133E+02 -0.15729461380E+03 -0.96643331043E+02  0.18995600567E+03  0.00000000000E+00 0.  1.
         13    1    5    5    0    0 -0.18117665711E+02 -0.42234774432E+01 -0.20651361369E+03  0.20734984980E+03  0.00000000000E+00 0. -1.
        -13    1    5    5    0    0 -0.63817981015E+01 -0.78374731306E+02 -0.13515391640E+03  0.15636466024E+03  0.00000000000E+00 0.  1.
          2    1    6    6  503    0  0.69411544502E+02  0.21605413021E+03 -0.12189249478E+03  0.25759489509E+03  0.00000000000E+00 0. -1.
         -2    1    6    6    0  503  0.18200573115E+03  0.31853476650E+03 -0.30509170193E+03  0.47714927458E+03  0.00000000000E+00 0.  1.
<mgrwt>
<rscale>  0 0.60051351E+03</rscale>
<asrwt>0</asrwt>
<pdfrwt beam="1">  1        2 0.22641712E+00 0.60051351E+03</pdfrwt>
<pdfrwt beam="2">  1       -2 0.44239759E-01 0.60051351E+03</pdfrwt>
<totfact> 0.66183034E+01</totfact>
</mgrwt>
</event>
<event>
12    1  0.1432447E-007  0.7411448E+03  0.7818608E-02  0.9649346E-01
          2   -1    0    0  501    0  0.00000000000E+00  0.00000000000E+00  0.30611497392E+04  0.30611497392E+04  0.00000000000E+00 0. -1.
         -2   -1    0    0    0  501 -0.00000000000E+00 -0.00000000000E+00 -0.19015502881E+03  0.19015502881E+03  0.00000000000E+00 0.  1.
         23    2    1    2    0    0  0.59906157553E+03  0.21628802970E+03  0.13776107415E+04  0.15204462124E+04  0.91049693165E+02 0.  0.
    5000000    2    1    2    0    0 -0.59906157553E+03 -0.21628802970E+03  0.14933839689E+04  0.17308585556E+04  0.60001698137E+03 0.  0.
         23    2    4    4    0    0 -0.44329801798E+03 -0.39831915229E+03  0.11887955279E+04  0.13328515314E+04  0.89928403921E+02 0.  0.
         23    2    4    4    0    0 -0.15576355755E+03  0.18203112259E+03  0.30458844102E+03  0.39800702421E+03  0.90762643579E+02 0.  0.
          2    1    3    3  502    0  0.26550314351E+03  0.10023372750E+03  0.50875769631E+03  0.58255739022E+03  0.00000000000E+00 0. -1.
         -2    1    3    3    0  502  0.33355843202E+03  0.11605430220E+03  0.86885304520E+03  0.93788882218E+03  0.00000000000E+00 0.  1.
         11    1    5    5    0    0 -0.19669497557E+03 -0.14292844771E+03  0.56521679798E+03  0.61529463130E+03  0.00000000000E+00 0. -1.
        -11    1    5    5    0    0 -0.24660304241E+03 -0.25539070458E+03  0.62357872990E+03  0.71755690011E+03  0.00000000000E+00 0.  1.
          1    1    6    6  503    0 -0.36293288892E+02  0.87803948023E+02  0.68476852215E+02  0.11711453965E+03  0.00000000000E+00 0. -1.
         -1    1    6    6    0  503 -0.11947026866E+03  0.94227174570E+02  0.23611158880E+03  0.28089248457E+03  0.00000000000E+00 0.  1.
<mgrwt>
<rscale>  0 0.74114478E+03</rscale>
<asrwt>0</asrwt>
<pdfrwt beam="1">  1        2 0.47094608E+00 0.74114478E+03</pdfrwt>
<pdfrwt beam="2">  1       -2 0.29254622E-01 0.74114478E+03</pdfrwt>
<totfact> 0.18197805E+01</totfact>
</mgrwt>
</event>
<event>
12    1  0.1432447E-007  0.7472999E+03  0.7818608E-02  0.9639596E-01
          3   -1    0    0  501    0  0.00000000000E+00  0.00000000000E+00  0.67284420923E+03  0.67284420923E+03  0.00000000000E+00 0. -1.
         -3   -1    0    0    0  501 -0.00000000000E+00 -0.00000000000E+00 -0.92960694901E+03  0.92960694901E+03  0.00000000000E+00 0.  1.
         23    2    1    2    0    0  0.26467890660E+03  0.61433568662E+03 -0.31087913713E+02  0.67602628806E+03  0.92638136421E+02 0.  0.
    5000000    2    1    2    0    0 -0.26467890660E+03 -0.61433568662E+03 -0.22567482607E+03  0.92642487017E+03  0.59989220156E+03 0.  0.
         23    2    4    4    0    0 -0.37780902089E+03 -0.59431475358E+03 -0.28814448669E+03  0.76656922300E+03  0.93013148848E+02 0.  0.
         23    2    4    4    0    0  0.11313011429E+03 -0.20020933044E+02  0.62469660623E+02  0.15985564717E+03  0.91935351808E+02 0.  0.
          1    1    3    3  502    0  0.10287652665E+03  0.34951744895E+03 -0.31352067931E+02  0.36568973054E+03  0.00000000000E+00 0. -1.
         -1    1    3    3    0  502  0.16180237995E+03  0.26481823767E+03  0.26415421797E+00  0.31033655752E+03  0.00000000000E+00 0.  1.
         13    1    5    5    0    0 -0.24319974244E+03 -0.39666719028E+03 -0.23642574301E+03  0.52190813993E+03  0.00000000000E+00 0. -1.
        -13    1    5    5    0    0 -0.13460927846E+03 -0.19764756330E+03 -0.51718743683E+02  0.24466108308E+03  0.00000000000E+00 0.  1.
          3    1    6    6  503    0  0.19738527520E+02  0.10368343078E+01 -0.23832441956E+02  0.30962393054E+02  0.00000000000E+00 0. -1.
         -3    1    6    6    0  503  0.93391586775E+02 -0.21057767352E+02  0.86302102578E+02  0.12889325411E+03  0.00000000000E+00 0.  1.
<mgrwt>
<rscale>  0 0.74729989E+03</rscale>
<asrwt>0</asrwt>
<pdfrwt beam="1">  1        3 0.10351449E+00 0.74729989E+03</pdfrwt>
<pdfrwt beam="2">  1       -3 0.14301645E+00 0.74729989E+03</pdfrwt>
<totfact> 0.76281347E-01</totfact>
</mgrwt>
</event>
<event>
12    1  0.1432447E-007  0.1062203E+04  0.7818608E-02  0.9242835E-01
         -2   -1    0    0    0  501 -0.00000000000E+00  0.00000000000E+00  0.94795608481E+03  0.94795608481E+03  0.00000000000E+00 0. -1.
          2   -1    0    0  501    0  0.00000000000E+00 -0.00000000000E+00 -0.13908618445E+04  0.13908618445E+04  0.00000000000E+00 0.  1.
         23    2    1    2    0    0  0.88293732923E+03 -0.57287331628E+03 -0.39022040678E+03  0.11260388148E+04  0.89046519294E+02 0.  0.
    5000000    2    1    2    0    0 -0.88293732923E+03  0.57287331628E+03 -0.52685352860E+02  0.12127791145E+04  0.60024600817E+03 0.  0.
         23    2    4    4    0    0 -0.40499466638E+03  0.23170796341E+03  0.25984904623E+03  0.54174449249E+03  0.90864229502E+02 0.  0.
         23    2    4    4    0    0 -0.47794266285E+03  0.34116535286E+03 -0.31253439909E+03  0.67103462202E+03  0.88242429513E+02 0.  0.
          4    1    3    3  502    0  0.57716350284E+02 -0.14857000397E+02 -0.30086552812E+02  0.66761577356E+02  0.00000000000E+00 0. -1.
         -4    1    3    3    0  502  0.82522097895E+03 -0.55801631588E+03 -0.36013385397E+03  0.10592772374E+04  0.00000000000E+00 0.  1.
         13    1    5    5    0    0 -0.96341678355E+02  0.10206526389E+03  0.84511329678E+02  0.16383284751E+03  0.00000000000E+00 0. -1.
        -13    1    5    5    0    0 -0.30865298803E+03  0.12964269953E+03  0.17533771656E+03  0.37791164497E+03  0.00000000000E+00 0.  1.
          4    1    6    6  503    0 -0.24105297648E+03  0.22465976269E+03 -0.18423601793E+03  0.37752014085E+03  0.00000000000E+00 0. -1.
         -4    1    6    6    0  503 -0.23688968637E+03  0.11650559017E+03 -0.12829838117E+03  0.29351448118E+03  0.00000000000E+00 0.  1.
<mgrwt>
<rscale>  0 0.10622030E+04</rscale>
<asrwt>0</asrwt>
<pdfrwt beam="1">  1        2 0.21397874E+00 0.10622030E+04</pdfrwt>
<pdfrwt beam="2">  1       -2 0.14583940E+00 0.10622030E+04</pdfrwt>
<totfact> 0.46589095E+00</totfact>
</mgrwt>
</event>
<event>
12    1  0.1432447E-007  0.4657337E+03  0.7818608E-02  0.1023131E+00
          2   -1    0    0  501    0  0.00000000000E+00  0.00000000000E+00  0.82100415908E+03  0.82100415908E+03  0.00000000000E+00 0. -1.
         -2   -1    0    0    0  501 -0.00000000000E+00 -0.00000000000E+00 -0.29368257177E+03  0.29368257177E+03  0.00000000000E+00 0.  1.
         23    2    1    2    0    0 -0.39436480969E+02 -0.29308336755E+03  0.13482782950E+03  0.33893330370E+03  0.96146473569E+02 0.  0.
    5000000    2    1    2    0    0  0.39436480969E+02  0.29308336755E+03  0.39249375781E+03  0.77575342715E+03  0.60024072958E+03 0.  0.
         23    2    4    4    0    0  0.64578762535E+02 -0.15231105184E+03  0.20830388945E+02  0.18751606783E+03  0.85786348035E+02 0.  0.
         23    2    4    4    0    0 -0.25142281567E+02  0.44539441939E+03  0.37166336886E+03  0.58823735932E+03  0.94240161293E+02 0.  0.
          2    1    3    3  502    0  0.23603798844E+02 -0.10514165733E+03  0.76987139244E+02  0.13243461419E+03  0.00000000000E+00 0. -1.
         -2    1    3    3    0  502 -0.63040279812E+02 -0.18794171022E+03  0.57840690261E+02  0.20649868951E+03  0.00000000000E+00 0.  1.
         13    1    5    5    0    0  0.78702968575E+02 -0.11396527663E+03  0.37336157883E+02  0.14344417111E+03  0.00000000000E+00 0. -1.
        -13    1    5    5    0    0 -0.14124206040E+02 -0.38345775203E+02 -0.16505768938E+02  0.44071896719E+02  0.00000000000E+00 0.  1.
          2    1    6    6  503    0 -0.14640123439E+02  0.28288377147E+03  0.29245771620E+03  0.40714748819E+03  0.00000000000E+00 0. -1.
         -2    1    6    6    0  503 -0.10502158128E+02  0.16251064791E+03  0.79205652663E+02  0.18108987112E+03  0.00000000000E+00 0.  1.
<mgrwt>
<rscale>  0 0.46573372E+03</rscale>
<asrwt>0</asrwt>
<pdfrwt beam="1">  1        2 0.12630833E+00 0.46573372E+03</pdfrwt>
<pdfrwt beam="2">  1       -2 0.45181934E-01 0.46573372E+03</pdfrwt>
<totfact> 0.15942467E+02</totfact>
</mgrwt>
</event>
<event>
12    1  0.1432447E-007  0.1025568E+04  0.7818608E-02  0.9280938E-01
         -1   -1    0    0    0  501 -0.00000000000E+00  0.00000000000E+00  0.48790083736E+03  0.48790083736E+03  0.00000000000E+00 0.  1.
          1   -1    0    0  501    0  0.00000000000E+00 -0.00000000000E+00 -0.22810957062E+04  0.22810957062E+04  0.00000000000E+00 0. -1.
         23    2    1    2    0    0 -0.70649261176E+03  0.62918307102E+03 -0.55867413746E+03  0.11018903134E+04  0.83918552736E+02 0.  0.
    5000000    2    1    2    0    0  0.70649261176E+03 -0.62918307102E+03 -0.12345207314E+04  0.16671062302E+04  0.60016547653E+03 0.  0.
         23    2    4    4    0    0 -0.26290435676E+02 -0.28794520588E+03 -0.27747002348E+03  0.41105499330E+03  0.91503906962E+02 0.  0.
         23    2    4    4    0    0  0.73278304744E+03 -0.34123786514E+03 -0.95705070793E+03  0.12560512369E+04  0.91128354485E+02 0.  0.
          3    1    3    3  502    0 -0.68794840289E+02  0.31510742997E+02 -0.40324340994E+02  0.85742110140E+02  0.00000000000E+00 0. -1.
         -3    1    3    3    0  502 -0.63769777148E+03  0.59767232803E+03 -0.51834979647E+03  0.10161482032E+04  0.00000000000E+00 0.  1.
         13    1    5    5    0    0  0.10765952012E+02 -0.14481394253E+03 -0.19045379684E+03  0.23949871065E+03  0.00000000000E+00 0. -1.
        -13    1    5    5    0    0 -0.37056387689E+02 -0.14313126335E+03 -0.87016226640E+02  0.17155628265E+03  0.00000000000E+00 0.  1.
          1    1    6    6  503    0  0.58530486312E+02 -0.30405100365E+02 -0.12185779035E+03  0.13856265379E+03  0.00000000000E+00 0. -1.
         -1    1    6    6    0  503  0.67425256113E+03 -0.31083276478E+03 -0.83519291758E+03  0.11174885831E+04  0.00000000000E+00 0.  1.
<mgrwt>
<rscale>  0 0.10255684E+04</rscale>
<asrwt>0</asrwt>
<pdfrwt beam="1">  1        1 0.35093780E+00 0.10255684E+04</pdfrwt>
<pdfrwt beam="2">  1       -1 0.75061668E-01 0.10255684E+04</pdfrwt>
<totfact> 0.34629159E+00</totfact>
</mgrwt>
</event>
<event>
12    1  0.1432447E-007  0.6897628E+03  0.7818608E-02  0.9734901E-01
         -2   -1    0    0    0  501 -0.00000000000E+00  0.00000000000E+00  0.70762582075E+03  0.70762582075E+03  0.00000000000E+00 0.  1.
          2   -1    0    0  501    0  0.00000000000E+00 -0.00000000000E+00 -0.12834521571E+04  0.12834521571E+04  0.00000000000E+00 0. -1.
         23    2    1    2    0    0  0.88988914630E+02  0.63782769488E+03 -0.84906433203E+03  0.10692169092E+04  0.87013582955E+02 0.  0.
    5000000    2    1    2    0    0 -0.88988914630E+02 -0.63782769488E+03  0.27323799567E+03  0.92186106870E+03  0.60035458890E+03 0.  0.
         23    2    4    4    0    0  0.80469185070E+01 -0.58902843789E+03  0.41124815177E+03  0.72397175462E+03  0.89391306119E+02 0.  0.
         23    2    4    4    0    0 -0.97035833137E+02 -0.48799256992E+02 -0.13801015610E+03  0.19788931408E+03  0.91192417680E+02 0.  0.
          3    1    3    3  502    0  0.86109993314E+02  0.51305620855E+03 -0.73251427003E+03  0.89845353796E+03  0.00000000000E+00 0. -1.
         -3    1    3    3    0  502  0.28789213154E+01  0.12477148634E+03 -0.11655006200E+03  0.17076337120E+03  0.00000000000E+00 0.  1.
         11    1    5    5    0    0  0.37000439130E+02 -0.49208458548E+03  0.32361481103E+03  0.59012101953E+03  0.00000000000E+00 0. -1.
        -11    1    5    5    0    0 -0.28953520623E+02 -0.96943852405E+02  0.87633340740E+02  0.13385073509E+03  0.00000000000E+00 0.  1.
          2    1    6    6  503    0 -0.24935778945E+02 -0.61741944452E+02 -0.82272727696E+02  0.10584263082E+03  0.00000000000E+00 0. -1.
         -2    1    6    6    0  503 -0.72100054192E+02  0.12942687459E+02 -0.55737428407E+02  0.92046683257E+02  0.00000000000E+00 0.  1.
<mgrwt>
<rscale>  0 0.68976279E+03</rscale>
<asrwt>0</asrwt>
<pdfrwt beam="1">  1        2 0.19745417E+00 0.68976279E+03</pdfrwt>
<pdfrwt beam="2">  1       -2 0.10886551E+00 0.68976279E+03</pdfrwt>
<totfact> 0.11718665E+01</totfact>
</mgrwt>
</event>
<event>
12    1  0.1751344E-007  0.2048220E+04  0.7818608E-02  0.8584402E-01
          2   -1    0    0  501    0  0.00000000000E+00  0.00000000000E+00  0.20310416635E+04  0.20310416635E+04  0.00000000000E+00 0. -1.
         -2   -1    0    0    0  501 -0.00000000000E+00 -0.00000000000E+00 -0.21410111547E+04  0.21410111547E+04  0.00000000000E+00 0.  1.
         23    2    1    2    0    0  0.10066655243E+04  0.17437822747E+04  0.27943790364E+03  0.20348713571E+04  0.91998905623E+02 0.  0.
    5000000    2    1    2    0    0 -0.10066655243E+04 -0.17437822747E+04 -0.38940739489E+03  0.21371814612E+04  0.60146020621E+03 0.  0.
         23    2    4    4    0    0 -0.10472459332E+04 -0.15172182711E+04 -0.40002634099E+03  0.18886696510E+04  0.91524043170E+02 0.  0.
         23    2    4    4    0    0  0.40580408905E+02 -0.22656400357E+03  0.10618946106E+02  0.24851181017E+03  0.93098552499E+02 0.  0.
          2    1    3    3  502    0  0.21988481788E+03  0.46089868591E+03  0.70770271712E+02  0.51554375485E+03  0.00000000000E+00 0. -1.
         -2    1    3    3    0  502  0.78678070640E+03  0.12828835887E+04  0.20866763193E+03  0.15193276022E+04  0.00000000000E+00 0.  1.
         13    1    5    5    0    0 -0.70854421282E+03 -0.95247053386E+03 -0.24463942318E+03  0.12120575344E+04  0.00000000000E+00 0. -1.
        -13    1    5    5    0    0 -0.33870172036E+03 -0.56474773722E+03 -0.15538691781E+03  0.67661211658E+03  0.00000000000E+00 0.  1.
          3    1    6    6  503    0  0.59147013436E+01 -0.16042718135E+03 -0.30290073883E+02  0.16336876318E+03  0.00000000000E+00 0. -1.
         -3    1    6    6    0  503  0.34665707561E+02 -0.66136822221E+02  0.40909019989E+02  0.85143046990E+02  0.00000000000E+00 0.  1.
<mgrwt>
<rscale>  0 0.20482202E+04</rscale>
<asrwt>0</asrwt>
<pdfrwt beam="1">  1        2 0.31246795E+00 0.20482202E+04</pdfrwt>
<pdfrwt beam="2">  1       -2 0.32938633E+00 0.20482202E+04</pdfrwt>
<totfact> 0.11902944E-01</totfact>
</mgrwt>
</event>
<event>
12    1  0.1432447E-007  0.3203681E+03  0.7818608E-02  0.1075480E+00
          2   -1    0    0  501    0  0.00000000000E+00  0.00000000000E+00  0.25315224257E+04  0.25315224257E+04  0.00000000000E+00 0. -1.
         -2   -1    0    0    0  501 -0.00000000000E+00 -0.00000000000E+00 -0.12678233994E+03  0.12678233994E+03  0.00000000000E+00 0.  1.
         23    2    1    2    0    0 -0.15208823471E+03  0.17039520998E+03  0.10076442309E+03  0.26657551648E+03  0.93507637687E+02 0.  0.
    5000000    2    1    2    0    0  0.15208823471E+03 -0.17039520998E+03  0.23039756627E+04  0.23917292492E+04  0.59991631783E+03 0.  0.
         23    2    4    4    0    0 -0.28332512210E+02 -0.20100193065E+03  0.20763472672E+04  0.20882130564E+04  0.90616156939E+02 0.  0.
         23    2    4    4    0    0  0.18042074692E+03  0.30606720670E+02  0.22762839551E+03  0.30351619272E+03  0.82577088416E+02 0.  0.
          1    1    3    3  502    0 -0.10507336520E+01  0.20018002825E+02 -0.14055291094E+02  0.24482150355E+02  0.00000000000E+00 0. -1.
         -1    1    3    3    0  502 -0.15103750105E+03  0.15037720716E+03  0.11481971418E+03  0.24209336612E+03  0.00000000000E+00 0.  1.
         13    1    5    5    0    0 -0.50163244166E+02 -0.17659371668E+03  0.15471284428E+04  0.15579820635E+04  0.00000000000E+00 0. -1.
        -13    1    5    5    0    0  0.21830731955E+02 -0.24408213977E+02  0.52921882440E+03  0.53023099293E+03  0.00000000000E+00 0.  1.
          3    1    6    6  503    0  0.10636943040E+03 -0.98923937534E+01  0.79997348677E+02  0.13346119651E+03  0.00000000000E+00 0. -1.
         -3    1    6    6    0  503  0.74051316516E+02  0.40499114423E+02  0.14763104684E+03  0.17005499621E+03  0.00000000000E+00 0.  1.
<mgrwt>
<rscale>  0 0.32036810E+03</rscale>
<asrwt>0</asrwt>
<pdfrwt beam="1">  1        2 0.38946495E+00 0.32036810E+03</pdfrwt>
<pdfrwt beam="2">  1       -2 0.19504977E-01 0.32036810E+03</pdfrwt>
<totfact> 0.83828535E+01</totfact>
</mgrwt>
</event>
<event>
12    1  0.1432447E-007  0.1018184E+04  0.7818608E-02  0.9288823E-01
          2   -1    0    0  501    0  0.00000000000E+00  0.00000000000E+00  0.10312403739E+04  0.10312403739E+04  0.00000000000E+00 0. -1.
         -2   -1    0    0    0  501 -0.00000000000E+00 -0.00000000000E+00 -0.10489819577E+04  0.10489819577E+04  0.00000000000E+00 0.  1.
         23    2    1    2    0    0 -0.94937012770E+03 -0.45791208006E+02 -0.43683789308E+02  0.95584906515E+03  0.91316415818E+02 0.  0.
    5000000    2    1    2    0    0  0.94937012770E+03  0.45791208006E+02  0.25942205508E+02  0.11243732664E+04  0.60011813017E+03 0.  0.
         23    2    4    4    0    0  0.97560160056E+03  0.85420441748E+02 -0.63771598419E+02  0.98595405266E+03  0.94569774892E+02 0.  0.
         23    2    4    4    0    0 -0.26231472857E+02 -0.39629233743E+02  0.89713803927E+02  0.13841921377E+03  0.94089031197E+02 0.  0.
          1    1    3    3  502    0 -0.44798353841E+03 -0.10563026091E+01 -0.61319193812E+02  0.45216192895E+03  0.00000000000E+00 0. -1.
         -1    1    3    3    0  502 -0.50138658929E+03 -0.44734905397E+02  0.17635404504E+02  0.50368713620E+03  0.00000000000E+00 0.  1.
         13    1    5    5    0    0  0.74511842749E+03  0.25913405695E+02 -0.58394687787E+02  0.74785220140E+03  0.00000000000E+00 0.  1.
        -13    1    5    5    0    0  0.23048317307E+03  0.59507036053E+02 -0.53769106320E+01  0.23810185127E+03  0.00000000000E+00 0. -1.
          1    1    6    6  503    0 -0.12935737652E+02  0.28860457288E+02  0.11606669004E+02  0.33689376201E+02  0.00000000000E+00 0. -1.
         -1    1    6    6    0  503 -0.13295735205E+02 -0.68489691031E+02  0.78107134923E+02  0.10472983757E+03  0.00000000000E+00 0.  1.
<mgrwt>
<rscale>  0 0.10181841E+04</rscale>
<asrwt>0</asrwt>
<pdfrwt beam="1">  1        2 0.15865236E+00 0.10181841E+04</pdfrwt>
<pdfrwt beam="2">  1       -2 0.16138184E+00 0.10181841E+04</pdfrwt>
<totfact> 0.58560150E+00</totfact>
</mgrwt>
</event>
<event>
12    1  0.1432447E-007  0.7053989E+03  0.7818608E-02  0.9708044E-01
          2   -1    0    0  501    0  0.00000000000E+00  0.00000000000E+00  0.76558303310E+03  0.76558303310E+03  0.00000000000E+00 0. -1.
         -2   -1    0    0    0  501 -0.00000000000E+00 -0.00000000000E+00 -0.75647994674E+03  0.75647994674E+03  0.00000000000E+00 0.  1.
         23    2    1    2    0    0 -0.57440866433E+03 -0.18169398859E+03 -0.19966475433E+03  0.64653590515E+03  0.12322598497E+03 0.  0.
    5000000    2    1    2    0    0  0.57440866433E+03  0.18169398859E+03  0.20876784070E+03  0.87552707469E+03  0.60000469003E+03 0.  0.
         23    2    4    4    0    0  0.79629150118E+01  0.23086896213E+03  0.16238061445E+03  0.29704397874E+03  0.92215918723E+02 0.  0.
         23    2    4    4    0    0  0.56644574932E+03 -0.49174973539E+02  0.46387226245E+02  0.57848309595E+03  0.95978917465E+02 0.  0.
          2    1    3    3  502    0 -0.26473920439E+03 -0.12551374919E+03 -0.46973055023E+02  0.29672717347E+03  0.00000000000E+00 0. -1.
         -2    1    3    3    0  502 -0.30966945994E+03 -0.56180239397E+02 -0.15269169931E+03  0.34980873167E+03  0.00000000000E+00 0.  1.
         13    1    5    5    0    0  0.27128128324E+01  0.11032619406E+03  0.23067471491E+02  0.11274456391E+03  0.00000000000E+00 0. -1.
        -13    1    5    5    0    0  0.52501021794E+01  0.12054276807E+03  0.13931314296E+03  0.18429941483E+03  0.00000000000E+00 0.  1.
          2    1    6    6  503    0  0.95266784046E+02 -0.32289040421E+02 -0.19370610580E+02  0.10243809266E+03  0.00000000000E+00 0. -1.
         -2    1    6    6    0  503  0.47117896527E+03 -0.16885933118E+02  0.65757836826E+02  0.47604500329E+03  0.00000000000E+00 0.  1.
<mgrwt>
<rscale>  0 0.70539895E+03</rscale>
<asrwt>0</asrwt>
<pdfrwt beam="1">  1        2 0.11778200E+00 0.70539895E+03</pdfrwt>
<pdfrwt beam="2">  1       -2 0.11638153E+00 0.70539895E+03</pdfrwt>
<totfact> 0.21296905E+01</totfact>
</mgrwt>
</event>
<event>
12    1  0.1432447E-007  0.1014721E+04  0.7818608E-02  0.9292544E-01
         -1   -1    0    0    0  501 -0.00000000000E+00  0.00000000000E+00  0.15480473802E+04  0.15480473802E+04  0.00000000000E+00 0.  1.
          1   -1    0    0  501    0  0.00000000000E+00 -0.00000000000E+00 -0.71891967982E+03  0.71891967982E+03  0.00000000000E+00 0. -1.
         23    2    1    2    0    0  0.85499941541E+03  0.43454770862E+03  0.52021943185E+03  0.10943118873E+04  0.83872152429E+02 0.  0.
    5000000    2    1    2    0    0 -0.85499941541E+03 -0.43454770862E+03  0.30890826854E+03  0.11726551727E+04  0.59986675551E+03 0.  0.
         23    2    4    4    0    0  0.60519631636E+01 -0.15592728648E+03  0.17802252048E+03  0.25331865705E+03  0.90157524829E+02 0.  0.
         23    2    4    4    0    0 -0.86105137857E+03 -0.27862042214E+03  0.13088574806E+03  0.91933651569E+03  0.94919617909E+02 0.  0.
          3    1    3    3  502    0  0.30122500577E+03  0.12559838458E+03  0.21269301402E+03  0.38955073678E+03  0.00000000000E+00 0. -1.
         -3    1    3    3    0  502  0.55377440964E+03  0.30894932405E+03  0.30752641783E+03  0.70476115051E+03  0.00000000000E+00 0.  1.
         11    1    5    5    0    0  0.17497793842E+02 -0.36104385153E+02  0.10530745623E+03  0.11269143603E+03  0.00000000000E+00 0. -1.
        -11    1    5    5    0    0 -0.11445830678E+02 -0.11982290133E+03  0.72715064249E+02  0.14062722102E+03  0.00000000000E+00 0.  1.
          1    1    6    6  503    0 -0.54806828238E+03 -0.13698909388E+03  0.55702979685E+02  0.56766863216E+03  0.00000000000E+00 0. -1.
         -1    1    6    6    0  503 -0.31298309620E+03 -0.14163132826E+03  0.75182768371E+02  0.35166788353E+03  0.00000000000E+00 0.  1.
<mgrwt>
<rscale>  0 0.10147213E+04</rscale>
<asrwt>0</asrwt>
<pdfrwt beam="1">  1        1 0.11060303E+00 0.10147213E+04</pdfrwt>
<pdfrwt beam="2">  1       -1 0.23816113E+00 0.10147213E+04</pdfrwt>
<totfact> 0.21913575E+00</totfact>
</mgrwt>
</event>
<event>
12    1  0.1432447E-007  0.7323439E+03  0.7818608E-02  0.9663464E-01
          1   -1    0    0  501    0  0.00000000000E+00  0.00000000000E+00  0.91864710873E+03  0.91864710873E+03  0.00000000000E+00 0. -1.
         -1   -1    0    0    0  501 -0.00000000000E+00 -0.00000000000E+00 -0.65580342883E+03  0.65580342883E+03  0.00000000000E+00 0.  1.
         23    2    1    2    0    0 -0.33921352513E+03 -0.52115083261E+03 -0.10135224290E+03  0.63665507487E+03  0.91615507728E+02 0.  0.
    5000000    2    1    2    0    0  0.33921352513E+03  0.52115083261E+03  0.36419592281E+03  0.93779546268E+03  0.60013136368E+03 0.  0.
         23    2    4    4    0    0  0.38294448292E+03  0.90029608167E+02  0.80879376603E+02  0.41215986351E+03  0.92641633109E+02 0.  0.
         23    2    4    4    0    0 -0.43730957794E+02  0.43112122445E+03  0.28331654620E+03  0.52563559917E+03  0.90810852453E+02 0.  0.
          1    1    3    3  502    0 -0.27251594063E+03 -0.44481215897E+03 -0.52990365292E+02  0.52433841504E+03  0.00000000000E+00 0. -1.
         -1    1    3    3    0  502 -0.66697584494E+02 -0.76338673640E+02 -0.48361877611E+02  0.11231665983E+03  0.00000000000E+00 0.  1.
         11    1    5    5    0    0  0.13363568329E+03 -0.13249209506E+02  0.27328029780E+02  0.13704327278E+03  0.00000000000E+00 0. -1.
        -11    1    5    5    0    0  0.24930879963E+03  0.10327881767E+03  0.53551346823E+02  0.27511659074E+03  0.00000000000E+00 0.  1.
          3    1    6    6  503    0  0.35992662411E+01  0.25849752563E+03  0.20642223676E+03  0.33082331433E+03  0.00000000000E+00 0. -1.
         -3    1    6    6    0  503 -0.47330224035E+02  0.17262369881E+03  0.76894309445E+02  0.19481228484E+03  0.00000000000E+00 0.  1.
<mgrwt>
<rscale>  0 0.73234391E+03</rscale>
<asrwt>0</asrwt>
<pdfrwt beam="1">  1        1 0.14133032E+00 0.73234391E+03</pdfrwt>
<pdfrwt beam="2">  1       -1 0.10089284E+00 0.73234391E+03</pdfrwt>
<totfact> 0.16923918E+01</totfact>
</mgrwt>
</event>
<event>
12    1  0.1432447E-007  0.4923641E+03  0.7818608E-02  0.1015791E+00
          1   -1    0    0  501    0  0.00000000000E+00  0.00000000000E+00  0.86139180859E+03  0.86139180859E+03  0.00000000000E+00 0. -1.
         -1   -1    0    0    0  501 -0.00000000000E+00 -0.00000000000E+00 -0.47674470515E+03  0.47674470515E+03  0.00000000000E+00 0.  1.
         23    2    1    2    0    0  0.21125256590E+03  0.24878361447E+03 -0.23775587045E+03  0.41393333044E+03  0.91060500154E+02 0.  0.
    5000000    2    1    2    0    0 -0.21125256590E+03 -0.24878361447E+03  0.62240297389E+03  0.92420318329E+03  0.60020423914E+03 0.  0.
         23    2    4    4    0    0 -0.36304637080E+03 -0.29458292085E+03  0.54997265480E+03  0.72758460990E+03  0.91256117184E+02 0.  0.
         23    2    4    4    0    0  0.15179380490E+03  0.45799306379E+02  0.72430319085E+02  0.19661857340E+03  0.90960302391E+02 0.  0.
          1    1    3    3  502    0  0.11692933361E+03  0.19636287743E+03 -0.13797578673E+03  0.26696098294E+03  0.00000000000E+00 0. -1.
         -1    1    3    3    0  502  0.94323232295E+02  0.52420737042E+02 -0.99780083715E+02  0.14697234750E+03  0.00000000000E+00 0.  1.
         13    1    5    5    0    0 -0.25456560350E+03 -0.17499681071E+03  0.41367175489E+03  0.51628659777E+03  0.00000000000E+00 0.  1.
        -13    1    5    5    0    0 -0.10848076731E+03 -0.11958611014E+03  0.13630089991E+03  0.21129801213E+03  0.00000000000E+00 0. -1.
          1    1    6    6  503    0  0.10141922272E+03 -0.10965786051E+02  0.63600399720E+02  0.12021280317E+03  0.00000000000E+00 0. -1.
         -1    1    6    6    0  503  0.50374582183E+02  0.56765092430E+02  0.88299193647E+01  0.76405770232E+02  0.00000000000E+00 0.  1.
<mgrwt>
<rscale>  0 0.49236407E+03</rscale>
<asrwt>0</asrwt>
<pdfrwt beam="1">  1        1 0.13252182E+00 0.49236407E+03</pdfrwt>
<pdfrwt beam="2">  1       -1 0.73345339E-01 0.49236407E+03</pdfrwt>
<totfact> 0.38834989E+01</totfact>
</mgrwt>
</event>
<event>
12    1  0.1432447E-007  0.2690420E+04  0.7818608E-02  0.8338120E-01
          2   -1    0    0  501    0  0.00000000000E+00  0.00000000000E+00  0.46216924347E+04  0.46216924347E+04  0.00000000000E+00 0. -1.
         -2   -1    0    0    0  501 -0.00000000000E+00 -0.00000000000E+00 -0.16030003676E+04  0.16030003676E+04  0.00000000000E+00 0.  1.
         23    2    1    2    0    0  0.25152144391E+04 -0.91746348060E+03  0.12172597331E+04  0.29424466018E+04  0.90707406169E+02 0.  0.
    5000000    2    1    2    0    0 -0.25152144391E+04  0.91746348060E+03  0.18014323340E+04  0.32822462005E+04  0.59994895964E+03 0.  0.
         23    2    4    4    0    0 -0.10497328940E+04  0.20231752229E+03  0.45343092674E+03  0.11646358841E+04  0.88913489644E+02 0.  0.
         23    2    4    4    0    0 -0.14654815451E+04  0.71514595831E+03  0.13480014072E+04  0.21176103164E+04  0.89976428218E+02 0.  0.
          3    1    3    3  502    0  0.29304441463E+03 -0.11580168667E+03  0.17452637601E+03  0.36020066006E+03  0.00000000000E+00 0. -1.
         -3    1    3    3    0  502  0.22221700245E+04 -0.80166179393E+03  0.10427333571E+04  0.25822459417E+04  0.00000000000E+00 0.  1.
         11    1    5    5    0    0 -0.29781213140E+03  0.33247323022E+02  0.92510650929E+02  0.31361707643E+03  0.00000000000E+00 0. -1.
        -11    1    5    5    0    0 -0.75192076264E+03  0.16907019926E+03  0.36092027581E+03  0.85101880770E+03  0.00000000000E+00 0.  1.
          1    1    6    6  503    0 -0.27815001558E+03  0.17494988683E+03  0.26148714700E+03  0.41994097456E+03  0.00000000000E+00 0. -1.
         -1    1    6    6    0  503 -0.11873315295E+04  0.54019607148E+03  0.10865142602E+04  0.16976693418E+04  0.00000000000E+00 0.  1.
<mgrwt>
<rscale>  0 0.26904198E+04</rscale>
<asrwt>0</asrwt>
<pdfrwt beam="1">  1        2 0.71102960E+00 0.26904198E+04</pdfrwt>
<pdfrwt beam="2">  1       -2 0.24661544E+00 0.26904198E+04</pdfrwt>
<totfact> 0.51866612E-03</totfact>
</mgrwt>
</event>
<event>
12    1  0.1432447E-007  0.6434779E+03  0.7818608E-02  0.9819095E-01
          2   -1    0    0  501    0  0.00000000000E+00  0.00000000000E+00  0.15777245322E+04  0.15777245322E+04  0.00000000000E+00 0. -1.
         -2   -1    0    0    0  501 -0.00000000000E+00 -0.00000000000E+00 -0.47410252686E+03  0.47410252686E+03  0.00000000000E+00 0.  1.
         23    2    1    2    0    0  0.61180218858E+03 -0.17057535698E+03 -0.31555639784E+01  0.64159963291E+03  0.90786898855E+02 0.  0.
    5000000    2    1    2    0    0 -0.61180218858E+03  0.17057535698E+03  0.11067775693E+04  0.14102274262E+04  0.60032235937E+03 0.  0.
         23    2    4    4    0    0 -0.54196942470E+03  0.18039178051E+03  0.11482210131E+04  0.12856036202E+04  0.89961777734E+02 0.  0.
         23    2    4    4    0    0 -0.69832763876E+02 -0.98164235261E+01 -0.41443443792E+02  0.12462380598E+03  0.94024235719E+02 0.  0.
          1    1    3    3  502    0  0.45097277465E+03 -0.89741780263E+02 -0.23730005141E+02  0.46042713185E+03  0.00000000000E+00 0. -1.
         -1    1    3    3    0  502  0.16082941393E+03 -0.80833576722E+02  0.20574441163E+02  0.18117250106E+03  0.00000000000E+00 0.  1.
         13    1    5    5    0    0 -0.18803503514E+03  0.49774515827E+02  0.30375199306E+03  0.36069370684E+03  0.00000000000E+00 0. -1.
        -13    1    5    5    0    0 -0.35393438957E+03  0.13061726468E+03  0.84446902008E+03  0.92490991335E+03  0.00000000000E+00 0.  1.
          4    1    6    6  503    0 -0.56071075878E+02 -0.18553144338E+02  0.18983563207E+02  0.62036766413E+02  0.00000000000E+00 0. -1.
         -4    1    6    6    0  503 -0.13761687998E+02  0.87367208117E+01 -0.60427006998E+02  0.62587039568E+02  0.00000000000E+00 0.  1.
<mgrwt>
<rscale>  0 0.64347785E+03</rscale>
<asrwt>0</asrwt>
<pdfrwt beam="1">  1        2 0.24272685E+00 0.64347785E+03</pdfrwt>
<pdfrwt beam="2">  1       -2 0.72938851E-01 0.64347785E+03</pdfrwt>
<totfact> 0.20277303E+01</totfact>
</mgrwt>
</event>
<event>
12    1  0.1432447E-007  0.7309444E+03  0.7818608E-02  0.9665729E-01
         -1   -1    0    0    0  501 -0.00000000000E+00  0.00000000000E+00  0.78214379645E+03  0.78214379645E+03  0.00000000000E+00 0.  1.
          1   -1    0    0  501    0  0.00000000000E+00 -0.00000000000E+00 -0.69732995436E+03  0.69732995436E+03  0.00000000000E+00 0. -1.
         23    2    1    2    0    0  0.56251580124E+03  0.24283664352E+03  0.32417170073E+02  0.62032412920E+03  0.91419310195E+02 0.  0.
    5000000    2    1    2    0    0 -0.56251580124E+03 -0.24283664352E+03  0.52396672015E+02  0.85914962161E+03  0.59999916583E+03 0.  0.
         23    2    4    4    0    0 -0.66986560057E+03 -0.18857901955E+03  0.83070006844E+02  0.70615373506E+03  0.86432066159E+02 0.  0.
         23    2    4    4    0    0  0.10734979934E+03 -0.54257623976E+02 -0.30673334830E+02  0.15299588655E+03  0.89437233047E+02 0.  0.
          4    1    3    3  502    0  0.16601415721E+03  0.94362425517E+02 -0.26744561153E+02  0.19282178117E+03  0.00000000000E+00 0. -1.
         -4    1    3    3    0  502  0.39650164403E+03  0.14847421801E+03  0.59161731227E+02  0.42750234803E+03  0.00000000000E+00 0.  1.
         13    1    5    5    0    0 -0.41159740418E+03 -0.86640467219E+02  0.18158622440E+02  0.42100917954E+03  0.00000000000E+00 0. -1.
        -13    1    5    5    0    0 -0.25826819639E+03 -0.10193855233E+03  0.64911384405E+02  0.28514455552E+03  0.00000000000E+00 0.  1.
          3    1    6    6  503    0  0.61961904417E+02  0.17476389432E+02 -0.63447701803E+01  0.64691250530E+02  0.00000000000E+00 0. -1.
         -3    1    6    6    0  503  0.45387894920E+02 -0.71734013409E+02 -0.24328564649E+02  0.88304636021E+02  0.00000000000E+00 0.  1.
<mgrwt>
<rscale>  0 0.73094438E+03</rscale>
<asrwt>0</asrwt>
<pdfrwt beam="1">  1        1 0.10728153E+00 0.73094438E+03</pdfrwt>
<pdfrwt beam="2">  1       -1 0.12032981E+00 0.73094438E+03</pdfrwt>
<totfact> 0.17354913E+01</totfact>
</mgrwt>
</event>
<event>
12    1  0.1432447E-007  0.4767672E+03  0.7818608E-02  0.1020027E+00
          2   -1    0    0  501    0  0.00000000000E+00  0.00000000000E+00  0.63639127448E+03  0.63639127448E+03  0.00000000000E+00 0. -1.
         -2   -1    0    0    0  501 -0.00000000000E+00 -0.00000000000E+00 -0.71531936230E+03  0.71531936230E+03  0.00000000000E+00 0.  1.
         23    2    1    2    0    0  0.37880073940E+03 -0.19698626471E+03  0.29454071793E+03  0.52691839384E+03  0.92710142900E+02 0.  0.
    5000000    2    1    2    0    0 -0.37880073940E+03  0.19698626471E+03 -0.37346880576E+03  0.82479224294E+03  0.59875680078E+03 0.  0.
         23    2    4    4    0    0 -0.55479361821E+02  0.19367722039E+03  0.10047065037E+03  0.24400807888E+03  0.94110390948E+02 0.  0.
         23    2    4    4    0    0 -0.32332137757E+03  0.33090443111E+01 -0.47393945613E+03  0.58078416406E+03  0.90243970287E+02 0.  0.
          1    1    3    3  502    0  0.81152973838E+02 -0.46268752449E+02  0.11461696886E+03  0.14786362692E+03  0.00000000000E+00 0. -1.
         -1    1    3    3    0  502  0.29764776556E+03 -0.15071751226E+03  0.17992374907E+03  0.37905476692E+03  0.00000000000E+00 0.  1.
         11    1    5    5    0    0 -0.20420423444E+02  0.10838519120E+03  0.37273107883E+01  0.11035504615E+03  0.00000000000E+00 0.  1.
        -11    1    5    5    0    0 -0.35058938377E+02  0.85292029197E+02  0.96743339583E+02  0.13365303273E+03  0.00000000000E+00 0. -1.
          2    1    6    6  503    0 -0.15901498268E+03  0.11803415799E+02 -0.15746834818E+03  0.22410124055E+03  0.00000000000E+00 0. -1.
         -2    1    6    6    0  503 -0.16430639490E+03 -0.84943714877E+01 -0.31647110795E+03  0.35668292350E+03  0.00000000000E+00 0.  1.
<mgrwt>
<rscale>  0 0.47676725E+03</rscale>
<asrwt>0</asrwt>
<pdfrwt beam="1">  1        2 0.97906350E-01 0.47676725E+03</pdfrwt>
<pdfrwt beam="2">  1       -2 0.11004913E+00 0.47676725E+03</pdfrwt>
<totfact> 0.31551155E+01</totfact>
</mgrwt>
</event>
<event>
12    1  0.1432447E-007  0.5907667E+03  0.7818608E-02  0.9924750E-01
          2   -1    0    0  501    0  0.00000000000E+00  0.00000000000E+00  0.22760799826E+04  0.22760799826E+04  0.00000000000E+00 0. -1.
         -2   -1    0    0    0  501 -0.00000000000E+00 -0.00000000000E+00 -0.21265604151E+03  0.21265604151E+03  0.00000000000E+00 0.  1.
         23    2    1    2    0    0  0.46680960323E+03  0.11111794759E+03  0.13687102237E+04  0.14527369066E+04  0.82573841016E+02 0.  0.
    5000000    2    1    2    0    0 -0.46680960323E+03 -0.11111794759E+03  0.69471371738E+03  0.10359991176E+04  0.60034041887E+03 0.  0.
         23    2    4    4    0    0 -0.54914438020E+03  0.75271903806E+01  0.37042823293E+03  0.66841605277E+03  0.89144461119E+02 0.  0.
         23    2    4    4    0    0  0.82334776972E+02 -0.11864513797E+03  0.32428548445E+03  0.36758306479E+03  0.95396801994E+02 0.  0.
          4    1    3    3  502    0  0.34991348789E+03  0.63659427063E+02  0.91119612593E+03  0.97814638555E+03  0.00000000000E+00 0. -1.
         -4    1    3    3    0  502  0.11689611534E+03  0.47458520531E+02  0.45751409779E+03  0.47459052100E+03  0.00000000000E+00 0.  1.
         13    1    5    5    0    0 -0.11037459215E+03  0.32483215828E+02  0.99696722267E+02  0.15224042280E+03  0.00000000000E+00 0. -1.
        -13    1    5    5    0    0 -0.43876978805E+03 -0.24956025447E+02  0.27073151066E+03  0.51617562997E+03  0.00000000000E+00 0.  1.
          4    1    6    6  503    0  0.69907264432E+02 -0.10880744696E+03  0.17576248328E+03  0.21821671949E+03  0.00000000000E+00 0. -1.
         -4    1    6    6    0  503  0.12427512540E+02 -0.98376910116E+01  0.14852300117E+03  0.14936634530E+03  0.00000000000E+00 0.  1.
<mgrwt>
<rscale>  0 0.59076666E+03</rscale>
<asrwt>0</asrwt>
<pdfrwt beam="1">  1        2 0.35016613E+00 0.59076666E+03</pdfrwt>
<pdfrwt beam="2">  1       -2 0.32716316E-01 0.59076666E+03</pdfrwt>
<totfact> 0.43230570E+01</totfact>
</mgrwt>
</event>
<event>
12    1  0.1432447E-007  0.5137629E+03  0.7818608E-02  0.1010248E+00
         -1   -1    0    0    0  501 -0.00000000000E+00  0.00000000000E+00  0.66681734397E+03  0.66681734397E+03  0.00000000000E+00 0.  1.
          1   -1    0    0  501    0  0.00000000000E+00 -0.00000000000E+00 -0.48741960833E+03  0.48741960833E+03  0.00000000000E+00 0. -1.
         23    2    1    2    0    0 -0.21140864377E+03 -0.34084265787E+03  0.37594341884E+01  0.41140742045E+03  0.91512841569E+02 0.  0.
    5000000    2    1    2    0    0  0.21140864377E+03  0.34084265787E+03  0.17563830146E+03  0.74282953185E+03  0.60006630331E+03 0.  0.
         23    2    4    4    0    0  0.35165868007E+03  0.23501276726E+03 -0.58761469604E+02  0.43682318100E+03  0.92014961312E+02 0.  0.
         23    2    4    4    0    0 -0.14025003630E+03  0.10582989061E+03  0.23439977106E+03  0.30600635085E+03  0.88468048813E+02 0.  0.
          1    1    3    3  502    0 -0.74473797091E+02 -0.60782617487E+02 -0.21952406134E+02  0.98604164094E+02  0.00000000000E+00 0. -1.
         -1    1    3    3    0  502 -0.13693484668E+03 -0.28006004038E+03  0.25711840322E+02  0.31280325636E+03  0.00000000000E+00 0.  1.
         13    1    5    5    0    0  0.72358345804E+02  0.41045637217E+02 -0.49184188394E+02  0.96641393461E+02  0.00000000000E+00 0. -1.
        -13    1    5    5    0    0  0.27930033426E+03  0.19396713004E+03 -0.95772812100E+01  0.34018178754E+03  0.00000000000E+00 0.  1.
          3    1    6    6  503    0 -0.66764787432E+02 -0.97524385544E+00  0.71804950224E+02  0.98053244812E+02  0.00000000000E+00 0. -1.
         -3    1    6    6    0  503 -0.73485248865E+02  0.10680513447E+03  0.16259482084E+03  0.20795310604E+03  0.00000000000E+00 0.  1.
<mgrwt>
<rscale>  0 0.51376293E+03</rscale>
<asrwt>0</asrwt>
<pdfrwt beam="1">  1        1 0.74987632E-01 0.51376293E+03</pdfrwt>
<pdfrwt beam="2">  1       -1 0.10258728E+00 0.51376293E+03</pdfrwt>
<totfact> 0.43232732E+01</totfact>
</mgrwt>
</event>
<event>
12    1  0.1432447E-007  0.7751364E+03  0.7818608E-02  0.9596720E-01
          3   -1    0    0  501    0  0.00000000000E+00  0.00000000000E+00  0.95694707716E+03  0.95694707716E+03  0.00000000000E+00 0. -1.
         -3   -1    0    0    0  501 -0.00000000000E+00 -0.00000000000E+00 -0.90521845333E+03  0.90521845333E+03  0.00000000000E+00 0.  1.
         23    2    1    2    0    0  0.70764357242E+03 -0.24071963845E+02  0.45879135159E+03  0.84870840218E+03  0.92073680330E+02 0.  0.
    5000000    2    1    2    0    0 -0.70764357242E+03  0.24071963845E+02 -0.40706272776E+03  0.10134571283E+04  0.60004699945E+03 0.  0.
         23    2    4    4    0    0 -0.39364652544E+01  0.11663303452E+03  0.59037614762E+02  0.15963733395E+03  0.91541673220E+02 0.  0.
         23    2    4    4    0    0 -0.70370710716E+03 -0.92561070671E+02 -0.46610034253E+03  0.85381979435E+03  0.89372632529E+02 0.  0.
          3    1    3    3  502    0  0.45301204343E+03 -0.57377311149E+02  0.27708897797E+03  0.53412579889E+03  0.00000000000E+00 0. -1.
         -3    1    3    3    0  502  0.25463152899E+03  0.33305347303E+02  0.18170237362E+03  0.31458260329E+03  0.00000000000E+00 0.  1.
         11    1    5    5    0    0  0.18971906670E+02  0.86971770355E+02 -0.81325106638E+00  0.89020691183E+02  0.00000000000E+00 0. -1.
        -11    1    5    5    0    0 -0.22908371924E+02  0.29661264162E+02  0.59850865828E+02  0.70616642771E+02  0.00000000000E+00 0.  1.
          1    1    6    6  503    0 -0.23798358163E+03 -0.44998316683E+02 -0.11202589022E+03  0.26685358103E+03  0.00000000000E+00 0. -1.
         -1    1    6    6    0  503 -0.46572352554E+03 -0.47562753988E+02 -0.35407445231E+03  0.58696621332E+03  0.00000000000E+00 0.  1.
<mgrwt>
<rscale>  0 0.77513637E+03</rscale>
<asrwt>0</asrwt>
<pdfrwt beam="1">  1        3 0.14722263E+00 0.77513637E+03</pdfrwt>
<pdfrwt beam="2">  1       -3 0.13926438E+00 0.77513637E+03</pdfrwt>
<totfact> 0.34218236E-01</totfact>
</mgrwt>
</event>
<event>
12    1  0.1432447E-007  0.9564443E+03  0.7818608E-02  0.9357650E-01
          2   -1    0    0  501    0  0.00000000000E+00  0.00000000000E+00  0.11673897134E+04  0.11673897134E+04  0.00000000000E+00 0. -1.
         -2   -1    0    0    0  501 -0.00000000000E+00 -0.00000000000E+00 -0.92970988960E+03  0.92970988960E+03  0.00000000000E+00 0.  1.
         23    2    1    2    0    0  0.82519047165E+03 -0.45649750833E+03  0.24802928652E+03  0.97926085541E+03  0.90022254694E+02 0.  0.
    5000000    2    1    2    0    0 -0.82519047165E+03  0.45649750833E+03 -0.10349462737E+02  0.11178387476E+04  0.60010587783E+03 0.  0.
         23    2    4    4    0    0 -0.32411927471E+03  0.11869089713E+03  0.26838996745E+03  0.44633943454E+03  0.89693271180E+02 0.  0.
         23    2    4    4    0    0 -0.50107119694E+03  0.33780661120E+03 -0.27873943019E+03  0.67149931304E+03  0.89610303572E+02 0.  0.
          4    1    3    3  502    0  0.26910707065E+03 -0.10636009937E+03  0.57000221613E+02  0.29492390794E+03  0.00000000000E+00 0. -1.
         -4    1    3    3    0  502  0.55608340100E+03 -0.35013740897E+03  0.19102906491E+03  0.68433694747E+03  0.00000000000E+00 0.  1.
         11    1    5    5    0    0 -0.15363674537E+03  0.11015733540E+02  0.10010305923E+03  0.18370143816E+03  0.00000000000E+00 0. -1.
        -11    1    5    5    0    0 -0.17048252934E+03  0.10767516359E+03  0.16828690822E+03  0.26263799638E+03  0.00000000000E+00 0.  1.
          2    1    6    6  503    0 -0.66676152978E+02  0.85305797456E+02 -0.43038288423E+02  0.11651215699E+03  0.00000000000E+00 0.  1.
         -2    1    6    6    0  503 -0.43439504396E+03  0.25250081374E+03 -0.23570114176E+03  0.55498715605E+03  0.00000000000E+00 0. -1.
<mgrwt>
<rscale>  0 0.95644435E+03</rscale>
<asrwt>0</asrwt>
<pdfrwt beam="1">  1        2 0.17959842E+00 0.95644435E+03</pdfrwt>
<pdfrwt beam="2">  1       -2 0.14303229E+00 0.95644435E+03</pdfrwt>
<totfact> 0.67025185E+00</totfact>
</mgrwt>
</event>
<event>
12    1  0.1432447E-007  0.9937413E+03  0.7818608E-02  0.9315436E-01
          2   -1    0    0  501    0  0.00000000000E+00  0.00000000000E+00  0.56520739215E+03  0.56520739215E+03  0.00000000000E+00 0.  1.
         -2   -1    0    0    0  501 -0.00000000000E+00 -0.00000000000E+00 -0.21262543978E+04  0.21262543978E+04  0.00000000000E+00 0. -1.
         23    2    1    2    0    0 -0.24167763729E+03 -0.94671089481E+03 -0.39985882497E+03  0.10595856192E+04  0.90360422073E+02 0.  0.
    5000000    2    1    2    0    0  0.24167763729E+03  0.94671089481E+03 -0.11611881807E+04  0.16318761707E+04  0.59999353901E+03 0.  0.
         23    2    4    4    0    0 -0.41906630986E+02  0.19267169303E+03  0.19340454041E+01  0.21415659000E+03  0.83550927532E+02 0.  0.
         23    2    4    4    0    0  0.28358426828E+03  0.75403920178E+03 -0.11631222261E+04  0.14177195807E+04  0.89890720790E+02 0.  0.
          4    1    3    3  502    0 -0.13656635823E+03 -0.62991892371E+03 -0.22436402080E+03  0.68248621559E+03  0.00000000000E+00 0. -1.
         -4    1    3    3    0  502 -0.10511127906E+03 -0.31679197110E+03 -0.17549480417E+03  0.37709940365E+03  0.00000000000E+00 0.  1.
         11    1    5    5    0    0 -0.33861488068E+02  0.18530153679E+03 -0.20229381594E+02  0.18945312822E+03  0.00000000000E+00 0. -1.
        -11    1    5    5    0    0 -0.80451429176E+01  0.73701562382E+01  0.22163426998E+02  0.24703461779E+02  0.00000000000E+00 0.  1.
          2    1    6    6  503    0  0.22727891030E+03  0.49350829426E+03 -0.80817823001E+03  0.97383684005E+03  0.00000000000E+00 0.  1.
         -2    1    6    6    0  503  0.56305357971E+02  0.26053090751E+03 -0.35494399609E+03  0.44388274067E+03  0.00000000000E+00 0. -1.
<mgrwt>
<rscale>  0 0.99374132E+03</rscale>
<asrwt>0</asrwt>
<pdfrwt beam="1">  1        2 0.86954984E-01 0.99374132E+03</pdfrwt>
<pdfrwt beam="2">  1       -2 0.32711606E+00 0.99374132E+03</pdfrwt>
<totfact> 0.11660038E+00</totfact>
</mgrwt>
</event>
<event>
12    1  0.1432447E-007  0.7574382E+03  0.7818608E-02  0.9623753E-01
         -2   -1    0    0    0  501 -0.00000000000E+00  0.00000000000E+00  0.63952097052E+03  0.63952097052E+03  0.00000000000E+00 0. -1.
          2   -1    0    0  501    0  0.00000000000E+00 -0.00000000000E+00 -0.12212988312E+04  0.12212988312E+04  0.00000000000E+00 0.  1.
         23    2    1    2    0    0 -0.64313996891E+03 -0.65713467986E+01  0.20472856560E+03  0.68091314217E+03  0.89759230114E+02 0.  0.
    5000000    2    1    2    0    0  0.64313996891E+03  0.65713467986E+01 -0.78650642626E+03  0.11799066595E+04  0.59992929955E+03 0.  0.
         23    2    4    4    0    0  0.78938374654E+02  0.23130487446E+03 -0.18265410630E+03  0.31886352883E+03  0.92618656460E+02 0.  0.
         23    2    4    4    0    0  0.56420159426E+03 -0.22473352766E+03 -0.60385231996E+03  0.86104313071E+03  0.89045220034E+02 0.  0.
          3    1    3    3  502    0 -0.58872177664E+03  0.17975133985E+02  0.17646812907E+03  0.61486375427E+03  0.00000000000E+00 0. -1.
         -3    1    3    3    0  502 -0.54418192269E+02 -0.24546480784E+02  0.28260436533E+02  0.66049387899E+02  0.00000000000E+00 0.  1.
         13    1    5    5    0    0  0.36163867744E+01  0.11727469224E+03 -0.12226114661E+03  0.16945270627E+03  0.00000000000E+00 0.  1.
        -13    1    5    5    0    0  0.75321987880E+02  0.11403018222E+03 -0.60392959694E+02  0.14941082255E+03  0.00000000000E+00 0. -1.
          2    1    6    6  503    0  0.22130302951E+03 -0.48091888498E+02 -0.25394096397E+03  0.34025560068E+03  0.00000000000E+00 0. -1.
         -2    1    6    6    0  503  0.34289856475E+03 -0.17664163916E+03 -0.34991135599E+03  0.52078753004E+03  0.00000000000E+00 0.  1.
<mgrwt>
<rscale>  0 0.75743823E+03</rscale>
<asrwt>0</asrwt>
<pdfrwt beam="1">  1        2 0.18789213E+00 0.75743823E+03</pdfrwt>
<pdfrwt beam="2">  1       -2 0.98387843E-01 0.75743823E+03</pdfrwt>
<totfact> 0.16085048E+01</totfact>
</mgrwt>
</event>
<event>
12    1  0.1432447E-007  0.8047702E+03  0.7818608E-02  0.9553138E-01
         -2   -1    0    0    0  501 -0.00000000000E+00  0.00000000000E+00  0.18698758349E+04  0.18698758349E+04  0.00000000000E+00 0.  1.
          2   -1    0    0  501    0  0.00000000000E+00 -0.00000000000E+00 -0.35990422163E+03  0.35990422163E+03  0.00000000000E+00 0. -1.
         23    2    1    2    0    0 -0.67314758436E+03  0.16945002427E+03  0.47453314714E+03  0.84631730789E+03  0.96074433880E+02 0.  0.
    5000000    2    1    2    0    0  0.67314758436E+03 -0.16945002427E+03  0.10354384661E+04  0.13834627486E+04  0.59999614889E+03 0.  0.
         23    2    4    4    0    0  0.25050877972E+03  0.21108690216E+03  0.35256411270E+03  0.49005810209E+03  0.92429220945E+02 0.  0.
         23    2    4    4    0    0  0.42263880464E+03 -0.38053692643E+03  0.68287435341E+03  0.89340464653E+03  0.91774551675E+02 0.  0.
          3    1    3    3  502    0 -0.52765736088E+03  0.17281013150E+03  0.37656762456E+03  0.67088658349E+03  0.00000000000E+00 0. -1.
         -3    1    3    3    0  502 -0.14549022348E+03 -0.33601072360E+01  0.97965522579E+02  0.17543072440E+03  0.00000000000E+00 0.  1.
         13    1    5    5    0    0  0.16875985570E+03  0.19265957051E+03  0.25448408500E+03  0.36105366433E+03  0.00000000000E+00 0. -1.
        -13    1    5    5    0    0  0.81748924012E+02  0.18427331645E+02  0.98080027701E+02  0.12900443776E+03  0.00000000000E+00 0.  1.
          2    1    6    6  503    0  0.22506802966E+03 -0.19399984596E+03  0.42670962972E+03  0.51997371694E+03  0.00000000000E+00 0. -1.
         -2    1    6    6    0  503  0.19757077498E+03 -0.18653708047E+03  0.25616472369E+03  0.37343092959E+03  0.00000000000E+00 0.  1.
<mgrwt>
<rscale>  0 0.80477020E+03</rscale>
<asrwt>0</asrwt>
<pdfrwt beam="1">  1        2 0.55369882E-01 0.80477020E+03</pdfrwt>
<pdfrwt beam="2">  1       -2 0.28767320E+00 0.80477020E+03</pdfrwt>
<totfact> 0.34864166E+00</totfact>
</mgrwt>
</event>
<event>
12    1  0.1432447E-007  0.9358167E+03  0.7818608E-02  0.9381884E-01
         -2   -1    0    0    0  501 -0.00000000000E+00  0.00000000000E+00  0.56767234840E+03  0.56767234840E+03  0.00000000000E+00 0.  1.
          2   -1    0    0  501    0  0.00000000000E+00 -0.00000000000E+00 -0.34672057700E+04  0.34672057700E+04  0.00000000000E+00 0. -1.
         23    2    1    2    0    0  0.77054049728E+03 -0.40373239407E+03  0.75644638502E+02  0.87759758466E+03  0.87880062040E+02 0.  0.
    5000000    2    1    2    0    0 -0.77054049728E+03  0.40373239407E+03 -0.29751780601E+04  0.31572805337E+04  0.60000281285E+03 0.  0.
         23    2    4    4    0    0 -0.25816410671E+03  0.40949389400E+03 -0.19127637572E+04  0.19751272899E+04  0.90159109965E+02 0.  0.
         23    2    4    4    0    0 -0.51237639057E+03 -0.57614999229E+01 -0.10624143029E+04  0.11821532439E+04  0.78736144724E+02 0.  0.
          2    1    3    3  502    0  0.18641039086E+03 -0.83866598153E+02  0.53327112805E+02  0.21124919187E+03  0.00000000000E+00 0. -1.
         -2    1    3    3    0  502  0.58413010642E+03 -0.31986579592E+03  0.22317525698E+02  0.66634839280E+03  0.00000000000E+00 0.  1.
         13    1    5    5    0    0 -0.24318336577E+03  0.39617953517E+03 -0.17335321819E+04  0.17947785933E+04  0.00000000000E+00 0. -1.
        -13    1    5    5    0    0 -0.14980740940E+02  0.13314358828E+02 -0.17923157532E+03  0.18034869653E+03  0.00000000000E+00 0.  1.
          3    1    6    6  503    0 -0.11896702244E+03  0.25598724258E+02 -0.20770839171E+03  0.24073060274E+03  0.00000000000E+00 0. -1.
         -3    1    6    6    0  503 -0.39340936813E+03 -0.31360224181E+02 -0.85470591120E+03  0.94142264113E+03  0.00000000000E+00 0.  1.
<mgrwt>
<rscale>  0 0.93581668E+03</rscale>
<asrwt>0</asrwt>
<pdfrwt beam="1">  1        2 0.53341626E+00 0.93581668E+03</pdfrwt>
<pdfrwt beam="2">  1       -2 0.87334210E-01 0.93581668E+03</pdfrwt>
<totfact> 0.10147782E+00</totfact>
</mgrwt>
</event>
<event>
12    1  0.1432447E-007  0.8271452E+03  0.7818608E-02  0.9521536E-01
         -2   -1    0    0    0  501 -0.00000000000E+00  0.00000000000E+00  0.48098668771E+03  0.48098668771E+03  0.00000000000E+00 0.  1.
          2   -1    0    0  501    0  0.00000000000E+00 -0.00000000000E+00 -0.27248085727E+04  0.27248085727E+04  0.00000000000E+00 0. -1.
         23    2    1    2    0    0 -0.90348770701E+02  0.71316657820E+03 -0.21451436376E+04  0.22642796758E+04  0.92475702549E+02 0.  0.
    5000000    2    1    2    0    0  0.90348770701E+02 -0.71316657820E+03 -0.98678247369E+02  0.94151558462E+03  0.59995394068E+03 0.  0.
         23    2    4    4    0    0  0.97046743266E+02  0.69841209286E+02 -0.18939506439E+02  0.14917891520E+03  0.87176711016E+02 0.  0.
         23    2    4    4    0    0 -0.66979725647E+01 -0.78300778749E+03 -0.79738740931E+02  0.79233666942E+03  0.91066309838E+02 0.  0.
          3    1    3    3  502    0 -0.60365395266E+02  0.34042918079E+03 -0.11652210655E+04  0.12154324907E+04  0.00000000000E+00 0. -1.
         -3    1    3    3    0  502 -0.29983375435E+02  0.37273739741E+03 -0.97992257213E+03  0.10488471851E+04  0.00000000000E+00 0.  1.
         13    1    5    5    0    0  0.24570876196E+02  0.69678013016E+02 -0.20539415781E+02  0.76685207541E+02  0.00000000000E+00 0. -1.
        -13    1    5    5    0    0  0.72475867070E+02  0.16319626978E+00  0.15999093424E+01  0.72493707661E+02  0.00000000000E+00 0.  1.
          1    1    6    6  503    0 -0.48501948135E+02 -0.45929860027E+03 -0.51707374918E+02  0.46473787860E+03  0.00000000000E+00 0. -1.
         -1    1    6    6    0  503  0.41803975570E+02 -0.32370918722E+03 -0.28031366013E+02  0.32759879082E+03  0.00000000000E+00 0.  1.
<mgrwt>
<rscale>  0 0.82714517E+03</rscale>
<asrwt>0</asrwt>
<pdfrwt beam="1">  1        2 0.41920131E+00 0.82714517E+03</pdfrwt>
<pdfrwt beam="2">  1       -2 0.73997954E-01 0.82714517E+03</pdfrwt>
<totfact> 0.44019510E+00</totfact>
</mgrwt>
</event>
<event>
12    1  0.1432447E-007  0.5528292E+03  0.7818608E-02  0.1000841E+00
         -2   -1    0    0    0  501 -0.00000000000E+00  0.00000000000E+00  0.60112438577E+03  0.60112438577E+03  0.00000000000E+00 0.  1.
          2   -1    0    0  501    0  0.00000000000E+00 -0.00000000000E+00 -0.59453169817E+03  0.59453169817E+03  0.00000000000E+00 0. -1.
         23    2    1    2    0    0  0.37002532284E+03  0.22791778866E+03  0.80659846678E+02  0.45111986663E+03  0.90210117343E+02 0.  0.
    5000000    2    1    2    0    0 -0.37002532284E+03 -0.22791778866E+03 -0.74067159082E+02  0.74453621731E+03  0.59998581391E+03 0.  0.
         23    2    4    4    0    0 -0.29542187528E+03  0.10833968847E+03  0.10820597927E+03  0.34460493871E+03  0.89623977463E+02 0.  0.
         23    2    4    4    0    0 -0.74603447556E+02 -0.33625747714E+03 -0.18227313835E+03  0.39993127860E+03  0.89926443941E+02 0.  0.
          4    1    3    3  502    0  0.16314044485E+03  0.99143361505E+02 -0.98698917036E+01  0.19115863998E+03  0.00000000000E+00 0. -1.
         -4    1    3    3    0  502  0.20688487799E+03  0.12877442716E+03  0.90529738382E+02  0.25996122665E+03  0.00000000000E+00 0.  1.
         11    1    5    5    0    0 -0.27706889940E+03  0.78584088504E+02  0.77924712080E+02  0.29835364039E+03  0.00000000000E+00 0.  1.
        -11    1    5    5    0    0 -0.18352975881E+02  0.29755599970E+02  0.30281267186E+02  0.46251298313E+02  0.00000000000E+00 0. -1.
          2    1    6    6  503    0 -0.95039506395E+00 -0.11321829670E+03 -0.21376166040E+02  0.11522250836E+03  0.00000000000E+00 0. -1.
         -2    1    6    6    0  503 -0.73653052492E+02 -0.22303918043E+03 -0.16089697231E+03  0.28470877023E+03  0.00000000000E+00 0.  1.
<mgrwt>
<rscale>  0 0.55282915E+03</rscale>
<asrwt>0</asrwt>
<pdfrwt beam="1">  1        2 0.91466415E-01 0.55282915E+03</pdfrwt>
<pdfrwt beam="2">  1       -2 0.92480675E-01 0.55282915E+03</pdfrwt>
<totfact> 0.51187825E+01</totfact>
</mgrwt>
</event>
<event>
12    1  0.1432447E-007  0.9086141E+03  0.7818608E-02  0.9414877E-01
          2   -1    0    0  501    0  0.00000000000E+00  0.00000000000E+00  0.24511745526E+04  0.24511745526E+04  0.00000000000E+00 0. -1.
         -2   -1    0    0    0  501 -0.00000000000E+00 -0.00000000000E+00 -0.45219743961E+03  0.45219743961E+03  0.00000000000E+00 0.  1.
         23    2    1    2    0    0  0.48337883702E+03  0.74084656829E+03  0.14530424051E+04  0.17029879749E+04  0.79542904684E+02 0.  0.
    5000000    2    1    2    0    0 -0.48337883702E+03 -0.74084656829E+03  0.54593470787E+03  0.12003840173E+04  0.60030687646E+03 0.  0.
         23    2    4    4    0    0 -0.62151472519E+02 -0.29797650912E+03 -0.71218670212E+02  0.32699903314E+03  0.95934681764E+02 0.  0.
         23    2    4    4    0    0 -0.42122736450E+03 -0.44287005917E+03  0.61715337808E+03  0.87338498417E+03  0.91414750327E+02 0.  0.
          3    1    3    3  502    0  0.13575293036E+02  0.75096209429E+01  0.42465667804E+02  0.45210794394E+02  0.00000000000E+00 0. -1.
         -3    1    3    3    0  502  0.46980354399E+03  0.73333694735E+03  0.14105767373E+04  0.16577771805E+04  0.00000000000E+00 0.  1.
         13    1    5    5    0    0 -0.14883190107E+02 -0.25210350122E+03 -0.47372363918E+02  0.25694712596E+03  0.00000000000E+00 0. -1.
        -13    1    5    5    0    0 -0.47268282412E+02 -0.45873007897E+02 -0.23846306294E+02  0.70051907180E+02  0.00000000000E+00 0.  1.
          1    1    6    6  503    0 -0.19327458472E+03 -0.23082309047E+03  0.24477440613E+03  0.38800628099E+03  0.00000000000E+00 0. -1.
         -1    1    6    6    0  503 -0.22795277979E+03 -0.21204696870E+03  0.37237897195E+03  0.48537870318E+03  0.00000000000E+00 0.  1.
<mgrwt>
<rscale>  0 0.90861412E+03</rscale>
<asrwt>0</asrwt>
<pdfrwt beam="1">  1        2 0.37710377E+00 0.90861412E+03</pdfrwt>
<pdfrwt beam="2">  1       -2 0.69568838E-01 0.90861412E+03</pdfrwt>
<totfact> 0.71574161E+00</totfact>
</mgrwt>
</event>
<event>
12    1  0.1432447E-007  0.6204415E+03  0.7818608E-02  0.9863881E-01
         -2   -1    0    0    0  501 -0.00000000000E+00  0.00000000000E+00  0.40779043402E+03  0.40779043402E+03  0.00000000000E+00 0.  1.
          2   -1    0    0  501    0  0.00000000000E+00 -0.00000000000E+00 -0.12369538045E+04  0.12369538045E+04  0.00000000000E+00 0. -1.
         23    2    1    2    0    0  0.15524432876E+03  0.54088054781E+03 -0.49709880695E+03  0.75654914784E+03  0.92772951969E+02 0.  0.
    5000000    2    1    2    0    0 -0.15524432876E+03 -0.54088054781E+03 -0.33206456349E+03  0.88819509065E+03  0.60164032122E+03 0.  0.
         23    2    4    4    0    0 -0.50226537234E+02  0.12148461284E+02 -0.29949560538E+03  0.31760616640E+03  0.92226726798E+02 0.  0.
         23    2    4    4    0    0 -0.10501779152E+03 -0.55302900909E+03 -0.32568958111E+02  0.57058892425E+03  0.87413740407E+02 0.  0.
          1    1    3    3  502    0  0.41351146484E+02  0.30700345323E+03 -0.28435865075E+03  0.42050074895E+03  0.00000000000E+00 0. -1.
         -1    1    3    3    0  502  0.11389318227E+03  0.23387709458E+03 -0.21274015620E+03  0.33604839889E+03  0.00000000000E+00 0.  1.
         13    1    5    5    0    0  0.25072432258E+02 -0.89843367047E+01 -0.95096480704E+02  0.98755687469E+02  0.00000000000E+00 0.  1.
        -13    1    5    5    0    0 -0.75298969492E+02  0.21132797989E+02 -0.20439912468E+03  0.21885047893E+03  0.00000000000E+00 0. -1.
          3    1    6    6  503    0 -0.10581717514E+03 -0.42085322614E+03  0.20309823220E+01  0.43395718383E+03  0.00000000000E+00 0. -1.
         -3    1    6    6    0  503  0.79938361495E+00 -0.13217578295E+03 -0.34599940433E+02  0.13663174042E+03  0.00000000000E+00 0.  1.
<mgrwt>
<rscale>  0 0.62044154E+03</rscale>
<asrwt>0</asrwt>
<pdfrwt beam="1">  1        2 0.19030059E+00 0.62044154E+03</pdfrwt>
<pdfrwt beam="2">  1       -2 0.62736989E-01 0.62044154E+03</pdfrwt>
<totfact> 0.43806171E+01</totfact>
</mgrwt>
</event>
<event>
12    1  0.1432447E-007  0.7355720E+03  0.7818608E-02  0.9658262E-01
          2   -1    0    0  501    0  0.00000000000E+00  0.00000000000E+00  0.86857302241E+03  0.86857302241E+03  0.00000000000E+00 0.  1.
         -2   -1    0    0    0  501 -0.00000000000E+00 -0.00000000000E+00 -0.73625435335E+03  0.73625435335E+03  0.00000000000E+00 0. -1.
         23    2    1    2    0    0  0.65361109551E+03 -0.93521800770E+02 -0.12042754161E+03  0.67755503698E+03  0.92866807679E+02 0.  0.
    5000000    2    1    2    0    0 -0.65361109551E+03  0.93521800770E+02  0.25274621067E+03  0.92727233877E+03  0.59999962653E+03 0.  0.
         23    2    4    4    0    0 -0.19659776839E+03 -0.17226618730E+03  0.27579634818E+03  0.39066304730E+03  0.90706499377E+02 0.  0.
         23    2    4    4    0    0 -0.45701332712E+03  0.26578798807E+03 -0.23050137509E+02  0.53660929147E+03  0.88959468815E+02 0.  0.
          2    1    3    3  502    0  0.18020011831E+03 -0.33516264561E+01  0.23218994258E+01  0.18024624062E+03  0.00000000000E+00 0.  1.
         -2    1    3    3    0  502  0.47341097720E+03 -0.90170174314E+02 -0.12274944104E+03  0.49730879637E+03  0.00000000000E+00 0. -1.
         13    1    5    5    0    0 -0.93349443681E+00 -0.39577001220E+02  0.49685914000E+02  0.63528737493E+02  0.00000000000E+00 0.  1.
        -13    1    5    5    0    0 -0.19566427395E+03 -0.13268918608E+03  0.22611043418E+03  0.32713430980E+03  0.00000000000E+00 0. -1.
          1    1    6    6  503    0 -0.36394149613E+03  0.17836745462E+03  0.72837429546E+01  0.40536577851E+03  0.00000000000E+00 0. -1.
         -1    1    6    6    0  503 -0.93071830987E+02  0.87420533447E+02 -0.30333880464E+02  0.13124351297E+03  0.00000000000E+00 0.  1.
<mgrwt>
<rscale>  0 0.73557198E+03</rscale>
<asrwt>0</asrwt>
<pdfrwt beam="1">  1        2 0.13362662E+00 0.73557198E+03</pdfrwt>
<pdfrwt beam="2">  1       -2 0.11326990E+00 0.73557198E+03</pdfrwt>
<totfact> 0.19166449E+01</totfact>
</mgrwt>
</event>
<event>
12    1  0.1432447E-007  0.8852252E+03  0.7818608E-02  0.9444241E-01
         -2   -1    0    0    0  501 -0.00000000000E+00  0.00000000000E+00  0.36831235801E+03  0.36831235801E+03  0.00000000000E+00 0.  1.
          2   -1    0    0  501    0  0.00000000000E+00 -0.00000000000E+00 -0.21612734360E+04  0.21612734360E+04  0.00000000000E+00 0. -1.
         23    2    1    2    0    0  0.62002339707E+03 -0.48652372961E+03 -0.83160024953E+03  0.11492373466E+04  0.89739352030E+02 0.  0.
    5000000    2    1    2    0    0 -0.62002339707E+03  0.48652372961E+03 -0.96136082847E+03  0.13803484475E+04  0.60001070116E+03 0.  0.
         23    2    4    4    0    0 -0.19161798309E+03 -0.11610135317E+03 -0.28390199811E+03  0.37344370878E+03  0.93074612272E+02 0.  0.
         23    2    4    4    0    0 -0.42840541398E+03  0.60262508279E+03 -0.67745883036E+03  0.10069047387E+04  0.90655925362E+02 0.  0.
          3    1    3    3  502    0  0.19694016646E+03 -0.19849520988E+03 -0.25760468389E+03  0.38019199186E+03  0.00000000000E+00 0. -1.
         -3    1    3    3    0  502  0.42308323060E+03 -0.28802851973E+03 -0.57399556564E+03  0.76904535469E+03  0.00000000000E+00 0.  1.
         13    1    5    5    0    0 -0.10804428563E+03 -0.10680477205E+03 -0.13903763322E+03  0.20594244448E+03  0.00000000000E+00 0. -1.
        -13    1    5    5    0    0 -0.83573697461E+02 -0.92965811283E+01 -0.14486436489E+03  0.16750126430E+03  0.00000000000E+00 0.  1.
          4    1    6    6  503    0 -0.10309796295E+03  0.20324847669E+03 -0.17513827711E+03  0.28742398882E+03  0.00000000000E+00 0. -1.
         -4    1    6    6    0  503 -0.32530745103E+03  0.39937660610E+03 -0.50232055325E+03  0.71948074985E+03  0.00000000000E+00 0.  1.
<mgrwt>
<rscale>  0 0.88522524E+03</rscale>
<asrwt>0</asrwt>
<pdfrwt beam="1">  1        2 0.33250360E+00 0.88522524E+03</pdfrwt>
<pdfrwt beam="2">  1       -2 0.56663440E-01 0.88522524E+03</pdfrwt>
<totfact> 0.16171422E+01</totfact>
</mgrwt>
</event>
<event>
12    1  0.1432447E-007  0.8491723E+03  0.7818608E-02  0.9491449E-01
          2   -1    0    0  501    0  0.00000000000E+00  0.00000000000E+00  0.28906420428E+04  0.28906420428E+04  0.00000000000E+00 0. -1.
         -2   -1    0    0    0  501 -0.00000000000E+00 -0.00000000000E+00 -0.29486770727E+03  0.29486770727E+03  0.00000000000E+00 0.  1.
         23    2    1    2    0    0 -0.76080218279E+02 -0.81356152801E+03  0.99301855947E+03  0.12891772072E+04  0.90672227116E+02 0.  0.
    5000000    2    1    2    0    0  0.76080218279E+02  0.81356152801E+03  0.16027557761E+04  0.18963325428E+04  0.59965029459E+03 0.  0.
         23    2    4    4    0    0  0.18552082111E+03  0.60208197607E+03  0.64895035436E+03  0.90913679379E+03  0.92046001666E+02 0.  0.
         23    2    4    4    0    0 -0.10944060283E+03  0.21147955194E+03  0.95380542173E+03  0.98719574906E+03  0.90054527928E+02 0.  0.
          2    1    3    3  502    0  0.10563744304E+01 -0.29442795194E+03  0.40944543276E+03  0.50431587048E+03  0.00000000000E+00 0. -1.
         -2    1    3    3    0  502 -0.77136592709E+02 -0.51913357607E+03  0.58357312671E+03  0.78486133677E+03  0.00000000000E+00 0.  1.
         13    1    5    5    0    0  0.93771349248E+02  0.32557674727E+03  0.28350326761E+03  0.44177753117E+03  0.00000000000E+00 0. -1.
        -13    1    5    5    0    0  0.91749471860E+02  0.27650522881E+03  0.36544708675E+03  0.46735926262E+03  0.00000000000E+00 0.  1.
          3    1    6    6  503    0 -0.13795919263E+02  0.10463225495E+03  0.30537619671E+03  0.32309883578E+03  0.00000000000E+00 0. -1.
         -3    1    6    6    0  503 -0.95644683566E+02  0.10684729699E+03  0.64842922502E+03  0.66409691328E+03  0.00000000000E+00 0.  1.
<mgrwt>
<rscale>  0 0.84917231E+03</rscale>
<asrwt>0</asrwt>
<pdfrwt beam="1">  1        2 0.44471414E+00 0.84917231E+03</pdfrwt>
<pdfrwt beam="2">  1       -2 0.45364265E-01 0.84917231E+03</pdfrwt>
<totfact> 0.97814651E+00</totfact>
</mgrwt>
</event>
<event>
12    1  0.1432447E-007  0.5899745E+03  0.7818608E-02  0.9926427E-01
         -2   -1    0    0    0  501 -0.00000000000E+00  0.00000000000E+00  0.23974112500E+03  0.23974112500E+03  0.00000000000E+00 0.  1.
          2   -1    0    0  501    0  0.00000000000E+00 -0.00000000000E+00 -0.24284930945E+04  0.24284930945E+04  0.00000000000E+00 0. -1.
         23    2    1    2    0    0 -0.18031650328E+03 -0.50439859120E+03 -0.15463374069E+04  0.16388663951E+04  0.88270634576E+02 0.  0.
    5000000    2    1    2    0    0  0.18031650328E+03  0.50439859120E+03 -0.64241456266E+03  0.10293678244E+04  0.59997472238E+03 0.  0.
         23    2    4    4    0    0 -0.95461100841E+02  0.23570045043E+03  0.47810481769E+01  0.27034789515E+03  0.91638430165E+02 0.  0.
         23    2    4    4    0    0  0.27577760412E+03  0.26869814077E+03 -0.64719561084E+03  0.75901992928E+03  0.94853131563E+02 0.  0.
          1    1    3    3  502    0 -0.99529986524E+02 -0.25777434568E+03 -0.66527896449E+03  0.72038179606E+03  0.00000000000E+00 0. -1.
         -1    1    3    3    0  502 -0.80786516759E+02 -0.24662424552E+03 -0.88105844238E+03  0.91848459903E+03  0.00000000000E+00 0.  1.
         11    1    5    5    0    0 -0.73463140038E+02  0.18642146968E+03  0.42081940028E+02  0.20474541992E+03  0.00000000000E+00 0. -1.
        -11    1    5    5    0    0 -0.21997960803E+02  0.49278980754E+02 -0.37300891852E+02  0.65602475232E+02  0.00000000000E+00 0.  1.
          3    1    6    6  503    0  0.13171616448E+03  0.86852671814E+02 -0.19543149942E+03  0.25116927669E+03  0.00000000000E+00 0. -1.
         -3    1    6    6    0  503  0.14406143964E+03  0.18184546895E+03 -0.45176411142E+03  0.50785065259E+03  0.00000000000E+00 0.  1.
<mgrwt>
<rscale>  0 0.58997454E+03</rscale>
<asrwt>0</asrwt>
<pdfrwt beam="1">  1        2 0.37361432E+00 0.58997454E+03</pdfrwt>
<pdfrwt beam="2">  1       -2 0.36883250E-01 0.58997454E+03</pdfrwt>
<totfact> 0.28363750E+01</totfact>
</mgrwt>
</event>
<event>
12    1  0.1432447E-007  0.2691644E+03  0.7818608E-02  0.1101759E+00
          2   -1    0    0  501    0  0.00000000000E+00  0.00000000000E+00  0.87250984889E+03  0.87250984889E+03  0.00000000000E+00 0. -1.
         -2   -1    0    0    0  501 -0.00000000000E+00 -0.00000000000E+00 -0.14568696831E+03  0.14568696831E+03  0.00000000000E+00 0.  1.
         23    2    1    2    0    0 -0.47187411565E+02 -0.15752082649E+01  0.55005360865E+02  0.11618489369E+03  0.90797613993E+02 0.  0.
    5000000    2    1    2    0    0  0.47187411565E+02  0.15752082649E+01  0.67181751971E+03  0.90201192351E+03  0.60004799580E+03 0.  0.
         23    2    4    4    0    0  0.22742080517E+03 -0.85205780305E+02  0.81300574986E+02  0.27205150524E+03  0.91771402895E+02 0.  0.
         23    2    4    4    0    0 -0.18023339360E+03  0.86780988570E+02  0.59051694473E+03  0.62996041827E+03  0.90137952212E+02 0.  0.
          1    1    3    3  502    0 -0.25371427772E+02 -0.30575077556E+02  0.67059605003E+02  0.77945720459E+02  0.00000000000E+00 0. -1.
         -1    1    3    3    0  502 -0.21815983793E+02  0.28999869291E+02 -0.12054244138E+02  0.38239173232E+02  0.00000000000E+00 0.  1.
         13    1    5    5    0    0  0.66081140437E+02 -0.37972653465E+02  0.70128050448E+02  0.10356921836E+03  0.00000000000E+00 0.  1.
        -13    1    5    5    0    0  0.16133966473E+03 -0.47233126839E+02  0.11172524538E+02  0.16848228688E+03  0.00000000000E+00 0. -1.
          3    1    6    6  503    0 -0.25890156286E+02 -0.17911636449E+02  0.62637130727E+02  0.70103759232E+02  0.00000000000E+00 0. -1.
         -3    1    6    6    0  503 -0.15434323732E+03  0.10469262502E+03  0.52787981400E+03  0.55985665904E+03  0.00000000000E+00 0.  1.
<mgrwt>
<rscale>  0 0.26916441E+03</rscale>
<asrwt>0</asrwt>
<pdfrwt beam="1">  1        2 0.13423228E+00 0.26916441E+03</pdfrwt>
<pdfrwt beam="2">  1       -2 0.22413380E-01 0.26916441E+03</pdfrwt>
<totfact> 0.54878134E+02</totfact>
</mgrwt>
</event>
<event>
12    1  0.1432447E-007  0.6851639E+03  0.7818608E-02  0.9742946E-01
         -2   -1    0    0    0  501 -0.00000000000E+00  0.00000000000E+00  0.42930602090E+03  0.42930602090E+03  0.00000000000E+00 0.  1.
          2   -1    0    0  501    0  0.00000000000E+00 -0.00000000000E+00 -0.14685269331E+04  0.14685269331E+04  0.00000000000E+00 0. -1.
         23    2    1    2    0    0 -0.42849125847E+03  0.47300258705E+03 -0.17690691897E+03  0.66848312800E+03  0.90760280442E+02 0.  0.
    5000000    2    1    2    0    0  0.42849125847E+03 -0.47300258705E+03 -0.86231399322E+03  0.12293498260E+04  0.60031605494E+03 0.  0.
         23    2    4    4    0    0  0.23347989353E+03 -0.47791195225E+03 -0.27922938676E+03  0.60756941840E+03  0.90878231483E+02 0.  0.
         23    2    4    4    0    0  0.19501136495E+03  0.49093652031E+01 -0.58308460646E+03  0.62178040760E+03  0.92572580458E+02 0.  0.
          4    1    3    3  502    0 -0.15110853895E+03  0.13897240370E+03 -0.17818720349E+02  0.20606946967E+03  0.00000000000E+00 0. -1.
         -4    1    3    3    0  502 -0.27738271952E+03  0.33403018334E+03 -0.15908819862E+03  0.46241365833E+03  0.00000000000E+00 0.  1.
         13    1    5    5    0    0  0.23069967938E+03 -0.47466312390E+03 -0.26085549522E+03  0.58870452065E+03  0.00000000000E+00 0. -1.
        -13    1    5    5    0    0  0.27802141474E+01 -0.32488283515E+01 -0.18373891546E+02  0.18864897744E+02  0.00000000000E+00 0.  1.
          2    1    6    6  503    0  0.15550739601E+03 -0.11723220657E+02 -0.32879921306E+03  0.36390782710E+03  0.00000000000E+00 0.  1.
         -2    1    6    6    0  503  0.39503968939E+02  0.16632585860E+02 -0.25428539340E+03  0.25787258050E+03  0.00000000000E+00 0. -1.
<mgrwt>
<rscale>  0 0.68516389E+03</rscale>
<asrwt>0</asrwt>
<pdfrwt beam="1">  1        2 0.22592722E+00 0.68516389E+03</pdfrwt>
<pdfrwt beam="2">  1       -2 0.66047079E-01 0.68516389E+03</pdfrwt>
<totfact> 0.28755631E+01</totfact>
</mgrwt>
</event>
<event>
12    1  0.1432447E-007  0.1481740E+04  0.7818608E-02  0.8896687E-01
         -2   -1    0    0    0  501 -0.00000000000E+00  0.00000000000E+00  0.12294680818E+04  0.12294680818E+04  0.00000000000E+00 0.  1.
          2   -1    0    0  501    0  0.00000000000E+00 -0.00000000000E+00 -0.19255607400E+04  0.19255607400E+04  0.00000000000E+00 0. -1.
         23    2    1    2    0    0 -0.18230179902E+03  0.14653393680E+04 -0.25385822707E+03  0.15008755540E+04  0.87920531131E+02 0.  0.
    5000000    2    1    2    0    0  0.18230179902E+03 -0.14653393680E+04 -0.44223443113E+03  0.16541532677E+04  0.60016525354E+03 0.  0.
         23    2    4    4    0    0  0.29466412933E+02 -0.25802265198E+03  0.13181982286E+03  0.30557828730E+03  0.92507651284E+02 0.  0.
         23    2    4    4    0    0  0.15283538609E+03 -0.12073167161E+04 -0.57405425399E+03  0.13485749804E+04  0.90243465907E+02 0.  0.
          3    1    3    3  502    0 -0.99329758245E+02  0.53351245233E+03 -0.65899890674E+02  0.54666693083E+03  0.00000000000E+00 0. -1.
         -3    1    3    3    0  502 -0.82972040780E+02  0.93182691570E+03 -0.18795833640E+03  0.95420862321E+03  0.00000000000E+00 0.  1.
         11    1    5    5    0    0 -0.17848429829E+02 -0.12552427210E+03  0.99633657707E+02  0.16125065917E+03  0.00000000000E+00 0.  1.
        -11    1    5    5    0    0  0.47314842762E+02 -0.13249837988E+03  0.32186165156E+02  0.14432762814E+03  0.00000000000E+00 0. -1.
          1    1    6    6  503    0  0.36929811015E+02 -0.16592585564E+03 -0.51085547584E+02  0.17749629202E+03  0.00000000000E+00 0. -1.
         -1    1    6    6    0  503  0.11590557508E+03 -0.10413908604E+04 -0.52296870640E+03  0.11710786884E+04  0.00000000000E+00 0.  1.
<mgrwt>
<rscale>  0 0.14817404E+04</rscale>
<asrwt>0</asrwt>
<pdfrwt beam="1">  1        2 0.29624012E+00 0.14817404E+04</pdfrwt>
<pdfrwt beam="2">  1       -2 0.18914893E+00 0.14817404E+04</pdfrwt>
<totfact> 0.10874208E+00</totfact>
</mgrwt>
</event>
<event>
12    1  0.1432447E-007  0.7200875E+03  0.7818608E-02  0.9683483E-01
         -2   -1    0    0    0  501 -0.00000000000E+00  0.00000000000E+00  0.27820685877E+03  0.27820685877E+03  0.00000000000E+00 0. -1.
          2   -1    0    0  501    0  0.00000000000E+00 -0.00000000000E+00 -0.23442655430E+04  0.23442655430E+04  0.00000000000E+00 0.  1.
         23    2    1    2    0    0 -0.15181253168E+03  0.62399368326E+03 -0.47109626119E+03  0.80135729176E+03  0.88468413658E+02 0.  0.
    5000000    2    1    2    0    0  0.15181253168E+03 -0.62399368326E+03 -0.15949624231E+04  0.18211151100E+04  0.60011661492E+03 0.  0.
         23    2    4    4    0    0  0.31204344158E+03 -0.41841793580E+03 -0.65823975747E+03  0.84458250561E+03  0.87151316864E+02 0.  0.
         23    2    4    4    0    0 -0.16023090990E+03 -0.20557574747E+03 -0.93672266559E+03  0.97653260443E+03  0.90726197169E+02 0.  0.
          1    1    3    3  502    0 -0.81191438445E+02  0.30048596334E+03 -0.28218096592E+03  0.42013088600E+03  0.00000000000E+00 0. -1.
         -1    1    3    3    0  502 -0.70621093239E+02  0.32350771993E+03 -0.18891529527E+03  0.38122640576E+03  0.00000000000E+00 0.  1.
         11    1    5    5    0    0  0.39610101180E+02 -0.75154727654E+02 -0.64684804275E+02  0.10677695027E+03  0.00000000000E+00 0.  1.
        -11    1    5    5    0    0  0.27243334040E+03 -0.34326320814E+03 -0.59355495320E+03  0.73780555534E+03  0.00000000000E+00 0. -1.
          1    1    6    6  503    0 -0.12731667188E+03 -0.20543017449E+03 -0.78893175730E+03  0.82512084522E+03  0.00000000000E+00 0.  1.
         -1    1    6    6    0  503 -0.32914238015E+02 -0.14557297313E+00 -0.14779090829E+03  0.15141175921E+03  0.00000000000E+00 0. -1.
<mgrwt>
<rscale>  0 0.72008752E+03</rscale>
<asrwt>0</asrwt>
<pdfrwt beam="1">  1        2 0.36065624E+00 0.72008752E+03</pdfrwt>
<pdfrwt beam="2">  1       -2 0.42801055E-01 0.72008752E+03</pdfrwt>
<totfact> 0.23155310E+01</totfact>
</mgrwt>
</event>
<event>
12    1  0.1432447E-007  0.1313968E+04  0.7818608E-02  0.9018561E-01
         -1   -1    0    0    0  501 -0.00000000000E+00  0.00000000000E+00  0.26238504578E+04  0.26238504578E+04  0.00000000000E+00 0.  1.
          1   -1    0    0  501    0  0.00000000000E+00 -0.00000000000E+00 -0.11715214435E+04  0.11715214435E+04  0.00000000000E+00 0. -1.
         23    2    1    2    0    0 -0.32777852000E+02  0.13006028440E+04  0.18909467659E+04  0.22970231158E+04  0.89405692486E+02 0.  0.
    5000000    2    1    2    0    0  0.32777852000E+02 -0.13006028440E+04 -0.43861775151E+03  0.14983487855E+04  0.60001783763E+03 0.  0.
         23    2    4    4    0    0 -0.63468973150E+02 -0.88053937180E+03 -0.16672495684E+02  0.88812244441E+03  0.95423311144E+02 0.  0.
         23    2    4    4    0    0  0.96246825149E+02 -0.42006347224E+03 -0.42194525583E+03  0.61022634106E+03  0.92852659359E+02 0.  0.
          3    1    3    3  502    0  0.14732088732E+02  0.82754955746E+03  0.12433188288E+04  0.14936187648E+04  0.00000000000E+00 0. -1.
         -3    1    3    3    0  502 -0.47509940732E+02  0.47305328659E+03  0.64762793710E+03  0.80340435108E+03  0.00000000000E+00 0.  1.
         13    1    5    5    0    0 -0.76561527734E+02 -0.49670913878E+03 -0.33592645201E+02  0.50369643823E+03  0.00000000000E+00 0.  1.
        -13    1    5    5    0    0  0.13092554584E+02 -0.38383023303E+03  0.16920149517E+02  0.38442600618E+03  0.00000000000E+00 0. -1.
          1    1    6    6  503    0  0.52029468442E+02 -0.81082167656E+02 -0.66462012726E+02  0.11704094426E+03  0.00000000000E+00 0. -1.
         -1    1    6    6    0  503  0.44217356707E+02 -0.33898130458E+03 -0.35548324310E+03  0.49318539680E+03  0.00000000000E+00 0.  1.
<mgrwt>
<rscale>  0 0.13139676E+04</rscale>
<asrwt>0</asrwt>
<pdfrwt beam="1">  1        1 0.18023407E+00 0.13139676E+04</pdfrwt>
<pdfrwt beam="2">  1       -1 0.40366930E+00 0.13139676E+04</pdfrwt>
<totfact> 0.73762230E-02</totfact>
</mgrwt>
</event>
<event>
12    1  0.1432447E-007  0.1097237E+04  0.7818608E-02  0.9207889E-01
          2   -1    0    0  501    0  0.00000000000E+00  0.00000000000E+00  0.65062803524E+03  0.65062803524E+03  0.00000000000E+00 0. -1.
         -2   -1    0    0    0  501 -0.00000000000E+00 -0.00000000000E+00 -0.22119198185E+04  0.22119198185E+04  0.00000000000E+00 0.  1.
         23    2    1    2    0    0  0.28455436371E+03 -0.98800794758E+03 -0.19401942115E+03  0.10496142279E+04  0.83160093540E+02 0.  0.
    5000000    2    1    2    0    0 -0.28455436371E+03  0.98800794758E+03 -0.13672723621E+04  0.18129336259E+04  0.60013642559E+03 0.  0.
         23    2    4    4    0    0 -0.44089364396E+03  0.63677819229E+03 -0.76158406208E+03  0.10902801984E+04  0.93951880653E+02 0.  0.
         23    2    4    4    0    0  0.15633928025E+03  0.35122975529E+03 -0.60568830005E+03  0.72265342754E+03  0.86979008791E+02 0.  0.
          3    1    3    3  502    0  0.12095680418E+03 -0.28282415177E+03 -0.60049046216E+02  0.31341017414E+03  0.00000000000E+00 0. -1.
         -3    1    3    3    0  502  0.16359755952E+03 -0.70518379581E+03 -0.13397037494E+03  0.73620405372E+03  0.00000000000E+00 0.  1.
         13    1    5    5    0    0 -0.33158293734E+03  0.42761746585E+03 -0.48460683352E+03  0.72639364296E+03  0.00000000000E+00 0.  1.
        -13    1    5    5    0    0 -0.10931070661E+03  0.20916072644E+03 -0.27697722856E+03  0.36388655541E+03  0.00000000000E+00 0. -1.
          3    1    6    6  503    0  0.13442638728E+03  0.32474362983E+03 -0.49743673036E+03  0.60907485536E+03  0.00000000000E+00 0. -1.
         -3    1    6    6    0  503  0.21912892969E+02  0.26486125460E+02 -0.10825156969E+03  0.11357857219E+03  0.00000000000E+00 0.  1.
<mgrwt>
<rscale>  0 0.10972369E+04</rscale>
<asrwt>0</asrwt>
<pdfrwt beam="1">  1        2 0.10009662E+00 0.10972369E+04</pdfrwt>
<pdfrwt beam="2">  1       -2 0.34029536E+00 0.10972369E+04</pdfrwt>
<totfact> 0.80320811E-01</totfact>
</mgrwt>
</event>
<event>
12    1  0.1432447E-007  0.6291509E+03  0.7818608E-02  0.9846707E-01
          1   -1    0    0  501    0  0.00000000000E+00  0.00000000000E+00  0.30077923375E+04  0.30077923375E+04  0.00000000000E+00 0. -1.
         -1   -1    0    0    0  501 -0.00000000000E+00 -0.00000000000E+00 -0.16495106222E+03  0.16495106222E+03  0.00000000000E+00 0.  1.
         23    2    1    2    0    0  0.30126989825E+03 -0.47153969996E+03  0.14407664626E+04  0.15482747093E+04  0.90737728834E+02 0.  0.
    5000000    2    1    2    0    0 -0.30126989825E+03  0.47153969996E+03  0.14020748127E+04  0.16244686905E+04  0.59997625420E+03 0.  0.
         23    2    4    4    0    0 -0.35966240306E+03  0.23766931969E+03  0.12559021234E+04  0.13309422644E+04  0.90958330579E+02 0.  0.
         23    2    4    4    0    0  0.58392504808E+02  0.23387038027E+03  0.14617268929E+03  0.29352642604E+03  0.81769605007E+02 0.  0.
          2    1    3    3  502    0  0.16419019702E+03 -0.19120877158E+03  0.72079722643E+03  0.76358880083E+03  0.00000000000E+00 0. -1.
         -2    1    3    3    0  502  0.13707970122E+03 -0.28033092839E+03  0.71996923618E+03  0.78468590846E+03  0.00000000000E+00 0.  1.
         11    1    5    5    0    0 -0.37076941050E+02  0.64443730726E+02  0.22193835928E+03  0.23406052488E+03  0.00000000000E+00 0.  1.
        -11    1    5    5    0    0 -0.32258546201E+03  0.17322558896E+03  0.10339637641E+04  0.10968817395E+04  0.00000000000E+00 0. -1.
          3    1    6    6  503    0  0.18185210710E+01  0.16311742942E+03  0.82539448569E+02  0.18282057699E+03  0.00000000000E+00 0. -1.
         -3    1    6    6    0  503  0.56573983737E+02  0.70752950855E+02  0.63633240721E+02  0.11070584906E+03  0.00000000000E+00 0.  1.
<mgrwt>
<rscale>  0 0.62915092E+03</rscale>
<asrwt>0</asrwt>
<pdfrwt beam="1">  1        1 0.46273724E+00 0.62915092E+03</pdfrwt>
<pdfrwt beam="2">  1       -1 0.25377089E-01 0.62915092E+03</pdfrwt>
<totfact> 0.87596411E+00</totfact>
</mgrwt>
</event>
<event>
12    1  0.1432447E-007  0.5274624E+03  0.7818608E-02  0.1006849E+00
         -2   -1    0    0    0  501 -0.00000000000E+00  0.00000000000E+00  0.13397919600E+03  0.13397919600E+03  0.00000000000E+00 0.  1.
          2   -1    0    0  501    0  0.00000000000E+00 -0.00000000000E+00 -0.29505435405E+04  0.29505435405E+04  0.00000000000E+00 0. -1.
         23    2    1    2    0    0 -0.38682879615E+03 -0.11206746639E+03 -0.45781025717E+03  0.61754387395E+03  0.97849732424E+02 0.  0.
    5000000    2    1    2    0    0  0.38682879615E+03  0.11206746639E+03 -0.23587540873E+04  0.24669788625E+04  0.60005685500E+03 0.  0.
         23    2    4    4    0    0  0.37940783677E+03 -0.11941434677E+03 -0.19172497372E+04  0.19601577152E+04  0.90341688906E+02 0.  0.
         23    2    4    4    0    0  0.74209593820E+01  0.23148181315E+03 -0.44150435009E+03  0.50682114734E+03  0.91119063773E+02 0.  0.
          1    1    3    3  502    0 -0.29428159252E+03 -0.42577914757E+02 -0.30629532820E+03  0.42688565518E+03  0.00000000000E+00 0. -1.
         -1    1    3    3    0  502 -0.92547203628E+02 -0.69489551629E+02 -0.15151492897E+03  0.19065821877E+03  0.00000000000E+00 0.  1.
         13    1    5    5    0    0  0.24469564553E+03 -0.43535193921E+02 -0.10318900452E+04  0.10613992356E+04  0.00000000000E+00 0. -1.
        -13    1    5    5    0    0  0.13471219124E+03 -0.75879152845E+02 -0.88535969203E+03  0.89875847956E+03  0.00000000000E+00 0.  1.
          1    1    6    6  503    0  0.31472205443E+02  0.16555295254E+03 -0.37031777909E+03  0.40685812923E+03  0.00000000000E+00 0. -1.
         -1    1    6    6    0  503 -0.24051246061E+02  0.65928860610E+02 -0.71186570998E+02  0.99963018107E+02  0.00000000000E+00 0.  1.
<mgrwt>
<rscale>  0 0.52746243E+03</rscale>
<asrwt>0</asrwt>
<pdfrwt beam="1">  1        2 0.45392981E+00 0.52746243E+03</pdfrwt>
<pdfrwt beam="2">  1       -2 0.20612182E-01 0.52746243E+03</pdfrwt>
<totfact> 0.41509199E+01</totfact>
</mgrwt>
</event>
<event>
12    1  0.1432447E-007  0.4313568E+03  0.7818608E-02  0.1033432E+00
          1   -1    0    0  501    0  0.00000000000E+00  0.00000000000E+00  0.41586685993E+04  0.41586685993E+04  0.00000000000E+00 0. -1.
         -1   -1    0    0    0  501 -0.00000000000E+00 -0.00000000000E+00 -0.80427540500E+02  0.80427540500E+02  0.00000000000E+00 0.  1.
         23    2    1    2    0    0  0.24138118303E+03  0.22621470550E+03  0.24298318284E+04  0.24539101573E+04  0.90301589917E+02 0.  0.
    5000000    2    1    2    0    0 -0.24138118303E+03 -0.22621470550E+03  0.16484092304E+04  0.17851859825E+04  0.60016500469E+03 0.  0.
         23    2    4    4    0    0 -0.24243057771E+03 -0.32959636352E+03  0.62749393134E+03  0.75476522315E+03  0.92279793833E+02 0.  0.
         23    2    4    4    0    0  0.10493946824E+01  0.10338165802E+03  0.10209152991E+04  0.10304207594E+04  0.93861733781E+02 0.  0.
          1    1    3    3  502    0  0.10072313027E+03  0.60414767237E+02  0.61639326407E+03  0.62748366438E+03  0.00000000000E+00 0. -1.
         -1    1    3    3    0  502  0.14065805276E+03  0.16579993826E+03  0.18134385643E+04  0.18264264929E+04  0.00000000000E+00 0.  1.
         13    1    5    5    0    0 -0.20721211501E+03 -0.32151013365E+03  0.58545577181E+03  0.69933117148E+03  0.00000000000E+00 0. -1.
        -13    1    5    5    0    0 -0.35218462697E+02 -0.80862298656E+01  0.42038159530E+02  0.55434051673E+02  0.00000000000E+00 0.  1.
          3    1    6    6  503    0 -0.16867580254E+02  0.42100258571E+02  0.77586614506E+03  0.77719059572E+03  0.00000000000E+00 0. -1.
         -3    1    6    6    0  503  0.17916974936E+02  0.61281399451E+02  0.24504915400E+03  0.25323016366E+03  0.00000000000E+00 0.  1.
<mgrwt>
<rscale>  0 0.43135680E+03</rscale>
<asrwt>0</asrwt>
<pdfrwt beam="1">  1        1 0.63979500E+00 0.43135680E+03</pdfrwt>
<pdfrwt beam="2">  1       -1 0.12373471E-01 0.43135680E+03</pdfrwt>
<totfact> 0.37287646E+00</totfact>
</mgrwt>
</event>
<event>
12    1  0.1432447E-007  0.7028166E+03  0.7818608E-02  0.9712428E-01
         -3   -1    0    0    0  501 -0.00000000000E+00  0.00000000000E+00  0.10951337136E+04  0.10951337136E+04  0.00000000000E+00 0.  1.
          3   -1    0    0  501    0  0.00000000000E+00 -0.00000000000E+00 -0.51846834733E+03  0.51846834733E+03  0.00000000000E+00 0. -1.
         23    2    1    2    0    0  0.49848436734E+03  0.29776988740E+03  0.50645450407E+03  0.77571729579E+03  0.89931017838E+02 0.  0.
    5000000    2    1    2    0    0 -0.49848436734E+03 -0.29776988740E+03  0.70210862159E+02  0.83788476510E+03  0.59997311948E+03 0.  0.
         23    2    4    4    0    0 -0.60877760539E+03 -0.28686559364E+03  0.11219093636E+03  0.68808579879E+03  0.89292881298E+02 0.  0.
         23    2    4    4    0    0  0.11029323805E+03 -0.10904293758E+02 -0.41980074203E+02  0.14979896632E+03  0.91618238896E+02 0.  0.
          4    1    3    3  502    0  0.16238413956E+03  0.57558753345E+02  0.11942218178E+03  0.20962651638E+03  0.00000000000E+00 0. -1.
         -4    1    3    3    0  502  0.33610022778E+03  0.24021113406E+03  0.38703232229E+03  0.56609077941E+03  0.00000000000E+00 0.  1.
         11    1    5    5    0    0 -0.58530645415E+03 -0.25352211346E+03  0.10098489664E+03  0.64579799987E+03  0.00000000000E+00 0.  1.
        -11    1    5    5    0    0 -0.23471151237E+02 -0.33343480181E+02  0.11206039725E+02  0.42287798918E+02  0.00000000000E+00 0. -1.
          3    1    6    6  503    0  0.44508172979E+02 -0.48505498902E+02 -0.32558537603E+02  0.73442625610E+02  0.00000000000E+00 0. -1.
         -3    1    6    6    0  503  0.65785065067E+02  0.37601205144E+02 -0.94215366001E+01  0.76356340707E+02  0.00000000000E+00 0.  1.
<mgrwt>
<rscale>  0 0.70281656E+03</rscale>
<asrwt>0</asrwt>
<pdfrwt beam="1">  1        3 0.79764362E-01 0.70281656E+03</pdfrwt>
<pdfrwt beam="2">  1       -3 0.16848211E+00 0.70281656E+03</pdfrwt>
<totfact> 0.90473890E-01</totfact>
</mgrwt>
</event>
<event>
12    1  0.1432447E-007  0.9792818E+03  0.7818608E-02  0.9331565E-01
          2   -1    0    0  501    0  0.00000000000E+00  0.00000000000E+00  0.21317884135E+04  0.21317884135E+04  0.00000000000E+00 0.  1.
         -2   -1    0    0    0  501 -0.00000000000E+00 -0.00000000000E+00 -0.65015697986E+03  0.65015697986E+03  0.00000000000E+00 0. -1.
         23    2    1    2    0    0 -0.18458851083E+03 -0.90583245476E+03  0.13948884905E+04  0.16758269155E+04  0.89869880657E+02 0.  0.
    5000000    2    1    2    0    0  0.18458851083E+03  0.90583245476E+03  0.86742943150E+02  0.11061184779E+04  0.60113924712E+03 0.  0.
         23    2    4    4    0    0  0.19908923842E+03  0.14174633505E+03 -0.14878231273E+03  0.30054836807E+03  0.92003242398E+02 0.  0.
         23    2    4    4    0    0 -0.14500727596E+02  0.76408611971E+03  0.23552525588E+03  0.80557010978E+03  0.97124591050E+02 0.  0.
          4    1    3    3  502    0 -0.37406512974E+02 -0.37394299242E+03  0.52500582642E+03  0.64564984827E+03  0.00000000000E+00 0. -1.
         -4    1    3    3    0  502 -0.14718199785E+03 -0.53188946235E+03  0.86988266410E+03  0.10301770673E+04  0.00000000000E+00 0.  1.
         11    1    5    5    0    0  0.12419432415E+03  0.32438404607E+02 -0.66345448163E+02  0.14449290202E+03  0.00000000000E+00 0. -1.
        -11    1    5    5    0    0  0.74894914277E+02  0.10930793045E+03 -0.82436864566E+02  0.15605546605E+03  0.00000000000E+00 0.  1.
          3    1    6    6  503    0  0.40344156930E+02  0.34552546952E+03  0.11865874880E+03  0.36755326111E+03  0.00000000000E+00 0. -1.
         -3    1    6    6    0  503 -0.54844884526E+02  0.41856065019E+03  0.11686650708E+03  0.43801684867E+03  0.00000000000E+00 0.  1.
<mgrwt>
<rscale>  0 0.97928184E+03</rscale>
<asrwt>0</asrwt>
<pdfrwt beam="1">  1        2 0.32796744E+00 0.97928184E+03</pdfrwt>
<pdfrwt beam="2">  1       -2 0.10002415E+00 0.97928184E+03</pdfrwt>
<totfact> 0.46793304E+00</totfact>
</mgrwt>
</event>
<event>
12    1  0.1432447E-007  0.1084677E+04  0.7818608E-02  0.9220257E-01
          1   -1    0    0  501    0  0.00000000000E+00  0.00000000000E+00  0.11420412561E+04  0.11420412561E+04  0.00000000000E+00 0. -1.
         -1   -1    0    0    0  501 -0.00000000000E+00 -0.00000000000E+00 -0.13116440688E+04  0.13116440688E+04  0.00000000000E+00 0.  1.
         23    2    1    2    0    0 -0.84161188982E+03  0.57915964485E+03  0.44569755370E+03  0.11185370373E+04  0.93500412798E+02 0.  0.
    5000000    2    1    2    0    0  0.84161188982E+03 -0.57915964485E+03 -0.61530036644E+03  0.13351482876E+04  0.60024156946E+03 0.  0.
         23    2    4    4    0    0  0.60445157998E+03 -0.11669492746E+03 -0.49087618346E+03  0.79293176406E+03  0.93818635348E+02 0.  0.
         23    2    4    4    0    0  0.23716030984E+03 -0.46246471739E+03 -0.12442418298E+03  0.54221652357E+03  0.91644714636E+02 0.  0.
          1    1    3    3  502    0 -0.23972685019E+03  0.12936777443E+03  0.87287210213E+02  0.28604901823E+03  0.00000000000E+00 0. -1.
         -1    1    3    3    0  502 -0.60188503963E+03  0.44979187042E+03  0.35841034349E+03  0.83248801910E+03  0.00000000000E+00 0.  1.
         11    1    5    5    0    0  0.46496139641E+03 -0.50248443254E+02 -0.35443170782E+03  0.58680136478E+03  0.00000000000E+00 0.  1.
        -11    1    5    5    0    0  0.13949018356E+03 -0.66446484204E+02 -0.13644447564E+03  0.20613039928E+03  0.00000000000E+00 0. -1.
          2    1    6    6  503    0  0.46644077686E+02 -0.15326204968E+03 -0.70585469691E+02  0.17506351529E+03  0.00000000000E+00 0. -1.
         -2    1    6    6    0  503  0.19051623216E+03 -0.30920266772E+03 -0.53838713289E+02  0.36715300828E+03  0.00000000000E+00 0.  1.
<mgrwt>
<rscale>  0 0.10846768E+04</rscale>
<asrwt>0</asrwt>
<pdfrwt beam="1">  1        1 0.17569865E+00 0.10846768E+04</pdfrwt>
<pdfrwt beam="2">  1       -1 0.20179140E+00 0.10846768E+04</pdfrwt>
<totfact> 0.17143562E+00</totfact>
</mgrwt>
</event>
<event>
12    1  0.1432447E-007  0.8676107E+03  0.7818608E-02  0.9467001E-01
         -2   -1    0    0    0  501 -0.00000000000E+00  0.00000000000E+00  0.68327023077E+03  0.68327023077E+03  0.00000000000E+00 0. -1.
          2   -1    0    0  501    0  0.00000000000E+00 -0.00000000000E+00 -0.15268673583E+04  0.15268673583E+04  0.00000000000E+00 0.  1.
         23    2    1    2    0    0  0.23779089373E+03  0.76745668210E+03  0.12230869164E+03  0.81780915627E+03  0.91203793731E+02 0.  0.
    5000000    2    1    2    0    0 -0.23779089373E+03 -0.76745668210E+03 -0.96590581917E+03  0.13923284328E+04  0.60005845150E+03 0.  0.
         23    2    4    4    0    0 -0.28125810274E+03 -0.18080311921E+03 -0.60229829089E+03  0.69482496838E+03  0.90678648009E+02 0.  0.
         23    2    4    4    0    0  0.43467209013E+02 -0.58665356289E+03 -0.36360752828E+03  0.69750346441E+03  0.90823164048E+02 0.  0.
          3    1    3    3  502    0  0.10300113854E+03  0.32529809771E+03  0.65081160522E+01  0.34127766187E+03  0.00000000000E+00 0. -1.
         -3    1    3    3    0  502  0.13478975518E+03  0.44215858439E+03  0.11580057559E+03  0.47653149440E+03  0.00000000000E+00 0.  1.
         13    1    5    5    0    0 -0.45895487295E+02 -0.66599407611E+02 -0.19046092739E+03  0.20692327494E+03  0.00000000000E+00 0. -1.
        -13    1    5    5    0    0 -0.23536261544E+03 -0.11420371160E+03 -0.41183736350E+03  0.48790169345E+03  0.00000000000E+00 0.  1.
          4    1    6    6  503    0  0.21033354116E+02 -0.47049632666E+03 -0.24877643537E+03  0.53263393638E+03  0.00000000000E+00 0.  1.
         -4    1    6    6    0  503  0.22433854897E+02 -0.11615723623E+03 -0.11483109291E+03  0.16486952803E+03  0.00000000000E+00 0. -1.
<mgrwt>
<rscale>  0 0.86761068E+03</rscale>
<asrwt>0</asrwt>
<pdfrwt beam="1">  1        2 0.23490267E+00 0.86761068E+03</pdfrwt>
<pdfrwt beam="2">  1       -2 0.10511850E+00 0.86761068E+03</pdfrwt>
<totfact> 0.90753306E+00</totfact>
</mgrwt>
</event>
<event>
12    1  0.1432447E-007  0.8425908E+03  0.7818608E-02  0.9500336E-01
          2   -1    0    0  501    0  0.00000000000E+00  0.00000000000E+00  0.10625523442E+04  0.10625523442E+04  0.00000000000E+00 0. -1.
         -2   -1    0    0    0  501 -0.00000000000E+00 -0.00000000000E+00 -0.83433553999E+03  0.83433553999E+03  0.00000000000E+00 0.  1.
         23    2    1    2    0    0 -0.19106793724E+03 -0.78046587398E+03 -0.15472375679E+03  0.82347102230E+03  0.92364206134E+02 0.  0.
    5000000    2    1    2    0    0  0.19106793724E+03  0.78046587398E+03  0.38294056099E+03  0.10734168619E+04  0.59995528920E+03 0.  0.
         23    2    4    4    0    0  0.10758534905E+03  0.74309493052E+03  0.98791594503E+02  0.76247682046E+03  0.88580130376E+02 0.  0.
         23    2    4    4    0    0  0.83482588186E+02  0.37370943454E+02  0.28414896649E+03  0.31094004142E+03  0.87046793485E+02 0.  0.
          4    1    3    3  502    0 -0.65209667307E+02 -0.43852868651E+03 -0.63641357779E+02  0.44789500111E+03  0.00000000000E+00 0.  1.
         -4    1    3    3    0  502 -0.12585826993E+03 -0.34193718747E+03 -0.91082399013E+02  0.37557602119E+03  0.00000000000E+00 0. -1.
         11    1    5    5    0    0  0.16293132356E+02  0.18206157142E+03 -0.12713177494E+02  0.18323074751E+03  0.00000000000E+00 0. -1.
        -11    1    5    5    0    0  0.91292216698E+02  0.56103335910E+03  0.11150477200E+03  0.57924607296E+03  0.00000000000E+00 0.  1.
          3    1    6    6  503    0  0.17732560801E+02 -0.28261231531E+02  0.74584135171E+02  0.81706389832E+02  0.00000000000E+00 0. -1.
         -3    1    6    6    0  503  0.65750027385E+02  0.65632174985E+02  0.20956483132E+03  0.22923365159E+03  0.00000000000E+00 0.  1.
<mgrwt>
<rscale>  0 0.84259076E+03</rscale>
<asrwt>0</asrwt>
<pdfrwt beam="1">  1        2 0.16346959E+00 0.84259076E+03</pdfrwt>
<pdfrwt beam="2">  1       -2 0.12835931E+00 0.84259076E+03</pdfrwt>
<totfact> 0.10386245E+01</totfact>
</mgrwt>
</event>
<event>
12    1  0.1432447E-007  0.5579060E+03  0.7818608E-02  0.9996804E-01
         -2   -1    0    0    0  501 -0.00000000000E+00  0.00000000000E+00  0.30233176109E+03  0.30233176109E+03  0.00000000000E+00 0.  1.
          2   -1    0    0  501    0  0.00000000000E+00 -0.00000000000E+00 -0.15150335710E+04  0.15150335710E+04  0.00000000000E+00 0. -1.
         23    2    1    2    0    0 -0.10783234802E+03  0.51788589978E+03 -0.35159257647E+03  0.64162420684E+03  0.90722998750E+02 0.  0.
    5000000    2    1    2    0    0  0.10783234802E+03 -0.51788589978E+03 -0.86110923345E+03  0.11757411253E+04  0.60085311120E+03 0.  0.
         23    2    4    4    0    0  0.15651965006E+03 -0.23325216414E+03 -0.81824567128E+03  0.86951595637E+03  0.87332965659E+02 0.  0.
         23    2    4    4    0    0 -0.48687302037E+02 -0.28463373563E+03 -0.42863562168E+02  0.30622516889E+03  0.92464870411E+02 0.  0.
          2    1    3    3  502    0 -0.49503111954E+02  0.13724136895E+03 -0.56427152842E+02  0.15642817848E+03  0.00000000000E+00 0. -1.
         -2    1    3    3    0  502 -0.58329236065E+02  0.38064453083E+03 -0.29516542363E+03  0.48519602836E+03  0.00000000000E+00 0.  1.
         13    1    5    5    0    0  0.97547961120E+02 -0.11338770222E+03 -0.54815053351E+03  0.56819132616E+03  0.00000000000E+00 0. -1.
        -13    1    5    5    0    0  0.58971688935E+02 -0.11986446193E+03 -0.27009513777E+03  0.30132463021E+03  0.00000000000E+00 0.  1.
          4    1    6    6  503    0  0.69539835495E+01 -0.20157399053E+03 -0.14055902385E+02  0.20218308520E+03  0.00000000000E+00 0. -1.
         -4    1    6    6    0  503 -0.55641285586E+02 -0.83059745100E+02 -0.28807659782E+02  0.10404208370E+03  0.00000000000E+00 0.  1.
<mgrwt>
<rscale>  0 0.55790605E+03</rscale>
<asrwt>0</asrwt>
<pdfrwt beam="1">  1        2 0.23308209E+00 0.55790605E+03</pdfrwt>
<pdfrwt beam="2">  1       -2 0.46512579E-01 0.55790605E+03</pdfrwt>
<totfact> 0.57011513E+01</totfact>
</mgrwt>
</event>
<event>
12    1  0.1432447E-007  0.8780911E+03  0.7818608E-02  0.9453391E-01
         -1   -1    0    0    0  501 -0.00000000000E+00  0.00000000000E+00  0.56154027597E+03  0.56154027597E+03  0.00000000000E+00 0.  1.
          1   -1    0    0  501    0  0.00000000000E+00 -0.00000000000E+00 -0.15970280439E+04  0.15970280439E+04  0.00000000000E+00 0. -1.
         23    2    1    2    0    0 -0.48631342797E+03  0.65744569470E+03 -0.72791954906E+03  0.10986812220E+04  0.92184412553E+02 0.  0.
    5000000    2    1    2    0    0  0.48631342797E+03 -0.65744569470E+03 -0.30756821888E+03  0.10598870979E+04  0.60002238237E+03 0.  0.
         23    2    4    4    0    0  0.22535468601E+03 -0.61693740110E+03 -0.25514704213E+02  0.66271036991E+03  0.84483979947E+02 0.  0.
         23    2    4    4    0    0  0.26095874196E+03 -0.40508293606E+02 -0.28205351467E+03  0.39717672801E+03  0.91949884597E+02 0.  0.
          4    1    3    3  502    0 -0.16893153638E+03  0.20411172945E+03 -0.18279427605E+03  0.32189005799E+03  0.00000000000E+00 0. -1.
         -4    1    3    3    0  502 -0.31738189160E+03  0.45333396526E+03 -0.54512527301E+03  0.77679116398E+03  0.00000000000E+00 0.  1.
         11    1    5    5    0    0  0.10922196983E+03 -0.19768588854E+03 -0.28638277237E+02  0.22766049316E+03  0.00000000000E+00 0.  1.
        -11    1    5    5    0    0  0.11613271618E+03 -0.41925151256E+03  0.31235730234E+01  0.43504987675E+03  0.00000000000E+00 0. -1.
          4    1    6    6  503    0  0.21411609464E+03 -0.65426951174E+02 -0.24809497309E+03  0.33418184211E+03  0.00000000000E+00 0. -1.
         -4    1    6    6    0  503  0.46842647320E+02  0.24918657568E+02 -0.33958541578E+02  0.62994885896E+02  0.00000000000E+00 0.  1.
<mgrwt>
<rscale>  0 0.87809109E+03</rscale>
<asrwt>0</asrwt>
<pdfrwt beam="1">  1        1 0.24569662E+00 0.87809109E+03</pdfrwt>
<pdfrwt beam="2">  1       -1 0.86390812E-01 0.87809109E+03</pdfrwt>
<totfact> 0.75723017E+00</totfact>
</mgrwt>
</event>
<event>
12    1  0.1432447E-007  0.4803745E+03  0.7818608E-02  0.1019032E+00
          3   -1    0    0  501    0  0.00000000000E+00  0.00000000000E+00  0.43322220453E+03  0.43322220453E+03  0.00000000000E+00 0. -1.
         -3   -1    0    0    0  501 -0.00000000000E+00 -0.00000000000E+00 -0.61080744432E+03  0.61080744432E+03  0.00000000000E+00 0.  1.
         23    2    1    2    0    0 -0.23132376807E+03 -0.22872134660E+03 -0.12699544170E+03  0.35954324123E+03  0.85553258481E+02 0.  0.
    5000000    2    1    2    0    0  0.23132376807E+03  0.22872134660E+03 -0.50589798089E+02  0.68448640762E+03  0.60011513435E+03 0.  0.
         23    2    4    4    0    0 -0.56693448522E+02 -0.13521886735E+03 -0.11508134561E+03  0.20731462940E+03  0.90759849401E+02 0.  0.
         23    2    4    4    0    0  0.28801721659E+03  0.36394021395E+03  0.64491547522E+02  0.47717177822E+03  0.90151815496E+02 0.  0.
          2    1    3    3  502    0 -0.10266842517E+03 -0.80993547134E+02 -0.95058733580E+01  0.13111491842E+03  0.00000000000E+00 0. -1.
         -2    1    3    3    0  502 -0.12865534290E+03 -0.14772779947E+03 -0.11748956834E+03  0.22842832281E+03  0.00000000000E+00 0.  1.
         13    1    5    5    0    0  0.21390772845E+02 -0.45894696959E+02 -0.17102397615E+02  0.53445115548E+02  0.00000000000E+00 0.  1.
        -13    1    5    5    0    0 -0.78084221367E+02 -0.89324170391E+02 -0.97978947997E+02  0.15386951385E+03  0.00000000000E+00 0. -1.
          3    1    6    6  503    0  0.18343812450E+03  0.25093488964E+03  0.15637268993E+01  0.31083807617E+03  0.00000000000E+00 0. -1.
         -3    1    6    6    0  503  0.10457909209E+03  0.11300532432E+03  0.62927820623E+02  0.16633370204E+03  0.00000000000E+00 0.  1.
<mgrwt>
<rscale>  0 0.48037445E+03</rscale>
<asrwt>0</asrwt>
<pdfrwt beam="1">  1        3 0.66649571E-01 0.48037445E+03</pdfrwt>
<pdfrwt beam="2">  1       -3 0.93970375E-01 0.48037445E+03</pdfrwt>
<totfact> 0.57212145E+00</totfact>
</mgrwt>
</event>
<event>
12    1  0.1432447E-007  0.5806239E+03  0.7818608E-02  0.9946441E-01
          1   -1    0    0  501    0  0.00000000000E+00  0.00000000000E+00  0.18490985545E+04  0.18490985545E+04  0.00000000000E+00 0. -1.
         -1   -1    0    0    0  501 -0.00000000000E+00 -0.00000000000E+00 -0.33437440517E+03  0.33437440517E+03  0.00000000000E+00 0.  1.
         23    2    1    2    0    0 -0.38266600522E+03  0.19056777626E+03 -0.63562169935E+02  0.44173945328E+03  0.91346845810E+02 0.  0.
    5000000    2    1    2    0    0  0.38266600522E+03 -0.19056777626E+03  0.15782863193E+04  0.17417335064E+04  0.59991545471E+03 0.  0.
         23    2    4    4    0    0  0.34151583367E+03  0.14623967396E+03  0.90547379352E+03  0.98292397225E+03  0.90761432315E+02 0.  0.
         23    2    4    4    0    0  0.41150171545E+02 -0.33680745023E+03  0.67281252573E+03  0.75880953412E+03  0.89345504337E+02 0.  0.
          4    1    3    3  502    0 -0.16348209838E+03  0.48765714508E+02  0.88449023936E+01  0.17082951648E+03  0.00000000000E+00 0. -1.
         -4    1    3    3    0  502 -0.21918390683E+03  0.14180206176E+03 -0.72407072328E+02  0.27090993680E+03  0.00000000000E+00 0.  1.
         13    1    5    5    0    0  0.40306775440E+02  0.47505852382E+02  0.20073392637E+03  0.21017980719E+03  0.00000000000E+00 0. -1.
        -13    1    5    5    0    0  0.30120905823E+03  0.98733821580E+02  0.70473986715E+03  0.77274416506E+03  0.00000000000E+00 0.  1.
          4    1    6    6  503    0  0.40138845033E-01 -0.28099468899E+03  0.55617903393E+03  0.62313171531E+03  0.00000000000E+00 0. -1.
         -4    1    6    6    0  503  0.41110032700E+02 -0.55812761239E+02  0.11663349181E+03  0.13567781881E+03  0.00000000000E+00 0.  1.
<mgrwt>
<rscale>  0 0.58062394E+03</rscale>
<asrwt>0</asrwt>
<pdfrwt beam="1">  1        1 0.28447669E+00 0.58062394E+03</pdfrwt>
<pdfrwt beam="2">  1       -1 0.51442217E-01 0.58062394E+03</pdfrwt>
<totfact> 0.15355110E+01</totfact>
</mgrwt>
</event>
<event>
12    1  0.1432447E-007  0.7770801E+03  0.7818608E-02  0.9593798E-01
          2   -1    0    0  501    0  0.00000000000E+00  0.00000000000E+00  0.12728561047E+04  0.12728561047E+04  0.00000000000E+00 0. -1.
         -2   -1    0    0    0  501 -0.00000000000E+00 -0.00000000000E+00 -0.58951285956E+03  0.58951285956E+03  0.00000000000E+00 0.  1.
         23    2    1    2    0    0 -0.25360655501E+03  0.68840797066E+03  0.89187018700E+02  0.74383387510E+03  0.84336769132E+02 0.  0.
    5000000    2    1    2    0    0  0.25360655501E+03 -0.68840797066E+03  0.59415622643E+03  0.11185350891E+04  0.59989774582E+03 0.  0.
         23    2    4    4    0    0  0.20512960828E+02  0.11742896635E+02  0.30631394354E+03  0.32114609863E+03  0.93530248973E+02 0.  0.
         23    2    4    4    0    0  0.23309359418E+03 -0.70015086729E+03  0.28784228289E+03  0.79738899052E+03  0.91826803091E+02 0.  0.
          2    1    3    3  502    0 -0.18199933545E+03  0.49243263578E+03  0.25195089227E+02  0.52559342786E+03  0.00000000000E+00 0. -1.
         -2    1    3    3    0  502 -0.71607219558E+02  0.19597533487E+03  0.63991929473E+02  0.21824044724E+03  0.00000000000E+00 0.  1.
         13    1    5    5    0    0 -0.29912484839E+01 -0.32378113389E+02  0.21126240656E+03  0.21375007420E+03  0.00000000000E+00 0. -1.
        -13    1    5    5    0    0  0.23504209312E+02  0.44121010024E+02  0.95051536983E+02  0.10739602443E+03  0.00000000000E+00 0.  1.
          2    1    6    6  503    0  0.10512238977E+03 -0.33334790895E+03  0.18524176024E+03  0.39558318338E+03  0.00000000000E+00 0. -1.
         -2    1    6    6    0  503  0.12797120441E+03 -0.36680295834E+03  0.10260052264E+03  0.40180580714E+03  0.00000000000E+00 0.  1.
<mgrwt>
<rscale>  0 0.77708010E+03</rscale>
<asrwt>0</asrwt>
<pdfrwt beam="1">  1        2 0.19582402E+00 0.77708010E+03</pdfrwt>
<pdfrwt beam="2">  1       -2 0.90694287E-01 0.77708010E+03</pdfrwt>
<totfact> 0.18107999E+01</totfact>
</mgrwt>
</event>
<event>
12    1  0.1432447E-007  0.4403633E+03  0.7818608E-02  0.1030635E+00
         -2   -1    0    0    0  501 -0.00000000000E+00  0.00000000000E+00  0.26096545898E+03  0.26096545898E+03  0.00000000000E+00 0.  1.
          2   -1    0    0  501    0  0.00000000000E+00 -0.00000000000E+00 -0.16877943083E+04  0.16877943083E+04  0.00000000000E+00 0. -1.
         23    2    1    2    0    0  0.10529174225E+01 -0.37652567947E+03 -0.11038023644E+04  0.11702416449E+04  0.96504672595E+02 0.  0.
    5000000    2    1    2    0    0 -0.10529174225E+01  0.37652567947E+03 -0.32302648490E+03  0.77851812237E+03  0.59997638368E+03 0.  0.
         23    2    4    4    0    0  0.32347964947E+02  0.38878814851E+03 -0.46034437456E+03  0.61035662919E+03  0.91736886516E+02 0.  0.
         23    2    4    4    0    0 -0.33400882369E+02 -0.12262469036E+02  0.13731788966E+03  0.16816149318E+03  0.90311117143E+02 0.  0.
          4    1    3    3  502    0  0.43372811364E+02 -0.12148205189E+03 -0.32568180963E+03  0.35029663261E+03  0.00000000000E+00 0. -1.
         -4    1    3    3    0  502 -0.42319893941E+02 -0.25504362758E+03 -0.77812055475E+03  0.81994501225E+03  0.00000000000E+00 0.  1.
         13    1    5    5    0    0  0.63742311407E+02  0.29321681063E+03 -0.33846674428E+03  0.45232611828E+03  0.00000000000E+00 0. -1.
        -13    1    5    5    0    0 -0.31394346460E+02  0.95571337883E+02 -0.12187763028E+03  0.15803051090E+03  0.00000000000E+00 0.  1.
          4    1    6    6  503    0 -0.80367101295E+01  0.36609023604E+02  0.31849953392E+02  0.49185656954E+02  0.00000000000E+00 0. -1.
         -4    1    6    6    0  503 -0.25364172240E+02 -0.48871492640E+02  0.10546793626E+03  0.11897583623E+03  0.00000000000E+00 0.  1.
<mgrwt>
<rscale>  0 0.44036334E+03</rscale>
<asrwt>0</asrwt>
<pdfrwt beam="1">  1        2 0.25966066E+00 0.44036334E+03</pdfrwt>
<pdfrwt beam="2">  1       -2 0.40148532E-01 0.44036334E+03</pdfrwt>
<totfact> 0.62495576E+01</totfact>
</mgrwt>
</event>
<event>
12    1  0.1432447E-007  0.9221206E+03  0.7818608E-02  0.9398344E-01
          2   -1    0    0  501    0  0.00000000000E+00  0.00000000000E+00  0.31474801301E+04  0.31474801301E+04  0.00000000000E+00 0. -1.
         -2   -1    0    0    0  501 -0.00000000000E+00 -0.00000000000E+00 -0.31120165487E+03  0.31120165487E+03  0.00000000000E+00 0.  1.
         23    2    1    2    0    0 -0.26805883300E+03  0.79599363843E+03  0.18363481874E+04  0.20215432751E+04  0.94874323577E+02 0.  0.
    5000000    2    1    2    0    0  0.26805883300E+03 -0.79599363843E+03  0.99993028784E+03  0.14371385099E+04  0.60003758694E+03 0.  0.
         23    2    4    4    0    0  0.39464271620E+03 -0.35933684631E+03  0.37489602305E+03  0.65865198676E+03  0.91703702251E+02 0.  0.
         23    2    4    4    0    0 -0.12658388320E+03 -0.43665679213E+03  0.62503426479E+03  0.77848652315E+03  0.93170816001E+02 0.  0.
          3    1    3    3  502    0 -0.21721999327E+03  0.51484602304E+03  0.12550418395E+04  0.13738198469E+04  0.00000000000E+00 0. -1.
         -3    1    3    3    0  502 -0.50838839724E+02  0.28114761540E+03  0.58130634787E+03  0.64772342813E+03  0.00000000000E+00 0.  1.
         11    1    5    5    0    0  0.21941829315E+02 -0.45289277473E+02  0.14093482870E+02  0.52260776756E+02  0.00000000000E+00 0. -1.
        -11    1    5    5    0    0  0.37270088688E+03 -0.31404756883E+03  0.36080254018E+03  0.60639121001E+03  0.00000000000E+00 0.  1.
          2    1    6    6  503    0 -0.22093399308E+02 -0.22415106403E+03  0.34121052656E+03  0.40884769931E+03  0.00000000000E+00 0. -1.
         -2    1    6    6    0  503 -0.10449048389E+03 -0.21250572809E+03  0.28382373824E+03  0.36963882383E+03  0.00000000000E+00 0.  1.
<mgrwt>
<rscale>  0 0.92212062E+03</rscale>
<asrwt>0</asrwt>
<pdfrwt beam="1">  1        2 0.48422769E+00 0.92212062E+03</pdfrwt>
<pdfrwt beam="2">  1       -2 0.47877180E-01 0.92212062E+03</pdfrwt>
<totfact> 0.60238770E+00</totfact>
</mgrwt>
</event>
<event>
12    1  0.1432447E-007  0.9408257E+03  0.7818608E-02  0.9375939E-01
         -1   -1    0    0    0  501 -0.00000000000E+00  0.00000000000E+00  0.14473358387E+04  0.14473358387E+04  0.00000000000E+00 0.  1.
          1   -1    0    0  501    0  0.00000000000E+00 -0.00000000000E+00 -0.11924220411E+04  0.11924220411E+04  0.00000000000E+00 0. -1.
         23    2    1    2    0    0  0.72983923845E+03  0.44346751457E+03  0.10288341438E+04  0.13403965620E+04  0.93992007275E+02 0.  0.
    5000000    2    1    2    0    0 -0.72983923845E+03 -0.44346751457E+03 -0.77392034622E+03  0.12993613178E+04  0.60004864922E+03 0.  0.
         23    2    4    4    0    0 -0.74251254212E+03 -0.19825556066E+03 -0.50675984909E+03  0.92518270542E+03  0.92343658289E+02 0.  0.
         23    2    4    4    0    0  0.12673303673E+02 -0.24521195391E+03 -0.26716049714E+03  0.37417861238E+03  0.91353093894E+02 0.  0.
          1    1    3    3  502    0  0.50053253814E+03  0.33877660370E+03  0.77301421741E+03  0.98125093084E+03  0.00000000000E+00 0. -1.
         -1    1    3    3    0  502  0.22930670030E+03  0.10469091088E+03  0.25581992644E+03  0.35914563117E+03  0.00000000000E+00 0.  1.
         11    1    5    5    0    0 -0.36326854023E+03 -0.11254704525E+03 -0.30279286213E+03  0.48612178214E+03  0.00000000000E+00 0. -1.
        -11    1    5    5    0    0 -0.37924400189E+03 -0.85708515414E+02 -0.20396698696E+03  0.43906092328E+03  0.00000000000E+00 0.  1.
          4    1    6    6  503    0  0.41513590539E+02 -0.18053146665E+03 -0.22618253410E+03  0.29235855962E+03  0.00000000000E+00 0. -1.
         -4    1    6    6    0  503 -0.28840286866E+02 -0.64680487265E+02 -0.40977963036E+02  0.81820052761E+02  0.00000000000E+00 0.  1.
<mgrwt>
<rscale>  0 0.94082574E+03</rscale>
<asrwt>0</asrwt>
<pdfrwt beam="1">  1        1 0.18344954E+00 0.94082574E+03</pdfrwt>
<pdfrwt beam="2">  1       -1 0.22266705E+00 0.94082574E+03</pdfrwt>
<totfact> 0.11609429E+00</totfact>
</mgrwt>
</event>
<event>
12    1  0.1432447E-007  0.7228939E+03  0.7818608E-02  0.9678862E-01
          2   -1    0    0  501    0  0.00000000000E+00  0.00000000000E+00  0.20944114510E+04  0.20944114510E+04  0.00000000000E+00 0. -1.
         -2   -1    0    0    0  501 -0.00000000000E+00 -0.00000000000E+00 -0.35332877357E+03  0.35332877357E+03  0.00000000000E+00 0.  1.
         23    2    1    2    0    0 -0.54821764805E+03  0.44617905420E+03  0.11349127643E+04  0.13400066357E+04  0.89288649830E+02 0.  0.
    5000000    2    1    2    0    0  0.54821764805E+03 -0.44617905420E+03  0.60616991314E+03  0.11077335889E+04  0.60001116857E+03 0.  0.
         23    2    4    4    0    0  0.10846911221E+03 -0.12327745625E+03 -0.97857029231E+02  0.21228260583E+03  0.92331073031E+02 0.  0.
         23    2    4    4    0    0  0.43974853584E+03 -0.32290159796E+03  0.70402694237E+03  0.89545098310E+03  0.92381333648E+02 0.  0.
          1    1    3    3  502    0 -0.30203136468E+03  0.24425022719E+03  0.70632312237E+03  0.80608527583E+03  0.00000000000E+00 0. -1.
         -1    1    3    3    0  502 -0.24618628337E+03  0.20192882702E+03  0.42858964196E+03  0.53392135984E+03  0.00000000000E+00 0.  1.
         13    1    5    5    0    0  0.85574970439E+02 -0.29930704843E+02 -0.33678924804E+02  0.96711905337E+02  0.00000000000E+00 0. -1.
        -13    1    5    5    0    0  0.22894141771E+02 -0.93346751406E+02 -0.64178104427E+02  0.11557070050E+03  0.00000000000E+00 0.  1.
          4    1    6    6  503    0  0.28207722090E+03 -0.25590313608E+03  0.45823465533E+03  0.59584643403E+03  0.00000000000E+00 0.  1.
         -4    1    6    6    0  503  0.15767131494E+03 -0.66998461872E+02  0.24579228705E+03  0.29960454906E+03  0.00000000000E+00 0. -1.
<mgrwt>
<rscale>  0 0.72289386E+03</rscale>
<asrwt>0</asrwt>
<pdfrwt beam="1">  1        2 0.32221714E+00 0.72289386E+03</pdfrwt>
<pdfrwt beam="2">  1       -2 0.54358275E-01 0.72289386E+03</pdfrwt>
<totfact> 0.19612828E+01</totfact>
</mgrwt>
</event>
<event>
12    1  0.1432447E-007  0.1140842E+04  0.7818608E-02  0.9166274E-01
          1   -1    0    0  501    0  0.00000000000E+00  0.00000000000E+00  0.11024949090E+04  0.11024949090E+04  0.00000000000E+00 0. -1.
         -1   -1    0    0    0  501 -0.00000000000E+00 -0.00000000000E+00 -0.12074027564E+04  0.12074027564E+04  0.00000000000E+00 0.  1.
         23    2    1    2    0    0 -0.77300071713E+02  0.10694589160E+04  0.37351904948E+01  0.10762141297E+04  0.92223789449E+02 0.  0.
    5000000    2    1    2    0    0  0.77300071713E+02 -0.10694589160E+04 -0.10864303795E+03  0.12336835356E+04  0.60037828270E+03 0.  0.
         23    2    4    4    0    0 -0.22635850260E+03 -0.53846116527E+03 -0.16190064797E+03  0.61311834390E+03  0.92323808499E+02 0.  0.
         23    2    4    4    0    0  0.30365857431E+03 -0.53099775072E+03  0.53257610022E+02  0.62056519174E+03  0.89986905389E+02 0.  0.
          4    1    3    3  502    0 -0.58694136161E+02  0.37892435685E+03  0.32597304153E+02  0.38482626479E+03  0.00000000000E+00 0. -1.
         -4    1    3    3    0  502 -0.18605935551E+02  0.69053455915E+03 -0.28862113658E+02  0.69138786496E+03  0.00000000000E+00 0.  1.
         11    1    5    5    0    0 -0.45395444346E+02 -0.20417857602E+03 -0.33093606943E+02  0.21176596538E+03  0.00000000000E+00 0. -1.
        -11    1    5    5    0    0 -0.18096305826E+03 -0.33428258924E+03 -0.12880704102E+03  0.40135237852E+03  0.00000000000E+00 0.  1.
          4    1    6    6  503    0  0.19305371045E+03 -0.41600993474E+03  0.44526181145E+02  0.46077823486E+03  0.00000000000E+00 0. -1.
         -4    1    6    6    0  503  0.11060486387E+03 -0.11498781599E+03  0.87314288769E+01  0.15978695687E+03  0.00000000000E+00 0.  1.
<mgrwt>
<rscale>  0 0.11408421E+04</rscale>
<asrwt>0</asrwt>
<pdfrwt beam="1">  1        1 0.16961460E+00 0.11408421E+04</pdfrwt>
<pdfrwt beam="2">  1       -1 0.18575427E+00 0.11408421E+04</pdfrwt>
<totfact> 0.23589986E+00</totfact>
</mgrwt>
</event>
<event>
12    1  0.1432447E-007  0.1834466E+04  0.7818608E-02  0.8688182E-01
         -2   -1    0    0    0  501 -0.00000000000E+00  0.00000000000E+00  0.20082599127E+04  0.20082599127E+04  0.00000000000E+00 0.  1.
          2   -1    0    0  501    0  0.00000000000E+00 -0.00000000000E+00 -0.19257823836E+04  0.19257823836E+04  0.00000000000E+00 0. -1.
         23    2    1    2    0    0 -0.26013776370E+03  0.17988569381E+04 -0.57754978583E+03  0.19093830562E+04  0.92854510817E+02 0.  0.
    5000000    2    1    2    0    0  0.26013776370E+03 -0.17988569381E+04  0.66002731489E+03  0.20246592402E+04  0.60004253398E+03 0.  0.
         23    2    4    4    0    0  0.60538863877E+02 -0.13969526360E+04  0.27842123952E+03  0.14288408643E+04  0.94478610125E+02 0.  0.
         23    2    4    4    0    0  0.19959889983E+03 -0.40190430212E+03  0.38160607538E+03  0.59581837584E+03  0.89496096866E+02 0.  0.
          4    1    3    3  502    0 -0.12777298718E+03  0.11462190132E+04 -0.39150690209E+03  0.12179579701E+04  0.00000000000E+00 0.  1.
         -4    1    3    3    0  502 -0.13236477652E+03  0.65263792487E+03 -0.18604288374E+03  0.69142508606E+03  0.00000000000E+00 0. -1.
         11    1    5    5    0    0  0.66008032184E+02 -0.13725524715E+04  0.28409665480E+03  0.14031992933E+04  0.00000000000E+00 0. -1.
        -11    1    5    5    0    0 -0.54691683069E+01 -0.24400164494E+02 -0.56754152860E+01  0.25641571090E+02  0.00000000000E+00 0.  1.
          3    1    6    6  503    0  0.19878377411E+03 -0.40289243913E+03  0.38533305359E+03  0.59187741006E+03  0.00000000000E+00 0. -1.
         -3    1    6    6    0  503  0.81512572065E+00  0.98813701161E+00 -0.37269782107E+01  0.39409657798E+01  0.00000000000E+00 0.  1.
<mgrwt>
<rscale>  0 0.18344663E+04</rscale>
<asrwt>0</asrwt>
<pdfrwt beam="1">  1        2 0.29627421E+00 0.18344663E+04</pdfrwt>
<pdfrwt beam="2">  1       -2 0.30896306E+00 0.18344663E+04</pdfrwt>
<totfact> 0.18623042E-01</totfact>
</mgrwt>
</event>
<event>
12    1  0.1432447E-007  0.7673048E+03  0.7818608E-02  0.9608586E-01
          3   -1    0    0  501    0  0.00000000000E+00  0.00000000000E+00  0.11158272824E+04  0.11158272824E+04  0.00000000000E+00 0. -1.
         -3   -1    0    0    0  501 -0.00000000000E+00 -0.00000000000E+00 -0.62784590339E+03  0.62784590339E+03  0.00000000000E+00 0.  1.
         23    2    1    2    0    0 -0.35843184350E+02 -0.71710760792E+03  0.10027045130E+03  0.73082136675E+03  0.92291123537E+02 0.  0.
    5000000    2    1    2    0    0  0.35843184350E+02  0.71710760792E+03  0.38771092768E+03  0.10128518190E+04  0.60001749029E+03 0.  0.
         23    2    4    4    0    0  0.11900371505E+03  0.55945972680E+02 -0.93532140346E+02  0.18563867131E+03  0.91769379165E+02 0.  0.
         23    2    4    4    0    0 -0.83160530703E+02  0.66116163524E+03  0.48124306803E+03  0.82721314771E+03  0.92931799943E+02 0.  0.
          4    1    3    3  502    0  0.17914778632E+02 -0.25682557807E+03  0.38098909002E+01  0.25747782840E+03  0.00000000000E+00 0. -1.
         -4    1    3    3    0  502 -0.53757962982E+02 -0.46028202985E+03  0.96460560403E+02  0.47334353835E+03  0.00000000000E+00 0.  1.
         13    1    5    5    0    0  0.79691532282E+02  0.62669285869E+02 -0.22002373010E+02  0.10374142917E+03  0.00000000000E+00 0. -1.
        -13    1    5    5    0    0  0.39312182772E+02 -0.67233131889E+01 -0.71529767336E+02  0.81897242137E+02  0.00000000000E+00 0.  1.
          2    1    6    6  503    0 -0.74161377553E+02  0.23932179663E+03  0.16673739149E+03  0.30095878452E+03  0.00000000000E+00 0.  1.
         -2    1    6    6    0  503 -0.89991531505E+01  0.42183983861E+03  0.31450567654E+03  0.52625436319E+03  0.00000000000E+00 0. -1.
<mgrwt>
<rscale>  0 0.76730476E+03</rscale>
<asrwt>0</asrwt>
<pdfrwt beam="1">  1        3 0.17166574E+00 0.76730476E+03</pdfrwt>
<pdfrwt beam="2">  1       -3 0.96591678E-01 0.76730476E+03</pdfrwt>
<totfact> 0.55550701E-01</totfact>
</mgrwt>
</event>
<event>
12    1  0.1432447E-007  0.6491489E+03  0.7818608E-02  0.9808377E-01
          2   -1    0    0  501    0  0.00000000000E+00  0.00000000000E+00  0.82742902874E+03  0.82742902874E+03  0.00000000000E+00 0. -1.
         -2   -1    0    0    0  501 -0.00000000000E+00 -0.00000000000E+00 -0.71337837075E+03  0.71337837075E+03  0.00000000000E+00 0.  1.
         23    2    1    2    0    0 -0.48527908162E+03 -0.17730449415E+03 -0.34189205319E+03  0.62713061214E+03  0.97313708892E+02 0.  0.
    5000000    2    1    2    0    0  0.48527908162E+03  0.17730449415E+03  0.45594271119E+03  0.91367678735E+03  0.59999070422E+03 0.  0.
         23    2    4    4    0    0  0.60958699908E+03  0.17219471225E+03  0.36376023739E+03  0.73598331009E+03  0.90014410254E+02 0.  0.
         23    2    4    4    0    0 -0.12430791746E+03  0.51097819049E+01  0.92182473794E+02  0.17769347726E+03  0.87171068431E+02 0.  0.
          2    1    3    3  502    0 -0.25153097707E+03 -0.14111254941E+03 -0.17062133967E+03  0.33510032166E+03  0.00000000000E+00 0. -1.
         -2    1    3    3    0  502 -0.23374810455E+03 -0.36191944744E+02 -0.17127071352E+03  0.29203029047E+03  0.00000000000E+00 0.  1.
         11    1    5    5    0    0  0.74845822124E+02  0.53624202707E+02  0.53069207692E+02  0.10627225889E+03  0.00000000000E+00 0. -1.
        -11    1    5    5    0    0  0.53474117695E+03  0.11857050954E+03  0.31069102970E+03  0.62971105120E+03  0.00000000000E+00 0.  1.
          3    1    6    6  503    0 -0.24490501014E+02 -0.18843370798E+02  0.64273751013E+02  0.71316003339E+02  0.00000000000E+00 0. -1.
         -3    1    6    6    0  503 -0.99817416446E+02  0.23953152703E+02  0.27908722780E+02  0.10637747392E+03  0.00000000000E+00 0.  1.
<mgrwt>
<rscale>  0 0.64914895E+03</rscale>
<asrwt>0</asrwt>
<pdfrwt beam="1">  1        2 0.12729677E+00 0.64914895E+03</pdfrwt>
<pdfrwt beam="2">  1       -2 0.10975052E+00 0.64914895E+03</pdfrwt>
<totfact> 0.22301305E+01</totfact>
</mgrwt>
</event>
<event>
12    1  0.1432447E-007  0.5866975E+03  0.7818608E-02  0.9933395E-01
          2   -1    0    0  501    0  0.00000000000E+00  0.00000000000E+00  0.51691348570E+04  0.51691348570E+04  0.00000000000E+00 0. -1.
         -2   -1    0    0    0  501 -0.00000000000E+00 -0.00000000000E+00 -0.99706108701E+02  0.99706108701E+02  0.00000000000E+00 0.  1.
         23    2    1    2    0    0  0.38348408553E+03  0.42381120992E+03  0.26202682628E+04  0.26833045934E+04  0.87417312510E+02 0.  0.
    5000000    2    1    2    0    0 -0.38348408553E+03 -0.42381120992E+03  0.24491604856E+04  0.25855363723E+04  0.59994605021E+03 0.  0.
         23    2    4    4    0    0 -0.22378106480E+03 -0.31804094300E+03  0.57764320154E+03  0.70198019967E+03  0.88749794679E+02 0.  0.
         23    2    4    4    0    0 -0.15970302073E+03 -0.10577026692E+03  0.18715172840E+04  0.18835561727E+04  0.92274086494E+02 0.  0.
          4    1    3    3  502    0  0.24999971018E+03  0.25934081854E+03  0.14540006121E+04  0.14979570405E+04  0.00000000000E+00 0.  1.
         -4    1    3    3    0  502  0.13348437534E+03  0.16447039138E+03  0.11662676506E+04  0.11853475528E+04  0.00000000000E+00 0. -1.
         13    1    5    5    0    0 -0.42702380573E+02 -0.97251942647E+02  0.22024925928E+03  0.24452233000E+03  0.00000000000E+00 0. -1.
        -13    1    5    5    0    0 -0.18107868423E+03 -0.22078900035E+03  0.35739394225E+03  0.45745786966E+03  0.00000000000E+00 0.  1.
          4    1    6    6  503    0 -0.99942828516E+02 -0.11128838505E+03  0.14679294770E+04  0.14755306243E+04  0.00000000000E+00 0. -1.
         -4    1    6    6    0  503 -0.59760192211E+02  0.55181181316E+01  0.40358780699E+03  0.40802554841E+03  0.00000000000E+00 0.  1.
<mgrwt>
<rscale>  0 0.58669746E+03</rscale>
<asrwt>0</asrwt>
<pdfrwt beam="1">  1        2 0.79525131E+00 0.58669746E+03</pdfrwt>
<pdfrwt beam="2">  1       -2 0.15339405E-01 0.58669746E+03</pdfrwt>
<totfact> 0.86288215E-01</totfact>
</mgrwt>
</event>
<event>
12    1  0.1432447E-007  0.4754827E+03  0.7818608E-02  0.1020384E+00
          1   -1    0    0  501    0  0.00000000000E+00  0.00000000000E+00  0.17684813731E+04  0.17684813731E+04  0.00000000000E+00 0. -1.
         -1   -1    0    0    0  501 -0.00000000000E+00 -0.00000000000E+00 -0.13499011365E+03  0.13499011365E+03  0.00000000000E+00 0.  1.
         23    2    1    2    0    0  0.14786477929E+03  0.24280617432E+03  0.36127837191E+03  0.46847804136E+03  0.90170848830E+02 0.  0.
    5000000    2    1    2    0    0 -0.14786477929E+03 -0.24280617432E+03  0.12722128875E+04  0.14349934454E+04  0.59988476049E+03 0.  0.
         23    2    4    4    0    0  0.14485341549E+03  0.10607063997E+03  0.37518087513E+03  0.42529652519E+03  0.88785993457E+02 0.  0.
         23    2    4    4    0    0 -0.29271819478E+03 -0.34887681429E+03  0.89703201241E+03  0.10096969202E+04  0.86153736316E+02 0.  0.
          4    1    3    3  502    0  0.58688768384E+02  0.39830693765E+02  0.52008467822E+02  0.87953035339E+02  0.00000000000E+00 0. -1.
         -4    1    3    3    0  502  0.89176010905E+02  0.20297548056E+03  0.30926990409E+03  0.38052500602E+03  0.00000000000E+00 0.  1.
         13    1    5    5    0    0  0.92692951036E+02  0.16101385513E+02  0.14691610894E+03  0.17445796299E+03  0.00000000000E+00 0. -1.
        -13    1    5    5    0    0  0.52160464452E+02  0.89969254458E+02  0.22826476619E+03  0.25083856220E+03  0.00000000000E+00 0.  1.
          3    1    6    6  503    0 -0.21916295084E+03 -0.21227191640E+03  0.64891570593E+03  0.71706579818E+03  0.00000000000E+00 0. -1.
         -3    1    6    6    0  503 -0.73555243936E+02 -0.13660489789E+03  0.24811630648E+03  0.29263112203E+03  0.00000000000E+00 0.  1.
<mgrwt>
<rscale>  0 0.47548270E+03</rscale>
<asrwt>0</asrwt>
<pdfrwt beam="1">  1        1 0.27207404E+00 0.47548270E+03</pdfrwt>
<pdfrwt beam="2">  1       -1 0.20767711E-01 0.47548270E+03</pdfrwt>
<totfact> 0.87331197E+01</totfact>
</mgrwt>
</event>
<event>
12    1  0.1432447E-007  0.1109584E+04  0.7818608E-02  0.9195900E-01
          2   -1    0    0  501    0  0.00000000000E+00  0.00000000000E+00  0.11953727860E+04  0.11953727860E+04  0.00000000000E+00 0. -1.
         -2   -1    0    0    0  501 -0.00000000000E+00 -0.00000000000E+00 -0.11554751589E+04  0.11554751589E+04  0.00000000000E+00 0.  1.
         23    2    1    2    0    0  0.72965724785E+03  0.75155072690E+03 -0.30612279904E+03  0.10950512702E+04  0.90542375671E+02 0.  0.
    5000000    2    1    2    0    0 -0.72965724785E+03 -0.75155072690E+03  0.34602042614E+03  0.12557966748E+04  0.60005579628E+03 0.  0.
         23    2    4    4    0    0 -0.76055160665E+03 -0.52145724034E+03  0.38381543506E+03  0.10031974421E+04  0.93458118175E+02 0.  0.
         23    2    4    4    0    0  0.30894358801E+02 -0.23009348656E+03 -0.37795008915E+02  0.25259923264E+03  0.92089280959E+02 0.  0.
          3    1    3    3  502    0  0.56258426836E+03  0.62978831134E+03 -0.23773506087E+03  0.87729831602E+03  0.00000000000E+00 0. -1.
         -3    1    3    3    0  502  0.16707297949E+03  0.12176241556E+03 -0.68387738174E+02  0.21775295417E+03  0.00000000000E+00 0.  1.
         11    1    5    5    0    0 -0.45696386288E+03 -0.30199274385E+03  0.17893003268E+03  0.57622178535E+03  0.00000000000E+00 0. -1.
        -11    1    5    5    0    0 -0.30358774377E+03 -0.21946449649E+03  0.20488540238E+03  0.42697565679E+03  0.00000000000E+00 0.  1.
          1    1    6    6  503    0 -0.27501286083E+02 -0.70297867515E+02 -0.33043881703E+02  0.82401511099E+02  0.00000000000E+00 0. -1.
         -1    1    6    6    0  503  0.58395644884E+02 -0.15979561905E+03 -0.47511272123E+01  0.17019772154E+03  0.00000000000E+00 0.  1.
<mgrwt>
<rscale>  0 0.11095844E+04</rscale>
<asrwt>0</asrwt>
<pdfrwt beam="1">  1        2 0.18390351E+00 0.11095844E+04</pdfrwt>
<pdfrwt beam="2">  1       -2 0.17776541E+00 0.11095844E+04</pdfrwt>
<totfact> 0.35104133E+00</totfact>
</mgrwt>
</event>
<event>
12    1  0.1432447E-007  0.7338631E+03  0.7818608E-02  0.9661012E-01
         -2   -1    0    0    0  501 -0.00000000000E+00  0.00000000000E+00  0.28340631204E+03  0.28340631204E+03  0.00000000000E+00 0.  1.
          2   -1    0    0  501    0  0.00000000000E+00 -0.00000000000E+00 -0.41617449295E+04  0.41617449295E+04  0.00000000000E+00 0. -1.
         23    2    1    2    0    0 -0.37377217931E+03 -0.61364969326E+03 -0.37003137867E+03  0.81404354334E+03  0.97324617595E+02 0.  0.
    5000000    2    1    2    0    0  0.37377217931E+03  0.61364969326E+03 -0.35083072388E+04  0.36311076982E+04  0.60037642037E+03 0.  0.
         23    2    4    4    0    0  0.11945965825E+03  0.18724277325E+03 -0.24164237763E+04  0.24282996564E+04  0.90580840404E+02 0.  0.
         23    2    4    4    0    0  0.25431252107E+03  0.42640692001E+03 -0.10918834625E+04  0.12028080418E+04  0.89665879227E+02 0.  0.
          4    1    3    3  502    0 -0.10197178660E+03 -0.25726520909E+03 -0.14909878333E+03  0.31434706975E+03  0.00000000000E+00 0. -1.
         -4    1    3    3    0  502 -0.27180039271E+03 -0.35638448417E+03 -0.22093259534E+03  0.49969647359E+03  0.00000000000E+00 0.  1.
         11    1    5    5    0    0  0.13018232085E+03  0.18827437544E+03 -0.22857117935E+04  0.22971445492E+04  0.00000000000E+00 0.  1.
        -11    1    5    5    0    0 -0.10722662603E+02 -0.10316021852E+01 -0.13071198285E+03  0.13115510724E+03  0.00000000000E+00 0. -1.
          2    1    6    6  503    0  0.78003234956E+02  0.20975491561E+03 -0.53054285360E+03  0.57581016733E+03  0.00000000000E+00 0. -1.
         -2    1    6    6    0  503  0.17630928611E+03  0.21665200440E+03 -0.56134060887E+03  0.62699787444E+03  0.00000000000E+00 0.  1.
<mgrwt>
<rscale>  0 0.73386309E+03</rscale>
<asrwt>0</asrwt>
<pdfrwt beam="1">  1        2 0.64026843E+00 0.73386309E+03</pdfrwt>
<pdfrwt beam="2">  1       -2 0.43600972E-01 0.73386309E+03</pdfrwt>
<totfact> 0.14062557E+00</totfact>
</mgrwt>
</event>
<event>
12    1  0.1432447E-007  0.5798454E+03  0.7818608E-02  0.9948126E-01
          2   -1    0    0  501    0  0.00000000000E+00  0.00000000000E+00  0.66917653780E+03  0.66917653780E+03  0.00000000000E+00 0. -1.
         -2   -1    0    0    0  501 -0.00000000000E+00 -0.00000000000E+00 -0.54877889023E+03  0.54877889023E+03  0.00000000000E+00 0.  1.
         23    2    1    2    0    0 -0.33502246552E+03  0.27204908001E+03 -0.88183281259E+02  0.45004603194E+03  0.92273427533E+02 0.  0.
    5000000    2    1    2    0    0  0.33502246552E+03 -0.27204908001E+03  0.20858092883E+03  0.76790939610E+03  0.59994006567E+03 0.  0.
         23    2    4    4    0    0  0.19726652318E+03 -0.44850051272E+03  0.14375818058E+03  0.51804890248E+03  0.87415443716E+02 0.  0.
         23    2    4    4    0    0  0.13775594234E+03  0.17645143270E+03  0.64822748251E+02  0.24986049362E+03  0.90091452576E+02 0.  0.
          1    1    3    3  502    0 -0.26594977939E+03  0.24713323551E+03 -0.97798000961E+02  0.37599011988E+03  0.00000000000E+00 0. -1.
         -1    1    3    3    0  502 -0.69072686126E+02  0.24915844505E+02  0.96147197019E+01  0.74055912060E+02  0.00000000000E+00 0.  1.
         13    1    5    5    0    0  0.10980539675E+03 -0.34142377552E+03  0.11681784984E+03  0.37719203290E+03  0.00000000000E+00 0. -1.
        -13    1    5    5    0    0  0.87461126436E+02 -0.10707673720E+03  0.26940330745E+02  0.14085686958E+03  0.00000000000E+00 0.  1.
          3    1    6    6  503    0  0.42483660947E+02  0.80903691227E+02 -0.15716096154E+02  0.92721434307E+02  0.00000000000E+00 0. -1.
         -3    1    6    6    0  503  0.95272281393E+02  0.95547741476E+02  0.80538844405E+02  0.15713905931E+03  0.00000000000E+00 0.  1.
<mgrwt>
<rscale>  0 0.57984539E+03</rscale>
<asrwt>0</asrwt>
<pdfrwt beam="1">  1        2 0.10295024E+00 0.57984539E+03</pdfrwt>
<pdfrwt beam="2">  1       -2 0.84427522E-01 0.57984539E+03</pdfrwt>
<totfact> 0.54484777E+01</totfact>
</mgrwt>
</event>
<event>
12    1  0.1432447E-007  0.7721165E+03  0.7818608E-02  0.9601278E-01
         -1   -1    0    0    0  501 -0.00000000000E+00  0.00000000000E+00  0.58642312580E+03  0.58642312580E+03  0.00000000000E+00 0.  1.
          1   -1    0    0  501    0  0.00000000000E+00 -0.00000000000E+00 -0.19960756855E+04  0.19960756855E+04  0.00000000000E+00 0. -1.
         23    2    1    2    0    0  0.67289716279E+03  0.24412696481E+03 -0.14793150681E+04  0.16459044242E+04  0.90772992465E+02 0.  0.
    5000000    2    1    2    0    0 -0.67289716279E+03 -0.24412696481E+03  0.69662508447E+02  0.93659438708E+03  0.59997301121E+03 0.  0.
         23    2    4    4    0    0 -0.48151805346E+03 -0.34794530639E+03 -0.14428184467E+03  0.61815034364E+03  0.91471441395E+02 0.  0.
         23    2    4    4    0    0 -0.19137910934E+03  0.10381834158E+03  0.21394435312E+03  0.31844404345E+03  0.90720510565E+02 0.  0.
          3    1    3    3  502    0  0.36592264065E+03  0.15539969359E+03 -0.72838671915E+03  0.82981664020E+03  0.00000000000E+00 0.  1.
         -3    1    3    3    0  502  0.30697452214E+03  0.88727271222E+02 -0.75092834895E+03  0.81608778398E+03  0.00000000000E+00 0. -1.
         11    1    5    5    0    0 -0.23783972319E+03 -0.20722332931E+03 -0.39643650600E+02  0.31793216442E+03  0.00000000000E+00 0. -1.
        -11    1    5    5    0    0 -0.24367833027E+03 -0.14072197708E+03 -0.10463819407E+03  0.30021817922E+03  0.00000000000E+00 0.  1.
          4    1    6    6  503    0 -0.19847263310E+03  0.10040433287E+03  0.21627141601E+03  0.31023497793E+03  0.00000000000E+00 0. -1.
         -4    1    6    6    0  503  0.70935237669E+01  0.34140087048E+01 -0.23270628935E+01  0.82090655119E+01  0.00000000000E+00 0.  1.
<mgrwt>
<rscale>  0 0.77211647E+03</rscale>
<asrwt>0</asrwt>
<pdfrwt beam="1">  1        1 0.30708856E+00 0.77211647E+03</pdfrwt>
<pdfrwt beam="2">  1       -1 0.90218944E-01 0.77211647E+03</pdfrwt>
<totfact> 0.37721093E+00</totfact>
</mgrwt>
</event>
<event>
12    1  0.1432447E-007  0.9048851E+03  0.7818608E-02  0.9419495E-01
          1   -1    0    0  501    0  0.00000000000E+00  0.00000000000E+00  0.20597965454E+04  0.20597965454E+04  0.00000000000E+00 0. -1.
         -1   -1    0    0    0  501 -0.00000000000E+00 -0.00000000000E+00 -0.72573157814E+03  0.72573157814E+03  0.00000000000E+00 0.  1.
         23    2    1    2    0    0  0.13013998902E+03 -0.86335588783E+03 -0.21959609090E+03  0.90500638851E+03  0.92164604476E+02 0.  0.
    5000000    2    1    2    0    0 -0.13013998902E+03  0.86335588783E+03  0.15536610581E+04  0.18805217350E+04  0.60014957006E+03 0.  0.
         23    2    4    4    0    0 -0.22129355166E+03  0.42734402395E+03  0.37162810954E+03  0.61401476292E+03  0.85515650420E+02 0.  0.
         23    2    4    4    0    0  0.91153562642E+02  0.43601186388E+03  0.11820329486E+04  0.12665069721E+04  0.91775276374E+02 0.  0.
          2    1    3    3  502    0  0.55995813673E+02 -0.58015097298E+03 -0.11466333910E+03  0.59401882456E+03  0.00000000000E+00 0.  1.
         -2    1    3    3    0  502  0.74144175344E+02 -0.28320491485E+03 -0.10493275180E+03  0.31098756395E+03  0.00000000000E+00 0. -1.
         11    1    5    5    0    0 -0.57075829558E+02  0.12535925803E+03  0.15657983681E+03  0.20854217604E+03  0.00000000000E+00 0.  1.
        -11    1    5    5    0    0 -0.16421772210E+03  0.30198476593E+03  0.21504827273E+03  0.40547258688E+03  0.00000000000E+00 0. -1.
          1    1    6    6  503    0  0.57952909219E+02  0.10432715251E+03  0.36796478150E+03  0.38683429897E+03  0.00000000000E+00 0. -1.
         -1    1    6    6    0  503  0.33200653423E+02  0.33168471137E+03  0.81406816707E+03  0.87967267309E+03  0.00000000000E+00 0.  1.
<mgrwt>
<rscale>  0 0.90488507E+03</rscale>
<asrwt>0</asrwt>
<pdfrwt beam="1">  1        1 0.31689177E+00 0.90488507E+03</pdfrwt>
<pdfrwt beam="2">  1       -1 0.11165101E+00 0.90488507E+03</pdfrwt>
<totfact> 0.20525509E+00</totfact>
</mgrwt>
</event>
<event>
12    1  0.1432447E-007  0.4502232E+03  0.7818608E-02  0.1027656E+00
          2   -1    0    0  501    0  0.00000000000E+00  0.00000000000E+00  0.43267530326E+04  0.43267530326E+04  0.00000000000E+00 0. -1.
         -2   -1    0    0    0  501 -0.00000000000E+00 -0.00000000000E+00 -0.56947043689E+02  0.56947043689E+02  0.00000000000E+00 0.  1.
         23    2    1    2    0    0  0.20502943098E+03  0.17573496229E+03  0.20082021460E+04  0.20283563899E+04  0.91836490845E+02 0.  0.
    5000000    2    1    2    0    0 -0.20502943098E+03 -0.17573496229E+03  0.22616038430E+04  0.23553436864E+04  0.59989340205E+03 0.  0.
         23    2    4    4    0    0 -0.35317762352E+02  0.20311507257E+03  0.62987087098E+03  0.66906991500E+03  0.91728730551E+02 0.  0.
         23    2    4    4    0    0 -0.16971166862E+03 -0.37885003487E+03  0.16317329720E+04  0.16862737714E+04  0.92937294546E+02 0.  0.
          1    1    3    3  502    0  0.55068526025E+02  0.29773880459E+02  0.77501809326E+03  0.77754232772E+03  0.00000000000E+00 0. -1.
         -1    1    3    3    0  502  0.14996090495E+03  0.14596108183E+03  0.12331840527E+04  0.12508140622E+04  0.00000000000E+00 0.  1.
         11    1    5    5    0    0 -0.25883128427E+02  0.83179714679E+02  0.40264371038E+03  0.41195965674E+03  0.00000000000E+00 0. -1.
        -11    1    5    5    0    0 -0.94346339253E+01  0.11993535789E+03  0.22722716060E+03  0.25711025826E+03  0.00000000000E+00 0.  1.
          2    1    6    6  503    0 -0.10625399642E+03 -0.15101289767E+03  0.59947080959E+03  0.62726394649E+03  0.00000000000E+00 0. -1.
         -2    1    6    6    0  503 -0.63457672202E+02 -0.22783713719E+03  0.10322621624E+04  0.10590098249E+04  0.00000000000E+00 0.  1.
<mgrwt>
<rscale>  0 0.45022317E+03</rscale>
<asrwt>0</asrwt>
<pdfrwt beam="1">  1        2 0.66565405E+00 0.45022317E+03</pdfrwt>
<pdfrwt beam="2">  1       -2 0.87610870E-02 0.45022317E+03</pdfrwt>
<totfact> 0.18440130E+01</totfact>
</mgrwt>
</event>
<event>
12    1  0.1432447E-007  0.8892748E+03  0.7818608E-02  0.9439089E-01
         -2   -1    0    0    0  501 -0.00000000000E+00  0.00000000000E+00  0.35967565068E+03  0.35967565068E+03  0.00000000000E+00 0. -1.
          2   -1    0    0  501    0  0.00000000000E+00 -0.00000000000E+00 -0.23389405449E+04  0.23389405449E+04  0.00000000000E+00 0.  1.
         23    2    1    2    0    0 -0.67084575004E+03  0.46193519770E+03 -0.81424005817E+03  0.11554224086E+04  0.92714199536E+02 0.  0.
    5000000    2    1    2    0    0  0.67084575004E+03 -0.46193519770E+03 -0.11650248361E+04  0.15431937870E+04  0.60062138515E+03 0.  0.
         23    2    4    4    0    0  0.45425179370E+03 -0.54717301199E+03 -0.63675840312E+03  0.95931566200E+03  0.95300987792E+02 0.  0.
         23    2    4    4    0    0  0.21659395634E+03  0.85237814290E+02 -0.52826643296E+03  0.58387812499E+03  0.87577472824E+02 0.  0.
          1    1    3    3  502    0 -0.40545918576E+03  0.22435008030E+03 -0.47225357479E+03  0.66162946485E+03  0.00000000000E+00 0. -1.
         -1    1    3    3    0  502 -0.26538656428E+03  0.23758511740E+03 -0.34198648338E+03  0.49379294378E+03  0.00000000000E+00 0.  1.
         11    1    5    5    0    0  0.63450558424E+02 -0.96665407528E+02 -0.62713888969E+02  0.13154165214E+03  0.00000000000E+00 0. -1.
        -11    1    5    5    0    0  0.39080123528E+03 -0.45050760446E+03 -0.57404451415E+03  0.82777400986E+03  0.00000000000E+00 0.  1.
          2    1    6    6  503    0  0.25467336949E+02  0.44876799084E+02 -0.14076901572E+03  0.14992807654E+03  0.00000000000E+00 0. -1.
         -2    1    6    6    0  503  0.19112661939E+03  0.40361015206E+02 -0.38749741724E+03  0.43395004846E+03  0.00000000000E+00 0.  1.
<mgrwt>
<rscale>  0 0.88927477E+03</rscale>
<asrwt>0</asrwt>
<pdfrwt beam="1">  1        2 0.35983702E+00 0.88927477E+03</pdfrwt>
<pdfrwt beam="2">  1       -2 0.55334714E-01 0.88927477E+03</pdfrwt>
<totfact> 0.13527163E+01</totfact>
</mgrwt>
</event>
<event>
12    1  0.1432447E-007  0.8280172E+03  0.7818608E-02  0.9520326E-01
         -2   -1    0    0    0  501 -0.00000000000E+00  0.00000000000E+00  0.37272109775E+03  0.37272109775E+03  0.00000000000E+00 0.  1.
          2   -1    0    0  501    0  0.00000000000E+00 -0.00000000000E+00 -0.21832473296E+04  0.21832473296E+04  0.00000000000E+00 0. -1.
         23    2    1    2    0    0  0.64895528722E+03 -0.44366890583E+03 -0.10130679837E+04  0.12855670555E+04  0.91601593397E+02 0.  0.
    5000000    2    1    2    0    0 -0.64895528722E+03  0.44366890583E+03 -0.79745824821E+03  0.12704013719E+04  0.59999577096E+03 0.  0.
         23    2    4    4    0    0 -0.56703890303E+02  0.20370253807E+03 -0.51788210259E+03  0.56668013964E+03  0.90633621152E+02 0.  0.
         23    2    4    4    0    0 -0.59225139692E+03  0.23996636776E+03 -0.27957614561E+03  0.70372123221E+03  0.93355110555E+02 0.  0.
          3    1    3    3  502    0  0.18028148999E+03 -0.17474570742E+03 -0.32560338437E+03  0.41116303555E+03  0.00000000000E+00 0. -1.
         -3    1    3    3    0  502  0.46867379723E+03 -0.26892319841E+03 -0.68746459929E+03  0.87440401996E+03  0.00000000000E+00 0.  1.
         11    1    5    5    0    0  0.18682864059E+02  0.58841398590E+02 -0.94323460849E+02  0.11273098449E+03  0.00000000000E+00 0. -1.
        -11    1    5    5    0    0 -0.75386754362E+02  0.14486113948E+03 -0.42355864175E+03  0.45394915515E+03  0.00000000000E+00 0.  1.
          3    1    6    6  503    0 -0.27127868392E+03  0.12427179554E+03 -0.17925008352E+03  0.34808935054E+03  0.00000000000E+00 0. -1.
         -3    1    6    6    0  503 -0.32097271300E+03  0.11569457222E+03 -0.10032606210E+03  0.35563188168E+03  0.00000000000E+00 0.  1.
<mgrwt>
<rscale>  0 0.82801725E+03</rscale>
<asrwt>0</asrwt>
<pdfrwt beam="1">  1        2 0.33588420E+00 0.82801725E+03</pdfrwt>
<pdfrwt beam="2">  1       -2 0.57341708E-01 0.82801725E+03</pdfrwt>
<totfact> 0.15452216E+01</totfact>
</mgrwt>
</event>
<event>
12    1  0.1492396E-007  0.7734608E+03  0.7818608E-02  0.9599246E-01
          2   -1    0    0  501    0  0.00000000000E+00  0.00000000000E+00  0.23032591034E+04  0.23032591034E+04  0.00000000000E+00 0.  1.
         -2   -1    0    0    0  501 -0.00000000000E+00 -0.00000000000E+00 -0.34391211990E+03  0.34391211990E+03  0.00000000000E+00 0. -1.
         23    2    1    2    0    0  0.49207414566E+03 -0.55455912871E+03  0.48281476442E+03  0.88946777791E+03  0.91487917997E+02 0.  0.
    5000000    2    1    2    0    0 -0.49207414566E+03  0.55455912871E+03  0.14765322191E+04  0.17577034454E+04  0.59975096156E+03 0.  0.
         23    2    4    4    0    0 -0.52751040211E+03  0.49285166482E+03  0.84176068533E+03  0.11126043711E+04  0.90318588263E+02 0.  0.
         23    2    4    4    0    0  0.35436256447E+02  0.61707463889E+02  0.63477153374E+03  0.64509907428E+03  0.90301584794E+02 0.  0.
          1    1    3    3  502    0  0.12453643623E+03 -0.14670354918E+03  0.79434102257E+02  0.20818509047E+03  0.00000000000E+00 0. -1.
         -1    1    3    3    0  502  0.36753770943E+03 -0.40785557953E+03  0.40338066216E+03  0.68128268744E+03  0.00000000000E+00 0.  1.
         11    1    5    5    0    0 -0.17641751113E+03  0.16736392624E+03  0.22037253439E+03  0.32817354548E+03  0.00000000000E+00 0. -1.
        -11    1    5    5    0    0 -0.35109289098E+03  0.32548773858E+03  0.62138815094E+03  0.78443082563E+03  0.00000000000E+00 0.  1.
          3    1    6    6  503    0  0.45516137407E+02  0.55133551394E+02  0.24695057474E+03  0.25709144992E+03  0.00000000000E+00 0. -1.
         -3    1    6    6    0  503 -0.10079880959E+02  0.65739124953E+01  0.38782095900E+03  0.38800762436E+03  0.00000000000E+00 0.  1.
<mgrwt>
<rscale>  0 0.77346084E+03</rscale>
<asrwt>0</asrwt>
<pdfrwt beam="1">  1        2 0.35434754E+00 0.77346084E+03</pdfrwt>
<pdfrwt beam="2">  1       -2 0.52909558E-01 0.77346084E+03</pdfrwt>
<totfact> 0.15791008E+01</totfact>
</mgrwt>
</event>
<event>
12    1  0.1432447E-007  0.1053354E+04  0.7818608E-02  0.9251888E-01
         -2   -1    0    0    0  501 -0.00000000000E+00  0.00000000000E+00  0.16864268213E+04  0.16864268213E+04  0.00000000000E+00 0.  1.
          2   -1    0    0  501    0  0.00000000000E+00 -0.00000000000E+00 -0.22538864067E+04  0.22538864067E+04  0.00000000000E+00 0. -1.
         23    2    1    2    0    0 -0.21562804326E+03 -0.95363954764E+03 -0.19263990120E+04  0.21619492696E+04  0.84188190187E+02 0.  0.
    5000000    2    1    2    0    0  0.21562804326E+03  0.95363954764E+03  0.13589394265E+04  0.17783639583E+04  0.59994846715E+03 0.  0.
         23    2    4    4    0    0 -0.17261919055E+03  0.48565006799E+03  0.51841005305E+03  0.73715380755E+03  0.94833429724E+02 0.  0.
         23    2    4    4    0    0  0.38824723381E+03  0.46798947965E+03  0.84052937349E+03  0.10412101507E+04  0.88763070367E+02 0.  0.
          2    1    3    3  502    0 -0.14808387122E+03 -0.49765514108E+03 -0.10725765427E+04  0.11916416879E+04  0.00000000000E+00 0. -1.
         -2    1    3    3    0  502 -0.67544172042E+02 -0.45598440656E+03 -0.85382246930E+03  0.97030758179E+03  0.00000000000E+00 0.  1.
         13    1    5    5    0    0 -0.13085499019E+03  0.41547571091E+03  0.38830699363E+03  0.58354555616E+03  0.00000000000E+00 0.  1.
        -13    1    5    5    0    0 -0.41764200358E+02  0.70174357084E+02  0.13010305943E+03  0.15360825139E+03  0.00000000000E+00 0. -1.
          3    1    6    6  503    0  0.30704209645E+03  0.34446628283E+03  0.69128528605E+03  0.83114813103E+03  0.00000000000E+00 0. -1.
         -3    1    6    6    0  503  0.81205137366E+02  0.12352319682E+03  0.14924408744E+03  0.21006201971E+03  0.00000000000E+00 0.  1.
<mgrwt>
<rscale>  0 0.10533538E+04</rscale>
<asrwt>0</asrwt>
<pdfrwt beam="1">  1        2 0.34675175E+00 0.10533538E+04</pdfrwt>
<pdfrwt beam="2">  1       -2 0.25945028E+00 0.10533538E+04</pdfrwt>
<totfact> 0.27035924E-01</totfact>
</mgrwt>
</event>
<event>
12    1  0.1432447E-007  0.4843560E+03  0.7818608E-02  0.1017945E+00
          1   -1    0    0  501    0  0.00000000000E+00  0.00000000000E+00  0.11126461317E+04  0.11126461317E+04  0.00000000000E+00 0. -1.
         -1   -1    0    0    0  501 -0.00000000000E+00 -0.00000000000E+00 -0.34957995955E+03  0.34957995955E+03  0.00000000000E+00 0.  1.
         23    2    1    2    0    0 -0.37975234174E+03  0.24397610795E+03  0.12947477637E+03  0.47979799891E+03  0.98520148923E+02 0.  0.
    5000000    2    1    2    0    0  0.37975234174E+03 -0.24397610795E+03  0.63359139581E+03  0.98242809236E+03  0.59999226454E+03 0.  0.
         23    2    4    4    0    0  0.46410615704E+02 -0.24892582892E+02  0.55619256139E+03  0.56607758825E+03  0.91214497976E+02 0.  0.
         23    2    4    4    0    0  0.33334172603E+03 -0.21908352506E+03  0.77398834418E+02  0.41635050411E+03  0.90790227650E+02 0.  0.
          4    1    3    3  502    0 -0.93127302011E+02  0.11073585883E+03  0.57017679674E+02  0.15551893970E+03  0.00000000000E+00 0. -1.
         -4    1    3    3    0  502 -0.28662503972E+03  0.13324024912E+03  0.72457096698E+02  0.32427905921E+03  0.00000000000E+00 0.  1.
         11    1    5    5    0    0  0.65637405577E+02 -0.43206444730E+02  0.43006356435E+03  0.43718386893E+03  0.00000000000E+00 0.  1.
        -11    1    5    5    0    0 -0.19226789873E+02  0.18313861838E+02  0.12612899704E+03  0.12889371932E+03  0.00000000000E+00 0. -1.
          2    1    6    6  503    0  0.13337562326E+03 -0.55530251529E+02 -0.68230144937E+01  0.14463477881E+03  0.00000000000E+00 0. -1.
         -2    1    6    6    0  503  0.19996610277E+03 -0.16355327353E+03  0.84221848912E+02  0.27171572529E+03  0.00000000000E+00 0.  1.
<mgrwt>
<rscale>  0 0.48435601E+03</rscale>
<asrwt>0</asrwt>
<pdfrwt beam="1">  1        1 0.17117633E+00 0.48435601E+03</pdfrwt>
<pdfrwt beam="2">  1       -1 0.53781533E-01 0.48435601E+03</pdfrwt>
<totfact> 0.45935713E+01</totfact>
</mgrwt>
</event>
<event>
12    1  0.1432447E-007  0.1036146E+04  0.7818608E-02  0.9269766E-01
          1   -1    0    0  501    0  0.00000000000E+00  0.00000000000E+00  0.12920542020E+04  0.12920542020E+04  0.00000000000E+00 0. -1.
         -1   -1    0    0    0  501 -0.00000000000E+00 -0.00000000000E+00 -0.10054705616E+04  0.10054705616E+04  0.00000000000E+00 0.  1.
         23    2    1    2    0    0  0.70155738219E+03 -0.65604288005E+03  0.58246398648E+03  0.11270024193E+04  0.91077640738E+02 0.  0.
    5000000    2    1    2    0    0 -0.70155738219E+03  0.65604288005E+03 -0.29588034610E+03  0.11705223444E+04  0.60000196538E+03 0.  0.
         23    2    4    4    0    0 -0.59341725625E+03  0.73767814760E+03 -0.17104951644E+03  0.96642848756E+03  0.91722380199E+02 0.  0.
         23    2    4    4    0    0 -0.10814012595E+03 -0.81635267552E+02 -0.12483082966E+03  0.20409385680E+03  0.87823474088E+02 0.  0.
          2    1    3    3  502    0  0.35761245144E+03 -0.33138690552E+03  0.34873859024E+03  0.59943519324E+03  0.00000000000E+00 0. -1.
         -2    1    3    3    0  502  0.34394493075E+03 -0.32465597453E+03  0.23372539624E+03  0.52756722608E+03  0.00000000000E+00 0.  1.
         13    1    5    5    0    0 -0.43865304591E+03  0.48184509626E+03 -0.10178880030E+03  0.65950902294E+03  0.00000000000E+00 0. -1.
        -13    1    5    5    0    0 -0.15476421034E+03  0.25583305134E+03 -0.69260716137E+02  0.30691946461E+03  0.00000000000E+00 0.  1.
          3    1    6    6  503    0 -0.42361413508E+02 -0.85346207993E+02 -0.67617260489E+02  0.11683560454E+03  0.00000000000E+00 0. -1.
         -3    1    6    6    0  503 -0.65778712439E+02  0.37109404409E+01 -0.57213569172E+02  0.87258252254E+02  0.00000000000E+00 0.  1.
<mgrwt>
<rscale>  0 0.10361456E+04</rscale>
<asrwt>0</asrwt>
<pdfrwt beam="1">  1        1 0.19877757E+00 0.10361456E+04</pdfrwt>
<pdfrwt beam="2">  1       -1 0.15468778E+00 0.10361456E+04</pdfrwt>
<totfact> 0.29392759E+00</totfact>
</mgrwt>
</event>
<event>
12    1  0.1432447E-007  0.9201405E+03  0.7818608E-02  0.9400749E-01
         -2   -1    0    0    0  501 -0.00000000000E+00  0.00000000000E+00  0.78790391203E+03  0.78790391203E+03  0.00000000000E+00 0.  1.
          2   -1    0    0  501    0  0.00000000000E+00 -0.00000000000E+00 -0.16176798445E+04  0.16176798445E+04  0.00000000000E+00 0. -1.
         23    2    1    2    0    0  0.78541488668E+03 -0.46782421785E+03 -0.93059748110E+03  0.13076225448E+04  0.90160993480E+02 0.  0.
    5000000    2    1    2    0    0 -0.78541488668E+03  0.46782421785E+03  0.10082154863E+03  0.10979612118E+04  0.59968141110E+03 0.  0.
         23    2    4    4    0    0 -0.42899285053E+03  0.27427924142E+03  0.33904057288E+03  0.61930162964E+03  0.96550662052E+02 0.  0.
         23    2    4    4    0    0 -0.35642203615E+03  0.19354497643E+03 -0.23821902425E+03  0.47865958211E+03  0.88715084848E+02 0.  0.
          2    1    3    3  502    0  0.27745394528E+03 -0.21553848065E+03 -0.34560364766E+03  0.49282797168E+03  0.00000000000E+00 0.  1.
         -2    1    3    3    0  502  0.50796094139E+03 -0.25228573719E+03 -0.58499383344E+03  0.81479457309E+03  0.00000000000E+00 0. -1.
         11    1    5    5    0    0 -0.14662929388E+03  0.76015883417E+02  0.16266265993E+03  0.23181394542E+03  0.00000000000E+00 0.  1.
        -11    1    5    5    0    0 -0.28236355665E+03  0.19826335800E+03  0.17637791295E+03  0.38748768422E+03  0.00000000000E+00 0. -1.
          3    1    6    6  503    0 -0.78795760063E+02  0.78058119674E+02 -0.37283279433E+02  0.11701232745E+03  0.00000000000E+00 0. -1.
         -3    1    6    6    0  503 -0.27762627609E+03  0.11548685675E+03 -0.20093574481E+03  0.36164725465E+03  0.00000000000E+00 0.  1.
<mgrwt>
<rscale>  0 0.92014052E+03</rscale>
<asrwt>0</asrwt>
<pdfrwt beam="1">  1        2 0.24887382E+00 0.92014052E+03</pdfrwt>
<pdfrwt beam="2">  1       -2 0.12121599E+00 0.92014052E+03</pdfrwt>
<totfact> 0.56681135E+00</totfact>
</mgrwt>
</event>
<event>
12    1  0.1432447E-007  0.7402291E+03  0.7818608E-02  0.9650805E-01
         -1   -1    0    0    0  501 -0.00000000000E+00  0.00000000000E+00  0.34806995359E+03  0.34806995359E+03  0.00000000000E+00 0. -1.
          1   -1    0    0  501    0  0.00000000000E+00 -0.00000000000E+00 -0.16249805614E+04  0.16249805614E+04  0.00000000000E+00 0.  1.
         23    2    1    2    0    0 -0.53974073463E+03 -0.31948017261E+03 -0.47193663949E+03  0.78963573377E+03  0.86097381120E+02 0.  0.
    5000000    2    1    2    0    0  0.53974073463E+03  0.31948017261E+03 -0.80497396837E+03  0.11834147813E+04  0.59924937502E+03 0.  0.
         23    2    4    4    0    0  0.42906349122E+03 -0.74481724931E+02 -0.44410340398E+03  0.62857334048E+03  0.90739209226E+02 0.  0.
         23    2    4    4    0    0  0.11067724341E+03  0.39396189754E+03 -0.36087056439E+03  0.55484144079E+03  0.10082673876E+03 0.  0.
          3    1    3    3  502    0 -0.14836634168E+03 -0.48677891492E+02 -0.97709963624E+02  0.18419920047E+03  0.00000000000E+00 0. -1.
         -3    1    3    3    0  502 -0.39137439296E+03 -0.27080228111E+03 -0.37422667586E+03  0.60543653329E+03  0.00000000000E+00 0.  1.
         13    1    5    5    0    0  0.25764996103E+03 -0.72072913904E+02 -0.31904959895E+03  0.41637801807E+03  0.00000000000E+00 0.  1.
        -13    1    5    5    0    0  0.17141353019E+03 -0.24088110270E+01 -0.12505380502E+03  0.21219532241E+03  0.00000000000E+00 0. -1.
          2    1    6    6  503    0  0.51714874047E+01  0.30904770537E+02 -0.73650593888E+02  0.80039109840E+02  0.00000000000E+00 0.  1.
         -2    1    6    6    0  503  0.10550575601E+03  0.36305712700E+03 -0.28721997050E+03  0.47480233095E+03  0.00000000000E+00 0. -1.
<mgrwt>
<rscale>  0 0.74022914E+03</rscale>
<asrwt>0</asrwt>
<pdfrwt beam="1">  1        1 0.24999701E+00 0.74022914E+03</pdfrwt>
<pdfrwt beam="2">  1       -1 0.53549223E-01 0.74022914E+03</pdfrwt>
<totfact> 0.19584937E+01</totfact>
</mgrwt>
</event>
<event>
12    1  0.1432447E-007  0.4189536E+03  0.7818608E-02  0.1037407E+00
         -2   -1    0    0    0  501 -0.00000000000E+00  0.00000000000E+00  0.21737850127E+03  0.21737850127E+03  0.00000000000E+00 0.  1.
          2   -1    0    0  501    0  0.00000000000E+00 -0.00000000000E+00 -0.13445123923E+04  0.13445123923E+04  0.00000000000E+00 0. -1.
         23    2    1    2    0    0 -0.12395244279E+03 -0.19519633313E+03  0.17253554962E+02  0.24922549907E+03  0.91377500991E+02 0.  0.
    5000000    2    1    2    0    0  0.12395244279E+03  0.19519633313E+03 -0.11443874460E+04  0.13126653945E+04  0.60000166235E+03 0.  0.
         23    2    4    4    0    0  0.31163831162E+03  0.22146646931E+03 -0.94687204130E+03  0.10244952306E+04  0.82812926087E+02 0.  0.
         23    2    4    4    0    0 -0.18768586883E+03 -0.26270136176E+02 -0.19751540468E+03  0.28817016384E+03  0.90075539562E+02 0.  0.
          4    1    3    3  502    0 -0.78022803954E+02 -0.56851933375E+02  0.34326370241E+02  0.10245974800E+03  0.00000000000E+00 0. -1.
         -4    1    3    3    0  502 -0.45929638838E+02 -0.13834439976E+03 -0.17072815279E+02  0.14676575108E+03  0.00000000000E+00 0.  1.
         11    1    5    5    0    0  0.19220200283E+03  0.17941534206E+03 -0.68151659696E+03  0.73047679414E+03  0.00000000000E+00 0.  1.
        -11    1    5    5    0    0  0.11943630879E+03  0.42051127252E+02 -0.26535544434E+03  0.29401843650E+03  0.00000000000E+00 0. -1.
          3    1    6    6  503    0 -0.98888427793E-01 -0.18290971492E+02 -0.43724768480E+01  0.18806593812E+02  0.00000000000E+00 0. -1.
         -3    1    6    6    0  503 -0.18758698040E+03 -0.79791646839E+01 -0.19314292783E+03  0.26936357002E+03  0.00000000000E+00 0.  1.
<mgrwt>
<rscale>  0 0.41895361E+03</rscale>
<asrwt>0</asrwt>
<pdfrwt beam="1">  1        2 0.20684806E+00 0.41895361E+03</pdfrwt>
<pdfrwt beam="2">  1       -2 0.33442847E-01 0.41895361E+03</pdfrwt>
<totfact> 0.13671993E+02</totfact>
</mgrwt>
</event>
<event>
12    1  0.1432447E-007  0.4010227E+03  0.7818608E-02  0.1043426E+00
         -2   -1    0    0    0  501 -0.00000000000E+00  0.00000000000E+00  0.14056118608E+04  0.14056118608E+04  0.00000000000E+00 0.  1.
          2   -1    0    0  501    0  0.00000000000E+00 -0.00000000000E+00 -0.12951706604E+03  0.12951706604E+03  0.00000000000E+00 0. -1.
         23    2    1    2    0    0  0.96516565888E+02 -0.14224312858E+03  0.51671704765E+03  0.55214360564E+03  0.91200322368E+02 0.  0.
    5000000    2    1    2    0    0 -0.96516565888E+02  0.14224312858E+03  0.75937774706E+03  0.98298532116E+03  0.60004751792E+03 0.  0.
         23    2    4    4    0    0 -0.29899168280E+03  0.21900023459E+03  0.54242562312E+03  0.66329763543E+03  0.91548169921E+02 0.  0.
         23    2    4    4    0    0  0.20247511692E+03 -0.76757106014E+02  0.21695212395E+03  0.31968768573E+03  0.90797389996E+02 0.  0.
          3    1    3    3  502    0  0.57927335562E+02 -0.15399994298E+02  0.20018718623E+03  0.20896804914E+03  0.00000000000E+00 0. -1.
         -3    1    3    3    0  502  0.38589230326E+02 -0.12684313428E+03  0.31652986142E+03  0.34317555650E+03  0.00000000000E+00 0.  1.
         11    1    5    5    0    0 -0.16431394228E+03  0.68090780269E+02  0.22342901553E+03  0.28558002550E+03  0.00000000000E+00 0. -1.
        -11    1    5    5    0    0 -0.13467774052E+03  0.15090945432E+03  0.31899660759E+03  0.37771760992E+03  0.00000000000E+00 0.  1.
          1    1    6    6  503    0  0.15613703447E+03 -0.91243683083E+02  0.14000342202E+03  0.22870317316E+03  0.00000000000E+00 0. -1.
         -1    1    6    6    0  503  0.46338082448E+02  0.14486577070E+02  0.76948701929E+02  0.90984512576E+02  0.00000000000E+00 0.  1.
<mgrwt>
<rscale>  0 0.40102272E+03</rscale>
<asrwt>0</asrwt>
<pdfrwt beam="1">  1        2 0.19925703E-01 0.40102272E+03</pdfrwt>
<pdfrwt beam="2">  1       -2 0.21624797E+00 0.40102272E+03</pdfrwt>
<totfact> 0.31365883E+01</totfact>
</mgrwt>
</event>
<event>
12    1  0.1432447E-007  0.8670419E+03  0.7818608E-02  0.9467745E-01
          2   -1    0    0  501    0  0.00000000000E+00  0.00000000000E+00  0.23599627295E+04  0.23599627295E+04  0.00000000000E+00 0. -1.
         -2   -1    0    0    0  501 -0.00000000000E+00 -0.00000000000E+00 -0.41150561220E+03  0.41150561220E+03  0.00000000000E+00 0.  1.
         23    2    1    2    0    0 -0.79268202831E+03  0.25359363055E+02  0.14585354024E+04  0.16627685149E+04  0.92117961194E+02 0.  0.
    5000000    2    1    2    0    0  0.79268202831E+03 -0.25359363055E+02  0.48992171487E+03  0.11086998268E+04  0.60017007914E+03 0.  0.
         23    2    4    4    0    0  0.70686679539E+03 -0.18735920195E+03  0.51480047692E+03  0.89907396008E+03  0.92467927899E+02 0.  0.
         23    2    4    4    0    0  0.85815232920E+02  0.16199983890E+03 -0.24878762046E+02  0.20962586669E+03  0.98569007208E+02 0.  0.
          3    1    3    3  502    0 -0.71374182095E+03  0.45284097721E+02  0.13409987729E+04  0.15197880593E+04  0.00000000000E+00 0. -1.
         -3    1    3    3    0  502 -0.78940207357E+02 -0.19924734666E+02  0.11753662955E+03  0.14298045557E+03  0.00000000000E+00 0.  1.
         13    1    5    5    0    0  0.25644406741E+03 -0.85362968217E+02  0.14051966283E+03  0.30462464065E+03  0.00000000000E+00 0.  1.
        -13    1    5    5    0    0  0.45042272798E+03 -0.10199623373E+03  0.37428081409E+03  0.59444931943E+03  0.00000000000E+00 0. -1.
          3    1    6    6  503    0  0.98254726266E+02  0.16549524893E+03 -0.14423439676E+02  0.19300441514E+03  0.00000000000E+00 0. -1.
         -3    1    6    6    0  503 -0.12439493346E+02 -0.34954100282E+01 -0.10455322370E+02  0.16621451556E+02  0.00000000000E+00 0.  1.
<mgrwt>
<rscale>  0 0.86704192E+03</rscale>
<asrwt>0</asrwt>
<pdfrwt beam="1">  1        2 0.36307118E+00 0.86704192E+03</pdfrwt>
<pdfrwt beam="2">  1       -2 0.63308557E-01 0.86704192E+03</pdfrwt>
<totfact> 0.99376022E+00</totfact>
</mgrwt>
</event>
<event>
12    1  0.1432447E-007  0.2433000E+03  0.7818608E-02  0.1117614E+00
          2   -1    0    0  501    0  0.00000000000E+00  0.00000000000E+00  0.16059346038E+04  0.16059346038E+04  0.00000000000E+00 0. -1.
         -2   -1    0    0    0  501 -0.00000000000E+00 -0.00000000000E+00 -0.11223218286E+03  0.11223218286E+03  0.00000000000E+00 0.  1.
         23    2    1    2    0    0 -0.12041677575E+03  0.15406994627E+03  0.32493503958E+03  0.38988665154E+03  0.90504546167E+02 0.  0.
    5000000    2    1    2    0    0  0.12041677575E+03 -0.15406994627E+03  0.11687673814E+04  0.13282801351E+04  0.60006097807E+03 0.  0.
         23    2    4    4    0    0  0.75464969153E+02 -0.16557756189E+03  0.59544053568E+02  0.21430509008E+03  0.96282328325E+02 0.  0.
         23    2    4    4    0    0  0.44951806600E+02  0.11507615617E+02  0.11092233278E+04  0.11139750450E+04  0.91711067702E+02 0.  0.
          1    1    3    3  502    0 -0.88211529745E+02  0.76792882564E+02  0.11565534937E+03  0.16448276697E+03  0.00000000000E+00 0. -1.
         -1    1    3    3    0  502 -0.32205246008E+02  0.77277063703E+02  0.20927969021E+03  0.22540388457E+03  0.00000000000E+00 0.  1.
         13    1    5    5    0    0  0.32536278868E+02 -0.24306098795E+02 -0.21418288080E+02  0.45914474248E+02  0.00000000000E+00 0. -1.
        -13    1    5    5    0    0  0.42928690285E+02 -0.14127146309E+03  0.80962341649E+02  0.16839061583E+03  0.00000000000E+00 0.  1.
          1    1    6    6  503    0  0.47059859858E+02  0.44402401207E+02  0.88243819835E+03  0.88480697191E+03  0.00000000000E+00 0. -1.
         -1    1    6    6    0  503 -0.21080532582E+01 -0.32894785590E+02  0.22678512944E+03  0.22916807313E+03  0.00000000000E+00 0.  1.
<mgrwt>
<rscale>  0 0.24329995E+03</rscale>
<asrwt>0</asrwt>
<pdfrwt beam="1">  1        2 0.24706685E+00 0.24329995E+03</pdfrwt>
<pdfrwt beam="2">  1       -2 0.17266491E-01 0.24329995E+03</pdfrwt>
<totfact> 0.32728772E+02</totfact>
</mgrwt>
</event>
<event>
12    1  0.1432447E-007  0.1241929E+04  0.7818608E-02  0.9076927E-01
         -1   -1    0    0    0  501 -0.00000000000E+00  0.00000000000E+00  0.11314224579E+04  0.11314224579E+04  0.00000000000E+00 0.  1.
          1   -1    0    0  501    0  0.00000000000E+00 -0.00000000000E+00 -0.15909986782E+04  0.15909986782E+04  0.00000000000E+00 0. -1.
         23    2    1    2    0    0  0.63677855039E+03 -0.10589552654E+04 -0.52846094444E+03  0.13471061823E+04  0.92471186673E+02 0.  0.
    5000000    2    1    2    0    0 -0.63677855039E+03  0.10589552654E+04  0.68884724128E+02  0.13753149537E+04  0.59989410750E+03 0.  0.
         23    2    4    4    0    0 -0.34735201050E+03  0.72341109154E+03 -0.22197142600E+03  0.83750317170E+03  0.90350551145E+02 0.  0.
         23    2    4    4    0    0 -0.28942653989E+03  0.33554417386E+03  0.29085615012E+03  0.53781178197E+03  0.91030753873E+02 0.  0.
          3    1    3    3  502    0  0.33164073896E+03 -0.53671724588E+03 -0.31933855053E+03  0.70712664469E+03  0.00000000000E+00 0. -1.
         -3    1    3    3    0  502  0.30513781143E+03 -0.52223801952E+03 -0.20912239390E+03  0.63997953766E+03  0.00000000000E+00 0.  1.
         11    1    5    5    0    0 -0.32513863373E+03  0.63775660011E+03 -0.22034695670E+03  0.74900026265E+03  0.00000000000E+00 0. -1.
        -11    1    5    5    0    0 -0.22213376769E+02  0.85654491434E+02 -0.16244692959E+01  0.88502909052E+02  0.00000000000E+00 0.  1.
          1    1    6    6  503    0 -0.24668965073E+03  0.27233572964E+03  0.27723248336E+03  0.46030466351E+03  0.00000000000E+00 0. -1.
         -1    1    6    6    0  503 -0.42736889166E+02  0.63208444220E+02  0.13623666767E+02  0.77507118463E+02  0.00000000000E+00 0.  1.
<mgrwt>
<rscale>  0 0.12419295E+04</rscale>
<asrwt>0</asrwt>
<pdfrwt beam="1">  1        1 0.24476903E+00 0.12419295E+04</pdfrwt>
<pdfrwt beam="2">  1       -1 0.17406499E+00 0.12419295E+04</pdfrwt>
<totfact> 0.12685210E+00</totfact>
</mgrwt>
</event>
<event>
12    1  0.1643462E-007  0.1561634E+04  0.7818608E-02  0.8844471E-01
          1   -1    0    0  501    0  0.00000000000E+00  0.00000000000E+00  0.17881933009E+04  0.17881933009E+04  0.00000000000E+00 0. -1.
         -1   -1    0    0    0  501 -0.00000000000E+00 -0.00000000000E+00 -0.13840082665E+04  0.13840082665E+04  0.00000000000E+00 0.  1.
         23    2    1    2    0    0  0.26545031748E+03 -0.14827416303E+04  0.34948279960E+03  0.15496874498E+04  0.10201152680E+03 0.  0.
    5000000    2    1    2    0    0 -0.26545031748E+03  0.14827416303E+04  0.54702234751E+02  0.16225141175E+04  0.60047740495E+03 0.  0.
         23    2    4    4    0    0 -0.21060727540E+03  0.13606040743E+03 -0.35269564288E+02  0.26929592552E+03  0.91697843011E+02 0.  0.
         23    2    4    4    0    0 -0.54843042074E+02  0.13466812229E+04  0.89971799039E+02  0.13532181920E+04  0.80910291608E+02 0.  0.
          3    1    3    3  502    0  0.77052939046E+02 -0.28713879387E+03  0.10184866093E+03  0.31425943438E+03  0.00000000000E+00 0. -1.
         -3    1    3    3    0  502  0.18839737843E+03 -0.11956028364E+04  0.24763413867E+03  0.12354280154E+04  0.00000000000E+00 0.  1.
         13    1    5    5    0    0 -0.11064003799E+03  0.12214400082E+03 -0.92430760446E+01  0.16506304673E+03  0.00000000000E+00 0.  1.
        -13    1    5    5    0    0 -0.99967237417E+02  0.13916406609E+02 -0.26026488243E+02  0.10423287879E+03  0.00000000000E+00 0. -1.
          4    1    6    6  503    0 -0.47949119032E+02  0.36055302676E+03  0.10696558791E+02  0.36388462388E+03  0.00000000000E+00 0.  1.
         -4    1    6    6    0  503 -0.68939230414E+01  0.98612819612E+03  0.79275240248E+02  0.98933356815E+03  0.00000000000E+00 0. -1.
<mgrwt>
<rscale>  0 0.15616339E+04</rscale>
<asrwt>0</asrwt>
<pdfrwt beam="1">  1        1 0.27510666E+00 0.15616339E+04</pdfrwt>
<pdfrwt beam="2">  1       -1 0.21292435E+00 0.15616339E+04</pdfrwt>
<totfact> 0.47871194E-01</totfact>
</mgrwt>
</event>
<event>
12    1  0.1432447E-007  0.3360499E+03  0.7818608E-02  0.1068491E+00
          2   -1    0    0  501    0  0.00000000000E+00  0.00000000000E+00  0.49350863018E+03  0.49350863018E+03  0.00000000000E+00 0. -1.
         -2   -1    0    0    0  501 -0.00000000000E+00 -0.00000000000E+00 -0.39147756731E+03  0.39147756731E+03  0.00000000000E+00 0.  1.
         23    2    1    2    0    0  0.10174203251E+03  0.85867259966E+02 -0.15033827284E+03  0.22065001334E+03  0.91434154396E+02 0.  0.
    5000000    2    1    2    0    0 -0.10174203251E+03 -0.85867259966E+02  0.25236933570E+03  0.66433618415E+03  0.59993971069E+03 0.  0.
         23    2    4    4    0    0  0.86087207918E+02 -0.25686142116E+03  0.27089402310E+03  0.39372881084E+03  0.90829552928E+02 0.  0.
         23    2    4    4    0    0 -0.18782924043E+03  0.17099416120E+03 -0.18524687395E+02  0.27060737332E+03  0.91467807039E+02 0.  0.
          4    1    3    3  502    0  0.47741847657E+02  0.56772962861E+02 -0.20355034065E+02  0.76920613242E+02  0.00000000000E+00 0. -1.
         -4    1    3    3    0  502  0.54000184858E+02  0.29094297104E+02 -0.12998323878E+03  0.14372940009E+03  0.00000000000E+00 0.  1.
         11    1    5    5    0    0  0.57940233624E+02 -0.20777909557E+03  0.25688755585E+03  0.33544066477E+03  0.00000000000E+00 0.  1.
        -11    1    5    5    0    0  0.28146974295E+02 -0.49082325594E+02  0.14006467245E+02  0.58288146070E+02  0.00000000000E+00 0. -1.
          2    1    6    6  503    0 -0.16540440970E+02  0.54984612863E+02 -0.27228323942E+02  0.63547426886E+02  0.00000000000E+00 0. -1.
         -2    1    6    6    0  503 -0.17128879946E+03  0.11600954833E+03  0.87036365472E+01  0.20705994643E+03  0.00000000000E+00 0.  1.
<mgrwt>
<rscale>  0 0.33604993E+03</rscale>
<asrwt>0</asrwt>
<pdfrwt beam="1">  1        2 0.75924405E-01 0.33604993E+03</pdfrwt>
<pdfrwt beam="2">  1       -2 0.60227318E-01 0.33604993E+03</pdfrwt>
<totfact> 0.16635439E+02</totfact>
</mgrwt>
</event>
<event>
12    1  0.1432447E-007  0.6231618E+03  0.7818608E-02  0.9858485E-01
          2   -1    0    0  501    0  0.00000000000E+00  0.00000000000E+00  0.10739120279E+04  0.10739120279E+04  0.00000000000E+00 0. -1.
         -2   -1    0    0    0  501 -0.00000000000E+00 -0.00000000000E+00 -0.55816743806E+03  0.55816743806E+03  0.00000000000E+00 0.  1.
         23    2    1    2    0    0  0.22803823312E+03 -0.43815311992E+03 -0.23225833203E+03  0.55346483099E+03  0.91650390518E+02 0.  0.
    5000000    2    1    2    0    0 -0.22803823312E+03  0.43815311992E+03  0.74800292186E+03  0.10786146350E+04  0.59993463593E+03 0.  0.
         23    2    4    4    0    0  0.82517668811E+02  0.42095284715E+03  0.53084547705E+03  0.68832955668E+03  0.89387878972E+02 0.  0.
         23    2    4    4    0    0 -0.31055590193E+03  0.17200272773E+02  0.21715744481E+03  0.39028507828E+03  0.91783816040E+02 0.  0.
          4    1    3    3  502    0  0.69971176005E+02 -0.22421262363E+03 -0.13026382316E+03  0.26858132789E+03  0.00000000000E+00 0. -1.
         -4    1    3    3    0  502  0.15806705711E+03 -0.21394049629E+03 -0.10199450887E+03  0.28488350310E+03  0.00000000000E+00 0.  1.
         13    1    5    5    0    0  0.68827686484E+02  0.17712748710E+03  0.18720626626E+03  0.26675378768E+03  0.00000000000E+00 0. -1.
        -13    1    5    5    0    0  0.13689982327E+02  0.24382536005E+03  0.34363921079E+03  0.42157576900E+03  0.00000000000E+00 0.  1.
          3    1    6    6  503    0 -0.20151134368E+03  0.16158620481E+02  0.85934585444E+02  0.21966491668E+03  0.00000000000E+00 0. -1.
         -3    1    6    6    0  503 -0.10904455825E+03  0.10416522914E+01  0.13122285936E+03  0.17062016160E+03  0.00000000000E+00 0.  1.
<mgrwt>
<rscale>  0 0.62316185E+03</rscale>
<asrwt>0</asrwt>
<pdfrwt beam="1">  1        2 0.16521724E+00 0.62316185E+03</pdfrwt>
<pdfrwt beam="2">  1       -2 0.85871913E-01 0.62316185E+03</pdfrwt>
<totfact> 0.27461252E+01</totfact>
</mgrwt>
</event>
<event>
12    1  0.1432447E-007  0.6712206E+03  0.7818608E-02  0.9767755E-01
          2   -1    0    0  501    0  0.00000000000E+00  0.00000000000E+00  0.87869443188E+03  0.87869443188E+03  0.00000000000E+00 0.  1.
         -2   -1    0    0    0  501 -0.00000000000E+00 -0.00000000000E+00 -0.69062132148E+03  0.69062132148E+03  0.00000000000E+00 0. -1.
         23    2    1    2    0    0  0.57364142435E+03 -0.13369821966E+03 -0.21921398708E+03  0.63504926132E+03  0.91066429034E+02 0.  0.
    5000000    2    1    2    0    0 -0.57364142435E+03  0.13369821966E+03  0.40728709748E+03  0.93426649204E+03  0.60002616668E+03 0.  0.
         23    2    4    4    0    0 -0.11575533881E+03 -0.15095007853E+03  0.31651337788E+03  0.38046594995E+03  0.91588187127E+02 0.  0.
         23    2    4    4    0    0 -0.45788608554E+03  0.28464829820E+03  0.90773719603E+02  0.55380054209E+03  0.88152431903E+02 0.  0.
          1    1    3    3  502    0  0.21931728795E+03 -0.14112449837E+02 -0.10817934172E+03  0.24495306491E+03  0.00000000000E+00 0. -1.
         -1    1    3    3    0  502  0.35432413640E+03 -0.11958576983E+03 -0.11103464536E+03  0.39009619641E+03  0.00000000000E+00 0.  1.
         13    1    5    5    0    0 -0.10990083965E+03 -0.15851550364E+03  0.26326183156E+03  0.32636199442E+03  0.00000000000E+00 0. -1.
        -13    1    5    5    0    0 -0.58544991589E+01  0.75654251086E+01  0.53251546321E+02  0.54103955521E+02  0.00000000000E+00 0.  1.
          3    1    6    6  503    0 -0.84245502121E+02  0.15226968778E+02  0.17050898816E+02  0.87292029168E+02  0.00000000000E+00 0. -1.
         -3    1    6    6    0  503 -0.37364058342E+03  0.26942132942E+03  0.73722820787E+02  0.46650851292E+03  0.00000000000E+00 0.  1.
<mgrwt>
<rscale>  0 0.67122062E+03</rscale>
<asrwt>0</asrwt>
<pdfrwt beam="1">  1        2 0.13518376E+00 0.67122062E+03</pdfrwt>
<pdfrwt beam="2">  1       -2 0.10624943E+00 0.67122062E+03</pdfrwt>
<totfact> 0.22171463E+01</totfact>
</mgrwt>
</event>
<event>
12    1  0.1432447E-007  0.5027109E+03  0.7818608E-02  0.1013074E+00
          1   -1    0    0  501    0  0.00000000000E+00  0.00000000000E+00  0.10859997419E+04  0.10859997419E+04  0.00000000000E+00 0. -1.
         -1   -1    0    0    0  501 -0.00000000000E+00 -0.00000000000E+00 -0.38254400831E+03  0.38254400831E+03  0.00000000000E+00 0.  1.
         23    2    1    2    0    0  0.15648747639E+03 -0.37956283131E+03 -0.47112793891E+02  0.42311019334E+03  0.90809400266E+02 0.  0.
    5000000    2    1    2    0    0 -0.15648747639E+03  0.37956283131E+03  0.75056852745E+03  0.10454335568E+04  0.60085100832E+03 0.  0.
         23    2    4    4    0    0 -0.19360278609E+03  0.43525039786E+03  0.27789493346E+03  0.55946765586E+03  0.94093125645E+02 0.  0.
         23    2    4    4    0    0  0.37115309696E+02 -0.55687566542E+02  0.47267359399E+03  0.48596590099E+03  0.90905880921E+02 0.  0.
          1    1    3    3  502    0  0.12490948426E+03 -0.21094345970E+03 -0.55495043168E+02  0.25135477370E+03  0.00000000000E+00 0. -1.
         -1    1    3    3    0  502  0.31577992133E+02 -0.16861937162E+03  0.83822492770E+01  0.17175541964E+03  0.00000000000E+00 0.  1.
         11    1    5    5    0    0 -0.61014937709E+02  0.20488560420E+03  0.16782071304E+03  0.27178065633E+03  0.00000000000E+00 0. -1.
        -11    1    5    5    0    0 -0.13258784838E+03  0.23036479366E+03  0.11007422042E+03  0.28768699953E+03  0.00000000000E+00 0.  1.
          1    1    6    6  503    0  0.65405608543E+02 -0.41884039136E+02  0.38641744915E+03  0.39414541906E+03  0.00000000000E+00 0. -1.
         -1    1    6    6    0  503 -0.28290298847E+02 -0.13803527405E+02  0.86256144847E+02  0.91820481928E+02  0.00000000000E+00 0.  1.
<mgrwt>
<rscale>  0 0.50271087E+03</rscale>
<asrwt>0</asrwt>
<pdfrwt beam="1">  1        1 0.16707688E+00 0.50271087E+03</pdfrwt>
<pdfrwt beam="2">  1       -1 0.58852925E-01 0.50271087E+03</pdfrwt>
<totfact> 0.40283737E+01</totfact>
</mgrwt>
</event>
<event>
12    1  0.1432447E-007  0.5740786E+03  0.7818608E-02  0.9960694E-01
          1   -1    0    0  501    0  0.00000000000E+00  0.00000000000E+00  0.27767557491E+04  0.27767557491E+04  0.00000000000E+00 0. -1.
         -1   -1    0    0    0  501 -0.00000000000E+00 -0.00000000000E+00 -0.14592078336E+03  0.14592078336E+03  0.00000000000E+00 0.  1.
         23    2    1    2    0    0 -0.40826562771E+03  0.14283213992E+03  0.50343284218E+03  0.67024235955E+03  0.93264950447E+02 0.  0.
    5000000    2    1    2    0    0  0.40826562771E+03 -0.14283213992E+03  0.21274021236E+04  0.22524341729E+04  0.60044822012E+03 0.  0.
         23    2    4    4    0    0  0.17720848528E+03 -0.34926307608E+03  0.94789709592E+03  0.10294721677E+04  0.88974692978E+02 0.  0.
         23    2    4    4    0    0  0.23105714243E+03  0.20643093616E+03  0.11795050276E+04  0.12229620052E+04  0.91666905548E+02 0.  0.
          3    1    3    3  502    0 -0.21272497594E+03  0.29874969658E+02  0.21498956403E+03  0.30391601116E+03  0.00000000000E+00 0. -1.
         -3    1    3    3    0  502 -0.19554065177E+03  0.11295717026E+03  0.28844327816E+03  0.36632634839E+03  0.00000000000E+00 0.  1.
         13    1    5    5    0    0  0.41697697386E+02 -0.12259763430E+03  0.41490621625E+03  0.43464473560E+03  0.00000000000E+00 0. -1.
        -13    1    5    5    0    0  0.13551078790E+03 -0.22666544178E+03  0.53299087968E+03  0.59482743208E+03  0.00000000000E+00 0.  1.
          2    1    6    6  503    0  0.45474202842E+02  0.70543075880E+02  0.45971741633E+03  0.46731609383E+03  0.00000000000E+00 0. -1.
         -2    1    6    6    0  503  0.18558293959E+03  0.13588786028E+03  0.71978761132E+03  0.75564591142E+03  0.00000000000E+00 0.  1.
<mgrwt>
<rscale>  0 0.57407860E+03</rscale>
<asrwt>0</asrwt>
<pdfrwt beam="1">  1        1 0.42719315E+00 0.57407860E+03</pdfrwt>
<pdfrwt beam="2">  1       -1 0.22449353E-01 0.57407860E+03</pdfrwt>
<totfact> 0.15855039E+01</totfact>
</mgrwt>
</event>
<event>
12    1  0.1432447E-007  0.5136470E+03  0.7818608E-02  0.1010277E+00
         -2   -1    0    0    0  501 -0.00000000000E+00  0.00000000000E+00  0.19442124971E+03  0.19442124971E+03  0.00000000000E+00 0.  1.
          2   -1    0    0  501    0  0.00000000000E+00 -0.00000000000E+00 -0.20077304254E+04  0.20077304254E+04  0.00000000000E+00 0. -1.
         23    2    1    2    0    0  0.39557378094E+03 -0.63493683533E+02 -0.24990530913E+03  0.48024552351E+03  0.87595863541E+02 0.  0.
    5000000    2    1    2    0    0 -0.39557378094E+03  0.63493683533E+02 -0.15634038666E+04  0.17219061516E+04  0.60018253966E+03 0.  0.
         23    2    4    4    0    0 -0.32502760172E+02  0.21530754304E+03 -0.10012124477E+04  0.10295101296E+04  0.10025454629E+03 0.  0.
         23    2    4    4    0    0 -0.36307102077E+03 -0.15181385950E+03 -0.56219141887E+03  0.69239602198E+03  0.92114308054E+02 0.  0.
          1    1    3    3  502    0  0.11645193411E+03 -0.14076681959E+02 -0.12206090058E+03  0.16928694393E+03  0.00000000000E+00 0. -1.
         -1    1    3    3    0  502  0.27912184683E+03 -0.49417001574E+02 -0.12784440854E+03  0.31095857959E+03  0.00000000000E+00 0.  1.
         13    1    5    5    0    0  0.95893805055E+01 -0.26798985185E+01 -0.11543149451E+02  0.15244093079E+02  0.00000000000E+00 0. -1.
        -13    1    5    5    0    0 -0.42092140678E+02  0.21798744156E+03 -0.98966929827E+03  0.10142660366E+04  0.00000000000E+00 0.  1.
          3    1    6    6  503    0 -0.13261648150E+01 -0.32266301705E+01  0.33324254586E+01  0.48244082342E+01  0.00000000000E+00 0. -1.
         -3    1    6    6    0  503 -0.36174485595E+03 -0.14858722933E+03 -0.56552384433E+03  0.68757161375E+03  0.00000000000E+00 0.  1.
<mgrwt>
<rscale>  0 0.51364698E+03</rscale>
<asrwt>0</asrwt>
<pdfrwt beam="1">  1        2 0.30888161E+00 0.51364698E+03</pdfrwt>
<pdfrwt beam="2">  1       -2 0.29910961E-01 0.51364698E+03</pdfrwt>
<totfact> 0.72406623E+01</totfact>
</mgrwt>
</event>
<event>
12    1  0.1432447E-007  0.5084763E+03  0.7818608E-02  0.1011590E+00
          2   -1    0    0  501    0  0.00000000000E+00  0.00000000000E+00  0.50985878731E+03  0.50985878731E+03  0.00000000000E+00 0.  1.
         -2   -1    0    0    0  501 -0.00000000000E+00 -0.00000000000E+00 -0.53861533593E+03  0.53861533593E+03  0.00000000000E+00 0. -1.
         23    2    1    2    0    0 -0.19551384891E+03 -0.27421147659E+03 -0.78397927237E+02  0.35870645458E+03  0.95427912871E+02 0.  0.
    5000000    2    1    2    0    0  0.19551384891E+03  0.27421147659E+03  0.49641378622E+02  0.68976766866E+03  0.59991463663E+03 0.  0.
         23    2    4    4    0    0  0.71264474836E+02 -0.17016495024E+03 -0.44096930693E+02  0.21058866126E+03  0.91478463548E+02 0.  0.
         23    2    4    4    0    0  0.12424937408E+03  0.44437642682E+03  0.93738309315E+02  0.47917900740E+03  0.88979406722E+02 0.  0.
          1    1    3    3  502    0 -0.72152615992E+02 -0.36907953346E+02 -0.32627167194E+02  0.87365491207E+02  0.00000000000E+00 0. -1.
         -1    1    3    3    0  502 -0.12336123292E+03 -0.23730352324E+03 -0.45770760043E+02  0.27134096338E+03  0.00000000000E+00 0.  1.
         13    1    5    5    0    0  0.85689059839E+02 -0.94689874166E+02 -0.15695490557E+02  0.12866676210E+03  0.00000000000E+00 0. -1.
        -13    1    5    5    0    0 -0.14424585004E+02 -0.75475076071E+02 -0.28401440136E+02  0.81921899161E+02  0.00000000000E+00 0.  1.
          3    1    6    6  503    0  0.63236096054E+02  0.14208901367E+03 -0.43070157412E+01  0.15558483871E+03  0.00000000000E+00 0. -1.
         -3    1    6    6    0  503  0.61013278023E+02  0.30228741315E+03  0.98045325057E+02  0.32359416869E+03  0.00000000000E+00 0.  1.
<mgrwt>
<rscale>  0 0.50847634E+03</rscale>
<asrwt>0</asrwt>
<pdfrwt beam="1">  1        2 0.78439814E-01 0.50847634E+03</pdfrwt>
<pdfrwt beam="2">  1       -2 0.82863897E-01 0.50847634E+03</pdfrwt>
<totfact> 0.79039772E+01</totfact>
</mgrwt>
</event>
<event>
12    1  0.1432447E-007  0.1246130E+04  0.7818608E-02  0.9073411E-01
          1   -1    0    0  501    0  0.00000000000E+00  0.00000000000E+00  0.17494331343E+04  0.17494331343E+04  0.00000000000E+00 0. -1.
         -1   -1    0    0    0  501 -0.00000000000E+00 -0.00000000000E+00 -0.94565019287E+03  0.94565019287E+03  0.00000000000E+00 0.  1.
         23    2    1    2    0    0 -0.11978117105E+04  0.69623363552E+00  0.17113490690E+03  0.12135389281E+04  0.92931131556E+02 0.  0.
    5000000    2    1    2    0    0  0.11978117105E+04 -0.69623363552E+00  0.63264803450E+03  0.14815443990E+04  0.59998074312E+03 0.  0.
         23    2    4    4    0    0  0.79603062824E+03 -0.21885082446E+03  0.21785400267E+03  0.85803914583E+03  0.84913867138E+02 0.  0.
         23    2    4    4    0    0  0.40178108225E+03  0.21815459083E+03  0.41479403183E+03  0.62350525317E+03  0.87665548138E+02 0.  0.
          2    1    3    3  502    0 -0.82377807802E+03 -0.41156521478E+02  0.10629504243E+03  0.83162660920E+03  0.00000000000E+00 0. -1.
         -2    1    3    3    0  502 -0.37403363248E+03  0.41852755114E+02  0.64839864470E+02  0.38191231894E+03  0.00000000000E+00 0.  1.
         13    1    5    5    0    0  0.16790940271E+03 -0.43503679292E+02  0.10668453069E+02  0.17378133824E+03  0.00000000000E+00 0. -1.
        -13    1    5    5    0    0  0.62812122553E+03 -0.17534714517E+03  0.20718554960E+03  0.68425780759E+03  0.00000000000E+00 0.  1.
          1    1    6    6  503    0  0.22012553755E+03  0.16838816081E+03  0.24982403694E+03  0.37312447576E+03  0.00000000000E+00 0. -1.
         -1    1    6    6    0  503  0.18165554471E+03  0.49766430018E+02  0.16496999489E+03  0.25038077740E+03  0.00000000000E+00 0.  1.
<mgrwt>
<rscale>  0 0.12461296E+04</rscale>
<asrwt>0</asrwt>
<pdfrwt beam="1">  1        1 0.26914356E+00 0.12461296E+04</pdfrwt>
<pdfrwt beam="2">  1       -1 0.14548465E+00 0.12461296E+04</pdfrwt>
<totfact> 0.16308995E+00</totfact>
</mgrwt>
</event>
<event>
12    1  0.1432447E-007  0.5414198E+03  0.7818608E-02  0.1003500E+00
         -1   -1    0    0    0  501 -0.00000000000E+00  0.00000000000E+00  0.57784308636E+03  0.57784308636E+03  0.00000000000E+00 0.  1.
          1   -1    0    0  501    0  0.00000000000E+00 -0.00000000000E+00 -0.82248520578E+03  0.82248520578E+03  0.00000000000E+00 0. -1.
         23    2    1    2    0    0 -0.34226772510E+01 -0.38164423114E+03 -0.50837459324E+03  0.64193999665E+03  0.89320761142E+02 0.  0.
    5000000    2    1    2    0    0  0.34226772510E+01  0.38164423114E+03  0.26373247382E+03  0.75838829548E+03  0.59994496006E+03 0.  0.
         23    2    4    4    0    0  0.11753833549E+03  0.49462577825E+03  0.13879777719E+03  0.53502233920E+03  0.92272204204E+02 0.  0.
         23    2    4    4    0    0 -0.11411565824E+03 -0.11298154711E+03  0.12493469664E+03  0.22336595629E+03  0.92176236422E+02 0.  0.
          1    1    3    3  502    0  0.52307225009E+01 -0.14266878647E+03 -0.12321391110E+03  0.18858263700E+03  0.00000000000E+00 0. -1.
         -1    1    3    3    0  502 -0.86533997520E+01 -0.23897544467E+03 -0.38516068214E+03  0.45335735965E+03  0.00000000000E+00 0.  1.
         11    1    5    5    0    0  0.65757978334E+02  0.11065864563E+03  0.45268236096E+02  0.13645021351E+03  0.00000000000E+00 0.  1.
        -11    1    5    5    0    0  0.51780357157E+02  0.38396713262E+03  0.93529541090E+02  0.39857212569E+03  0.00000000000E+00 0. -1.
          3    1    6    6  503    0 -0.11978629320E+03 -0.64658388806E+02  0.98225851044E+02  0.16786238737E+03  0.00000000000E+00 0. -1.
         -3    1    6    6    0  503  0.56706349559E+01 -0.48323158307E+02  0.26708845592E+02  0.55503568916E+02  0.00000000000E+00 0.  1.
<mgrwt>
<rscale>  0 0.54141982E+03</rscale>
<asrwt>0</asrwt>
<pdfrwt beam="1">  1        1 0.12653618E+00 0.54141982E+03</pdfrwt>
<pdfrwt beam="2">  1       -1 0.88898937E-01 0.54141982E+03</pdfrwt>
<totfact> 0.27654810E+01</totfact>
</mgrwt>
</event>
<event>
12    1  0.1432447E-007  0.5197725E+03  0.7818608E-02  0.1008743E+00
          1   -1    0    0  501    0  0.00000000000E+00  0.00000000000E+00  0.76877454544E+03  0.76877454544E+03  0.00000000000E+00 0. -1.
         -1   -1    0    0    0  501 -0.00000000000E+00 -0.00000000000E+00 -0.60072400394E+03  0.60072400394E+03  0.00000000000E+00 0.  1.
         23    2    1    2    0    0  0.22621751506E+03  0.27855985274E+03 -0.34190925959E+03  0.50425220407E+03  0.92727492377E+02 0.  0.
    5000000    2    1    2    0    0 -0.22621751506E+03 -0.27855985274E+03  0.50995980109E+03  0.86524634531E+03  0.59985188477E+03 0.  0.
         23    2    4    4    0    0  0.92320579661E+02  0.11890689199E+03  0.84612021380E+02  0.19530819778E+03  0.91236832286E+02 0.  0.
         23    2    4    4    0    0 -0.31853809472E+03 -0.39746674473E+03  0.42534777971E+03  0.66993814753E+03  0.91924190835E+02 0.  0.
          1    1    3    3  502    0  0.15335233428E+03  0.11577686355E+03 -0.18415449153E+03  0.26614675898E+03  0.00000000000E+00 0. -1.
         -1    1    3    3    0  502  0.72865180773E+02  0.16278298919E+03 -0.15775476806E+03  0.23810544509E+03  0.00000000000E+00 0.  1.
         11    1    5    5    0    0  0.25198889858E+02  0.51172068645E+02  0.82032415366E+02  0.99914372491E+02  0.00000000000E+00 0. -1.
        -11    1    5    5    0    0  0.67121689803E+02  0.67734823346E+02  0.25796060137E+01  0.95393825287E+02  0.00000000000E+00 0.  1.
          1    1    6    6  503    0 -0.13327722592E+03 -0.10168102217E+03  0.15715063902E+03  0.22977852937E+03  0.00000000000E+00 0. -1.
         -1    1    6    6    0  503 -0.18526086880E+03 -0.29578572257E+03  0.26819714069E+03  0.44015961815E+03  0.00000000000E+00 0.  1.
<mgrwt>
<rscale>  0 0.51977248E+03</rscale>
<asrwt>0</asrwt>
<pdfrwt beam="1">  1        1 0.11827301E+00 0.51977248E+03</pdfrwt>
<pdfrwt beam="2">  1       -1 0.92419078E-01 0.51977248E+03</pdfrwt>
<totfact> 0.28345360E+01</totfact>
</mgrwt>
</event>
<event>
12    1  0.1432447E-007  0.5531285E+03  0.7818608E-02  0.1000772E+00
         -1   -1    0    0    0  501 -0.00000000000E+00  0.00000000000E+00  0.31261487993E+03  0.31261487993E+03  0.00000000000E+00 0.  1.
          1   -1    0    0  501    0  0.00000000000E+00 -0.00000000000E+00 -0.13040119828E+04  0.13040119828E+04  0.00000000000E+00 0. -1.
         23    2    1    2    0    0 -0.35803282835E+03 -0.33295591049E+03 -0.31382234645E+03  0.58795117327E+03  0.90304886435E+02 0.  0.
    5000000    2    1    2    0    0  0.35803282835E+03  0.33295591049E+03 -0.67757475637E+03  0.10286756894E+04  0.60001581563E+03 0.  0.
         23    2    4    4    0    0 -0.33816009041E+01  0.18306094081E+03 -0.57719433483E+03  0.61308593504E+03  0.95907874087E+02 0.  0.
         23    2    4    4    0    0  0.36141442925E+03  0.14989496969E+03 -0.10038042154E+03  0.41558975437E+03  0.97722685684E+02 0.  0.
          1    1    3    3  502    0 -0.67285313479E+02 -0.11704744120E+03 -0.88471004021E+02  0.16141417365E+03  0.00000000000E+00 0. -1.
         -1    1    3    3    0  502 -0.29074751487E+03 -0.21590846929E+03 -0.22535134243E+03  0.42653699963E+03  0.00000000000E+00 0.  1.
         13    1    5    5    0    0  0.44371699020E+02  0.62160981347E+02 -0.23054031148E+03  0.24286142240E+03  0.00000000000E+00 0.  1.
        -13    1    5    5    0    0 -0.47753299924E+02  0.12089995946E+03 -0.34665402335E+03  0.37022451264E+03  0.00000000000E+00 0. -1.
          4    1    6    6  503    0  0.23053746047E+03  0.44712246317E+02 -0.47847751676E+02  0.23965832552E+03  0.00000000000E+00 0. -1.
         -4    1    6    6    0  503  0.13087696878E+03  0.10518272337E+03 -0.52532669862E+02  0.17593142884E+03  0.00000000000E+00 0.  1.
<mgrwt>
<rscale>  0 0.55312847E+03</rscale>
<asrwt>0</asrwt>
<pdfrwt beam="1">  1        1 0.20061723E+00 0.55312847E+03</pdfrwt>
<pdfrwt beam="2">  1       -1 0.48094597E-01 0.55312847E+03</pdfrwt>
<totfact> 0.40944196E+01</totfact>
</mgrwt>
</event>
<event>
12    1  0.1432447E-007  0.4500680E+03  0.7818608E-02  0.1027702E+00
         -1   -1    0    0    0  501 -0.00000000000E+00  0.00000000000E+00  0.75824288579E+03  0.75824288579E+03  0.00000000000E+00 0.  1.
          1   -1    0    0  501    0  0.00000000000E+00 -0.00000000000E+00 -0.38138988710E+03  0.38138988710E+03  0.00000000000E+00 0. -1.
         23    2    1    2    0    0 -0.30884626395E+03  0.10849647999E+03  0.29311194076E+03  0.45099016869E+03  0.10158750667E+03 0.  0.
    5000000    2    1    2    0    0  0.30884626395E+03 -0.10849647999E+03  0.83741057929E+02  0.68864260420E+03  0.60004880686E+03 0.  0.
         23    2    4    4    0    0  0.16496172522E+03 -0.27056994435E+03 -0.14458470584E+03  0.36085643927E+03  0.94298287492E+02 0.  0.
         23    2    4    4    0    0  0.14388453874E+03  0.16207346436E+03  0.22832576377E+03  0.32778616493E+03  0.91326596234E+02 0.  0.
          3    1    3    3  502    0 -0.30205237938E+02  0.48014892668E+02  0.61289536123E+02  0.83511637243E+02  0.00000000000E+00 0. -1.
         -3    1    3    3    0  502 -0.27864102602E+03  0.60481587323E+02  0.23182240464E+03  0.36747853145E+03  0.00000000000E+00 0.  1.
         13    1    5    5    0    0  0.14813182162E+02 -0.83636754725E+02 -0.69073464949E+02  0.10947913348E+03  0.00000000000E+00 0. -1.
        -13    1    5    5    0    0  0.15014854305E+03 -0.18693318963E+03 -0.75511240895E+02  0.25137730579E+03  0.00000000000E+00 0.  1.
          3    1    6    6  503    0  0.42021097856E+01  0.61036054676E+02  0.77407333329E+02  0.98665865172E+02  0.00000000000E+00 0. -1.
         -3    1    6    6    0  503  0.13968242895E+03  0.10103740969E+03  0.15091843044E+03  0.22912029976E+03  0.00000000000E+00 0.  1.
<mgrwt>
<rscale>  0 0.45006798E+03</rscale>
<asrwt>0</asrwt>
<pdfrwt beam="1">  1        1 0.58675367E-01 0.45006798E+03</pdfrwt>
<pdfrwt beam="2">  1       -1 0.11665275E+00 0.45006798E+03</pdfrwt>
<totfact> 0.44718263E+01</totfact>
</mgrwt>
</event>
<event>
12    1  0.1432447E-007  0.5106335E+03  0.7818608E-02  0.1011040E+00
          2   -1    0    0  501    0  0.00000000000E+00  0.00000000000E+00  0.22864553532E+04  0.22864553532E+04  0.00000000000E+00 0.  1.
         -2   -1    0    0    0  501 -0.00000000000E+00 -0.00000000000E+00 -0.18293775155E+03  0.18293775155E+03  0.00000000000E+00 0. -1.
         23    2    1    2    0    0  0.41506327482E+03  0.23608377664E+03  0.11296492644E+04  0.12298984581E+04  0.92356293998E+02 0.  0.
    5000000    2    1    2    0    0 -0.41506327482E+03 -0.23608377664E+03  0.97386833734E+03  0.12394946467E+04  0.59992863666E+03 0.  0.
         23    2    4    4    0    0 -0.72757248215E+02  0.10537703374E+02  0.73922789976E+03  0.74842110227E+03  0.90948327040E+02 0.  0.
         23    2    4    4    0    0 -0.34230602660E+03 -0.24662148001E+03  0.23464043758E+03  0.49107354444E+03  0.90008448790E+02 0.  0.
          3    1    3    3  502    0  0.18870829956E+03  0.12459239636E+03  0.42463569033E+03  0.48109204635E+03  0.00000000000E+00 0. -1.
         -3    1    3    3    0  502  0.22635497526E+03  0.11149138028E+03  0.70501357403E+03  0.74880641174E+03  0.00000000000E+00 0.  1.
         13    1    5    5    0    0 -0.67725637626E+02  0.45104521373E+02  0.55156859013E+03  0.55753841971E+03  0.00000000000E+00 0. -1.
        -13    1    5    5    0    0 -0.50316105891E+01 -0.34566817999E+02  0.18765930963E+03  0.19088268256E+03  0.00000000000E+00 0.  1.
          2    1    6    6  503    0 -0.23335714836E+03 -0.13084975332E+03  0.18213892090E+03  0.32365383227E+03  0.00000000000E+00 0. -1.
         -2    1    6    6    0  503 -0.10894887824E+03 -0.11577172669E+03  0.52501516679E+02  0.16741971218E+03  0.00000000000E+00 0.  1.
<mgrwt>
<rscale>  0 0.51063355E+03</rscale>
<asrwt>0</asrwt>
<pdfrwt beam="1">  1        2 0.35176234E+00 0.51063355E+03</pdfrwt>
<pdfrwt beam="2">  1       -2 0.28144271E-01 0.51063355E+03</pdfrwt>
<totfact> 0.57176137E+01</totfact>
</mgrwt>
</event>
<event>
12    1  0.1432447E-007  0.1402287E+04  0.7818608E-02  0.8952164E-01
         -1   -1    0    0    0  501 -0.00000000000E+00  0.00000000000E+00  0.90585439630E+03  0.90585439630E+03  0.00000000000E+00 0.  1.
          1   -1    0    0  501    0  0.00000000000E+00 -0.00000000000E+00 -0.25072620532E+04  0.25072620532E+04  0.00000000000E+00 0. -1.
         23    2    1    2    0    0 -0.81079397729E+03  0.11329530661E+04 -0.12074599300E+04  0.18459059659E+04  0.91868540790E+02 0.  0.
    5000000    2    1    2    0    0  0.81079397729E+03 -0.11329530661E+04 -0.39394772692E+03  0.15672104836E+04  0.59998697062E+03 0.  0.
         23    2    4    4    0    0  0.46777225732E+03 -0.78335595141E+03 -0.51863759262E+03  0.10532890171E+04  0.89304926018E+02 0.  0.
         23    2    4    4    0    0  0.34302171996E+03 -0.34959711468E+03  0.12468986570E+03  0.51392146650E+03  0.93196932168E+02 0.  0.
          4    1    3    3  502    0 -0.68285661631E+02  0.13284492029E+03 -0.15420156866E+03  0.21468308785E+03  0.00000000000E+00 0. -1.
         -4    1    3    3    0  502 -0.74250831566E+03  0.10001081458E+04 -0.10532583614E+04  0.16312228780E+04  0.00000000000E+00 0.  1.
         11    1    5    5    0    0  0.16163228938E+03 -0.20706220500E+03 -0.17657908556E+03  0.31651212799E+03  0.00000000000E+00 0. -1.
        -11    1    5    5    0    0  0.30613996794E+03 -0.57629374641E+03 -0.34205850706E+03  0.73677688914E+03  0.00000000000E+00 0.  1.
          4    1    6    6  503    0  0.20533675337E+03 -0.25459993752E+03  0.11370253956E+03  0.34628395569E+03  0.00000000000E+00 0.  1.
         -4    1    6    6    0  503  0.13768496660E+03 -0.94997177158E+02  0.10987326145E+02  0.16763751081E+03  0.00000000000E+00 0. -1.
<mgrwt>
<rscale>  0 0.14022874E+04</rscale>
<asrwt>0</asrwt>
<pdfrwt beam="1">  1        1 0.38573262E+00 0.14022874E+04</pdfrwt>
<pdfrwt beam="2">  1       -1 0.13936222E+00 0.14022874E+04</pdfrwt>
<totfact> 0.54646285E-01</totfact>
</mgrwt>
</event>
<event>
12    1  0.1432447E-007  0.9152020E+03  0.7818608E-02  0.9406775E-01
          2   -1    0    0  501    0  0.00000000000E+00  0.00000000000E+00  0.14537424510E+04  0.14537424510E+04  0.00000000000E+00 0. -1.
         -2   -1    0    0    0  501 -0.00000000000E+00 -0.00000000000E+00 -0.90994839854E+03  0.90994839854E+03  0.00000000000E+00 0.  1.
         23    2    1    2    0    0  0.98154809141E+02 -0.86176897942E+03  0.89672782685E+03  0.12515697402E+04  0.10012931007E+03 0.  0.
    5000000    2    1    2    0    0 -0.98154809141E+02  0.86176897942E+03 -0.35293377437E+03  0.11121211093E+04  0.59997580979E+03 0.  0.
         23    2    4    4    0    0 -0.18148754230E+03  0.14349438953E+03  0.88224405740E+02  0.26021837888E+03  0.80010568679E+02 0.  0.
         23    2    4    4    0    0  0.83332733160E+02  0.71827458989E+03 -0.44115818011E+03  0.85190273047E+03  0.90856983335E+02 0.  0.
          3    1    3    3  502    0  0.21647634522E+01 -0.45869247315E+03  0.47816482079E+03  0.66260475924E+03  0.00000000000E+00 0. -1.
         -3    1    3    3    0  502  0.95990045689E+02 -0.40307650626E+03  0.41856300606E+03  0.58896498097E+03  0.00000000000E+00 0.  1.
         13    1    5    5    0    0 -0.12993620935E+03  0.93811381835E+02  0.98163152639E+02  0.18793615511E+03  0.00000000000E+00 0. -1.
        -13    1    5    5    0    0 -0.51551332950E+02  0.49683007695E+02 -0.99387468988E+01  0.72282223765E+02  0.00000000000E+00 0.  1.
          1    1    6    6  503    0  0.72272698923E+02  0.36685300916E+03 -0.26763839779E+03  0.45982038375E+03  0.00000000000E+00 0. -1.
         -1    1    6    6    0  503  0.11060034237E+02  0.35142158073E+03 -0.17351978231E+03  0.39208234672E+03  0.00000000000E+00 0.  1.
<mgrwt>
<rscale>  0 0.91520203E+03</rscale>
<asrwt>0</asrwt>
<pdfrwt beam="1">  1        2 0.22365268E+00 0.91520203E+03</pdfrwt>
<pdfrwt beam="2">  1       -2 0.13999206E+00 0.91520203E+03</pdfrwt>
<totfact> 0.48558096E+00</totfact>
</mgrwt>
</event>
<event>
12    1  0.1432447E-007  0.1486403E+04  0.7818608E-02  0.8893545E-01
          2   -1    0    0  501    0  0.00000000000E+00  0.00000000000E+00  0.30609974682E+04  0.30609974682E+04  0.00000000000E+00 0.  1.
         -2   -1    0    0    0  501 -0.00000000000E+00 -0.00000000000E+00 -0.10080004559E+04  0.10080004559E+04  0.00000000000E+00 0. -1.
         23    2    1    2    0    0  0.55962753018E+03  0.13633901930E+04  0.61518806927E+01  0.14763874190E+04  0.87556694109E+02 0.  0.
    5000000    2    1    2    0    0 -0.55962753018E+03 -0.13633901930E+04  0.20468451316E+04  0.25926105051E+04  0.60003203884E+03 0.  0.
         23    2    4    4    0    0 -0.13606704187E+03 -0.59452312389E+03  0.43456460409E+03  0.75466874257E+03  0.93308794638E+02 0.  0.
         23    2    4    4    0    0 -0.42356048831E+03 -0.76886706907E+03  0.16122805275E+04  0.18379417625E+04  0.89562078680E+02 0.  0.
          3    1    3    3  502    0  0.26236378566E+03  0.72481456188E+03  0.32460620829E+02  0.77152096345E+03  0.00000000000E+00 0. -1.
         -3    1    3    3    0  502  0.29726374452E+03  0.63857563108E+03 -0.26308740137E+02  0.70486645560E+03  0.00000000000E+00 0.  1.
         13    1    5    5    0    0 -0.14787396538E+03 -0.53234570391E+03  0.40356875129E+03  0.68419762871E+03  0.00000000000E+00 0.  1.
        -13    1    5    5    0    0  0.11806923506E+02 -0.62177419984E+02  0.30995852794E+02  0.70471113862E+02  0.00000000000E+00 0. -1.
          3    1    6    6  503    0 -0.12826547513E+03 -0.15966262919E+03  0.34712580125E+03  0.40303909136E+03  0.00000000000E+00 0. -1.
         -3    1    6    6    0  503 -0.29529501317E+03 -0.60920443987E+03  0.12651547262E+04  0.14349026712E+04  0.00000000000E+00 0.  1.
<mgrwt>
<rscale>  0 0.14864034E+04</rscale>
<asrwt>0</asrwt>
<pdfrwt beam="1">  1        2 0.47092268E+00 0.14864034E+04</pdfrwt>
<pdfrwt beam="2">  1       -2 0.15507700E+00 0.14864034E+04</pdfrwt>
<totfact> 0.41463419E-01</totfact>
</mgrwt>
</event>
<event>
12    1  0.1432447E-007  0.3338120E+03  0.7818608E-02  0.1069463E+00
          1   -1    0    0  501    0  0.00000000000E+00  0.00000000000E+00  0.12979568712E+04  0.12979568712E+04  0.00000000000E+00 0. -1.
         -1   -1    0    0    0  501 -0.00000000000E+00 -0.00000000000E+00 -0.31657946418E+03  0.31657946418E+03  0.00000000000E+00 0.  1.
         23    2    1    2    0    0 -0.22343820156E+03 -0.50184888029E+02  0.93930184552E+03  0.97090244718E+03  0.88996921470E+02 0.  0.
    5000000    2    1    2    0    0  0.22343820156E+03  0.50184888029E+02  0.42075561515E+02  0.64363388823E+03  0.60004256207E+03 0.  0.
         23    2    4    4    0    0  0.16050590685E+03  0.19459828945E+03 -0.20578268722E+03  0.33789947694E+03  0.90547787171E+02 0.  0.
         23    2    4    4    0    0  0.62932294709E+02 -0.14441340143E+03  0.24785824873E+03  0.30573441129E+03  0.84994791340E+02 0.  0.
          4    1    3    3  502    0 -0.20985302253E+02  0.17124148458E+02  0.18634400442E+03  0.18830217034E+03  0.00000000000E+00 0. -1.
         -4    1    3    3    0  502 -0.20245289931E+03 -0.67309036487E+02  0.75295784110E+03  0.78260027684E+03  0.00000000000E+00 0.  1.
         13    1    5    5    0    0 -0.11855745361E+02  0.11062099130E+02 -0.13267662208E+02  0.20951362621E+02  0.00000000000E+00 0.  1.
        -13    1    5    5    0    0  0.17236165221E+03  0.18353619032E+03 -0.19251502501E+03  0.31694811431E+03  0.00000000000E+00 0. -1.
          4    1    6    6  503    0  0.54788551645E+02 -0.99871456338E+02  0.10164020365E+03  0.15266572693E+03  0.00000000000E+00 0. -1.
         -4    1    6    6    0  503  0.81437430647E+01 -0.44541945088E+02  0.14621804508E+03  0.15306868436E+03  0.00000000000E+00 0.  1.
<mgrwt>
<rscale>  0 0.33381199E+03</rscale>
<asrwt>0</asrwt>
<pdfrwt beam="1">  1        1 0.19968567E+00 0.33381199E+03</pdfrwt>
<pdfrwt beam="2">  1       -1 0.48704534E-01 0.33381199E+03</pdfrwt>
<totfact> 0.42143008E+01</totfact>
</mgrwt>
</event>
<event>
12    1  0.1432447E-007  0.2165694E+04  0.7818608E-02  0.8532844E-01
          2   -1    0    0  501    0  0.00000000000E+00  0.00000000000E+00  0.23509293639E+04  0.23509293639E+04  0.00000000000E+00 0. -1.
         -2   -1    0    0    0  501 -0.00000000000E+00 -0.00000000000E+00 -0.21352493427E+04  0.21352493427E+04  0.00000000000E+00 0.  1.
         23    2    1    2    0    0  0.12426238130E+04  0.17561631688E+04 -0.35178723492E+03  0.21818094167E+04  0.91186928824E+02 0.  0.
    5000000    2    1    2    0    0 -0.12426238130E+04 -0.17561631688E+04  0.56746725616E+03  0.23043692900E+04  0.59989642583E+03 0.  0.
         23    2    4    4    0    0 -0.11413868399E+04 -0.14765840238E+04  0.29689115746E+03  0.18920808579E+04  0.93601901062E+02 0.  0.
         23    2    4    4    0    0 -0.10123697312E+03 -0.27957914495E+03  0.27057609871E+03  0.41228843204E+03  0.91416098075E+02 0.  0.
          1    1    3    3  502    0  0.10179341413E+04  0.13749113070E+04 -0.28106940109E+03  0.17336582784E+04  0.00000000000E+00 0. -1.
         -1    1    3    3    0  502  0.22468967170E+03  0.38125186182E+03 -0.70717833825E+02  0.44815113827E+03  0.00000000000E+00 0.  1.
         13    1    5    5    0    0 -0.83495214479E+03 -0.11180946879E+04  0.25560216111E+03  0.14186660213E+04  0.00000000000E+00 0.  1.
        -13    1    5    5    0    0 -0.30643469507E+03 -0.35848933590E+03  0.41288996352E+02  0.47341483660E+03  0.00000000000E+00 0. -1.
          3    1    6    6  503    0  0.85052228108E+01 -0.10173459969E+03  0.87158081000E+02  0.13423411889E+03  0.00000000000E+00 0. -1.
         -3    1    6    6    0  503 -0.10974219593E+03 -0.17784454526E+03  0.18341801770E+03  0.27805431316E+03  0.00000000000E+00 0.  1.
<mgrwt>
<rscale>  0 0.21656939E+04</rscale>
<asrwt>0</asrwt>
<pdfrwt beam="1">  1        2 0.36168144E+00 0.21656939E+04</pdfrwt>
<pdfrwt beam="2">  1       -2 0.32849990E+00 0.21656939E+04</pdfrwt>
<totfact> 0.78460388E-02</totfact>
</mgrwt>
</event>
<event>
12    1  0.1432447E-007  0.1708145E+04  0.7818608E-02  0.8756733E-01
          2   -1    0    0  501    0  0.00000000000E+00  0.00000000000E+00  0.28222580171E+04  0.28222580171E+04  0.00000000000E+00 0. -1.
         -2   -1    0    0    0  501 -0.00000000000E+00 -0.00000000000E+00 -0.13081991995E+04  0.13081991995E+04  0.00000000000E+00 0.  1.
         23    2    1    2    0    0 -0.13074076408E+04  0.10278586889E+04  0.16661388302E+04  0.23559406004E+04  0.92893958587E+02 0.  0.
    5000000    2    1    2    0    0  0.13074076408E+04 -0.10278586889E+04 -0.15208001270E+03  0.17745166162E+04  0.59997722246E+03 0.  0.
         23    2    4    4    0    0  0.12811302913E+04 -0.79418694662E+03 -0.86563800094E+02  0.15125452657E+04  0.90951413439E+02 0.  0.
         23    2    4    4    0    0  0.26277349425E+02 -0.23367174226E+03 -0.65516212609E+02  0.26197135054E+03  0.95098013471E+02 0.  0.
          2    1    3    3  502    0 -0.92741664274E+03  0.67689873683E+03  0.11665563646E+04  0.16368100931E+04  0.00000000000E+00 0. -1.
         -2    1    3    3    0  502 -0.37999099803E+03  0.35095995206E+03  0.49958246560E+03  0.71913050726E+03  0.00000000000E+00 0.  1.
         11    1    5    5    0    0  0.95359235595E+03 -0.55050683487E+03 -0.42151933771E+02  0.11018951593E+04  0.00000000000E+00 0.  1.
        -11    1    5    5    0    0  0.32753793539E+03 -0.24368011176E+03 -0.44411866323E+02  0.41065010636E+03  0.00000000000E+00 0. -1.
          1    1    6    6  503    0 -0.70214379549E+01 -0.16553484181E+03 -0.63877194813E+01  0.16580677732E+03  0.00000000000E+00 0. -1.
         -1    1    6    6    0  503  0.33298787380E+02 -0.68136900452E+02 -0.59128493128E+02  0.96164573226E+02  0.00000000000E+00 0.  1.
<mgrwt>
<rscale>  0 0.17081448E+04</rscale>
<asrwt>0</asrwt>
<pdfrwt beam="1">  1        2 0.43419354E+00 0.17081448E+04</pdfrwt>
<pdfrwt beam="2">  1       -2 0.20126142E+00 0.17081448E+04</pdfrwt>
<totfact> 0.26897917E-01</totfact>
</mgrwt>
</event>
<event>
12    1  0.1432447E-007  0.6346956E+03  0.7818608E-02  0.9835928E-01
         -2   -1    0    0    0  501 -0.00000000000E+00  0.00000000000E+00  0.42413369340E+03  0.42413369340E+03  0.00000000000E+00 0.  1.
          2   -1    0    0  501    0  0.00000000000E+00 -0.00000000000E+00 -0.13569149396E+04  0.13569149396E+04  0.00000000000E+00 0. -1.
         23    2    1    2    0    0  0.19618508584E+03 -0.48124704706E+03  0.35774355375E+02  0.52874006037E+03  0.90547991313E+02 0.  0.
    5000000    2    1    2    0    0 -0.19618508584E+03  0.48124704706E+03 -0.96855560160E+03  0.12523085727E+04  0.60007457831E+03 0.  0.
         23    2    4    4    0    0 -0.10366349298E+03  0.59317221888E+03 -0.84000553402E+03  0.10376268843E+04  0.91982894258E+02 0.  0.
         23    2    4    4    0    0 -0.92521592864E+02 -0.11192517182E+03 -0.12855006758E+03  0.21468168834E+03  0.92063120735E+02 0.  0.
          2    1    3    3  502    0  0.10229093032E+03 -0.26422597638E+03 -0.25464021716E+02  0.28447709472E+03  0.00000000000E+00 0. -1.
         -2    1    3    3    0  502  0.93894155522E+02 -0.21702107068E+03  0.61238377090E+02  0.24426296565E+03  0.00000000000E+00 0.  1.
         13    1    5    5    0    0 -0.70496988554E+02  0.40302899300E+03 -0.49407187925E+03  0.64148984128E+03  0.00000000000E+00 0. -1.
        -13    1    5    5    0    0 -0.33166504426E+02  0.19014322588E+03 -0.34593365477E+03  0.39613704304E+03  0.00000000000E+00 0.  1.
          3    1    6    6  503    0 -0.37594302732E+01  0.91024343983E+00  0.12703177509E+02  0.13279027747E+02  0.00000000000E+00 0. -1.
         -3    1    6    6    0  503 -0.88762162591E+02 -0.11283541526E+03 -0.14125324509E+03  0.20140266059E+03  0.00000000000E+00 0.  1.
<mgrwt>
<rscale>  0 0.63469560E+03</rscale>
<asrwt>0</asrwt>
<pdfrwt beam="1">  1        2 0.20875615E+00 0.63469560E+03</pdfrwt>
<pdfrwt beam="2">  1       -2 0.65251336E-01 0.63469560E+03</pdfrwt>
<totfact> 0.34316531E+01</totfact>
</mgrwt>
</event>
<event>
12    1  0.1432447E-007  0.6404444E+03  0.7818608E-02  0.9824877E-01
          1   -1    0    0  501    0  0.00000000000E+00  0.00000000000E+00  0.93117674899E+03  0.93117674899E+03  0.00000000000E+00 0.  1.
         -1   -1    0    0    0  501 -0.00000000000E+00 -0.00000000000E+00 -0.67888004885E+03  0.67888004885E+03  0.00000000000E+00 0. -1.
         23    2    1    2    0    0 -0.70836936267E+02  0.59747334018E+03 -0.20872450057E+03  0.64334091468E+03  0.91265281425E+02 0.  0.
    5000000    2    1    2    0    0  0.70836936267E+02 -0.59747334018E+03  0.46102120071E+03  0.96671588316E+03  0.60000565622E+03 0.  0.
         23    2    4    4    0    0 -0.48816216572E+02 -0.47055155026E+03  0.56572032724E+03  0.74303657491E+03  0.90895976530E+02 0.  0.
         23    2    4    4    0    0  0.11965315284E+03 -0.12692178992E+03 -0.10469912654E+03  0.22367930825E+03  0.92975846870E+02 0.  0.
          2    1    3    3  502    0 -0.45922636494E+01  0.27094585304E+03 -0.55466180097E+02  0.27660303921E+03  0.00000000000E+00 0. -1.
         -2    1    3    3    0  502 -0.66244672618E+02  0.32652748714E+03 -0.15325832048E+03  0.36673787547E+03  0.00000000000E+00 0.  1.
         13    1    5    5    0    0  0.23060670183E+02 -0.92674963396E+02  0.13765995476E+03  0.16754314815E+03  0.00000000000E+00 0. -1.
        -13    1    5    5    0    0 -0.71876886754E+02 -0.37787658686E+03  0.42806037249E+03  0.57549342676E+03  0.00000000000E+00 0.  1.
          3    1    6    6  503    0  0.60943373535E+02 -0.48748031758E+01 -0.43654700338E+02  0.75123840061E+02  0.00000000000E+00 0. -1.
         -3    1    6    6    0  503  0.58709779304E+02 -0.12204698674E+03 -0.61044426197E+02  0.14855546819E+03  0.00000000000E+00 0.  1.
<mgrwt>
<rscale>  0 0.64044442E+03</rscale>
<asrwt>0</asrwt>
<pdfrwt beam="1">  1        1 0.14325796E+00 0.64044442E+03</pdfrwt>
<pdfrwt beam="2">  1       -1 0.10444308E+00 0.64044442E+03</pdfrwt>
<totfact> 0.15465817E+01</totfact>
</mgrwt>
</event>
<event>
12    1  0.1432447E-007  0.1130347E+04  0.7818608E-02  0.9176108E-01
         -3   -1    0    0    0  501 -0.00000000000E+00  0.00000000000E+00  0.13755444903E+04  0.13755444903E+04  0.00000000000E+00 0.  1.
          3   -1    0    0  501    0  0.00000000000E+00 -0.00000000000E+00 -0.11643785880E+04  0.11643785880E+04  0.00000000000E+00 0. -1.
         23    2    1    2    0    0 -0.90596385586E+03  0.64518969311E+03  0.53187834658E+03  0.12361726389E+04  0.90487398791E+02 0.  0.
    5000000    2    1    2    0    0  0.90596385586E+03 -0.64518969311E+03 -0.32071244422E+03  0.13037504394E+04  0.59989039686E+03 0.  0.
         23    2    4    4    0    0  0.19412518925E+03 -0.25073201089E+03 -0.35409107106E+03  0.48377648869E+03  0.90044844467E+02 0.  0.
         23    2    4    4    0    0  0.71183866662E+03 -0.39445768222E+03  0.33378626845E+02  0.81997395075E+03  0.94509242052E+02 0.  0.
          3    1    3    3  502    0 -0.78325931321E+03  0.51763326939E+03  0.44307474794E+03  0.10381495969E+04  0.00000000000E+00 0. -1.
         -3    1    3    3    0  502 -0.12270454266E+03  0.12755642372E+03  0.88803598641E+02  0.19802304198E+03  0.00000000000E+00 0.  1.
         11    1    5    5    0    0  0.19146655072E+03 -0.25684602356E+03 -0.35352705095E+03  0.47708562713E+03  0.00000000000E+00 0. -1.
        -11    1    5    5    0    0  0.26586385298E+01  0.61140126665E+01 -0.56402011532E+00  0.66908615595E+01  0.00000000000E+00 0.  1.
          1    1    6    6  503    0  0.12601084468E+03 -0.36090135982E+02  0.23430275709E+02  0.13315482985E+03  0.00000000000E+00 0. -1.
         -1    1    6    6    0  503  0.58582782193E+03 -0.35836754624E+03  0.99483511354E+01  0.68681912090E+03  0.00000000000E+00 0.  1.
<mgrwt>
<rscale>  0 0.11303470E+04</rscale>
<asrwt>0</asrwt>
<pdfrwt beam="1">  1        3 0.17913517E+00 0.11303470E+04</pdfrwt>
<pdfrwt beam="2">  1       -3 0.21162223E+00 0.11303470E+04</pdfrwt>
<totfact> 0.62296837E-02</totfact>
</mgrwt>
</event>
<event>
12    1  0.1432447E-007  0.5121675E+03  0.7818608E-02  0.1010651E+00
          2   -1    0    0  501    0  0.00000000000E+00  0.00000000000E+00  0.17405889840E+04  0.17405889840E+04  0.00000000000E+00 0. -1.
         -2   -1    0    0    0  501 -0.00000000000E+00 -0.00000000000E+00 -0.15940415948E+03  0.15940415948E+03  0.00000000000E+00 0.  1.
         23    2    1    2    0    0 -0.14306970633E+03 -0.30946649528E+03  0.41136743839E+03  0.54188132277E+03  0.90408771871E+02 0.  0.
    5000000    2    1    2    0    0  0.14306970633E+03  0.30946649528E+03  0.11698173861E+04  0.13581118207E+04  0.59979708907E+03 0.  0.
         23    2    4    4    0    0 -0.20032586437E+03  0.24315989097E+03  0.53071392769E+03  0.62370250190E+03  0.89946391373E+02 0.  0.
         23    2    4    4    0    0  0.34339557071E+03  0.66306604301E+02  0.63910345841E+03  0.73440931877E+03  0.92664627479E+02 0.  0.
          1    1    3    3  502    0 -0.87692153345E+02 -0.25752717674E+03  0.35534229290E+03  0.44752464250E+03  0.00000000000E+00 0. -1.
         -1    1    3    3    0  502 -0.55377552990E+02 -0.51939318541E+02  0.56025145486E+02  0.94356680274E+02  0.00000000000E+00 0.  1.
         11    1    5    5    0    0 -0.13764616935E+03  0.17193222783E+03  0.44188675019E+03  0.49373176817E+03  0.00000000000E+00 0. -1.
        -11    1    5    5    0    0 -0.62679695026E+02  0.71227663142E+02  0.88827177495E+02  0.12997073373E+03  0.00000000000E+00 0.  1.
          4    1    6    6  503    0  0.33625829311E+03  0.45597296517E+02  0.60932312212E+03  0.69744062134E+03  0.00000000000E+00 0. -1.
         -4    1    6    6    0  503  0.71372775939E+01  0.20709307785E+02  0.29780336290E+02  0.36968697433E+02  0.00000000000E+00 0.  1.
<mgrwt>
<rscale>  0 0.51216745E+03</rscale>
<asrwt>0</asrwt>
<pdfrwt beam="1">  1        2 0.26778291E+00 0.51216745E+03</pdfrwt>
<pdfrwt beam="2">  1       -2 0.24523718E-01 0.51216745E+03</pdfrwt>
<totfact> 0.14461170E+02</totfact>
</mgrwt>
</event>
<event>
12    1  0.1432447E-007  0.1376879E+04  0.7818608E-02  0.8970727E-01
         -2   -1    0    0    0  501 -0.00000000000E+00  0.00000000000E+00  0.66953732991E+03  0.66953732991E+03  0.00000000000E+00 0.  1.
          2   -1    0    0  501    0  0.00000000000E+00 -0.00000000000E+00 -0.32044384977E+04  0.32044384977E+04  0.00000000000E+00 0. -1.
         23    2    1    2    0    0 -0.98775464836E+02 -0.13321055406E+04 -0.65396777797E+03  0.14902439839E+04  0.94294820857E+02 0.  0.
    5000000    2    1    2    0    0  0.98775464836E+02  0.13321055406E+04 -0.18809333898E+04  0.23837318437E+04  0.60000443506E+03 0.  0.
         23    2    4    4    0    0 -0.35648882091E+02  0.14445848638E+02 -0.32116172285E+03  0.33578715826E+03  0.90158960149E+02 0.  0.
         23    2    4    4    0    0  0.13442434693E+03  0.13176596919E+04 -0.15597716669E+04  0.20479446854E+04  0.83022965204E+02 0.  0.
          4    1    3    3  502    0 -0.10071363931E+03 -0.74211036211E+03 -0.37774897956E+03  0.83878800555E+03  0.00000000000E+00 0. -1.
         -4    1    3    3    0  502  0.19381744788E+01 -0.58999517846E+03 -0.27621879840E+03  0.65145597834E+03  0.00000000000E+00 0.  1.
         13    1    5    5    0    0  0.24121082850E+02  0.18439020680E+02 -0.53601198221E+02  0.61602861721E+02  0.00000000000E+00 0.  1.
        -13    1    5    5    0    0 -0.59769964941E+02 -0.39931720427E+01 -0.26756052463E+03  0.27418429654E+03  0.00000000000E+00 0. -1.
          4    1    6    6  503    0  0.47510655194E+02  0.53771171734E+03 -0.69814002642E+03  0.88249116132E+03  0.00000000000E+00 0. -1.
         -4    1    6    6    0  503  0.86913691733E+02  0.77994797460E+03 -0.86163164052E+03  0.11654535241E+04  0.00000000000E+00 0.  1.
<mgrwt>
<rscale>  0 0.13768793E+04</rscale>
<asrwt>0</asrwt>
<pdfrwt beam="1">  1        2 0.49299053E+00 0.13768793E+04</pdfrwt>
<pdfrwt beam="2">  1       -2 0.10300574E+00 0.13768793E+04</pdfrwt>
<totfact> 0.96319892E-01</totfact>
</mgrwt>
</event>
<event>
12    1  0.1432447E-007  0.6330568E+03  0.7818608E-02  0.9839102E-01
         -2   -1    0    0    0  501 -0.00000000000E+00  0.00000000000E+00  0.28622003093E+03  0.28622003093E+03  0.00000000000E+00 0.  1.
          2   -1    0    0  501    0  0.00000000000E+00 -0.00000000000E+00 -0.15128017698E+04  0.15128017698E+04  0.00000000000E+00 0. -1.
         23    2    1    2    0    0  0.18753818971E+03 -0.48067690828E+03 -0.50435560072E+03  0.72758328341E+03  0.93712323504E+02 0.  0.
    5000000    2    1    2    0    0 -0.18753818971E+03  0.48067690828E+03 -0.72222613817E+03  0.10714385173E+04  0.60012418634E+03 0.  0.
         23    2    4    4    0    0 -0.11474717958E+03  0.59580594292E+03 -0.48996434067E+03  0.78577568169E+03  0.96055869016E+02 0.  0.
         23    2    4    4    0    0 -0.72791010131E+02 -0.11512903465E+03 -0.23226179750E+03  0.28566283564E+03  0.95417437154E+02 0.  0.
          2    1    3    3  502    0  0.10620673042E+03 -0.36130179730E+03 -0.40001853860E+03  0.54939392929E+03  0.00000000000E+00 0. -1.
         -2    1    3    3    0  502  0.81331459290E+02 -0.11937511098E+03 -0.10433706212E+03  0.17818935412E+03  0.00000000000E+00 0.  1.
         11    1    5    5    0    0 -0.78181525960E+02  0.35545622743E+03 -0.35158347353E+03  0.50603598635E+03  0.00000000000E+00 0. -1.
        -11    1    5    5    0    0 -0.36565653618E+02  0.24034971549E+03 -0.13838086713E+03  0.27973969534E+03  0.00000000000E+00 0.  1.
          3    1    6    6  503    0 -0.19093732157E+02 -0.14593367786E+02 -0.13104501378E+03  0.13323037427E+03  0.00000000000E+00 0. -1.
         -3    1    6    6    0  503 -0.53697277974E+02 -0.10053566686E+03 -0.10121678372E+03  0.15243246137E+03  0.00000000000E+00 0.  1.
<mgrwt>
<rscale>  0 0.63305678E+03</rscale>
<asrwt>0</asrwt>
<pdfrwt beam="1">  1        2 0.23273873E+00 0.63305678E+03</pdfrwt>
<pdfrwt beam="2">  1       -2 0.44033851E-01 0.63305678E+03</pdfrwt>
<totfact> 0.63139376E+01</totfact>
</mgrwt>
</event>
<event>
12    1  0.1432447E-007  0.1089344E+04  0.7818608E-02  0.9215641E-01
         -1   -1    0    0    0  501 -0.00000000000E+00  0.00000000000E+00  0.60702441584E+03  0.60702441584E+03  0.00000000000E+00 0.  1.
          1   -1    0    0  501    0  0.00000000000E+00 -0.00000000000E+00 -0.20987641419E+04  0.20987641419E+04  0.00000000000E+00 0. -1.
         23    2    1    2    0    0  0.20026511335E+03  0.10254815039E+04 -0.60554944124E+03  0.12100868235E+04  0.76821638585E+02 0.  0.
    5000000    2    1    2    0    0 -0.20026511335E+03 -0.10254815039E+04 -0.88619028485E+03  0.14957017343E+04  0.60006001896E+03 0.  0.
         23    2    4    4    0    0  0.68842069771E+02 -0.69638645784E+03 -0.30272074480E+03  0.76791428736E+03  0.91428519448E+02 0.  0.
         23    2    4    4    0    0 -0.26910718312E+03 -0.32909504608E+03 -0.58346954006E+03  0.72778744689E+03  0.92280216237E+02 0.  0.
          4    1    3    3  502    0  0.50330721201E+02  0.30668415055E+03 -0.21979921279E+03  0.38065738353E+03  0.00000000000E+00 0.  1.
         -4    1    3    3    0  502  0.14993439215E+03  0.71879735338E+03 -0.38575022845E+03  0.82942943999E+03  0.00000000000E+00 0. -1.
         11    1    5    5    0    0  0.13204669366E+02 -0.56232372093E+02 -0.36007734972E+00  0.57763073152E+02  0.00000000000E+00 0. -1.
        -11    1    5    5    0    0  0.55637400405E+02 -0.64015408575E+03 -0.30236066745E+03  0.71015121421E+03  0.00000000000E+00 0.  1.
          1    1    6    6  503    0 -0.12232972645E+03 -0.21512498030E+03 -0.36482906052E+03  0.44084414765E+03  0.00000000000E+00 0. -1.
         -1    1    6    6    0  503 -0.14677745667E+03 -0.11397006579E+03 -0.21864047954E+03  0.28694329923E+03  0.00000000000E+00 0.  1.
<mgrwt>
<rscale>  0 0.10893441E+04</rscale>
<asrwt>0</asrwt>
<pdfrwt beam="1">  1        1 0.32288679E+00 0.10893441E+04</pdfrwt>
<pdfrwt beam="2">  1       -1 0.93388373E-01 0.10893441E+04</pdfrwt>
<totfact> 0.28427972E+00</totfact>
</mgrwt>
</event>
<event>
12    1  0.1432447E-007  0.4148281E+03  0.7818608E-02  0.1038763E+00
          2   -1    0    0  501    0  0.00000000000E+00  0.00000000000E+00  0.63533970770E+03  0.63533970770E+03  0.00000000000E+00 0.  1.
         -2   -1    0    0    0  501 -0.00000000000E+00 -0.00000000000E+00 -0.90638035764E+03  0.90638035764E+03  0.00000000000E+00 0. -1.
         23    2    1    2    0    0 -0.26748793999E+03 -0.14838773822E+03  0.45217588285E+03  0.55345066363E+03  0.90971914094E+02 0.  0.
    5000000    2    1    2    0    0  0.26748793999E+03  0.14838773822E+03 -0.72321653279E+03  0.98826940171E+03  0.60005461265E+03 0.  0.
         23    2    4    4    0    0  0.12236428406E+03  0.28556353438E+03 -0.11985842083E+03  0.34627019961E+03  0.94960307027E+02 0.  0.
         23    2    4    4    0    0  0.14512365592E+03 -0.13717579616E+03 -0.60335811196E+03  0.64199920210E+03  0.90795868155E+02 0.  0.
          2    1    3    3  502    0 -0.13178216778E+03 -0.11909785969E+03  0.21785392068E+03  0.28108925750E+03  0.00000000000E+00 0. -1.
         -2    1    3    3    0  502 -0.13570577221E+03 -0.29289878524E+02  0.23432196217E+03  0.27236140613E+03  0.00000000000E+00 0.  1.
         11    1    5    5    0    0  0.35737458754E+02  0.94975845936E+02  0.65971605658E+01  0.10169119823E+03  0.00000000000E+00 0.  1.
        -11    1    5    5    0    0  0.86626825310E+02  0.19058768844E+03 -0.12645558140E+03  0.24457900138E+03  0.00000000000E+00 0. -1.
          3    1    6    6  503    0  0.27200260477E+02 -0.10111402170E+02 -0.21185736715E+03  0.21383554111E+03  0.00000000000E+00 0. -1.
         -3    1    6    6    0  503  0.11792339544E+03 -0.12706439399E+03 -0.39150074481E+03  0.42816366099E+03  0.00000000000E+00 0.  1.
<mgrwt>
<rscale>  0 0.41482811E+03</rscale>
<asrwt>0</asrwt>
<pdfrwt beam="1">  1        2 0.97744570E-01 0.41482811E+03</pdfrwt>
<pdfrwt beam="2">  1       -2 0.13944313E+00 0.41482811E+03</pdfrwt>
<totfact> 0.17753003E+01</totfact>
</mgrwt>
</event>
<event>
12    1  0.1432447E-007  0.1851319E+04  0.7818608E-02  0.8679475E-01
         -2   -1    0    0    0  501 -0.00000000000E+00  0.00000000000E+00  0.23246887762E+04  0.23246887762E+04  0.00000000000E+00 0.  1.
          2   -1    0    0  501    0  0.00000000000E+00 -0.00000000000E+00 -0.15672484549E+04  0.15672484549E+04  0.00000000000E+00 0. -1.
         23    2    1    2    0    0 -0.14320857991E+04 -0.11228331747E+04  0.76425265090E+03  0.19757943206E+04  0.89760841944E+02 0.  0.
    5000000    2    1    2    0    0  0.14320857991E+04  0.11228331747E+04 -0.68123296014E+01  0.19161429106E+04  0.59994430725E+03 0.  0.
         23    2    4    4    0    0  0.28261989763E+03  0.48340845926E+03 -0.15615737241E+03  0.58850392309E+03  0.91618761821E+02 0.  0.
         23    2    4    4    0    0  0.11494659014E+04  0.63942471544E+03  0.14934504281E+03  0.13276389875E+04  0.10092330736E+03 0.  0.
          1    1    3    3  502    0 -0.68164179074E+03 -0.57208082545E+03  0.41009072962E+03  0.97983999114E+03  0.00000000000E+00 0. -1.
         -1    1    3    3    0  502 -0.75044400833E+03 -0.55075234926E+03  0.35416192128E+03  0.99595432945E+03  0.00000000000E+00 0.  1.
         13    1    5    5    0    0  0.59210552155E+01  0.61987777364E+02 -0.64408112724E+01  0.62602136443E+02  0.00000000000E+00 0. -1.
        -13    1    5    5    0    0  0.27669884241E+03  0.42142068190E+03 -0.14971656114E+03  0.52590178665E+03  0.00000000000E+00 0.  1.
          2    1    6    6  503    0  0.10905881744E+04  0.61127458647E+03  0.11961407474E+03  0.12559246447E+04  0.00000000000E+00 0.  1.
         -2    1    6    6    0  503  0.58877727004E+02  0.28150128972E+02  0.29730968063E+02  0.71714342779E+02  0.00000000000E+00 0. -1.
<mgrwt>
<rscale>  0 0.18513192E+04</rscale>
<asrwt>0</asrwt>
<pdfrwt beam="1">  1        2 0.24111515E+00 0.18513192E+04</pdfrwt>
<pdfrwt beam="2">  1       -2 0.35764443E+00 0.18513192E+04</pdfrwt>
<totfact> 0.14685977E-01</totfact>
</mgrwt>
</event>
<event>
12    1  0.1432447E-007  0.6797456E+03  0.7818608E-02  0.9752511E-01
          2   -1    0    0  501    0  0.00000000000E+00  0.00000000000E+00  0.11858663888E+04  0.11858663888E+04  0.00000000000E+00 0. -1.
         -2   -1    0    0    0  501 -0.00000000000E+00 -0.00000000000E+00 -0.47664632410E+03  0.47664632410E+03  0.00000000000E+00 0.  1.
         23    2    1    2    0    0 -0.58105123123E+01  0.62772121147E+03  0.27734724430E+03  0.69264954777E+03  0.93670810392E+02 0.  0.
    5000000    2    1    2    0    0  0.58105123123E+01 -0.62772121147E+03  0.43187282044E+03  0.96986316517E+03  0.60004395234E+03 0.  0.
         23    2    4    4    0    0 -0.17629955912E+03 -0.35794038474E+03 -0.13652510745E+02  0.41155718135E+03  0.99950332155E+02 0.  0.
         23    2    4    4    0    0  0.18211007144E+03 -0.26978082673E+03  0.44552533118E+03  0.55830598382E+03  0.85246573257E+02 0.  0.
          3    1    3    3  502    0 -0.14659128828E+02  0.28270375156E+03  0.76115814290E+02  0.29313805346E+03  0.00000000000E+00 0. -1.
         -3    1    3    3    0  502  0.88486165160E+01  0.34501745991E+03  0.20123143001E+03  0.39951149430E+03  0.00000000000E+00 0.  1.
         11    1    5    5    0    0 -0.89192413806E+02 -0.21269342681E+03 -0.55241521338E+02  0.23716113967E+03  0.00000000000E+00 0. -1.
        -11    1    5    5    0    0 -0.87107145317E+02 -0.14524695793E+03  0.41589010592E+02  0.17439604169E+03  0.00000000000E+00 0.  1.
          4    1    6    6  503    0  0.11227775243E+03 -0.11132127248E+03  0.16412657828E+03  0.22789526782E+03  0.00000000000E+00 0. -1.
         -4    1    6    6    0  503  0.69832319006E+02 -0.15845955425E+03  0.28139875290E+03  0.33041071599E+03  0.00000000000E+00 0.  1.
<mgrwt>
<rscale>  0 0.67974559E+03</rscale>
<asrwt>0</asrwt>
<pdfrwt beam="1">  1        2 0.18244098E+00 0.67974559E+03</pdfrwt>
<pdfrwt beam="2">  1       -2 0.73330204E-01 0.67974559E+03</pdfrwt>
<totfact> 0.33261091E+01</totfact>
</mgrwt>
</event>
<event>
12    1  0.1432447E-007  0.4816423E+03  0.7818608E-02  0.1018685E+00
          1   -1    0    0  501    0  0.00000000000E+00  0.00000000000E+00  0.43593095675E+03  0.43593095675E+03  0.00000000000E+00 0. -1.
         -1   -1    0    0    0  501 -0.00000000000E+00 -0.00000000000E+00 -0.59088760713E+03  0.59088760713E+03  0.00000000000E+00 0.  1.
         23    2    1    2    0    0  0.24531470037E+03 -0.18076773040E+03 -0.15513304007E+03  0.35385851858E+03  0.91067647840E+02 0.  0.
    5000000    2    1    2    0    0 -0.24531470037E+03  0.18076773040E+03  0.17638968734E+00  0.67296004529E+03  0.60001576386E+03 0.  0.
         23    2    4    4    0    0 -0.38448646350E+03  0.26844315115E+03 -0.41495171998E+02  0.48133999808E+03  0.10037319583E+03 0.  0.
         23    2    4    4    0    0  0.13917176313E+03 -0.87675420745E+02  0.41671561685E+02  0.19162004722E+03  0.89027885442E+02 0.  0.
          1    1    3    3  502    0  0.74594349799E+02 -0.15263806204E+02 -0.14194482439E+02  0.77451818142E+02  0.00000000000E+00 0. -1.
         -1    1    3    3    0  502  0.17072035057E+03 -0.16550392420E+03 -0.14093855763E+03  0.27640670044E+03  0.00000000000E+00 0.  1.
         11    1    5    5    0    0 -0.13075021802E+03  0.13345829314E+03  0.18468252503E+02  0.18774400622E+03  0.00000000000E+00 0.  1.
        -11    1    5    5    0    0 -0.25373624547E+03  0.13498485801E+03 -0.59963424501E+02  0.29359599186E+03  0.00000000000E+00 0. -1.
          4    1    6    6  503    0  0.88762468776E+01 -0.32398836972E+02 -0.17893202956E+02  0.38060991945E+02  0.00000000000E+00 0. -1.
         -4    1    6    6    0  503  0.13029551625E+03 -0.55276583773E+02  0.59564764641E+02  0.15355905527E+03  0.00000000000E+00 0.  1.
<mgrwt>
<rscale>  0 0.48164229E+03</rscale>
<asrwt>0</asrwt>
<pdfrwt beam="1">  1        1 0.67066301E-01 0.48164229E+03</pdfrwt>
<pdfrwt beam="2">  1       -1 0.90905786E-01 0.48164229E+03</pdfrwt>
<totfact> 0.66038439E+01</totfact>
</mgrwt>
</event>
<event>
12    1  0.1432447E-007  0.6286523E+03  0.7818608E-02  0.9847682E-01
          2   -1    0    0  501    0  0.00000000000E+00  0.00000000000E+00  0.11127260810E+04  0.11127260810E+04  0.00000000000E+00 0. -1.
         -2   -1    0    0    0  501 -0.00000000000E+00 -0.00000000000E+00 -0.54736227107E+03  0.54736227107E+03  0.00000000000E+00 0.  1.
         23    2    1    2    0    0  0.29173144754E+03  0.39302022411E+03  0.71495892516E+03  0.87158224540E+03  0.94430989590E+02 0.  0.
    5000000    2    1    2    0    0 -0.29173144754E+03 -0.39302022411E+03 -0.14959511521E+03  0.78850610668E+03  0.59982584784E+03 0.  0.
         23    2    4    4    0    0  0.15102128849E+03 -0.21438706373E+03 -0.11580122266E+03  0.30081627883E+03  0.91166154702E+02 0.  0.
         23    2    4    4    0    0 -0.44275273603E+03 -0.17863316037E+03 -0.33793892546E+02  0.48768982786E+03  0.93592466439E+02 0.  0.
          1    1    3    3  502    0  0.25402501270E+03  0.27594021461E+03  0.55356643099E+03  0.66866097735E+03  0.00000000000E+00 0.  1.
         -1    1    3    3    0  502  0.37706434838E+02  0.11708000950E+03  0.16139249417E+03  0.20292126805E+03  0.00000000000E+00 0. -1.
         13    1    5    5    0    0  0.61487291160E+02 -0.15271064487E+03 -0.95172411052E+02  0.19015524146E+03  0.00000000000E+00 0. -1.
        -13    1    5    5    0    0  0.89533997331E+02 -0.61676418869E+02 -0.20628811610E+02  0.11066103737E+03  0.00000000000E+00 0.  1.
          2    1    6    6  503    0 -0.38549821052E+03 -0.18625437738E+03 -0.21744287892E+02  0.42868680580E+03  0.00000000000E+00 0. -1.
         -2    1    6    6    0  503 -0.57254525510E+02  0.76212170057E+01 -0.12049604654E+02  0.59003022061E+02  0.00000000000E+00 0.  1.
<mgrwt>
<rscale>  0 0.62865231E+03</rscale>
<asrwt>0</asrwt>
<pdfrwt beam="1">  1        2 0.17118863E+00 0.62865231E+03</pdfrwt>
<pdfrwt beam="2">  1       -2 0.84209581E-01 0.62865231E+03</pdfrwt>
<totfact> 0.27167367E+01</totfact>
</mgrwt>
</event>
<event>
12    1  0.1432447E-007  0.3669806E+03  0.7818608E-02  0.1055854E+00
          2   -1    0    0  501    0  0.00000000000E+00  0.00000000000E+00  0.41331497551E+03  0.41331497551E+03  0.00000000000E+00 0. -1.
         -2   -1    0    0    0  501 -0.00000000000E+00 -0.00000000000E+00 -0.42604238855E+03  0.42604238855E+03  0.00000000000E+00 0.  1.
         23    2    1    2    0    0  0.59890249271E+02  0.15906267220E+03  0.83314483173E+02  0.20843078921E+03  0.87260043210E+02 0.  0.
    5000000    2    1    2    0    0 -0.59890249271E+02 -0.15906267220E+03 -0.96041896210E+02  0.63092657484E+03  0.59996376672E+03 0.  0.
         23    2    4    4    0    0 -0.10533021352E+03  0.16892813077E+03 -0.17268868723E+03  0.27923310859E+03  0.92296148287E+02 0.  0.
         23    2    4    4    0    0  0.45439964253E+02 -0.32799080296E+03  0.76646791021E+02  0.35169346626E+03  0.90392513265E+02 0.  0.
          1    1    3    3  502    0  0.60315482562E+02  0.16541649233E+03  0.91205933084E+02  0.19829043245E+03  0.00000000000E+00 0. -1.
         -1    1    3    3    0  502 -0.42523329141E+00 -0.63538201306E+01 -0.78914499110E+01  0.10140356764E+02  0.00000000000E+00 0.  1.
         13    1    5    5    0    0  0.17310352775E+02  0.21131422250E+02 -0.23705592499E+02  0.36168224109E+02  0.00000000000E+00 0. -1.
        -13    1    5    5    0    0 -0.12264056630E+03  0.14779670852E+03 -0.14898309473E+03  0.24306488448E+03  0.00000000000E+00 0.  1.
          4    1    6    6  503    0  0.48300341098E+02 -0.28469497700E+03  0.33835974352E+02  0.29073875909E+03  0.00000000000E+00 0. -1.
         -4    1    6    6    0  503 -0.28603768443E+01 -0.43295825965E+02  0.42810816669E+02  0.60954707165E+02  0.00000000000E+00 0.  1.
<mgrwt>
<rscale>  0 0.36698058E+03</rscale>
<asrwt>0</asrwt>
<pdfrwt beam="1">  1        2 0.63586920E-01 0.36698058E+03</pdfrwt>
<pdfrwt beam="2">  1       -2 0.65544982E-01 0.36698058E+03</pdfrwt>
<totfact> 0.16928676E+02</totfact>
</mgrwt>
</event>
<event>
12    1  0.1432447E-007  0.4385252E+03  0.7818608E-02  0.1031200E+00
         -1   -1    0    0    0  501 -0.00000000000E+00  0.00000000000E+00  0.39494723791E+03  0.39494723791E+03  0.00000000000E+00 0.  1.
          1   -1    0    0  501    0  0.00000000000E+00 -0.00000000000E+00 -0.74135226709E+03  0.74135226709E+03  0.00000000000E+00 0. -1.
         23    2    1    2    0    0  0.18512477005E+03 -0.24381931513E+03 -0.33472246090E+03  0.46250344243E+03  0.90284381346E+02 0.  0.
    5000000    2    1    2    0    0 -0.18512477005E+03  0.24381931513E+03 -0.11682568283E+02  0.67379606258E+03  0.60012133159E+03 0.  0.
         23    2    4    4    0    0 -0.12902093770E+03 -0.12098807540E+03 -0.16940366382E+03  0.26224560859E+03  0.93758419116E+02 0.  0.
         23    2    4    4    0    0 -0.56103832351E+02  0.36480739053E+03  0.15772109554E+03  0.41155045398E+03  0.90916225206E+02 0.  0.
          2    1    3    3  502    0  0.20473230021E+02 -0.81401032468E+02 -0.12325744360E+03  0.14912303188E+03  0.00000000000E+00 0.  1.
         -2    1    3    3    0  502  0.16465154003E+03 -0.16241828266E+03 -0.21146501730E+03  0.31338041055E+03  0.00000000000E+00 0. -1.
         11    1    5    5    0    0 -0.12538700270E+02  0.84767595677E+01  0.48417108452E+01  0.15890771572E+02  0.00000000000E+00 0.  1.
        -11    1    5    5    0    0 -0.11648223743E+03 -0.12946483497E+03 -0.17424537467E+03  0.24635483702E+03  0.00000000000E+00 0. -1.
          1    1    6    6  503    0 -0.10530553259E+02  0.23007822133E+03  0.13655020541E+03  0.26775518497E+03  0.00000000000E+00 0. -1.
         -1    1    6    6    0  503 -0.45573279093E+02  0.13472916920E+03  0.21170890128E+02  0.14379526901E+03  0.00000000000E+00 0.  1.
<mgrwt>
<rscale>  0 0.43852518E+03</rscale>
<asrwt>0</asrwt>
<pdfrwt beam="1">  1        1 0.11405419E+00 0.43852518E+03</pdfrwt>
<pdfrwt beam="2">  1       -1 0.60761114E-01 0.43852518E+03</pdfrwt>
<totfact> 0.72287231E+01</totfact>
</mgrwt>
</event>
<event>
12    1  0.1432447E-007  0.2906790E+03  0.7818608E-02  0.1089995E+00
         -2   -1    0    0    0  501 -0.00000000000E+00  0.00000000000E+00  0.12736372575E+03  0.12736372575E+03  0.00000000000E+00 0.  1.
          2   -1    0    0  501    0  0.00000000000E+00 -0.00000000000E+00 -0.18001651488E+04  0.18001651488E+04  0.00000000000E+00 0. -1.
         23    2    1    2    0    0 -0.53710018611E+02  0.13076774775E+03 -0.10033518045E+04  0.10174700260E+04  0.92441550740E+02 0.  0.
    5000000    2    1    2    0    0  0.53710018611E+02 -0.13076774775E+03 -0.66944961862E+03  0.91005884860E+03  0.60004945304E+03 0.  0.
         23    2    4    4    0    0  0.17560519156E+03 -0.17194364410E+03 -0.45874765164E+02  0.26669328192E+03  0.92838636857E+02 0.  0.
         23    2    4    4    0    0 -0.12189517295E+03  0.41175896349E+02 -0.62357485346E+03  0.64336556668E+03  0.92302583396E+02 0.  0.
          4    1    3    3  502    0 -0.74211726194E+02  0.71106031144E+02 -0.71090923463E+03  0.71830034655E+03  0.00000000000E+00 0. -1.
         -4    1    3    3    0  502  0.20501707582E+02  0.59661716606E+02 -0.29244256984E+03  0.29916967944E+03  0.00000000000E+00 0.  1.
         11    1    5    5    0    0  0.18698411339E+03 -0.15947747281E+03 -0.44562833800E+02  0.24976382674E+03  0.00000000000E+00 0. -1.
        -11    1    5    5    0    0 -0.11378921830E+02 -0.12466171290E+02 -0.13119313646E+01  0.16929455176E+02  0.00000000000E+00 0.  1.
          2    1    6    6  503    0 -0.50703501142E+02  0.60649231976E+02 -0.23784733499E+03  0.25064023845E+03  0.00000000000E+00 0. -1.
         -2    1    6    6    0  503 -0.71191671807E+02 -0.19473335627E+02 -0.38572751846E+03  0.39272532823E+03  0.00000000000E+00 0.  1.
<mgrwt>
<rscale>  0 0.29067902E+03</rscale>
<asrwt>0</asrwt>
<pdfrwt beam="1">  1        2 0.27694848E+00 0.29067902E+03</pdfrwt>
<pdfrwt beam="2">  1       -2 0.19594420E-01 0.29067902E+03</pdfrwt>
<totfact> 0.20654366E+02</totfact>
</mgrwt>
</event>
<event>
12    1  0.1780933E-007  0.1535964E+04  0.7818608E-02  0.8860883E-01
         -2   -1    0    0    0  501 -0.00000000000E+00  0.00000000000E+00  0.10084879068E+04  0.10084879068E+04  0.00000000000E+00 0.  1.
          2   -1    0    0  501    0  0.00000000000E+00 -0.00000000000E+00 -0.38941371825E+04  0.38941371825E+04  0.00000000000E+00 0. -1.
         23    2    1    2    0    0  0.11388450791E+04 -0.99345399407E+03 -0.29057693955E+04  0.32764914343E+04  0.89338608869E+02 0.  0.
    5000000    2    1    2    0    0 -0.11388450791E+04  0.99345399407E+03  0.20120119782E+02  0.16261336549E+04  0.59998907659E+03 0.  0.
         23    2    4    4    0    0 -0.86665826843E+03  0.93570874869E+03  0.18122345865E+03  0.12915026303E+04  0.92139488735E+02 0.  0.
         23    2    4    4    0    0 -0.27218681065E+03  0.57745245385E+02 -0.16110333887E+03  0.33463102469E+03  0.92754857706E+02 0.  0.
          4    1    3    3  502    0  0.64426908642E+03 -0.57758689179E+03 -0.15705734722E+04  0.17931509432E+04  0.00000000000E+00 0. -1.
         -4    1    3    3    0  502  0.49457599266E+03 -0.41586710228E+03 -0.13351959232E+04  0.14833404911E+04  0.00000000000E+00 0.  1.
         11    1    5    5    0    0 -0.43129416492E+03  0.44726269438E+03  0.13304949345E+03  0.63542170421E+03  0.00000000000E+00 0. -1.
        -11    1    5    5    0    0 -0.43536410351E+03  0.48844605431E+03  0.48173965203E+02  0.65608092605E+03  0.00000000000E+00 0.  1.
          1    1    6    6  503    0 -0.10756998325E+03 -0.73288934829E+01 -0.23313186132E+02  0.11031100862E+03  0.00000000000E+00 0. -1.
         -1    1    6    6    0  503 -0.16461682741E+03  0.65074138868E+02 -0.13779015274E+03  0.22432001606E+03  0.00000000000E+00 0.  1.
<mgrwt>
<rscale>  0 0.15359639E+04</rscale>
<asrwt>0</asrwt>
<pdfrwt beam="1">  1        2 0.59909803E+00 0.15359639E+04</pdfrwt>
<pdfrwt beam="2">  1       -2 0.15515199E+00 0.15359639E+04</pdfrwt>
<totfact> 0.10848512E-01</totfact>
</mgrwt>
</event>
<event>
12    1  0.1432447E-007  0.3422488E+03  0.7818608E-02  0.1065842E+00
          1   -1    0    0  501    0  0.00000000000E+00  0.00000000000E+00  0.58440180840E+03  0.58440180840E+03  0.00000000000E+00 0. -1.
         -1   -1    0    0    0  501 -0.00000000000E+00 -0.00000000000E+00 -0.23953805229E+03  0.23953805229E+03  0.00000000000E+00 0.  1.
         23    2    1    2    0    0  0.63404433064E+02 -0.86070884850E+02  0.55670381866E+01  0.12646113938E+03  0.67328363319E+02 0.  0.
    5000000    2    1    2    0    0 -0.63404433064E+02  0.86070884850E+02  0.33929671793E+03  0.69747872131E+03  0.59993831727E+03 0.  0.
         23    2    4    4    0    0  0.20180268713E+02  0.30142215457E+03  0.58430846164E+02  0.32089117347E+03  0.91073722433E+02 0.  0.
         23    2    4    4    0    0 -0.83584701778E+02 -0.21535126972E+03  0.28086587176E+03  0.37658754784E+03  0.97826231252E+02 0.  0.
          4    1    3    3  502    0  0.57163003628E+02 -0.33964698167E+02  0.24220162297E+02  0.70765994426E+02  0.00000000000E+00 0.  1.
         -4    1    3    3    0  502  0.62414294363E+01 -0.52106186683E+02 -0.18653124111E+02  0.55695144951E+02  0.00000000000E+00 0. -1.
         13    1    5    5    0    0  0.54879450385E+02  0.15487205004E+03  0.20466264986E+02  0.16557769765E+03  0.00000000000E+00 0.  1.
        -13    1    5    5    0    0 -0.34699181672E+02  0.14655010453E+03  0.37964581177E+02  0.15531347582E+03  0.00000000000E+00 0. -1.
          2    1    6    6  503    0  0.20357344914E+02 -0.62825433826E+02  0.81503363987E+02  0.10490116762E+03  0.00000000000E+00 0.  1.
         -2    1    6    6    0  503 -0.10394204669E+03 -0.15252583590E+03  0.19936250778E+03  0.27168638021E+03  0.00000000000E+00 0. -1.
<mgrwt>
<rscale>  0 0.34224877E+03</rscale>
<asrwt>0</asrwt>
<pdfrwt beam="1">  1        1 0.89907970E-01 0.34224877E+03</pdfrwt>
<pdfrwt beam="2">  1       -1 0.36852008E-01 0.34224877E+03</pdfrwt>
<totfact> 0.26108755E+02</totfact>
</mgrwt>
</event>
<event>
12    1  0.1432447E-007  0.1415996E+04  0.7818608E-02  0.8942321E-01
          1   -1    0    0  501    0  0.00000000000E+00  0.00000000000E+00  0.39768141760E+04  0.39768141760E+04  0.00000000000E+00 0. -1.
         -1   -1    0    0    0  501 -0.00000000000E+00 -0.00000000000E+00 -0.70499438602E+03  0.70499438602E+03  0.00000000000E+00 0.  1.
         23    2    1    2    0    0  0.30413015136E+03 -0.13267616156E+04  0.28106860992E+04  0.31244093581E+04  0.95843390978E+02 0.  0.
    5000000    2    1    2    0    0 -0.30413015136E+03  0.13267616156E+04  0.46113369082E+03  0.15573992039E+04  0.60004705318E+03 0.  0.
         23    2    4    4    0    0  0.24947174807E+02  0.98848536332E+03  0.40909454491E+03  0.10739389834E+04  0.90889594412E+02 0.  0.
         23    2    4    4    0    0 -0.32907732617E+03  0.33827625224E+03  0.52039145913E+02  0.48346022050E+03  0.91120813611E+02 0.  0.
          2    1    3    3  502    0  0.14277325472E+03 -0.44878722584E+03  0.10256680908E+04  0.11286227044E+04  0.00000000000E+00 0. -1.
         -2    1    3    3    0  502  0.16135689664E+03 -0.87797438972E+03  0.17850180083E+04  0.19957866537E+04  0.00000000000E+00 0.  1.
         11    1    5    5    0    0 -0.51753065466E+00  0.80672427680E+03  0.36342420135E+03  0.88480589778E+03  0.00000000000E+00 0.  1.
        -11    1    5    5    0    0  0.25464705462E+02  0.18176108652E+03  0.45670343554E+02  0.18913308563E+03  0.00000000000E+00 0. -1.
          1    1    6    6  503    0 -0.28064568453E+03  0.32170388540E+03  0.61756609882E+02  0.43135747240E+03  0.00000000000E+00 0. -1.
         -1    1    6    6    0  503 -0.48431641635E+02  0.16572366840E+02 -0.97174639690E+01  0.52102748105E+02  0.00000000000E+00 0.  1.
<mgrwt>
<rscale>  0 0.14159959E+04</rscale>
<asrwt>0</asrwt>
<pdfrwt beam="1">  1        1 0.61181755E+00 0.14159959E+04</pdfrwt>
<pdfrwt beam="2">  1       -1 0.10846068E+00 0.14159959E+04</pdfrwt>
<totfact> 0.77709363E-02</totfact>
</mgrwt>
</event>
<event>
12    1  0.1432447E-007  0.8410697E+03  0.7818608E-02  0.9502402E-01
          2   -1    0    0  501    0  0.00000000000E+00  0.00000000000E+00  0.39659417498E+03  0.39659417498E+03  0.00000000000E+00 0. -1.
         -2   -1    0    0    0  501 -0.00000000000E+00 -0.00000000000E+00 -0.20647966055E+04  0.20647966055E+04  0.00000000000E+00 0.  1.
         23    2    1    2    0    0 -0.44539351176E+03 -0.59030010407E+03 -0.11694660752E+04  0.13864480058E+04  0.88077117009E+02 0.  0.
    5000000    2    1    2    0    0  0.44539351176E+03  0.59030010407E+03 -0.49873635538E+03  0.10749427747E+04  0.59994535051E+03 0.  0.
         23    2    4    4    0    0 -0.10895391025E+03  0.24898282529E+03 -0.21894122183E+03  0.36078829518E+03  0.91485154383E+02 0.  0.
         23    2    4    4    0    0  0.55434742201E+03  0.34131727878E+03 -0.27979513356E+03  0.71415447956E+03  0.89066013902E+02 0.  0.
          4    1    3    3  502    0 -0.38987145020E+03 -0.51152057697E+03 -0.95572537730E+03  0.11519826584E+04  0.00000000000E+00 0. -1.
         -4    1    3    3    0  502 -0.55522061560E+02 -0.78779527100E+02 -0.21374069786E+03  0.23446534740E+03  0.00000000000E+00 0.  1.
         11    1    5    5    0    0 -0.12389362479E+03  0.20970813321E+03 -0.19768286806E+03  0.31369674484E+03  0.00000000000E+00 0.  1.
        -11    1    5    5    0    0  0.14939714536E+02  0.39274692078E+02 -0.21258353766E+02  0.47091550336E+02  0.00000000000E+00 0. -1.
          1    1    6    6  503    0  0.23338759717E+03  0.19562585008E+03 -0.12517541253E+03  0.32925389540E+03  0.00000000000E+00 0. -1.
         -1    1    6    6    0  503  0.32095982484E+03  0.14569142869E+03 -0.15461972103E+03  0.38490058416E+03  0.00000000000E+00 0.  1.
<mgrwt>
<rscale>  0 0.84106965E+03</rscale>
<asrwt>0</asrwt>
<pdfrwt beam="1">  1        2 0.61014488E-01 0.84106965E+03</pdfrwt>
<pdfrwt beam="2">  1       -2 0.31766102E+00 0.84106965E+03</pdfrwt>
<totfact> 0.20499129E+00</totfact>
</mgrwt>
</event>
<event>
12    1  0.1432447E-007  0.9270500E+03  0.7818608E-02  0.9392385E-01
         -1   -1    0    0    0  501 -0.00000000000E+00  0.00000000000E+00  0.41477972815E+03  0.41477972815E+03  0.00000000000E+00 0.  1.
          1   -1    0    0  501    0  0.00000000000E+00 -0.00000000000E+00 -0.25521685634E+04  0.25521685634E+04  0.00000000000E+00 0. -1.
         23    2    1    2    0    0  0.49813043043E+02 -0.90037607124E+03 -0.13564043761E+04  0.16316757895E+04  0.96822732563E+02 0.  0.
    5000000    2    1    2    0    0 -0.49813043043E+02  0.90037607124E+03 -0.78098445918E+03  0.13352725021E+04  0.59988125531E+03 0.  0.
         23    2    4    4    0    0 -0.16626609065E+03  0.54610766422E+03 -0.15128450069E+03  0.59783670825E+03  0.92971693299E+02 0.  0.
         23    2    4    4    0    0  0.11645304761E+03  0.35426840702E+03 -0.62969995850E+03  0.73743579386E+03  0.90675773072E+02 0.  0.
          3    1    3    3  502    0  0.22693194340E+01 -0.61838202981E+03 -0.86890196495E+03  0.10664858692E+04  0.00000000000E+00 0. -1.
         -3    1    3    3    0  502  0.47543723609E+02 -0.28199404143E+03 -0.48750241112E+03  0.56518992021E+03  0.00000000000E+00 0.  1.
         13    1    5    5    0    0 -0.12842301850E+03  0.50251859946E+03 -0.12077204819E+03  0.53254417855E+03  0.00000000000E+00 0. -1.
        -13    1    5    5    0    0 -0.37843072152E+02  0.43589064762E+02 -0.30512452491E+02  0.65292529693E+02  0.00000000000E+00 0.  1.
          4    1    6    6  503    0  0.27723852484E+02  0.62221317809E+02 -0.19277150162E+03  0.20445282151E+03  0.00000000000E+00 0. -1.
         -4    1    6    6    0  503  0.88729195127E+02  0.29204708921E+03 -0.43692845688E+03  0.53298297235E+03  0.00000000000E+00 0.  1.
<mgrwt>
<rscale>  0 0.92705001E+03</rscale>
<asrwt>0</asrwt>
<pdfrwt beam="1">  1        1 0.39264132E+00 0.92705001E+03</pdfrwt>
<pdfrwt beam="2">  1       -1 0.63812266E-01 0.92705001E+03</pdfrwt>
<totfact> 0.31988545E+00</totfact>
</mgrwt>
</event>
<event>
12    1  0.1432447E-007  0.1457239E+04  0.7818608E-02  0.8913397E-01
         -1   -1    0    0    0  501 -0.00000000000E+00  0.00000000000E+00  0.29892465670E+04  0.29892465670E+04  0.00000000000E+00 0.  1.
          1   -1    0    0  501    0  0.00000000000E+00 -0.00000000000E+00 -0.85931720813E+03  0.85931720813E+03  0.00000000000E+00 0. -1.
         23    2    1    2    0    0 -0.12717243233E+04  0.68984324472E+03  0.37820829539E+03  0.14987071038E+04  0.99574150431E+02 0.  0.
    5000000    2    1    2    0    0  0.12717243233E+04 -0.68984324472E+03  0.17517210635E+04  0.23498566713E+04  0.60011101875E+03 0.  0.
         23    2    4    4    0    0  0.16594001521E+03 -0.72587927361E+02  0.60848940924E+03  0.64135482278E+03  0.90948071442E+02 0.  0.
         23    2    4    4    0    0  0.11057843081E+04 -0.61725531736E+03  0.11432316542E+04  0.17085018486E+04  0.90757305172E+02 0.  0.
          3    1    3    3  502    0 -0.24324099619E+03  0.96308861637E+02  0.45733045296E+02  0.26558066663E+03  0.00000000000E+00 0. -1.
         -3    1    3    3    0  502 -0.10284833271E+04  0.59353438308E+03  0.33247525010E+03  0.12331264372E+04  0.00000000000E+00 0.  1.
         13    1    5    5    0    0  0.15921943235E+03 -0.85872789350E+02  0.49744864768E+03  0.52932043288E+03  0.00000000000E+00 0. -1.
        -13    1    5    5    0    0  0.67205828664E+01  0.13284861989E+02  0.11104076156E+03  0.11203438990E+03  0.00000000000E+00 0.  1.
          1    1    6    6  503    0  0.94321020649E+03 -0.48832540178E+03  0.95211424400E+03  0.14264041241E+04  0.00000000000E+00 0. -1.
         -1    1    6    6    0  503  0.16257410161E+03 -0.12892991558E+03  0.19111741023E+03  0.28209772445E+03  0.00000000000E+00 0.  1.
<mgrwt>
<rscale>  0 0.14572392E+04</rscale>
<asrwt>0</asrwt>
<pdfrwt beam="1">  1        1 0.13220265E+00 0.14572392E+04</pdfrwt>
<pdfrwt beam="2">  1       -1 0.45988408E+00 0.14572392E+04</pdfrwt>
<totfact> 0.52120704E-02</totfact>
</mgrwt>
</event>
<event>
12    1  0.1432447E-007  0.5224802E+03  0.7818608E-02  0.1008072E+00
          2   -1    0    0  501    0  0.00000000000E+00  0.00000000000E+00  0.99827421434E+03  0.99827421434E+03  0.00000000000E+00 0. -1.
         -2   -1    0    0    0  501 -0.00000000000E+00 -0.00000000000E+00 -0.34756096670E+03  0.34756096670E+03  0.00000000000E+00 0.  1.
         23    2    1    2    0    0 -0.36032083596E+03 -0.78577017305E+02 -0.10557258415E+02  0.38025713399E+03  0.92079203783E+02 0.  0.
    5000000    2    1    2    0    0  0.36032083596E+03  0.78577017305E+02  0.66127050606E+03  0.96557804706E+03  0.59921350978E+03 0.  0.
         23    2    4    4    0    0  0.49084701493E+03  0.11648555518E+03  0.60411226472E+03  0.79256472967E+03  0.93314230968E+02 0.  0.
         23    2    4    4    0    0 -0.13052617897E+03 -0.37908537876E+02  0.57158241332E+02  0.17301331739E+03  0.90511893148E+02 0.  0.
          3    1    3    3  502    0 -0.26976938229E+03 -0.35346052240E+02 -0.41568953927E+02  0.27523233996E+03  0.00000000000E+00 0. -1.
         -3    1    3    3    0  502 -0.90551453673E+02 -0.43230965065E+02  0.31011695512E+02  0.10502479403E+03  0.00000000000E+00 0.  1.
         13    1    5    5    0    0  0.20758004406E+03  0.96830505791E+02  0.26510732171E+03  0.35035341238E+03  0.00000000000E+00 0. -1.
        -13    1    5    5    0    0  0.28326697087E+03  0.19655049390E+02  0.33900494302E+03  0.44221131729E+03  0.00000000000E+00 0.  1.
          4    1    6    6  503    0 -0.96240965223E+02 -0.64753519621E+02  0.24432890387E+02  0.11854243048E+03  0.00000000000E+00 0.  1.
         -4    1    6    6    0  503 -0.34285213743E+02  0.26844981745E+02  0.32725350945E+02  0.54470886910E+02  0.00000000000E+00 0. -1.
<mgrwt>
<rscale>  0 0.52248023E+03</rscale>
<asrwt>0</asrwt>
<pdfrwt beam="1">  1        2 0.15358065E+00 0.52248023E+03</pdfrwt>
<pdfrwt beam="2">  1       -2 0.53470918E-01 0.52248023E+03</pdfrwt>
<totfact> 0.86186843E+01</totfact>
</mgrwt>
</event>
<event>
12    1  0.1432447E-007  0.7147410E+03  0.7818608E-02  0.9692350E-01
         -1   -1    0    0    0  501 -0.00000000000E+00  0.00000000000E+00  0.41408793936E+03  0.41408793936E+03  0.00000000000E+00 0.  1.
          1   -1    0    0  501    0  0.00000000000E+00 -0.00000000000E+00 -0.13908579992E+04  0.13908579992E+04  0.00000000000E+00 0. -1.
         23    2    1    2    0    0 -0.24837219379E+03 -0.54849001754E+03 -0.16875753996E+03  0.63211627569E+03  0.92530171910E+02 0.  0.
    5000000    2    1    2    0    0  0.24837219379E+03  0.54849001754E+03 -0.80801251985E+03  0.11728296628E+04  0.60009594216E+03 0.  0.
         23    2    4    4    0    0  0.23067195927E+03 -0.26781316929E+02 -0.35651555469E+03  0.43539064004E+03  0.92384397862E+02 0.  0.
         23    2    4    4    0    0  0.17700234522E+02  0.57527133447E+03 -0.45149696516E+03  0.73743902279E+03  0.93361642181E+02 0.  0.
          2    1    3    3  502    0 -0.13939583184E+03 -0.39570747862E+03 -0.13985182954E+03  0.44223765194E+03  0.00000000000E+00 0. -1.
         -2    1    3    3    0  502 -0.10897636194E+03 -0.15278253892E+03 -0.28905710412E+02  0.18987862374E+03  0.00000000000E+00 0.  1.
         11    1    5    5    0    0  0.53627374976E+02  0.28939505204E+02 -0.12146459261E+03  0.13589347875E+03  0.00000000000E+00 0. -1.
        -11    1    5    5    0    0  0.17704458429E+03 -0.55720822133E+02 -0.23505096208E+03  0.29949716129E+03  0.00000000000E+00 0.  1.
          4    1    6    6  503    0  0.27400587566E+01  0.32567489478E+03 -0.19685395364E+03  0.38055633496E+03  0.00000000000E+00 0.  1.
         -4    1    6    6    0  503  0.14960175765E+02  0.24959643969E+03 -0.25464301152E+03  0.35688268784E+03  0.00000000000E+00 0. -1.
<mgrwt>
<rscale>  0 0.71474104E+03</rscale>
<asrwt>0</asrwt>
<pdfrwt beam="1">  1        1 0.21397815E+00 0.71474104E+03</pdfrwt>
<pdfrwt beam="2">  1       -1 0.63705837E-01 0.71474104E+03</pdfrwt>
<totfact> 0.20227166E+01</totfact>
</mgrwt>
</event>
<event>
12    1  0.1432447E-007  0.1245939E+04  0.7818608E-02  0.9073570E-01
          1   -1    0    0  501    0  0.00000000000E+00  0.00000000000E+00  0.13481682123E+04  0.13481682123E+04  0.00000000000E+00 0. -1.
         -1   -1    0    0    0  501 -0.00000000000E+00 -0.00000000000E+00 -0.13190311480E+04  0.13190311480E+04  0.00000000000E+00 0.  1.
         23    2    1    2    0    0  0.11604246870E+04  0.32349590600E+03 -0.37028353003E+03  0.12635738314E+04  0.90960867630E+02 0.  0.
    5000000    2    1    2    0    0 -0.11604246870E+04 -0.32349590600E+03  0.39942059437E+03  0.14036255288E+04  0.59949375188E+03 0.  0.
         23    2    4    4    0    0 -0.65794241858E+03 -0.39971226756E+03  0.46051272559E+02  0.77801898692E+03  0.10263869298E+03 0.  0.
         23    2    4    4    0    0 -0.50248226843E+03  0.76216361561E+02  0.35336932181E+03  0.62560654191E+03  0.90643829488E+02 0.  0.
          3    1    3    3  502    0  0.53228679206E+03  0.19175974446E+03 -0.15493977744E+03  0.58660665120E+03  0.00000000000E+00 0. -1.
         -3    1    3    3    0  502  0.62813789495E+03  0.13173616154E+03 -0.21534375260E+03  0.67696718023E+03  0.00000000000E+00 0.  1.
         13    1    5    5    0    0 -0.60755650580E+03 -0.36749207190E+03  0.70212258393E+02  0.71351600674E+03  0.00000000000E+00 0.  1.
        -13    1    5    5    0    0 -0.50385912780E+02 -0.32220195662E+02 -0.24160985834E+02  0.64502980176E+02  0.00000000000E+00 0. -1.
          2    1    6    6  503    0 -0.24321000242E+03  0.77189551692E+02  0.14911194162E+03  0.29553968143E+03  0.00000000000E+00 0. -1.
         -2    1    6    6    0  503 -0.25927226601E+03 -0.97319013053E+00  0.20425738020E+03  0.33006686048E+03  0.00000000000E+00 0.  1.
<mgrwt>
<rscale>  0 0.12459388E+04</rscale>
<asrwt>0</asrwt>
<pdfrwt beam="1">  1        1 0.20741050E+00 0.12459388E+04</pdfrwt>
<pdfrwt beam="2">  1       -1 0.20292787E+00 0.12459388E+04</pdfrwt>
<totfact> 0.11703194E+00</totfact>
</mgrwt>
</event>
<event>
12    1  0.1432447E-007  0.9418022E+03  0.7818608E-02  0.9374784E-01
         -1   -1    0    0    0  501 -0.00000000000E+00  0.00000000000E+00  0.14908916466E+04  0.14908916466E+04  0.00000000000E+00 0.  1.
          1   -1    0    0  501    0  0.00000000000E+00 -0.00000000000E+00 -0.69094220053E+03  0.69094220053E+03  0.00000000000E+00 0. -1.
         23    2    1    2    0    0  0.83937424769E+03 -0.29357158115E+03  0.63499398015E+03  0.10965092902E+04  0.91552540317E+02 0.  0.
    5000000    2    1    2    0    0 -0.83937424769E+03  0.29357158115E+03  0.16495546597E+03  0.10853245570E+04  0.59998807269E+03 0.  0.
         23    2    4    4    0    0 -0.39090169524E+02  0.16365456439E+03 -0.11643747176E+03  0.22292873813E+03  0.88479826248E+02 0.  0.
         23    2    4    4    0    0 -0.80028407816E+03  0.12991701675E+03  0.28139293773E+03  0.86239581889E+03  0.84920704373E+02 0.  0.
          2    1    3    3  502    0  0.63770037160E+03 -0.18316412109E+03  0.48791584602E+03  0.82357314914E+03  0.00000000000E+00 0. -1.
         -2    1    3    3    0  502  0.20167387609E+03 -0.11040746006E+03  0.14707813413E+03  0.27293614101E+03  0.00000000000E+00 0.  1.
         13    1    5    5    0    0 -0.43760371843E+02  0.77537968182E+02 -0.10215793433E+03  0.13551143937E+03  0.00000000000E+00 0. -1.
        -13    1    5    5    0    0  0.46702023188E+01  0.86116596212E+02 -0.14279537430E+02  0.87417298757E+02  0.00000000000E+00 0.  1.
          4    1    6    6  503    0 -0.44503901121E+03  0.11358394392E+03  0.14756370878E+03  0.48242728153E+03  0.00000000000E+00 0. -1.
         -4    1    6    6    0  503 -0.35524506695E+03  0.16333072835E+02  0.13382922895E+03  0.37996853736E+03  0.00000000000E+00 0.  1.
<mgrwt>
<rscale>  0 0.94180216E+03</rscale>
<asrwt>0</asrwt>
<pdfrwt beam="1">  1        1 0.10629880E+00 0.94180216E+03</pdfrwt>
<pdfrwt beam="2">  1       -1 0.22936795E+00 0.94180216E+03</pdfrwt>
<totfact> 0.26843590E+00</totfact>
</mgrwt>
</event>
<event>
12    1  0.1432447E-007  0.1664699E+04  0.7818608E-02  0.8781758E-01
          1   -1    0    0  501    0  0.00000000000E+00  0.00000000000E+00  0.19113829365E+04  0.19113829365E+04  0.00000000000E+00 0. -1.
         -1   -1    0    0    0  501 -0.00000000000E+00 -0.00000000000E+00 -0.15598665468E+04  0.15598665468E+04  0.00000000000E+00 0.  1.
         23    2    1    2    0    0 -0.30643694112E+03  0.16281512966E+04 -0.65422249265E+02  0.16605761904E+04  0.91940033671E+02 0.  0.
    5000000    2    1    2    0    0  0.30643694112E+03 -0.16281512966E+04  0.41693863896E+03  0.18106732929E+04  0.59993308064E+03 0.  0.
         23    2    4    4    0    0  0.92055125004E+02 -0.88529597202E+03  0.50475678192E+03  0.10272429218E+04  0.90694582475E+02 0.  0.
         23    2    4    4    0    0  0.21438181611E+03 -0.74285532459E+03 -0.87818142952E+02  0.78343037110E+03  0.90870918176E+02 0.  0.
          3    1    3    3  502    0 -0.16149288316E+03  0.10909850268E+04 -0.38298330817E+02  0.11035375128E+04  0.00000000000E+00 0. -1.
         -3    1    3    3    0  502 -0.14494405796E+03  0.53716626986E+03 -0.27123918448E+02  0.55703867762E+03  0.00000000000E+00 0.  1.
         11    1    5    5    0    0  0.87468588474E+02 -0.52056263825E+03  0.26406547045E+03  0.59022604737E+03  0.00000000000E+00 0.  1.
        -11    1    5    5    0    0  0.45865365305E+01 -0.36473333377E+03  0.24069131147E+03  0.43701687439E+03  0.00000000000E+00 0. -1.
          2    1    6    6  503    0  0.21945544789E+03 -0.68154172720E+03 -0.91346774838E+02  0.72180610471E+03  0.00000000000E+00 0.  1.
         -2    1    6    6    0  503 -0.50736317793E+01 -0.61313597395E+02  0.35286318857E+01  0.61624266389E+02  0.00000000000E+00 0. -1.
<mgrwt>
<rscale>  0 0.16646993E+04</rscale>
<asrwt>0</asrwt>
<pdfrwt beam="1">  1        1 0.29405891E+00 0.16646993E+04</pdfrwt>
<pdfrwt beam="2">  1       -1 0.23997947E+00 0.16646993E+04</pdfrwt>
<totfact> 0.25729261E-01</totfact>
</mgrwt>
</event>
<event>
12    1  0.1432447E-007  0.4771045E+03  0.7818608E-02  0.1019934E+00
         -3   -1    0    0    0  501 -0.00000000000E+00  0.00000000000E+00  0.80107375978E+03  0.80107375978E+03  0.00000000000E+00 0.  1.
          3   -1    0    0  501    0  0.00000000000E+00 -0.00000000000E+00 -0.32407724109E+03  0.32407724109E+03  0.00000000000E+00 0. -1.
         23    2    1    2    0    0 -0.16381440625E+03 -0.23892199668E+03 -0.35852492672E+01  0.30359637950E+03  0.90769088587E+02 0.  0.
    5000000    2    1    2    0    0  0.16381440625E+03  0.23892199668E+03  0.48058176796E+03  0.82155462136E+03  0.60006189680E+03 0.  0.
         23    2    4    4    0    0 -0.56679279476E+02  0.37387130060E+03  0.27723657128E+03  0.47815004414E+03  0.93675280238E+02 0.  0.
         23    2    4    4    0    0  0.22049368573E+03 -0.13494930392E+03  0.20334519667E+03  0.34340457721E+03  0.98735275200E+02 0.  0.
          2    1    3    3  502    0 -0.69426843666E+02 -0.55574307243E+02 -0.33881594147E+02  0.95165921783E+02  0.00000000000E+00 0. -1.
         -2    1    3    3    0  502 -0.94387562584E+02 -0.18334768944E+03  0.30296344880E+02  0.20843045772E+03  0.00000000000E+00 0.  1.
         13    1    5    5    0    0 -0.71477610212E+02  0.16058676143E+03  0.12527613695E+03  0.21585010354E+03  0.00000000000E+00 0.  1.
        -13    1    5    5    0    0  0.14798330736E+02  0.21328453916E+03  0.15196043433E+03  0.26229994060E+03  0.00000000000E+00 0. -1.
          4    1    6    6  503    0  0.21762607767E+03 -0.14336064898E+03  0.17552941461E+03  0.31420369309E+03  0.00000000000E+00 0. -1.
         -4    1    6    6    0  503  0.28676080524E+01  0.84113450623E+01  0.27815782064E+02  0.29200884123E+02  0.00000000000E+00 0.  1.
<mgrwt>
<rscale>  0 0.47710448E+03</rscale>
<asrwt>0</asrwt>
<pdfrwt beam="1">  1        3 0.49858037E-01 0.47710448E+03</pdfrwt>
<pdfrwt beam="2">  1       -3 0.12324212E+00 0.47710448E+03</pdfrwt>
<totfact> 0.55272213E+00</totfact>
</mgrwt>
</event>
<event>
12    1  0.1432447E-007  0.1252064E+04  0.7818608E-02  0.9068467E-01
         -2   -1    0    0    0  501 -0.00000000000E+00  0.00000000000E+00  0.18997576243E+04  0.18997576243E+04  0.00000000000E+00 0.  1.
          2   -1    0    0  501    0  0.00000000000E+00 -0.00000000000E+00 -0.16734915823E+04  0.16734915823E+04  0.00000000000E+00 0. -1.
         23    2    1    2    0    0 -0.24751656589E+03 -0.11676621373E+04 -0.11465822539E+04  0.16576834459E+04  0.92543096251E+02 0.  0.
    5000000    2    1    2    0    0  0.24751656589E+03  0.11676621373E+04  0.13728482959E+04  0.19155657607E+04  0.59998368531E+03 0.  0.
         23    2    4    4    0    0 -0.14130786457E+03  0.19986367935E+03  0.13356651336E+03  0.29338675317E+03  0.91227027414E+02 0.  0.
         23    2    4    4    0    0  0.38882443046E+03  0.96779845795E+03  0.12392817825E+04  0.16221790075E+04  0.88470915715E+02 0.  0.
          4    1    3    3  502    0 -0.21720800220E+03 -0.85182522788E+03 -0.81504810007E+03  0.11987864449E+04  0.00000000000E+00 0. -1.
         -4    1    3    3    0  502 -0.30308563692E+02 -0.31583690942E+03 -0.33153415385E+03  0.45889700103E+03  0.00000000000E+00 0.  1.
         13    1    5    5    0    0 -0.87271470329E+02  0.47411606299E+02  0.55752928883E+02  0.11389714230E+03  0.00000000000E+00 0. -1.
        -13    1    5    5    0    0 -0.54036394240E+02  0.15245207305E+03  0.77813584478E+02  0.17948961087E+03  0.00000000000E+00 0.  1.
          3    1    6    6  503    0  0.29971194839E+03  0.63509637460E+03  0.83789949926E+03  0.10932750010E+04  0.00000000000E+00 0. -1.
         -3    1    6    6    0  503  0.89112482069E+02  0.33270208335E+03  0.40138228328E+03  0.52890400647E+03  0.00000000000E+00 0.  1.
<mgrwt>
<rscale>  0 0.12520637E+04</rscale>
<asrwt>0</asrwt>
<pdfrwt beam="1">  1        2 0.25746024E+00 0.12520637E+04</pdfrwt>
<pdfrwt beam="2">  1       -2 0.29227040E+00 0.12520637E+04</pdfrwt>
<totfact> 0.34806635E-01</totfact>
</mgrwt>
</event>
<event>
12    1  0.1432447E-007  0.1586852E+04  0.7818608E-02  0.8828666E-01
         -2   -1    0    0    0  501 -0.00000000000E+00  0.00000000000E+00  0.12479724865E+04  0.12479724865E+04  0.00000000000E+00 0.  1.
          2   -1    0    0  501    0  0.00000000000E+00 -0.00000000000E+00 -0.22462813488E+04  0.22462813488E+04  0.00000000000E+00 0. -1.
         23    2    1    2    0    0 -0.12002337120E+04  0.10285928069E+04 -0.11729559469E+03  0.15877021540E+04  0.92063823350E+02 0.  0.
    5000000    2    1    2    0    0  0.12002337120E+04 -0.10285928069E+04 -0.88101326761E+03  0.19065516813E+04  0.60015898724E+03 0.  0.
         23    2    4    4    0    0  0.70656674668E+03 -0.60390940646E+03 -0.19093000580E+03  0.95335412522E+03  0.92123190564E+02 0.  0.
         23    2    4    4    0    0  0.49366696529E+03 -0.42468340044E+03 -0.69008326182E+03  0.95319755607E+03  0.91146088386E+02 0.  0.
          1    1    3    3  502    0 -0.94745433038E+03  0.76249441308E+03 -0.99956996035E+02  0.12202699862E+04  0.00000000000E+00 0. -1.
         -1    1    3    3    0  502 -0.25277938160E+03  0.26609839381E+03 -0.17338598652E+02  0.36743216783E+03  0.00000000000E+00 0.  1.
         11    1    5    5    0    0  0.62039804482E+03 -0.49232502147E+03 -0.17811842647E+03  0.81179051154E+03  0.00000000000E+00 0.  1.
        -11    1    5    5    0    0  0.86168701866E+02 -0.11158438499E+03 -0.12811579331E+02  0.14156361368E+03  0.00000000000E+00 0. -1.
          4    1    6    6  503    0  0.40214296064E+01 -0.25393171907E+02 -0.25300826938E+02  0.36070998314E+02  0.00000000000E+00 0. -1.
         -4    1    6    6    0  503  0.48964553568E+03 -0.39929022853E+03 -0.66478243488E+03  0.91712655775E+03  0.00000000000E+00 0.  1.
<mgrwt>
<rscale>  0 0.15868521E+04</rscale>
<asrwt>0</asrwt>
<pdfrwt beam="1">  1        2 0.34558174E+00 0.15868521E+04</pdfrwt>
<pdfrwt beam="2">  1       -2 0.19199577E+00 0.15868521E+04</pdfrwt>
<totfact> 0.68086646E-01</totfact>
</mgrwt>
</event>
<event>
12    1  0.1432447E-007  0.2499807E+04  0.7818608E-02  0.8403054E-01
          2   -1    0    0  501    0  0.00000000000E+00  0.00000000000E+00  0.19752993896E+04  0.19752993896E+04  0.00000000000E+00 0. -1.
         -2   -1    0    0    0  501 -0.00000000000E+00 -0.00000000000E+00 -0.32062959525E+04  0.32062959525E+04  0.00000000000E+00 0.  1.
         23    2    1    2    0    0  0.24648887587E+04 -0.53757987128E+02 -0.33035648233E+03  0.24892148201E+04  0.92133063111E+02 0.  0.
    5000000    2    1    2    0    0 -0.24648887587E+04  0.53757987128E+02 -0.90064008063E+03  0.26923805220E+04  0.59932779561E+03 0.  0.
         23    2    4    4    0    0 -0.39713484448E+02  0.44267522431E+02 -0.57553159533E+02  0.12322914236E+03  0.91303236341E+02 0.  0.
         23    2    4    4    0    0 -0.24251752742E+04  0.94904646964E+01 -0.84308692110E+03  0.25691513796E+04  0.90432711579E+02 0.  0.
          2    1    3    3  502    0  0.77239460873E+03  0.61917290771E+01 -0.13985643195E+03  0.78497871988E+03  0.00000000000E+00 0. -1.
         -2    1    3    3    0  502  0.16924941500E+04 -0.59949716205E+02 -0.19050005038E+03  0.17042361002E+04  0.00000000000E+00 0.  1.
         11    1    5    5    0    0 -0.62550922201E+02  0.54753492650E+02 -0.38075302968E+02  0.91434629772E+02  0.00000000000E+00 0. -1.
        -11    1    5    5    0    0  0.22837437753E+02 -0.10485970218E+02 -0.19477856566E+02  0.31794512592E+02  0.00000000000E+00 0.  1.
          4    1    6    6  503    0 -0.31127524263E+03 -0.88192369395E+01 -0.78398887666E+02  0.32111748816E+03  0.00000000000E+00 0. -1.
         -4    1    6    6    0  503 -0.21139000316E+04  0.18309701636E+02 -0.76468803343E+03  0.22480338915E+04  0.00000000000E+00 0.  1.
<mgrwt>
<rscale>  0 0.24998070E+04</rscale>
<asrwt>0</asrwt>
<pdfrwt beam="1">  1        2 0.30389221E+00 0.24998070E+04</pdfrwt>
<pdfrwt beam="2">  1       -2 0.49327630E+00 0.24998070E+04</pdfrwt>
<totfact> 0.10508049E-02</totfact>
</mgrwt>
</event>
<event>
12    1  0.1432447E-007  0.1032958E+04  0.7818608E-02  0.9273118E-01
          1   -1    0    0  501    0  0.00000000000E+00  0.00000000000E+00  0.10736176432E+04  0.10736176432E+04  0.00000000000E+00 0. -1.
         -1   -1    0    0    0  501 -0.00000000000E+00 -0.00000000000E+00 -0.10289055993E+04  0.10289055993E+04  0.00000000000E+00 0.  1.
         23    2    1    2    0    0 -0.91126513114E+02  0.94796197905E+03  0.16413565136E+03  0.97059671404E+03  0.90451722752E+02 0.  0.
    5000000    2    1    2    0    0  0.91126513114E+02 -0.94796197905E+03 -0.11942360741E+03  0.11319265284E+04  0.60004975848E+03 0.  0.
         23    2    4    4    0    0 -0.22354700613E+03 -0.60781931703E+03 -0.60473389932E+02  0.65672337837E+03  0.90614450822E+02 0.  0.
         23    2    4    4    0    0  0.31467351925E+03 -0.34014266201E+03 -0.58950217481E+02  0.47520315007E+03  0.87329556593E+02 0.  0.
          1    1    3    3  502    0 -0.44296513294E+02  0.62275533424E+03  0.14804723162E+03  0.64164193302E+03  0.00000000000E+00 0. -1.
         -1    1    3    3    0  502 -0.46829999820E+02  0.32520664481E+03  0.16088419744E+02  0.32895478102E+03  0.00000000000E+00 0.  1.
         13    1    5    5    0    0 -0.21698180896E+03 -0.54815266090E+03 -0.32316484164E+02  0.59042086703E+03  0.00000000000E+00 0. -1.
        -13    1    5    5    0    0 -0.65651971740E+01 -0.59666656132E+02 -0.28156905769E+02  0.66302511343E+02  0.00000000000E+00 0.  1.
          1    1    6    6  503    0  0.25900661451E+03 -0.27479860616E+03 -0.13019766688E+02  0.37784681371E+03  0.00000000000E+00 0. -1.
         -1    1    6    6    0  503  0.55666904737E+02 -0.65344055856E+02 -0.45930450793E+02  0.97356336357E+02  0.00000000000E+00 0.  1.
<mgrwt>
<rscale>  0 0.10329578E+04</rscale>
<asrwt>0</asrwt>
<pdfrwt beam="1">  1        1 0.16517194E+00 0.10329578E+04</pdfrwt>
<pdfrwt beam="2">  1       -1 0.15829317E+00 0.10329578E+04</pdfrwt>
<totfact> 0.39937393E+00</totfact>
</mgrwt>
</event>
<event>
12    1  0.1432447E-007  0.7671081E+03  0.7818608E-02  0.9608886E-01
         -2   -1    0    0    0  501 -0.00000000000E+00  0.00000000000E+00  0.39871552468E+03  0.39871552468E+03  0.00000000000E+00 0.  1.
          2   -1    0    0  501    0  0.00000000000E+00 -0.00000000000E+00 -0.16063510327E+04  0.16063510327E+04  0.00000000000E+00 0. -1.
         23    2    1    2    0    0 -0.63530890506E+03  0.24821205118E+03 -0.59114542818E+03  0.90720198853E+03  0.91301169351E+02 0.  0.
    5000000    2    1    2    0    0  0.63530890506E+03 -0.24821205118E+03 -0.61649007984E+03  0.10978645689E+04  0.60001663793E+03 0.  0.
         23    2    4    4    0    0  0.54886148284E+03  0.30861955365E+02 -0.22641865873E+03  0.60162302025E+03  0.92105710137E+02 0.  0.
         23    2    4    4    0    0  0.86447422221E+02 -0.27907400655E+03 -0.39007142111E+03  0.49624154860E+03  0.93512047601E+02 0.  0.
          3    1    3    3  502    0 -0.41987654475E+03  0.20934293663E+03 -0.39669842406E+03  0.61440248827E+03  0.00000000000E+00 0. -1.
         -3    1    3    3    0  502 -0.21543236031E+03  0.38869114554E+02 -0.19444700412E+03  0.29279950025E+03  0.00000000000E+00 0.  1.
         13    1    5    5    0    0  0.31002287110E+03 -0.35329202761E+01 -0.17086661692E+03  0.35400856333E+03  0.00000000000E+00 0.  1.
        -13    1    5    5    0    0  0.23883861174E+03  0.34394875641E+02 -0.55552041807E+02  0.24761445692E+03  0.00000000000E+00 0. -1.
          1    1    6    6  503    0  0.59289648533E+02 -0.23993109608E+03 -0.36906442679E+03  0.44417422754E+03  0.00000000000E+00 0. -1.
         -1    1    6    6    0  503  0.27157773688E+02 -0.39142910467E+02 -0.21006994322E+02  0.52067321056E+02  0.00000000000E+00 0.  1.
<mgrwt>
<rscale>  0 0.76710807E+03</rscale>
<asrwt>0</asrwt>
<pdfrwt beam="1">  1        2 0.24713092E+00 0.76710807E+03</pdfrwt>
<pdfrwt beam="2">  1       -2 0.61340851E-01 0.76710807E+03</pdfrwt>
<totfact> 0.27969050E+01</totfact>
</mgrwt>
</event>
<event>
12    1  0.1432447E-007  0.1126609E+04  0.7818608E-02  0.9179638E-01
         -2   -1    0    0    0  501 -0.00000000000E+00  0.00000000000E+00  0.13412895279E+04  0.13412895279E+04  0.00000000000E+00 0.  1.
          2   -1    0    0  501    0  0.00000000000E+00 -0.00000000000E+00 -0.11030182412E+04  0.11030182412E+04  0.00000000000E+00 0. -1.
         23    2    1    2    0    0  0.31916603093E+03 -0.10020316926E+04  0.55534046683E+03  0.11927249805E+04  0.90859104751E+02 0.  0.
    5000000    2    1    2    0    0 -0.31916603093E+03  0.10020316926E+04 -0.31706918013E+03  0.12515827886E+04  0.59999345281E+03 0.  0.
         23    2    4    4    0    0 -0.46296906998E+03  0.89073769265E+03 -0.27127902965E+03  0.10438865965E+04  0.91394297031E+02 0.  0.
         23    2    4    4    0    0  0.14380303905E+03  0.11129399991E+03 -0.45790150474E+02  0.20769619206E+03  0.89304545586E+02 0.  0.
          1    1    3    3  502    0  0.22134873942E+03 -0.78210103219E+03  0.45893812608E+03  0.93343531782E+03  0.00000000000E+00 0. -1.
         -1    1    3    3    0  502  0.97817291515E+02 -0.21993066037E+03  0.96402340753E+02  0.25928966272E+03  0.00000000000E+00 0.  1.
         13    1    5    5    0    0 -0.43537199917E+03  0.78333476815E+03 -0.22711011743E+03  0.92452211553E+03  0.00000000000E+00 0.  1.
        -13    1    5    5    0    0 -0.27597070808E+02  0.10740292450E+03 -0.44168912222E+02  0.11936448096E+03  0.00000000000E+00 0. -1.
          2    1    6    6  503    0  0.67411766350E+02  0.13897339769E+02 -0.47969348048E+02  0.83896010914E+02  0.00000000000E+00 0. -1.
         -2    1    6    6    0  503  0.76391272697E+02  0.97396660139E+02  0.21791975736E+01  0.12380018115E+03  0.00000000000E+00 0.  1.
<mgrwt>
<rscale>  0 0.11266092E+04</rscale>
<asrwt>0</asrwt>
<pdfrwt beam="1">  1        2 0.16969512E+00 0.11266092E+04</pdfrwt>
<pdfrwt beam="2">  1       -2 0.20635223E+00 0.11266092E+04</pdfrwt>
<totfact> 0.25671277E+00</totfact>
</mgrwt>
</event>
<event>
12    1  0.1432447E-007  0.6889645E+03  0.7818608E-02  0.9736293E-01
          2   -1    0    0  501    0  0.00000000000E+00  0.00000000000E+00  0.42582950884E+04  0.42582950884E+04  0.00000000000E+00 0. -1.
         -2   -1    0    0    0  501 -0.00000000000E+00 -0.00000000000E+00 -0.12356437048E+03  0.12356437048E+03  0.00000000000E+00 0.  1.
         23    2    1    2    0    0 -0.55122357546E+03 -0.18742977460E+03  0.13180149460E+04  0.14436979243E+04  0.90127400250E+02 0.  0.
    5000000    2    1    2    0    0  0.55122357546E+03  0.18742977460E+03  0.28167157720E+04  0.29381615346E+04  0.59994009104E+03 0.  0.
         23    2    4    4    0    0  0.43085496990E+03 -0.12097439978E+03  0.11680480329E+04  0.12541683169E+04  0.91275129679E+02 0.  0.
         23    2    4    4    0    0  0.12036860556E+03  0.30840417438E+03  0.16486677390E+04  0.16839932177E+04  0.90144926014E+02 0.  0.
          3    1    3    3  502    0 -0.48174981807E+02 -0.30486429406E+02  0.80358803837E+02  0.98528110731E+02  0.00000000000E+00 0. -1.
         -3    1    3    3    0  502 -0.50304859365E+03 -0.15694334520E+03  0.12376561421E+04  0.13451698136E+04  0.00000000000E+00 0.  1.
         13    1    5    5    0    0  0.28275958794E+03 -0.37830810694E+02  0.68018611015E+03  0.73758884160E+03  0.00000000000E+00 0.  1.
        -13    1    5    5    0    0  0.14809538196E+03 -0.83143589088E+02  0.48786192278E+03  0.51657947527E+03  0.00000000000E+00 0. -1.
          4    1    6    6  503    0  0.21772047711E+02  0.15472800294E+03  0.89399007592E+03  0.90754230358E+03  0.00000000000E+00 0. -1.
         -4    1    6    6    0  503  0.98596557847E+02  0.15367617145E+03  0.75467766312E+03  0.77645091416E+03  0.00000000000E+00 0.  1.
<mgrwt>
<rscale>  0 0.68896447E+03</rscale>
<asrwt>0</asrwt>
<pdfrwt beam="1">  1        2 0.65512221E+00 0.68896447E+03</pdfrwt>
<pdfrwt beam="2">  1       -2 0.19009906E-01 0.68896447E+03</pdfrwt>
<totfact> 0.54612952E+00</totfact>
</mgrwt>
</event>
<event>
12    1  0.1432447E-007  0.2804010E+04  0.7818608E-02  0.8302024E-01
         -2   -1    0    0    0  501 -0.00000000000E+00  0.00000000000E+00  0.22782531666E+04  0.22782531666E+04  0.00000000000E+00 0.  1.
          2   -1    0    0  501    0  0.00000000000E+00 -0.00000000000E+00 -0.34633826460E+04  0.34633826460E+04  0.00000000000E+00 0. -1.
         23    2    1    2    0    0 -0.23968914452E+04  0.13965330212E+04 -0.47430902621E+03  0.28157862277E+04  0.91049153864E+02 0.  0.
    5000000    2    1    2    0    0  0.23968914452E+04 -0.13965330212E+04 -0.71082045320E+03  0.29258495848E+04  0.59994749519E+03 0.  0.
         23    2    4    4    0    0  0.10874943554E+04 -0.95980747769E+03 -0.42098833934E+03  0.15124013973E+04  0.79072356752E+02 0.  0.
         23    2    4    4    0    0  0.13093970898E+04 -0.43672554349E+03 -0.28983211386E+03  0.14134481875E+04  0.92645481815E+02 0.  0.
          1    1    3    3  502    0 -0.35130585884E+03  0.18623960880E+03 -0.96160030744E+02  0.40908159314E+03  0.00000000000E+00 0. -1.
         -1    1    3    3    0  502 -0.20455855864E+04  0.12102934124E+04 -0.37814899547E+03  0.24067046346E+04  0.00000000000E+00 0.  1.
         13    1    5    5    0    0  0.82515162395E+03 -0.68564581830E+03 -0.32510412081E+03  0.11210165387E+04  0.00000000000E+00 0.  1.
        -13    1    5    5    0    0  0.26234273143E+03 -0.27416165939E+03 -0.95884218528E+02  0.39138485865E+03  0.00000000000E+00 0. -1.
          2    1    6    6  503    0  0.88575045181E+03 -0.26959244404E+03 -0.23091297836E+03  0.95422992635E+03  0.00000000000E+00 0. -1.
         -2    1    6    6    0  503  0.42364663801E+03 -0.16713309945E+03 -0.58919135506E+02  0.45921826113E+03  0.00000000000E+00 0.  1.
<mgrwt>
<rscale>  0 0.28040100E+04</rscale>
<asrwt>0</asrwt>
<pdfrwt beam="1">  1        2 0.53282810E+00 0.28040100E+04</pdfrwt>
<pdfrwt beam="2">  1       -2 0.35050049E+00 0.28040100E+04</pdfrwt>
<totfact> 0.10829046E-02</totfact>
</mgrwt>
</event>
<event>
12    1  0.1432447E-007  0.1701848E+04  0.7818608E-02  0.8760311E-01
         -2   -1    0    0    0  501 -0.00000000000E+00  0.00000000000E+00  0.11610223781E+04  0.11610223781E+04  0.00000000000E+00 0. -1.
          2   -1    0    0  501    0  0.00000000000E+00 -0.00000000000E+00 -0.29745955047E+04  0.29745955047E+04  0.00000000000E+00 0.  1.
         23    2    1    2    0    0  0.14757170982E+04  0.75972844356E+03 -0.16836206192E+04  0.23659182675E+04  0.89791965375E+02 0.  0.
    5000000    2    1    2    0    0 -0.14757170982E+04 -0.75972844356E+03 -0.12995250740E+03  0.17696996154E+04  0.60001734354E+03 0.  0.
         23    2    4    4    0    0 -0.48798214363E+03 -0.54193950398E+03  0.60644370031E+02  0.73649388355E+03  0.83189557090E+02 0.  0.
         23    2    4    4    0    0 -0.98773495456E+03 -0.21778893959E+03 -0.19059687744E+03  0.10332057318E+04  0.90191750664E+02 0.  0.
          1    1    3    3  502    0  0.97633527332E+03  0.53702759403E+03 -0.10876261399E+04  0.15570998115E+04  0.00000000000E+00 0. -1.
         -1    1    3    3    0  502  0.49938182487E+03  0.22270084953E+03 -0.59599447932E+03  0.80881845600E+03  0.00000000000E+00 0.  1.
         11    1    5    5    0    0 -0.58589358437E+01 -0.12795490630E+02 -0.98604597675E+01  0.17183724175E+02  0.00000000000E+00 0.  1.
        -11    1    5    5    0    0 -0.48212320779E+03 -0.52914401335E+03  0.70504829799E+02  0.71931015937E+03  0.00000000000E+00 0. -1.
          4    1    6    6  503    0 -0.22152495850E+03 -0.70429468467E+02 -0.11917902484E+02  0.23275664044E+03  0.00000000000E+00 0. -1.
         -4    1    6    6    0  503 -0.76620999606E+03 -0.14735947112E+03 -0.17867897495E+03  0.80044909137E+03  0.00000000000E+00 0.  1.
<mgrwt>
<rscale>  0 0.17018477E+04</rscale>
<asrwt>0</asrwt>
<pdfrwt beam="1">  1        2 0.45763008E+00 0.17018477E+04</pdfrwt>
<pdfrwt beam="2">  1       -2 0.17861883E+00 0.17018477E+04</pdfrwt>
<totfact> 0.30909212E-01</totfact>
</mgrwt>
</event>
<event>
12    1  0.1432447E-007  0.5683344E+03  0.7818608E-02  0.9973371E-01
          2   -1    0    0  501    0  0.00000000000E+00  0.00000000000E+00  0.52632062319E+03  0.52632062319E+03  0.00000000000E+00 0. -1.
         -2   -1    0    0    0  501 -0.00000000000E+00 -0.00000000000E+00 -0.10399147122E+04  0.10399147122E+04  0.00000000000E+00 0.  1.
         23    2    1    2    0    0  0.37869856376E+03  0.17673319292E+03  0.26139819125E+03  0.50077872638E+03  0.88335127374E+02 0.  0.
    5000000    2    1    2    0    0 -0.37869856376E+03 -0.17673319292E+03 -0.77499228026E+03  0.10654566090E+04  0.59994793738E+03 0.  0.
         23    2    4    4    0    0 -0.85547208731E+02  0.20522360585E+03 -0.28216475048E+03  0.37087729353E+03  0.92184419072E+02 0.  0.
         23    2    4    4    0    0 -0.29315135503E+03 -0.38195679877E+03 -0.49282752978E+03  0.69457931549E+03  0.87935989865E+02 0.  0.
          2    1    3    3  502    0  0.25936968556E+03  0.75013035908E+02  0.17497337087E+03  0.32173788999E+03  0.00000000000E+00 0. -1.
         -2    1    3    3    0  502  0.11932887820E+03  0.10172015701E+03  0.86424820380E+02  0.17904083638E+03  0.00000000000E+00 0.  1.
         13    1    5    5    0    0 -0.76277677444E+01  0.63380459853E+02 -0.14611769458E+03  0.15945421350E+03  0.00000000000E+00 0. -1.
        -13    1    5    5    0    0 -0.77919440986E+02  0.14184314600E+03 -0.13604705590E+03  0.21142308003E+03  0.00000000000E+00 0.  1.
          4    1    6    6  503    0 -0.87623953836E+02 -0.15464461698E+03 -0.23127947448E+03  0.29169009267E+03  0.00000000000E+00 0. -1.
         -4    1    6    6    0  503 -0.20552740120E+03 -0.22731218179E+03 -0.26154805530E+03  0.40288922282E+03  0.00000000000E+00 0.  1.
<mgrwt>
<rscale>  0 0.56833436E+03</rscale>
<asrwt>0</asrwt>
<pdfrwt beam="1">  1        2 0.80972405E-01 0.56833436E+03</pdfrwt>
<pdfrwt beam="2">  1       -2 0.15998688E+00 0.56833436E+03</pdfrwt>
<totfact> 0.15121018E+01</totfact>
</mgrwt>
</event>
<event>
12    1  0.1432447E-007  0.1025067E+04  0.7818608E-02  0.9281471E-01
         -1   -1    0    0    0  501 -0.00000000000E+00  0.00000000000E+00  0.35740360426E+03  0.35740360426E+03  0.00000000000E+00 0.  1.
          1   -1    0    0  501    0  0.00000000000E+00 -0.00000000000E+00 -0.33634513044E+04  0.33634513044E+04  0.00000000000E+00 0. -1.
         23    2    1    2    0    0 -0.29918173993E+03  0.90856493213E+03 -0.83417368509E+03  0.12729724436E+04  0.98046702863E+02 0.  0.
    5000000    2    1    2    0    0  0.29918173993E+03 -0.90856493213E+03 -0.21718740151E+04  0.24478824650E+04  0.60007655837E+03 0.  0.
         23    2    4    4    0    0 -0.61775080944E+02 -0.62749101620E+03 -0.15089052310E+04  0.16378756997E+04  0.90998217287E+02 0.  0.
         23    2    4    4    0    0  0.36095682087E+03 -0.28107391593E+03 -0.66296878408E+03  0.81000676534E+03  0.85387226600E+02 0.  0.
          2    1    3    3  502    0 -0.36633990931E+01  0.96625146493E+02 -0.10042751504E+03  0.13941135249E+03  0.00000000000E+00 0. -1.
         -2    1    3    3    0  502 -0.29551834084E+03  0.81193978564E+03 -0.73374617005E+03  0.11335610911E+04  0.00000000000E+00 0.  1.
         13    1    5    5    0    0 -0.27917740474E+02 -0.13398175658E+03 -0.24531380337E+03  0.28090812280E+03  0.00000000000E+00 0.  1.
        -13    1    5    5    0    0 -0.33857340471E+02 -0.49350925962E+03 -0.12635914276E+04  0.13569675769E+04  0.00000000000E+00 0. -1.
          2    1    6    6  503    0  0.35024037907E+03 -0.26833573208E+03 -0.65870886749E+03  0.79282391510E+03  0.00000000000E+00 0. -1.
         -2    1    6    6    0  503  0.10716441808E+02 -0.12738183851E+02 -0.42599165898E+01  0.17182850235E+02  0.00000000000E+00 0.  1.
<mgrwt>
<rscale>  0 0.10250669E+04</rscale>
<asrwt>0</asrwt>
<pdfrwt beam="1">  1        1 0.51745401E+00 0.10250669E+04</pdfrwt>
<pdfrwt beam="2">  1       -1 0.54985173E-01 0.10250669E+04</pdfrwt>
<totfact> 0.11015159E+00</totfact>
</mgrwt>
</event>
<event>
12    1  0.1432447E-007  0.2716961E+03  0.7818608E-02  0.1100313E+00
          1   -1    0    0  501    0  0.00000000000E+00  0.00000000000E+00  0.68590545291E+03  0.68590545291E+03  0.00000000000E+00 0. -1.
         -1   -1    0    0    0  501 -0.00000000000E+00 -0.00000000000E+00 -0.17823640695E+03  0.17823640695E+03  0.00000000000E+00 0.  1.
         23    2    1    2    0    0 -0.19836524033E+02 -0.23413089512E+02  0.96881979500E+02  0.13642872585E+03  0.91022078856E+02 0.  0.
    5000000    2    1    2    0    0  0.19836524033E+02  0.23413089512E+02  0.41078706646E+03  0.72771313401E+03  0.59989893399E+03 0.  0.
         23    2    4    4    0    0  0.22258958772E+03 -0.28810208574E+02 -0.15680953649E+02  0.24387263818E+03  0.94084104214E+02 0.  0.
         23    2    4    4    0    0 -0.20275306369E+03  0.52223298085E+02  0.42646802011E+03  0.48384049583E+03  0.91600084756E+02 0.  0.
          1    1    3    3  502    0 -0.79855652122E+01  0.32696640311E+02  0.58275532257E+02  0.67296933060E+02  0.00000000000E+00 0. -1.
         -1    1    3    3    0  502 -0.11850958820E+02 -0.56109729823E+02  0.38606447243E+02  0.69131792791E+02  0.00000000000E+00 0.  1.
         11    1    5    5    0    0  0.77964121853E+02 -0.66983241851E+01 -0.50948787662E+02  0.93375857733E+02  0.00000000000E+00 0. -1.
        -11    1    5    5    0    0  0.14462546587E+03 -0.22111884389E+02  0.35267834013E+02  0.15049678045E+03  0.00000000000E+00 0.  1.
          2    1    6    6  503    0 -0.64369690652E+02  0.61643782032E+02  0.14862034859E+03  0.17329576150E+03  0.00000000000E+00 0. -1.
         -2    1    6    6    0  503 -0.13838337304E+03 -0.94204839465E+01  0.27784767152E+03  0.31054473433E+03  0.00000000000E+00 0.  1.
<mgrwt>
<rscale>  0 0.27169607E+03</rscale>
<asrwt>0</asrwt>
<pdfrwt beam="1">  1        1 0.10552391E+00 0.27169607E+03</pdfrwt>
<pdfrwt beam="2">  1       -1 0.27420986E-01 0.27169607E+03</pdfrwt>
<totfact> 0.34853156E+02</totfact>
</mgrwt>
</event>
<event>
12    1  0.1432447E-007  0.6678394E+03  0.7818608E-02  0.9773869E-01
          1   -1    0    0  501    0  0.00000000000E+00  0.00000000000E+00  0.12377205959E+04  0.12377205959E+04  0.00000000000E+00 0. -1.
         -1   -1    0    0    0  501 -0.00000000000E+00 -0.00000000000E+00 -0.43594640905E+03  0.43594640905E+03  0.00000000000E+00 0.  1.
         23    2    1    2    0    0 -0.51885039696E+03  0.18462104274E+03  0.62927221024E+03  0.84117067398E+03  0.91070985076E+02 0.  0.
    5000000    2    1    2    0    0  0.51885039696E+03 -0.18462104274E+03  0.17250197663E+03  0.83249633099E+03  0.60000212109E+03 0.  0.
         23    2    4    4    0    0  0.14934288621E+03 -0.33084322070E+03  0.20029223702E+03  0.42542044244E+03  0.95420324301E+02 0.  0.
         23    2    4    4    0    0  0.36950751076E+03  0.14622217796E+03 -0.27790260387E+02  0.40707588855E+03  0.83795910614E+02 0.  0.
          3    1    3    3  502    0 -0.49093886540E+03  0.19439692257E+03  0.60405484634E+03  0.80230504826E+03  0.00000000000E+00 0. -1.
         -3    1    3    3    0  502 -0.27911531563E+02 -0.97758798292E+01  0.25217363896E+02  0.38865625718E+02  0.00000000000E+00 0.  1.
         13    1    5    5    0    0  0.64130083856E+02 -0.24896274481E+03  0.14057840522E+03  0.29301434090E+03  0.00000000000E+00 0. -1.
        -13    1    5    5    0    0  0.85212802352E+02 -0.81880475896E+02  0.59713831798E+02  0.13240610154E+03  0.00000000000E+00 0.  1.
          4    1    6    6  503    0  0.16886206979E+03  0.31785923038E+02  0.13781165696E+02  0.17237941886E+03  0.00000000000E+00 0. -1.
         -4    1    6    6    0  503  0.20064544096E+03  0.11443625492E+03 -0.41571426084E+02  0.23469646969E+03  0.00000000000E+00 0.  1.
<mgrwt>
<rscale>  0 0.66783936E+03</rscale>
<asrwt>0</asrwt>
<pdfrwt beam="1">  1        1 0.19041855E+00 0.66783936E+03</pdfrwt>
<pdfrwt beam="2">  1       -1 0.67068679E-01 0.66783936E+03</pdfrwt>
<totfact> 0.23531958E+01</totfact>
</mgrwt>
</event>
<event>
12    1  0.1432447E-007  0.1401934E+04  0.7818608E-02  0.8952420E-01
         -2   -1    0    0    0  501 -0.00000000000E+00  0.00000000000E+00  0.92629101863E+03  0.92629101863E+03  0.00000000000E+00 0.  1.
          2   -1    0    0  501    0  0.00000000000E+00 -0.00000000000E+00 -0.26219326441E+04  0.26219326441E+04  0.00000000000E+00 0. -1.
         23    2    1    2    0    0 -0.40567523804E+03  0.13325966015E+04 -0.14482112952E+04  0.20114500051E+04  0.90714200500E+02 0.  0.
    5000000    2    1    2    0    0  0.40567523804E+03 -0.13325966015E+04 -0.24743033027E+03  0.15367736577E+04  0.60005450224E+03 0.  0.
         23    2    4    4    0    0  0.34512241716E+03 -0.80701957221E+03  0.11472378337E+03  0.88995457305E+03  0.92019144016E+02 0.  0.
         23    2    4    4    0    0  0.60552820884E+02 -0.52557702927E+03 -0.36215411364E+03  0.64681908466E+03  0.85565579783E+02 0.  0.
          3    1    3    3  502    0 -0.27303303570E+03  0.94422783362E+03 -0.96433151732E+03  0.13769707752E+04  0.00000000000E+00 0. -1.
         -3    1    3    3    0  502 -0.13264220234E+03  0.38836876786E+03 -0.48387977791E+03  0.63447922989E+03  0.00000000000E+00 0.  1.
         13    1    5    5    0    0  0.69896826566E+02 -0.12583607038E+03 -0.11909504664E+02  0.14443725030E+03  0.00000000000E+00 0.  1.
        -13    1    5    5    0    0  0.27522559059E+03 -0.68118350182E+03  0.12663328804E+03  0.74551732275E+03  0.00000000000E+00 0. -1.
          2    1    6    6  503    0 -0.41350064298E+01 -0.19725141001E+03 -0.17312315778E+03  0.26248208470E+03  0.00000000000E+00 0. -1.
         -2    1    6    6    0  503  0.64687827314E+02 -0.32832561926E+03 -0.18903095585E+03  0.38433699996E+03  0.00000000000E+00 0.  1.
<mgrwt>
<rscale>  0 0.14019336E+04</rscale>
<asrwt>0</asrwt>
<pdfrwt beam="1">  1        2 0.40337425E+00 0.14019336E+04</pdfrwt>
<pdfrwt beam="2">  1       -2 0.14250631E+00 0.14019336E+04</pdfrwt>
<totfact> 0.96891179E-01</totfact>
</mgrwt>
</event>
<event>
12    1  0.1432447E-007  0.8828275E+03  0.7818608E-02  0.9447306E-01
         -1   -1    0    0    0  501 -0.00000000000E+00  0.00000000000E+00  0.15589162027E+04  0.15589162027E+04  0.00000000000E+00 0.  1.
          1   -1    0    0  501    0  0.00000000000E+00 -0.00000000000E+00 -0.57506899214E+03  0.57506899214E+03  0.00000000000E+00 0. -1.
         23    2    1    2    0    0  0.12992635147E+03  0.83623932167E+03  0.52365103764E+03  0.99907981834E+03  0.88164699718E+02 0.  0.
    5000000    2    1    2    0    0 -0.12992635147E+03 -0.83623932167E+03  0.46019617293E+03  0.11349053765E+04  0.60004386186E+03 0.  0.
         23    2    4    4    0    0 -0.24357459542E+03 -0.59952692611E+03  0.71907976271E+02  0.65734951856E+03  0.90424077666E+02 0.  0.
         23    2    4    4    0    0  0.11364824395E+03 -0.23671239555E+03  0.38828819666E+03  0.47755585796E+03  0.91341076450E+02 0.  0.
          3    1    3    3  502    0 -0.10993171048E+02  0.32711602620E+02  0.14438866736E+02  0.37408282883E+02  0.00000000000E+00 0. -1.
         -3    1    3    3    0  502  0.14091952252E+03  0.80352771905E+03  0.50921217091E+03  0.96167153546E+03  0.00000000000E+00 0.  1.
         13    1    5    5    0    0  0.57682189905E+01 -0.39706746865E+01 -0.24870502498E+01  0.74312870173E+01  0.00000000000E+00 0. -1.
        -13    1    5    5    0    0 -0.24934281441E+03 -0.59555625143E+03  0.74395026521E+02  0.64991823154E+03  0.00000000000E+00 0.  1.
          1    1    6    6  503    0  0.76618930615E+01 -0.21187699136E+02  0.19065079984E+01  0.22611014412E+02  0.00000000000E+00 0. -1.
         -1    1    6    6    0  503  0.10598635089E+03 -0.21552469642E+03  0.38638168866E+03  0.45494484355E+03  0.00000000000E+00 0.  1.
<mgrwt>
<rscale>  0 0.88282747E+03</rscale>
<asrwt>0</asrwt>
<pdfrwt beam="1">  1        1 0.88472153E-01 0.88282747E+03</pdfrwt>
<pdfrwt beam="2">  1       -1 0.23983326E+00 0.88282747E+03</pdfrwt>
<totfact> 0.30246091E+00</totfact>
</mgrwt>
</event>
<event>
12    1  0.1432447E-007  0.2165578E+04  0.7818608E-02  0.8532894E-01
          2   -1    0    0  501    0  0.00000000000E+00  0.00000000000E+00  0.28998822689E+04  0.28998822689E+04  0.00000000000E+00 0. -1.
         -2   -1    0    0    0  501 -0.00000000000E+00 -0.00000000000E+00 -0.24284502031E+04  0.24284502031E+04  0.00000000000E+00 0.  1.
         23    2    1    2    0    0  0.21479510586E+04  0.89126684659E+02  0.17344624868E+04  0.27637986618E+04  0.92658560066E+02 0.  0.
    5000000    2    1    2    0    0 -0.21479510586E+04 -0.89126684659E+02 -0.12630304210E+04  0.25645338103E+04  0.59995875150E+03 0.  0.
         23    2    4    4    0    0 -0.99421225158E+03 -0.20878920345E+03 -0.85613009176E+03  0.13318159496E+04  0.93402660100E+02 0.  0.
         23    2    4    4    0    0 -0.11537388070E+04  0.11966251879E+03 -0.40690032920E+03  0.12327178607E+04  0.92698936312E+02 0.  0.
          1    1    3    3  502    0  0.12667312785E+04  0.18677607462E+02  0.98224426983E+03  0.16030473450E+04  0.00000000000E+00 0. -1.
         -1    1    3    3    0  502  0.88121978018E+03  0.70449077197E+02  0.75221821696E+03  0.11607513168E+04  0.00000000000E+00 0.  1.
         13    1    5    5    0    0 -0.16767887752E+03 -0.60080824541E+02 -0.11730921241E+03  0.21327766587E+03  0.00000000000E+00 0. -1.
        -13    1    5    5    0    0 -0.82653337406E+03 -0.14870837891E+03 -0.73882087935E+03  0.11185382837E+04  0.00000000000E+00 0.  1.
          1    1    6    6  503    0 -0.30532853139E+03  0.64950978875E+02 -0.83730824765E+02  0.32319497637E+03  0.00000000000E+00 0. -1.
         -1    1    6    6    0  503 -0.84841027566E+03  0.54711539918E+02 -0.32316950444E+03  0.90952288429E+03  0.00000000000E+00 0.  1.
<mgrwt>
<rscale>  0 0.21655777E+04</rscale>
<asrwt>0</asrwt>
<pdfrwt beam="1">  1        2 0.44613573E+00 0.21655777E+04</pdfrwt>
<pdfrwt beam="2">  1       -2 0.37360773E+00 0.21655777E+04</pdfrwt>
<totfact> 0.19141803E-02</totfact>
</mgrwt>
</event>
<event>
12    1  0.1432447E-007  0.7437379E+03  0.7818608E-02  0.9645226E-01
         -2   -1    0    0    0  501 -0.00000000000E+00  0.00000000000E+00  0.53126166206E+03  0.53126166206E+03  0.00000000000E+00 0.  1.
          2   -1    0    0  501    0  0.00000000000E+00 -0.00000000000E+00 -0.13951457417E+04  0.13951457417E+04  0.00000000000E+00 0. -1.
         23    2    1    2    0    0  0.58149561938E+03  0.25167444905E+03 -0.83596375816E+03  0.10533892034E+04  0.96520595288E+02 0.  0.
    5000000    2    1    2    0    0 -0.58149561938E+03 -0.25167444905E+03 -0.27920321471E+02  0.87301820031E+03  0.59992003639E+03 0.  0.
         23    2    4    4    0    0 -0.30503716811E+03  0.15754203068E+03  0.67486823776E+02  0.36170427356E+03  0.91697027040E+02 0.  0.
         23    2    4    4    0    0 -0.27645845127E+03 -0.40921647973E+03 -0.95407145247E+02  0.51131392675E+03  0.91934790796E+02 0.  0.
          3    1    3    3  502    0  0.36142789107E+03  0.12940887232E+03 -0.43741027694E+03  0.58198327042E+03  0.00000000000E+00 0. -1.
         -3    1    3    3    0  502  0.22006772831E+03  0.12226557673E+03 -0.39855348122E+03  0.47140593302E+03  0.00000000000E+00 0.  1.
         13    1    5    5    0    0 -0.14221345464E+03  0.28816426335E+02  0.49711773895E+02  0.15338289856E+03  0.00000000000E+00 0.  1.
        -13    1    5    5    0    0 -0.16282371347E+03  0.12872560435E+03  0.17775049881E+02  0.20832137500E+03  0.00000000000E+00 0. -1.
          1    1    6    6  503    0 -0.13027662775E+03 -0.13027413138E+03 -0.76764396862E+01  0.18439706280E+03  0.00000000000E+00 0. -1.
         -1    1    6    6    0  503 -0.14618182352E+03 -0.27894234835E+03 -0.87730705561E+02  0.32691686394E+03  0.00000000000E+00 0.  1.
<mgrwt>
<rscale>  0 0.74373792E+03</rscale>
<asrwt>0</asrwt>
<pdfrwt beam="1">  1        2 0.21463781E+00 0.74373792E+03</pdfrwt>
<pdfrwt beam="2">  1       -2 0.81732564E-01 0.74373792E+03</pdfrwt>
<totfact> 0.19621023E+01</totfact>
</mgrwt>
</event>
<event>
12    1  0.1432447E-007  0.4228002E+03  0.7818608E-02  0.1036159E+00
          1   -1    0    0  501    0  0.00000000000E+00  0.00000000000E+00  0.49493309573E+03  0.49493309573E+03  0.00000000000E+00 0. -1.
         -1   -1    0    0    0  501 -0.00000000000E+00 -0.00000000000E+00 -0.75502183155E+03  0.75502183155E+03  0.00000000000E+00 0.  1.
         23    2    1    2    0    0 -0.33235298312E+02 -0.28302601238E+03  0.26662481431E+03  0.40222330295E+03  0.97398588763E+02 0.  0.
    5000000    2    1    2    0    0  0.33235298312E+02  0.28302601238E+03 -0.52671355012E+03  0.84773162433E+03  0.60001119512E+03 0.  0.
         23    2    4    4    0    0  0.22771527179E+03  0.22965482974E+03 -0.52831006727E+03  0.62611986217E+03  0.91208381197E+02 0.  0.
         23    2    4    4    0    0 -0.19447997348E+03  0.53371182634E+02  0.15965171486E+01  0.22161176216E+03  0.91860116699E+02 0.  0.
          4    1    3    3  502    0  0.91391437585E+01 -0.13918391356E+03  0.18437932744E+03  0.23119563605E+03  0.00000000000E+00 0. -1.
         -4    1    3    3    0  502 -0.42374442070E+02 -0.14384209882E+03  0.82245486869E+02  0.17102766690E+03  0.00000000000E+00 0.  1.
         13    1    5    5    0    0  0.17902344887E+03  0.12019526079E+03 -0.32148157606E+03  0.38710037420E+03  0.00000000000E+00 0. -1.
        -13    1    5    5    0    0  0.48691822920E+02  0.10945956895E+03 -0.20682849121E+03  0.23901948797E+03  0.00000000000E+00 0.  1.
          2    1    6    6  503    0 -0.11293617156E+03  0.75975186232E+02 -0.85794970519E+01  0.13638334040E+03  0.00000000000E+00 0.  1.
         -2    1    6    6    0  503 -0.81543801918E+02 -0.22604003598E+02  0.10176014201E+02  0.85228421755E+02  0.00000000000E+00 0. -1.
<mgrwt>
<rscale>  0 0.42280023E+03</rscale>
<asrwt>0</asrwt>
<pdfrwt beam="1">  1        1 0.76143553E-01 0.42280023E+03</pdfrwt>
<pdfrwt beam="2">  1       -1 0.11615720E+00 0.42280023E+03</pdfrwt>
<totfact> 0.32136545E+01</totfact>
</mgrwt>
</event>
<event>
12    1  0.1432447E-007  0.1124279E+04  0.7818608E-02  0.9181846E-01
         -2   -1    0    0    0  501 -0.00000000000E+00  0.00000000000E+00  0.19470044795E+04  0.19470044795E+04  0.00000000000E+00 0.  1.
          2   -1    0    0  501    0  0.00000000000E+00 -0.00000000000E+00 -0.11742401986E+04  0.11742401986E+04  0.00000000000E+00 0. -1.
         23    2    1    2    0    0  0.58602113724E+03 -0.88276793444E+03 -0.65165496834E+03  0.12472622126E+04  0.91152782734E+02 0.  0.
    5000000    2    1    2    0    0 -0.58602113724E+03  0.88276793444E+03  0.14244192493E+04  0.18739824655E+04  0.60011672531E+03 0.  0.
         23    2    4    4    0    0 -0.40528701421E+03  0.90282602208E+03  0.10372140159E+04  0.14364314775E+04  0.90388521461E+02 0.  0.
         23    2    4    4    0    0 -0.18073412304E+03 -0.20058087642E+02  0.38720523337E+03  0.43755098799E+03  0.91955555761E+02 0.  0.
          1    1    3    3  502    0  0.89973089489E+02 -0.17816272577E+03 -0.15471966659E+03  0.25253769801E+03  0.00000000000E+00 0. -1.
         -1    1    3    3    0  502  0.49604804775E+03 -0.70460520867E+03 -0.49693530175E+03  0.99472451457E+03  0.00000000000E+00 0.  1.
         11    1    5    5    0    0 -0.13865099739E+03  0.39082354073E+03  0.39150057057E+03  0.57029802369E+03  0.00000000000E+00 0. -1.
        -11    1    5    5    0    0 -0.26663601682E+03  0.51200248135E+03  0.64571344536E+03  0.86613345386E+03  0.00000000000E+00 0.  1.
          1    1    6    6  503    0 -0.11454888300E+02 -0.23331434118E+02  0.18725252336E+02  0.32034440202E+02  0.00000000000E+00 0. -1.
         -1    1    6    6    0  503 -0.16927923474E+03  0.32733464767E+01  0.36847998103E+03  0.40551654779E+03  0.00000000000E+00 0.  1.
<mgrwt>
<rscale>  0 0.11242789E+04</rscale>
<asrwt>0</asrwt>
<pdfrwt beam="1">  1        2 0.18065234E+00 0.11242789E+04</pdfrwt>
<pdfrwt beam="2">  1       -2 0.29953915E+00 0.11242789E+04</pdfrwt>
<totfact> 0.61932696E-01</totfact>
</mgrwt>
</event>
<event>
12    1  0.1432447E-007  0.1505845E+04  0.7818608E-02  0.8880575E-01
          1   -1    0    0  501    0  0.00000000000E+00  0.00000000000E+00  0.17839329727E+04  0.17839329727E+04  0.00000000000E+00 0. -1.
         -1   -1    0    0    0  501 -0.00000000000E+00 -0.00000000000E+00 -0.23314542754E+04  0.23314542754E+04  0.00000000000E+00 0.  1.
         23    2    1    2    0    0  0.12803731035E+04 -0.69590211916E+03  0.11055061398E+04  0.18314557609E+04  0.91931145248E+02 0.  0.
    5000000    2    1    2    0    0 -0.12803731035E+04  0.69590211916E+03 -0.16530274425E+04  0.22839314872E+04  0.60017353249E+03 0.  0.
         23    2    4    4    0    0 -0.10220132791E+04  0.28313248572E+03 -0.12703922914E+04  0.16575470379E+04  0.94289244569E+02 0.  0.
         23    2    4    4    0    0 -0.25835982442E+03  0.41276963343E+03 -0.38263515109E+03  0.62638444935E+03  0.93910863980E+02 0.  0.
          3    1    3    3  502    0  0.10872882937E+04 -0.61314217308E+03  0.97756936094E+03  0.15854907800E+04  0.00000000000E+00 0. -1.
         -3    1    3    3    0  502  0.19308480986E+03 -0.82759946082E+02  0.12793677884E+03  0.24596498095E+03  0.00000000000E+00 0.  1.
         11    1    5    5    0    0 -0.33498462485E+03  0.97094490324E+02 -0.48817093427E+03  0.59996074872E+03  0.00000000000E+00 0.  1.
        -11    1    5    5    0    0 -0.68702865425E+03  0.18603799540E+03 -0.78222135713E+03  0.10575862892E+04  0.00000000000E+00 0. -1.
          4    1    6    6  503    0 -0.22107746402E+03  0.29090317618E+03 -0.31327180926E+03  0.48128902905E+03  0.00000000000E+00 0. -1.
         -4    1    6    6    0  503 -0.37282360405E+02  0.12186645725E+03 -0.69363341830E+02  0.14509542030E+03  0.00000000000E+00 0.  1.
<mgrwt>
<rscale>  0 0.15058449E+04</rscale>
<asrwt>0</asrwt>
<pdfrwt beam="1">  1        1 0.27445123E+00 0.15058449E+04</pdfrwt>
<pdfrwt beam="2">  1       -1 0.35868527E+00 0.15058449E+04</pdfrwt>
<totfact> 0.53659942E-02</totfact>
</mgrwt>
</event>
<event>
12    1  0.1432447E-007  0.4160450E+03  0.7818608E-02  0.1038361E+00
         -1   -1    0    0    0  501 -0.00000000000E+00  0.00000000000E+00  0.11138495117E+04  0.11138495117E+04  0.00000000000E+00 0.  1.
          1   -1    0    0  501    0  0.00000000000E+00 -0.00000000000E+00 -0.31180444671E+03  0.31180444671E+03  0.00000000000E+00 0. -1.
         23    2    1    2    0    0 -0.21756497091E+03  0.23681628431E+03 -0.50378014964E+02  0.33442423419E+03  0.76714763489E+02 0.  0.
    5000000    2    1    2    0    0  0.21756497091E+03 -0.23681628431E+03  0.85242307995E+03  0.10912297242E+04  0.60061696173E+03 0.  0.
         23    2    4    4    0    0  0.21851965436E+03 -0.31326243204E+03  0.88247666556E+03  0.96575324410E+03  0.89610672226E+02 0.  0.
         23    2    4    4    0    0 -0.95468344577E+00  0.76446147725E+02 -0.30053585610E+02  0.12547648012E+03  0.94848321717E+02 0.  0.
          4    1    3    3  502    0 -0.17188704070E+03  0.14328098745E+03 -0.14200010432E+02  0.22422363038E+03  0.00000000000E+00 0. -1.
         -4    1    3    3    0  502 -0.45677930217E+02  0.93535296865E+02 -0.36178004533E+02  0.11020060381E+03  0.00000000000E+00 0.  1.
         11    1    5    5    0    0  0.15173254189E+03 -0.23348436487E+03  0.53632138115E+03  0.60429987323E+03  0.00000000000E+00 0. -1.
        -11    1    5    5    0    0  0.66787112473E+02 -0.79778067166E+02  0.34615528441E+03  0.36145337088E+03  0.00000000000E+00 0.  1.
          4    1    6    6  503    0 -0.46774120649E+02  0.25763395730E+02 -0.15711356292E+02  0.55663431789E+02  0.00000000000E+00 0.  1.
         -4    1    6    6    0  503  0.45819437203E+02  0.50682751995E+02 -0.14342229318E+02  0.69813048330E+02  0.00000000000E+00 0. -1.
<mgrwt>
<rscale>  0 0.41604497E+03</rscale>
<asrwt>0</asrwt>
<pdfrwt beam="1">  1        1 0.47969915E-01 0.41604497E+03</pdfrwt>
<pdfrwt beam="2">  1       -1 0.17136146E+00 0.41604497E+03</pdfrwt>
<totfact> 0.21501313E+01</totfact>
</mgrwt>
</event>
<event>
12    1  0.1432447E-007  0.1043643E+04  0.7818608E-02  0.9261931E-01
          1   -1    0    0  501    0  0.00000000000E+00  0.00000000000E+00  0.16867672119E+04  0.16867672119E+04  0.00000000000E+00 0. -1.
         -1   -1    0    0    0  501 -0.00000000000E+00 -0.00000000000E+00 -0.76735077915E+03  0.76735077915E+03  0.00000000000E+00 0.  1.
         23    2    1    2    0    0 -0.34864402811E+03 -0.92272049795E+03  0.20665523716E+02  0.99099948927E+03  0.93204872096E+02 0.  0.
    5000000    2    1    2    0    0  0.34864402811E+03  0.92272049795E+03  0.89875090907E+03  0.14631185018E+04  0.59999731512E+03 0.  0.
         23    2    4    4    0    0  0.41663113391E+03  0.47074033135E+03  0.29509736712E+03  0.70046127419E+03  0.91572808543E+02 0.  0.
         23    2    4    4    0    0 -0.67987105796E+02  0.45198016660E+03  0.60365354195E+03  0.76265722763E+03  0.91324315452E+02 0.  0.
          3    1    3    3  502    0 -0.78462597519E+01 -0.51800819354E+02 -0.16816934764E+02  0.55024521558E+02  0.00000000000E+00 0. -1.
         -3    1    3    3    0  502 -0.34079776836E+03 -0.87091967860E+03  0.37482458479E+02  0.93597496771E+03  0.00000000000E+00 0.  1.
         13    1    5    5    0    0  0.16306657931E+03  0.24619885956E+03  0.11542565410E+03  0.31706098682E+03  0.00000000000E+00 0. -1.
        -13    1    5    5    0    0  0.25356455459E+03  0.22454147178E+03  0.17967171302E+03  0.38340028737E+03  0.00000000000E+00 0.  1.
          1    1    6    6  503    0 -0.79329829169E+02  0.22802533794E+03  0.32924768900E+03  0.40828031700E+03  0.00000000000E+00 0. -1.
         -1    1    6    6    0  503  0.11342723373E+02  0.22395482866E+03  0.27440585296E+03  0.35437691063E+03  0.00000000000E+00 0.  1.
<mgrwt>
<rscale>  0 0.10436435E+04</rscale>
<asrwt>0</asrwt>
<pdfrwt beam="1">  1        1 0.25950265E+00 0.10436435E+04</pdfrwt>
<pdfrwt beam="2">  1       -1 0.11805397E+00 0.10436435E+04</pdfrwt>
<totfact> 0.31401783E+00</totfact>
</mgrwt>
</event>
<event>
12    1  0.1432447E-007  0.6866213E+03  0.7818608E-02  0.9740389E-01
          2   -1    0    0  501    0  0.00000000000E+00  0.00000000000E+00  0.98722827219E+03  0.98722827219E+03  0.00000000000E+00 0. -1.
         -2   -1    0    0    0  501 -0.00000000000E+00 -0.00000000000E+00 -0.51954152350E+03  0.51954152350E+03  0.00000000000E+00 0.  1.
         23    2    1    2    0    0 -0.54830254260E+03 -0.20004642840E+03  0.12645027388E+03  0.60308573436E+03  0.84074249844E+02 0.  0.
    5000000    2    1    2    0    0  0.54830254260E+03  0.20004642840E+03  0.34123647481E+03  0.90368406133E+03  0.59962346454E+03 0.  0.
         23    2    4    4    0    0  0.25083174375E+03  0.35884526538E+03  0.52637948047E+02  0.45052871472E+03  0.92297784661E+02 0.  0.
         23    2    4    4    0    0  0.29747079885E+03 -0.15879883698E+03  0.28859852676E+03  0.45315534661E+03  0.91404112145E+02 0.  0.
          4    1    3    3  502    0 -0.27824249561E+02 -0.31597276937E+02  0.25936710887E+01  0.42181795874E+02  0.00000000000E+00 0.  1.
         -4    1    3    3    0  502 -0.52047829304E+03 -0.16844915146E+03  0.12385660279E+03  0.56090393848E+03  0.00000000000E+00 0. -1.
         11    1    5    5    0    0  0.86781307051E+02  0.17543775569E+03  0.58836283843E+02  0.20437981718E+03  0.00000000000E+00 0.  1.
        -11    1    5    5    0    0  0.16405043670E+03  0.18340750969E+03 -0.61983357964E+01  0.24614889754E+03  0.00000000000E+00 0. -1.
          4    1    6    6  503    0  0.14186108843E+03 -0.42739095545E+02  0.80685671540E+02  0.16870499782E+03  0.00000000000E+00 0. -1.
         -4    1    6    6    0  503  0.15560971042E+03 -0.11605974144E+03  0.20791285522E+03  0.28445034879E+03  0.00000000000E+00 0.  1.
<mgrwt>
<rscale>  0 0.68662133E+03</rscale>
<asrwt>0</asrwt>
<pdfrwt beam="1">  1        2 0.15188127E+00 0.68662133E+03</pdfrwt>
<pdfrwt beam="2">  1       -2 0.79929465E-01 0.68662133E+03</pdfrwt>
<totfact> 0.36339735E+01</totfact>
</mgrwt>
</event>
<event>
12    1  0.1432447E-007  0.6667280E+03  0.7818608E-02  0.9775887E-01
         -2   -1    0    0    0  501 -0.00000000000E+00  0.00000000000E+00  0.10806218170E+04  0.10806218170E+04  0.00000000000E+00 0.  1.
          2   -1    0    0  501    0  0.00000000000E+00 -0.00000000000E+00 -0.59446567298E+03  0.59446567298E+03  0.00000000000E+00 0. -1.
         23    2    1    2    0    0  0.20084708300E+03  0.60233295075E+03  0.48066426230E+03  0.80156318317E+03  0.91218798833E+02 0.  0.
    5000000    2    1    2    0    0 -0.20084708300E+03 -0.60233295075E+03  0.54918816947E+01  0.87352430677E+03  0.59989167310E+03 0.  0.
         23    2    4    4    0    0 -0.26181893039E+03 -0.55467652987E+03  0.19505235334E+03  0.65084827618E+03  0.96658434544E+02 0.  0.
         23    2    4    4    0    0  0.60971847396E+02 -0.47656420885E+02 -0.18956047164E+03  0.22267603059E+03  0.87537086796E+02 0.  0.
          3    1    3    3  502    0  0.19589184317E+03  0.50119223549E+03  0.42708525104E+03  0.68700006026E+03  0.00000000000E+00 0. -1.
         -3    1    3    3    0  502  0.49552398266E+01  0.10114071526E+03  0.53579011253E+02  0.11456312291E+03  0.00000000000E+00 0.  1.
         11    1    5    5    0    0 -0.16762983442E+03 -0.40876695300E+03  0.17810935123E+03  0.47635399048E+03  0.00000000000E+00 0. -1.
        -11    1    5    5    0    0 -0.94189095973E+02 -0.14590957687E+03  0.16943002112E+02  0.17449428570E+03  0.00000000000E+00 0.  1.
          3    1    6    6  503    0  0.32819765469E+02 -0.34211632834E+02 -0.22050696046E+02  0.52285810912E+02  0.00000000000E+00 0. -1.
         -3    1    6    6    0  503  0.28152081927E+02 -0.13444788051E+02 -0.16750977560E+03  0.17039021968E+03  0.00000000000E+00 0.  1.
<mgrwt>
<rscale>  0 0.66672802E+03</rscale>
<asrwt>0</asrwt>
<pdfrwt beam="1">  1        2 0.91456258E-01 0.66672802E+03</pdfrwt>
<pdfrwt beam="2">  1       -2 0.16624951E+00 0.66672802E+03</pdfrwt>
<totfact> 0.11658355E+01</totfact>
</mgrwt>
</event>
<event>
12    1  0.1432447E-007  0.2088573E+04  0.7818608E-02  0.8566294E-01
          2   -1    0    0  501    0  0.00000000000E+00  0.00000000000E+00  0.20261386203E+04  0.20261386203E+04  0.00000000000E+00 0. -1.
         -2   -1    0    0    0  501 -0.00000000000E+00 -0.00000000000E+00 -0.25154107865E+04  0.25154107865E+04  0.00000000000E+00 0.  1.
         23    2    1    2    0    0  0.19753950016E+04 -0.63374477630E+03 -0.10261539385E+04  0.23162605967E+04  0.90848182622E+02 0.  0.
    5000000    2    1    2    0    0 -0.19753950016E+04  0.63374477630E+03  0.53688177226E+03  0.22252888101E+04  0.59987531789E+03 0.  0.
         23    2    4    4    0    0 -0.76544239835E+03  0.41511156497E+03  0.46297298298E+03  0.99013825109E+03  0.88374751723E+02 0.  0.
         23    2    4    4    0    0 -0.12099526033E+04  0.21863321133E+03  0.73908789281E+02  0.12351505590E+04  0.91370733837E+02 0.  0.
          1    1    3    3  502    0  0.85637080560E+03 -0.31928787465E+03 -0.43462585941E+03  0.10120352470E+04  0.00000000000E+00 0. -1.
         -1    1    3    3    0  502  0.11190241960E+04 -0.31445690165E+03 -0.59152807907E+03  0.13042253496E+04  0.00000000000E+00 0.  1.
         13    1    5    5    0    0 -0.71330615962E+02  0.44912624916E+02  0.75790068637E+02  0.11335490794E+03  0.00000000000E+00 0.  1.
        -13    1    5    5    0    0 -0.69411178239E+03  0.37019894005E+03  0.38718291434E+03  0.87678334315E+03  0.00000000000E+00 0. -1.
          1    1    6    6  503    0 -0.54851283235E+03  0.11330783757E+03 -0.97099279284E+01  0.56017789675E+03  0.00000000000E+00 0. -1.
         -1    1    6    6    0  503 -0.66143977095E+03  0.10532537375E+03  0.83618717209E+02  0.67497266227E+03  0.00000000000E+00 0.  1.
<mgrwt>
<rscale>  0 0.20885728E+04</rscale>
<asrwt>0</asrwt>
<pdfrwt beam="1">  1        2 0.31171363E+00 0.20885728E+04</pdfrwt>
<pdfrwt beam="2">  1       -2 0.38698627E+00 0.20885728E+04</pdfrwt>
<totfact> 0.51236467E-02</totfact>
</mgrwt>
</event>
<event>
12    1  0.1432447E-007  0.7693344E+03  0.7818608E-02  0.9605497E-01
          2   -1    0    0  501    0  0.00000000000E+00  0.00000000000E+00  0.24833293617E+04  0.24833293617E+04  0.00000000000E+00 0. -1.
         -2   -1    0    0    0  501 -0.00000000000E+00 -0.00000000000E+00 -0.33081414384E+03  0.33081414384E+03  0.00000000000E+00 0.  1.
         23    2    1    2    0    0 -0.71963911773E+02 -0.72372088986E+03  0.42869489460E+03  0.84922839879E+03  0.91971895968E+02 0.  0.
    5000000    2    1    2    0    0  0.71963911773E+02  0.72372088986E+03  0.17238203232E+04  0.19649151067E+04  0.60032003035E+03 0.  0.
         23    2    4    4    0    0  0.67039556830E+02  0.33295482551E+01  0.70438031272E+03  0.71325829187E+03  0.89890922227E+02 0.  0.
         23    2    4    4    0    0  0.49243549433E+01  0.72039134160E+03  0.10194400105E+04  0.12516568149E+04  0.91645582702E+02 0.  0.
          3    1    3    3  502    0 -0.52081874972E+02 -0.35371694549E+03  0.16100195551E+03  0.39210946036E+03  0.00000000000E+00 0. -1.
         -3    1    3    3    0  502 -0.19882036801E+02 -0.37000394437E+03  0.26769293909E+03  0.45711893843E+03  0.00000000000E+00 0.  1.
         13    1    5    5    0    0 -0.74934880730E+01  0.12238842167E+02  0.38140229440E+03  0.38167217844E+03  0.00000000000E+00 0.  1.
        -13    1    5    5    0    0  0.74533044903E+02 -0.89092939119E+01  0.32297801832E+03  0.33158611343E+03  0.00000000000E+00 0. -1.
          2    1    6    6  503    0 -0.12862651564E+02  0.46414114082E+03  0.58386784344E+03  0.74598532493E+03  0.00000000000E+00 0. -1.
         -2    1    6    6    0  503  0.17787006507E+02  0.25625020078E+03  0.43557216708E+03  0.50567148994E+03  0.00000000000E+00 0.  1.
<mgrwt>
<rscale>  0 0.76933443E+03</rscale>
<asrwt>0</asrwt>
<pdfrwt beam="1">  1        2 0.38205066E+00 0.76933443E+03</pdfrwt>
<pdfrwt beam="2">  1       -2 0.50894485E-01 0.76933443E+03</pdfrwt>
<totfact> 0.13559942E+01</totfact>
</mgrwt>
</event>
<event>
12    1  0.1432447E-007  0.3496812E+03  0.7818608E-02  0.1062746E+00
          2   -1    0    0  501    0  0.00000000000E+00  0.00000000000E+00  0.70801967101E+03  0.70801967101E+03  0.00000000000E+00 0. -1.
         -2   -1    0    0    0  501 -0.00000000000E+00 -0.00000000000E+00 -0.34125352736E+03  0.34125352736E+03  0.00000000000E+00 0.  1.
         23    2    1    2    0    0  0.21996865641E+03 -0.15777104247E+03  0.25165192607E+03  0.38068280299E+03  0.91174519181E+02 0.  0.
    5000000    2    1    2    0    0 -0.21996865641E+03  0.15777104247E+03  0.11511421757E+03  0.66859039538E+03  0.60040313296E+03 0.  0.
         23    2    4    4    0    0  0.19056746762E+02 -0.56762448024E+02 -0.18812381926E+03  0.21748150020E+03  0.91227717583E+02 0.  0.
         23    2    4    4    0    0 -0.23902540318E+03  0.21453349049E+03  0.30323803683E+03  0.45110889518E+03  0.91586933677E+02 0.  0.
          2    1    3    3  502    0  0.12220688880E+03 -0.13245259435E+03  0.12807879679E+03  0.22109362634E+03  0.00000000000E+00 0. -1.
         -2    1    3    3    0  502  0.97761767618E+02 -0.25318448112E+02  0.12357312928E+03  0.15958917665E+03  0.00000000000E+00 0.  1.
         11    1    5    5    0    0  0.44639289629E+02 -0.31367292427E+02 -0.16703404702E+03  0.17571837149E+03  0.00000000000E+00 0. -1.
        -11    1    5    5    0    0 -0.25582542867E+02 -0.25395155596E+02 -0.21089772236E+02  0.41763128717E+02  0.00000000000E+00 0.  1.
          1    1    6    6  503    0 -0.72048541374E+02  0.10682685860E+03  0.77443038993E+02  0.15033427527E+03  0.00000000000E+00 0. -1.
         -1    1    6    6    0  503 -0.16697686180E+03  0.10770663189E+03  0.22579499784E+03  0.30077461991E+03  0.00000000000E+00 0.  1.
<mgrwt>
<rscale>  0 0.34968118E+03</rscale>
<asrwt>0</asrwt>
<pdfrwt beam="1">  1        2 0.10892610E+00 0.34968118E+03</pdfrwt>
<pdfrwt beam="2">  1       -2 0.52500543E-01 0.34968118E+03</pdfrwt>
<totfact> 0.14414731E+02</totfact>
</mgrwt>
</event>
<event>
12    1  0.1432447E-007  0.5366495E+03  0.7818608E-02  0.1004632E+00
          1   -1    0    0  501    0  0.00000000000E+00  0.00000000000E+00  0.10771963557E+04  0.10771963557E+04  0.00000000000E+00 0. -1.
         -1   -1    0    0    0  501 -0.00000000000E+00 -0.00000000000E+00 -0.49389250923E+03  0.49389250923E+03  0.00000000000E+00 0.  1.
         23    2    1    2    0    0  0.33713392180E+03 -0.36266262867E+03  0.61307683360E+03  0.79309876833E+03  0.89213165916E+02 0.  0.
    5000000    2    1    2    0    0 -0.33713392180E+03  0.36266262867E+03 -0.29772987119E+02  0.77799009660E+03  0.59933187483E+03 0.  0.
         23    2    4    4    0    0 -0.21104401221E+03  0.47547557490E+02  0.23950675540E+03  0.33546003356E+03  0.91485533930E+02 0.  0.
         23    2    4    4    0    0 -0.12608990959E+03  0.31511507118E+03 -0.26927974252E+03  0.44253006304E+03  0.90139356416E+02 0.  0.
          2    1    3    3  502    0  0.14810952175E+03 -0.99684213235E+02  0.23867121238E+03  0.29805590151E+03  0.00000000000E+00 0. -1.
         -2    1    3    3    0  502  0.18902440005E+03 -0.26297841543E+03  0.37440562122E+03  0.49504286683E+03  0.00000000000E+00 0.  1.
         13    1    5    5    0    0 -0.63841222617E+02  0.39172330403E+02  0.33313467170E+02  0.81975363795E+02  0.00000000000E+00 0.  1.
        -13    1    5    5    0    0 -0.14720278960E+03  0.83752270866E+01  0.20619328823E+03  0.25348466977E+03  0.00000000000E+00 0. -1.
          3    1    6    6  503    0 -0.19388926397E+02  0.15464402839E+03 -0.93841003911E+02  0.18192536931E+03  0.00000000000E+00 0. -1.
         -3    1    6    6    0  503 -0.10670098319E+03  0.16047104279E+03 -0.17543873861E+03  0.26060469373E+03  0.00000000000E+00 0.  1.
<mgrwt>
<rscale>  0 0.53664950E+03</rscale>
<asrwt>0</asrwt>
<pdfrwt beam="1">  1        1 0.16572252E+00 0.53664950E+03</pdfrwt>
<pdfrwt beam="2">  1       -1 0.75983463E-01 0.53664950E+03</pdfrwt>
<totfact> 0.24335638E+01</totfact>
</mgrwt>
</event>
<event>
12    1  0.1432447E-007  0.9390712E+03  0.7818608E-02  0.9378017E-01
         -2   -1    0    0    0  501 -0.00000000000E+00  0.00000000000E+00  0.23813150564E+03  0.23813150564E+03  0.00000000000E+00 0.  1.
          2   -1    0    0  501    0  0.00000000000E+00 -0.00000000000E+00 -0.40848555313E+04  0.40848555313E+04  0.00000000000E+00 0. -1.
         23    2    1    2    0    0  0.70774792205E+03  0.47268664459E+03 -0.23375645582E+04  0.24894053646E+04  0.92688838313E+02 0.  0.
    5000000    2    1    2    0    0 -0.70774792205E+03 -0.47268664459E+03 -0.15091594675E+04  0.18335816723E+04  0.60009971297E+03 0.  0.
         23    2    4    4    0    0 -0.60217573082E+03 -0.72877865769E+02 -0.80715670652E+03  0.10137994862E+04  0.91436618781E+02 0.  0.
         23    2    4    4    0    0 -0.10557219123E+03 -0.39980877882E+03 -0.70200276093E+03  0.81978218605E+03  0.90787714077E+02 0.  0.
          3    1    3    3  502    0  0.25340254497E+03  0.12909698191E+03 -0.86221222318E+03  0.90790351818E+03  0.00000000000E+00 0. -1.
         -3    1    3    3    0  502  0.45434537708E+03  0.34358966268E+03 -0.14753523350E+04  0.15815018465E+04  0.00000000000E+00 0.  1.
         13    1    5    5    0    0 -0.40135171156E+03 -0.48839124887E+02 -0.46368715223E+03  0.61520259398E+03  0.00000000000E+00 0. -1.
        -13    1    5    5    0    0 -0.20082401926E+03 -0.24038740882E+02 -0.34346955429E+03  0.39859689223E+03  0.00000000000E+00 0.  1.
          1    1    6    6  503    0 -0.13546552746E+02 -0.16179120814E+03 -0.20903433616E+03  0.26467953797E+03  0.00000000000E+00 0. -1.
         -1    1    6    6    0  503 -0.92025638489E+02 -0.23801757068E+03 -0.49296842477E+03  0.55510264809E+03  0.00000000000E+00 0.  1.
<mgrwt>
<rscale>  0 0.93907117E+03</rscale>
<asrwt>0</asrwt>
<pdfrwt beam="1">  1        2 0.62843926E+00 0.93907117E+03</pdfrwt>
<pdfrwt beam="2">  1       -2 0.36635619E-01 0.93907117E+03</pdfrwt>
<totfact> 0.21867345E+00</totfact>
</mgrwt>
</event>
<event>
12    1  0.1432447E-007  0.2174142E+04  0.7818608E-02  0.8529269E-01
         -2   -1    0    0    0  501 -0.00000000000E+00  0.00000000000E+00  0.16199477149E+04  0.16199477149E+04  0.00000000000E+00 0.  1.
          2   -1    0    0  501    0  0.00000000000E+00 -0.00000000000E+00 -0.36896352631E+04  0.36896352631E+04  0.00000000000E+00 0. -1.
         23    2    1    2    0    0 -0.11108460581E+03  0.21643239701E+04 -0.21573299077E+04  0.30592003209E+04  0.89421673073E+02 0.  0.
    5000000    2    1    2    0    0  0.11108460581E+03 -0.21643239701E+04  0.87642359503E+02  0.22503826571E+04  0.59991906378E+03 0.  0.
         23    2    4    4    0    0  0.46548425767E+02 -0.31666593320E+03 -0.18242251988E+03  0.37957565252E+03  0.91409140866E+02 0.  0.
         23    2    4    4    0    0  0.64536180046E+02 -0.18476580369E+04  0.27006487938E+03  0.18708070046E+04  0.94755841716E+02 0.  0.
          4    1    3    3  502    0  0.24044172900E+01  0.47070284550E+03 -0.43275924204E+03  0.63941184815E+03  0.00000000000E+00 0. -1.
         -4    1    3    3    0  502 -0.11348902310E+03  0.16936211246E+04 -0.17245706656E+04  0.24197884727E+04  0.00000000000E+00 0.  1.
         13    1    5    5    0    0  0.60979037253E+02 -0.15185153367E+03 -0.11925362867E+03  0.20248150339E+03  0.00000000000E+00 0.  1.
        -13    1    5    5    0    0 -0.14430611486E+02 -0.16481439953E+03 -0.63168891210E+02  0.17709414913E+03  0.00000000000E+00 0. -1.
          2    1    6    6  503    0  0.87571373412E+01 -0.13899760397E+04  0.21271469970E+03  0.14061854863E+04  0.00000000000E+00 0. -1.
         -2    1    6    6    0  503  0.55779042705E+02 -0.45768199714E+03  0.57350179677E+02  0.46462151825E+03  0.00000000000E+00 0.  1.
<mgrwt>
<rscale>  0 0.21741416E+04</rscale>
<asrwt>0</asrwt>
<pdfrwt beam="1">  1        2 0.56763619E+00 0.21741416E+04</pdfrwt>
<pdfrwt beam="2">  1       -2 0.24922273E+00 0.21741416E+04</pdfrwt>
<totfact> 0.33677562E-02</totfact>
</mgrwt>
</event>
<event>
12    1  0.1432447E-007  0.1548778E+04  0.7818608E-02  0.8852649E-01
          2   -1    0    0  501    0  0.00000000000E+00  0.00000000000E+00  0.26277192588E+04  0.26277192588E+04  0.00000000000E+00 0. -1.
         -2   -1    0    0    0  501 -0.00000000000E+00 -0.00000000000E+00 -0.92332734597E+03  0.92332734597E+03  0.00000000000E+00 0.  1.
         23    2    1    2    0    0 -0.14851511928E+04 -0.17878613336E+03  0.72092313005E+03  0.16629605514E+04  0.89828107739E+02 0.  0.
    5000000    2    1    2    0    0  0.14851511928E+04  0.17878613336E+03  0.98346878276E+03  0.18880860534E+04  0.60001629264E+03 0.  0.
         23    2    4    4    0    0  0.93336885803E+03  0.38498293196E+03  0.57252528935E+03  0.11641656249E+04  0.90039503376E+02 0.  0.
         23    2    4    4    0    0  0.55178233477E+03 -0.20619679860E+03  0.41094349341E+03  0.72392042852E+03  0.90583482717E+02 0.  0.
          3    1    3    3  502    0 -0.10007765287E+04 -0.12206328700E+03  0.53214366126E+03  0.11400131502E+04  0.00000000000E+00 0. -1.
         -3    1    3    3    0  502 -0.48437466410E+03 -0.56722846363E+02  0.18877946879E+03  0.52294740114E+03  0.00000000000E+00 0.  1.
         13    1    5    5    0    0  0.66716084502E+03  0.23814764998E+03  0.42676948345E+03  0.82701274980E+03  0.00000000000E+00 0.  1.
        -13    1    5    5    0    0  0.26620801301E+03  0.14683528198E+03  0.14575580590E+03  0.33715287509E+03  0.00000000000E+00 0. -1.
          3    1    6    6  503    0  0.25016565526E+03 -0.84987677673E+02  0.23859446808E+03  0.35599589973E+03  0.00000000000E+00 0. -1.
         -3    1    6    6    0  503  0.30161667951E+03 -0.12120912092E+03  0.17234902533E+03  0.36792452879E+03  0.00000000000E+00 0.  1.
<mgrwt>
<rscale>  0 0.15487777E+04</rscale>
<asrwt>0</asrwt>
<pdfrwt beam="1">  1        2 0.40426450E+00 0.15487777E+04</pdfrwt>
<pdfrwt beam="2">  1       -2 0.14205036E+00 0.15487777E+04</pdfrwt>
<totfact> 0.95462984E-01</totfact>
</mgrwt>
</event>
<event>
12    1  0.1432447E-007  0.1181640E+04  0.7818608E-02  0.9129081E-01
          1   -1    0    0  501    0  0.00000000000E+00  0.00000000000E+00  0.16014140565E+04  0.16014140565E+04  0.00000000000E+00 0. -1.
         -1   -1    0    0    0  501 -0.00000000000E+00 -0.00000000000E+00 -0.12624551560E+04  0.12624551560E+04  0.00000000000E+00 0.  1.
         23    2    1    2    0    0 -0.19102623085E+03 -0.11012363387E+04 -0.61296068335E+03  0.12778868780E+04  0.89786296910E+02 0.  0.
    5000000    2    1    2    0    0  0.19102623085E+03  0.11012363387E+04  0.95191958381E+03  0.15859823345E+04  0.59998048032E+03 0.  0.
         23    2    4    4    0    0  0.15982998667E+03  0.40982128001E+02  0.63992616727E+02  0.19958903236E+03  0.92279831971E+02 0.  0.
         23    2    4    4    0    0  0.31196244172E+02  0.10602542107E+04  0.88792696708E+03  0.13863933021E+04  0.92519686449E+02 0.  0.
          3    1    3    3  502    0 -0.82204869555E+02 -0.26420356475E+03 -0.16806350683E+03  0.32373833034E+03  0.00000000000E+00 0. -1.
         -3    1    3    3    0  502 -0.10882136129E+03 -0.83703277396E+03 -0.44489717652E+03  0.95414854768E+03  0.00000000000E+00 0.  1.
         13    1    5    5    0    0  0.63340764455E+02 -0.20029412039E+02  0.52842348082E+02  0.84885473075E+02  0.00000000000E+00 0. -1.
        -13    1    5    5    0    0  0.96489222219E+02  0.61011540040E+02  0.11150268645E+02  0.11470355929E+03  0.00000000000E+00 0.  1.
          1    1    6    6  503    0  0.12545212255E+02  0.95068066158E+03  0.82417203929E+03  0.12582569900E+04  0.00000000000E+00 0. -1.
         -1    1    6    6    0  503  0.18651031917E+02  0.10957354913E+03  0.63754927796E+02  0.12813631210E+03  0.00000000000E+00 0.  1.
<mgrwt>
<rscale>  0 0.11816397E+04</rscale>
<asrwt>0</asrwt>
<pdfrwt beam="1">  1        1 0.24637139E+00 0.11816397E+04</pdfrwt>
<pdfrwt beam="2">  1       -1 0.19422387E+00 0.11816397E+04</pdfrwt>
<totfact> 0.90280551E-01</totfact>
</mgrwt>
</event>
<event>
12    1  0.1432447E-007  0.5714519E+03  0.7818608E-02  0.9966471E-01
         -2   -1    0    0    0  501 -0.00000000000E+00  0.00000000000E+00  0.27616749141E+03  0.27616749141E+03  0.00000000000E+00 0.  1.
          2   -1    0    0  501    0  0.00000000000E+00 -0.00000000000E+00 -0.15089502680E+04  0.15089502680E+04  0.00000000000E+00 0. -1.
         23    2    1    2    0    0 -0.39891564910E+03  0.14818748752E+03 -0.85220547630E+03  0.95688186887E+03  0.90969833405E+02 0.  0.
    5000000    2    1    2    0    0  0.39891564910E+03 -0.14818748752E+03 -0.38057730034E+03  0.82823589059E+03  0.60003531760E+03 0.  0.
         23    2    4    4    0    0  0.28631265858E+03 -0.35833770212E+03 -0.17236790779E+03  0.49915685556E+03  0.95215668838E+02 0.  0.
         23    2    4    4    0    0  0.11260299052E+03  0.21015021460E+03 -0.20820939255E+03  0.32907903503E+03  0.89996188701E+02 0.  0.
          4    1    3    3  502    0 -0.12100447563E+03  0.81471908237E+02 -0.34738116524E+03  0.37676707515E+03  0.00000000000E+00 0. -1.
         -4    1    3    3    0  502 -0.27791117347E+03  0.66715579287E+02 -0.50482431106E+03  0.58011479372E+03  0.00000000000E+00 0.  1.
         11    1    5    5    0    0  0.69229535894E+02 -0.15526149463E+03 -0.45703172522E+02  0.17603306602E+03  0.00000000000E+00 0.  1.
        -11    1    5    5    0    0  0.21708312269E+03 -0.20307620749E+03 -0.12666473527E+03  0.32312378954E+03  0.00000000000E+00 0. -1.
          3    1    6    6  503    0  0.60244383579E+02  0.60342159797E+02 -0.12092603066E+03  0.14796508673E+03  0.00000000000E+00 0. -1.
         -3    1    6    6    0  503  0.52358606941E+02  0.14980805480E+03 -0.87283361893E+02  0.18111394830E+03  0.00000000000E+00 0.  1.
<mgrwt>
<rscale>  0 0.57145191E+03</rscale>
<asrwt>0</asrwt>
<pdfrwt beam="1">  1        2 0.23214619E+00 0.57145191E+03</pdfrwt>
<pdfrwt beam="2">  1       -2 0.42487307E-01 0.57145191E+03</pdfrwt>
<totfact> 0.68608860E+01</totfact>
</mgrwt>
</event>
<event>
12    1  0.1432447E-007  0.1002851E+04  0.7818608E-02  0.9305424E-01
         -2   -1    0    0    0  501 -0.00000000000E+00  0.00000000000E+00  0.89337596201E+03  0.89337596201E+03  0.00000000000E+00 0.  1.
          2   -1    0    0  501    0  0.00000000000E+00 -0.00000000000E+00 -0.13346283749E+04  0.13346283749E+04  0.00000000000E+00 0. -1.
         23    2    1    2    0    0 -0.20562115605E+03 -0.97130568456E+03 -0.35723448398E+02  0.99906816055E+03  0.10557571687E+03 0.  0.
    5000000    2    1    2    0    0  0.20562115605E+03  0.97130568456E+03 -0.40552896450E+03  0.12289361764E+04  0.60009631884E+03 0.  0.
         23    2    4    4    0    0  0.21497597838E+03  0.83176711944E+03 -0.82872666895E+02  0.86794316320E+03  0.91685567901E+02 0.  0.
         23    2    4    4    0    0 -0.93548223334E+01  0.13953856512E+03 -0.32265629761E+03  0.36099301318E+03  0.81549649423E+02 0.  0.
          3    1    3    3  502    0 -0.96126950091E+02 -0.34172632293E+03  0.32159675438E+02  0.35644286365E+03  0.00000000000E+00 0. -1.
         -3    1    3    3    0  502 -0.10949420596E+03 -0.62957936162E+03 -0.67883123836E+02  0.64262529691E+03  0.00000000000E+00 0.  1.
         11    1    5    5    0    0  0.18221426906E+02  0.22649468206E+03 -0.31928989837E+02  0.22945875837E+03  0.00000000000E+00 0. -1.
        -11    1    5    5    0    0  0.19675455148E+03  0.60527243738E+03 -0.50943677058E+02  0.63848440483E+03  0.00000000000E+00 0.  1.
          3    1    6    6  503    0  0.62644365252E+01  0.12902906141E+03 -0.20835747273E+03  0.24515419290E+03  0.00000000000E+00 0. -1.
         -3    1    6    6    0  503 -0.15619258859E+02  0.10509503709E+02 -0.11429882487E+03  0.11583882027E+03  0.00000000000E+00 0.  1.
<mgrwt>
<rscale>  0 0.10028505E+04</rscale>
<asrwt>0</asrwt>
<pdfrwt beam="1">  1        2 0.20532744E+00 0.10028505E+04</pdfrwt>
<pdfrwt beam="2">  1       -2 0.13744246E+00 0.10028505E+04</pdfrwt>
<totfact> 0.58977852E+00</totfact>
</mgrwt>
</event>
<event>
12    1  0.1432447E-007  0.9779227E+03  0.7818608E-02  0.9333096E-01
          2   -1    0    0  501    0  0.00000000000E+00  0.00000000000E+00  0.11213898355E+04  0.11213898355E+04  0.00000000000E+00 0. -1.
         -2   -1    0    0    0  501 -0.00000000000E+00 -0.00000000000E+00 -0.93616262576E+03  0.93616262576E+03  0.00000000000E+00 0.  1.
         23    2    1    2    0    0 -0.30330173685E+03  0.83931555467E+03  0.36194981738E+03  0.96774936495E+03  0.95334249699E+02 0.  0.
    5000000    2    1    2    0    0  0.30330173685E+03 -0.83931555467E+03 -0.17672260762E+03  0.10898030963E+04  0.59999780402E+03 0.  0.
         23    2    4    4    0    0 -0.75308729096E+02  0.31170547892E+02 -0.27171418004E+02  0.12443816566E+03  0.90019794387E+02 0.  0.
         23    2    4    4    0    0  0.37861046594E+03 -0.87048610257E+03 -0.14955118962E+03  0.96536493067E+03  0.92043203819E+02 0.  0.
          1    1    3    3  502    0 -0.86817741786E+02  0.35557424686E+03  0.12028104168E+03  0.38527638690E+03  0.00000000000E+00 0. -1.
         -1    1    3    3    0  502 -0.21648399506E+03  0.48374130782E+03  0.24166877570E+03  0.58247297805E+03  0.00000000000E+00 0.  1.
         11    1    5    5    0    0 -0.30683557041E+01  0.33910356961E+02 -0.38352973279E+02  0.51286232805E+02  0.00000000000E+00 0.  1.
        -11    1    5    5    0    0 -0.72240373392E+02 -0.27398090692E+01  0.11181555275E+02  0.73151932851E+02  0.00000000000E+00 0. -1.
          3    1    6    6  503    0  0.24649522188E+03 -0.66504988942E+03 -0.11982876037E+03  0.71931229771E+03  0.00000000000E+00 0. -1.
         -3    1    6    6    0  503  0.13211524406E+03 -0.20543621314E+03 -0.29722429248E+02  0.24605263296E+03  0.00000000000E+00 0.  1.
<mgrwt>
<rscale>  0 0.97792267E+03</rscale>
<asrwt>0</asrwt>
<pdfrwt beam="1">  1        2 0.17252151E+00 0.97792267E+03</pdfrwt>
<pdfrwt beam="2">  1       -2 0.14402502E+00 0.97792267E+03</pdfrwt>
<totfact> 0.70041610E+00</totfact>
</mgrwt>
</event>
<event>
12    1  0.1432447E-007  0.4917841E+03  0.7818608E-02  0.1015946E+00
         -1   -1    0    0    0  501 -0.00000000000E+00  0.00000000000E+00  0.13148000738E+03  0.13148000738E+03  0.00000000000E+00 0.  1.
          1   -1    0    0  501    0  0.00000000000E+00 -0.00000000000E+00 -0.23545854384E+04  0.23545854384E+04  0.00000000000E+00 0. -1.
         23    2    1    2    0    0 -0.21346549403E+03  0.25257091325E+03 -0.34246494172E+03  0.48460474424E+03  0.90553511627E+02 0.  0.
    5000000    2    1    2    0    0  0.21346549403E+03 -0.25257091325E+03 -0.18806404893E+04  0.20014607015E+04  0.59973052821E+03 0.  0.
         23    2    4    4    0    0  0.39598001639E+03 -0.18827985409E+03 -0.10053350789E+04  0.11003511139E+04  0.88456068589E+02 0.  0.
         23    2    4    4    0    0 -0.18251452236E+03 -0.64291059164E+02 -0.87530541034E+03  0.90110958763E+03  0.91618973915E+02 0.  0.
          4    1    3    3  502    0 -0.75927360262E+02  0.15965875401E+03 -0.18236375756E+03  0.25399295628E+03  0.00000000000E+00 0. -1.
         -4    1    3    3    0  502 -0.13753813377E+03  0.92912159241E+02 -0.16010118416E+03  0.23061178796E+03  0.00000000000E+00 0.  1.
         11    1    5    5    0    0  0.80408759894E+02 -0.23689856887E+01 -0.16015560785E+03  0.17922332294E+03  0.00000000000E+00 0.  1.
        -11    1    5    5    0    0  0.31557125650E+03 -0.18591086840E+03 -0.84517947107E+03  0.92112779093E+03  0.00000000000E+00 0. -1.
          4    1    6    6  503    0 -0.47939799095E+02 -0.24000774292E+02 -0.10284661579E+03  0.11598141180E+03  0.00000000000E+00 0. -1.
         -4    1    6    6    0  503 -0.13457472326E+03 -0.40290284872E+02 -0.77245879455E+03  0.78512817583E+03  0.00000000000E+00 0.  1.
<mgrwt>
<rscale>  0 0.49178406E+03</rscale>
<asrwt>0</asrwt>
<pdfrwt beam="1">  1        1 0.36224396E+00 0.49178406E+03</pdfrwt>
<pdfrwt beam="2">  1       -1 0.20227691E-01 0.49178406E+03</pdfrwt>
<totfact> 0.37184988E+01</totfact>
</mgrwt>
</event>
<event>
12    1  0.1432447E-007  0.1197583E+04  0.7818608E-02  0.9114974E-01
          1   -1    0    0  501    0  0.00000000000E+00  0.00000000000E+00  0.40375915715E+04  0.40375915715E+04  0.00000000000E+00 0. -1.
         -1   -1    0    0    0  501 -0.00000000000E+00 -0.00000000000E+00 -0.40534452470E+03  0.40534452470E+03  0.00000000000E+00 0.  1.
         23    2    1    2    0    0 -0.11088190386E+04  0.37262031791E+03  0.22366908843E+04  0.25256949336E+04  0.89572452528E+02 0.  0.
    5000000    2    1    2    0    0  0.11088190386E+04 -0.37262031791E+03  0.13955561625E+04  0.19172411626E+04  0.59992592123E+03 0.  0.
         23    2    4    4    0    0  0.13582717651E+03  0.65872750958E+02  0.25338442833E+02  0.17773305101E+03  0.90325852004E+02 0.  0.
         23    2    4    4    0    0  0.97299186210E+03 -0.43849306887E+03  0.13702177197E+04  0.17395081115E+04  0.96966672802E+02 0.  0.
          3    1    3    3  502    0 -0.96673115081E+03  0.30811661324E+03  0.19911161384E+04  0.22347367724E+04  0.00000000000E+00 0. -1.
         -3    1    3    3    0  502 -0.14208788780E+03  0.64503704670E+02  0.24557474586E+03  0.29095816122E+03  0.00000000000E+00 0.  1.
         11    1    5    5    0    0  0.73916791809E+01  0.18370283355E+02  0.35255591442E+02  0.40435887027E+02  0.00000000000E+00 0. -1.
        -11    1    5    5    0    0  0.12843549733E+03  0.47502467603E+02 -0.99171486099E+01  0.13729716399E+03  0.00000000000E+00 0.  1.
          1    1    6    6  503    0  0.77099342190E+03 -0.36189609171E+03  0.10303949722E+04  0.13368296214E+04  0.00000000000E+00 0. -1.
         -1    1    6    6    0  503  0.20199844021E+03 -0.76596977161E+02  0.33982274745E+03  0.40267849016E+03  0.00000000000E+00 0.  1.
<mgrwt>
<rscale>  0 0.11975834E+04</rscale>
<asrwt>0</asrwt>
<pdfrwt beam="1">  1        1 0.62116791E+00 0.11975834E+04</pdfrwt>
<pdfrwt beam="2">  1       -1 0.62360699E-01 0.11975834E+04</pdfrwt>
<totfact> 0.23640891E-01</totfact>
</mgrwt>
</event>
<event>
12    1  0.1432447E-007  0.5728738E+03  0.7818608E-02  0.9963339E-01
          2   -1    0    0  501    0  0.00000000000E+00  0.00000000000E+00  0.22798575764E+04  0.22798575764E+04  0.00000000000E+00 0. -1.
         -2   -1    0    0    0  501 -0.00000000000E+00 -0.00000000000E+00 -0.38417732944E+03  0.38417732944E+03  0.00000000000E+00 0.  1.
         23    2    1    2    0    0  0.15321691158E+03 -0.43671958234E+03 -0.13984919367E+03  0.49197941803E+03  0.91030408082E+02 0.  0.
    5000000    2    1    2    0    0 -0.15321691158E+03  0.43671958234E+03  0.20355294406E+04  0.21720554878E+04  0.60020456754E+03 0.  0.
         23    2    4    4    0    0  0.13199004211E+03  0.34587767231E+03  0.15359595953E+04  0.15823558378E+04  0.87323443140E+02 0.  0.
         23    2    4    4    0    0 -0.28520695369E+03  0.90841910036E+02  0.49956984530E+03  0.58969964996E+03  0.92630382559E+02 0.  0.
          3    1    3    3  502    0  0.10829044815E+03 -0.22266668162E+03 -0.37234048255E+02  0.25038699370E+03  0.00000000000E+00 0. -1.
         -3    1    3    3    0  502  0.44926463434E+02 -0.21405290072E+03 -0.10261514541E+03  0.24159242432E+03  0.00000000000E+00 0.  1.
         13    1    5    5    0    0  0.79471366408E+02  0.17912449345E+03  0.98571102999E+03  0.10050012522E+04  0.00000000000E+00 0. -1.
        -13    1    5    5    0    0  0.52518675698E+02  0.16675317885E+03  0.55024856530E+03  0.57735458565E+03  0.00000000000E+00 0.  1.
          4    1    6    6  503    0 -0.18055839764E+03  0.94763638523E+02  0.27945403041E+03  0.34594224555E+03  0.00000000000E+00 0.  1.
         -4    1    6    6    0  503 -0.10464855606E+03 -0.39217284870E+01  0.22011581489E+03  0.24375740441E+03  0.00000000000E+00 0. -1.
<mgrwt>
<rscale>  0 0.57287385E+03</rscale>
<asrwt>0</asrwt>
<pdfrwt beam="1">  1        2 0.35074731E+00 0.57287385E+03</pdfrwt>
<pdfrwt beam="2">  1       -2 0.59104206E-01 0.57287385E+03</pdfrwt>
<totfact> 0.13381303E+01</totfact>
</mgrwt>
</event>
<event>
12    1  0.1432447E-007  0.8016644E+03  0.7818608E-02  0.9557611E-01
         -1   -1    0    0    0  501 -0.00000000000E+00  0.00000000000E+00  0.54481956469E+03  0.54481956469E+03  0.00000000000E+00 0.  1.
          1   -1    0    0  501    0  0.00000000000E+00 -0.00000000000E+00 -0.15768619571E+04  0.15768619571E+04  0.00000000000E+00 0. -1.
         23    2    1    2    0    0 -0.58180718157E+03 -0.50402847935E+03 -0.80951600644E+03  0.11206357505E+04  0.89241336768E+02 0.  0.
    5000000    2    1    2    0    0  0.58180718157E+03  0.50402847935E+03 -0.22252638599E+03  0.10010457713E+04  0.60002528211E+03 0.  0.
         23    2    4    4    0    0  0.86933642762E+02 -0.44039119647E+01 -0.25603484982E+03  0.28524207681E+03  0.90732273078E+02 0.  0.
         23    2    4    4    0    0  0.49487353881E+03  0.50843239132E+03  0.33508463824E+02  0.71580369445E+03  0.88593430251E+02 0.  0.
          1    1    3    3  502    0 -0.44560842701E+03 -0.41400990031E+03 -0.59315448373E+03  0.84959008313E+03  0.00000000000E+00 0. -1.
         -1    1    3    3    0  502 -0.13619875456E+03 -0.90018579043E+02 -0.21636152270E+03  0.27104566741E+03  0.00000000000E+00 0.  1.
         11    1    5    5    0    0  0.51289054238E+02 -0.44373225315E+02 -0.10504596368E+03  0.12503681336E+03  0.00000000000E+00 0.  1.
        -11    1    5    5    0    0  0.35644588524E+02  0.39969313351E+02 -0.15098888614E+03  0.16020526345E+03  0.00000000000E+00 0. -1.
          2    1    6    6  503    0  0.15299227182E+03  0.13360047575E+03  0.46256082949E+02  0.20831550006E+03  0.00000000000E+00 0.  1.
         -2    1    6    6    0  503  0.34188126699E+03  0.37483191557E+03 -0.12747619124E+02  0.50748819439E+03  0.00000000000E+00 0. -1.
<mgrwt>
<rscale>  0 0.80166444E+03</rscale>
<asrwt>0</asrwt>
<pdfrwt beam="1">  1        1 0.24259414E+00 0.80166444E+03</pdfrwt>
<pdfrwt beam="2">  1       -1 0.83818396E-01 0.80166444E+03</pdfrwt>
<totfact> 0.84337022E+00</totfact>
</mgrwt>
</event>
<event>
12    1  0.1432447E-007  0.9545726E+03  0.7818608E-02  0.9359822E-01
          2   -1    0    0  501    0  0.00000000000E+00  0.00000000000E+00  0.38989487002E+04  0.38989487002E+04  0.00000000000E+00 0. -1.
         -2   -1    0    0    0  501 -0.00000000000E+00 -0.00000000000E+00 -0.33914491164E+03  0.33914491164E+03  0.00000000000E+00 0.  1.
         23    2    1    2    0    0  0.93749844732E+03  0.39295541294E+02  0.26076037550E+04  0.27727884881E+04  0.91165664085E+02 0.  0.
    5000000    2    1    2    0    0 -0.93749844732E+03 -0.39295541294E+02  0.95220003362E+03  0.14653051238E+04  0.59998893619E+03 0.  0.
         23    2    4    4    0    0 -0.75741869339E+03  0.65918723226E+02  0.39107503045E+03  0.85873859610E+03  0.80398643114E+02 0.  0.
         23    2    4    4    0    0 -0.18007975393E+03 -0.10521426452E+03  0.56112500317E+03  0.60656652772E+03  0.97790204696E+02 0.  0.
          1    1    3    3  502    0  0.54301253096E+03  0.35569037402E+01  0.13864142624E+04  0.14889660061E+04  0.00000000000E+00 0. -1.
         -1    1    3    3    0  502  0.39448591636E+03  0.35738637553E+02  0.12211894926E+04  0.12838224820E+04  0.00000000000E+00 0.  1.
         13    1    5    5    0    0 -0.38563809978E+03  0.12373502123E+02  0.23656322318E+03  0.45258370068E+03  0.00000000000E+00 0. -1.
        -13    1    5    5    0    0 -0.37178059361E+03  0.53545221103E+02  0.15451180728E+03  0.40615489542E+03  0.00000000000E+00 0.  1.
          4    1    6    6  503    0 -0.13665213469E+03 -0.79304675549E+02  0.28514657757E+03  0.32599326401E+03  0.00000000000E+00 0. -1.
         -4    1    6    6    0  503 -0.43427619240E+02 -0.25909588970E+02  0.27597842559E+03  0.28057326370E+03  0.00000000000E+00 0.  1.
<mgrwt>
<rscale>  0 0.95457264E+03</rscale>
<asrwt>0</asrwt>
<pdfrwt beam="1">  1        2 0.59983823E+00 0.95457264E+03</pdfrwt>
<pdfrwt beam="2">  1       -2 0.52176143E-01 0.95457264E+03</pdfrwt>
<totfact> 0.15131816E+00</totfact>
</mgrwt>
</event>
<event>
12    1  0.1432447E-007  0.8977348E+03  0.7818608E-02  0.9428417E-01
         -2   -1    0    0    0  501 -0.00000000000E+00  0.00000000000E+00  0.13931537480E+04  0.13931537480E+04  0.00000000000E+00 0.  1.
          2   -1    0    0  501    0  0.00000000000E+00 -0.00000000000E+00 -0.97595625990E+03  0.97595625990E+03  0.00000000000E+00 0. -1.
         23    2    1    2    0    0 -0.72805500496E+03  0.46626375001E+03 -0.47406533632E+03  0.99001350067E+03  0.89010188109E+02 0.  0.
    5000000    2    1    2    0    0  0.72805500496E+03 -0.46626375001E+03  0.89126282439E+03  0.13790965072E+04  0.60007647778E+03 0.  0.
         23    2    4    4    0    0  0.67700135492E+03 -0.32588149193E+03  0.39652608619E+03  0.85431396603E+03  0.89943505440E+02 0.  0.
         23    2    4    4    0    0  0.51053650045E+02 -0.14038225807E+03  0.49473673820E+03  0.52478254117E+03  0.91206479084E+02 0.  0.
          2    1    3    3  502    0 -0.32914709906E+03  0.24407139665E+03 -0.26358429772E+03  0.48722206589E+03  0.00000000000E+00 0. -1.
         -2    1    3    3    0  502 -0.39890790590E+03  0.22219235336E+03 -0.21048103860E+03  0.50279143478E+03  0.00000000000E+00 0.  1.
         11    1    5    5    0    0  0.69716599474E+02 -0.86685050870E+01  0.52147266458E+02  0.87492197491E+02  0.00000000000E+00 0.  1.
        -11    1    5    5    0    0  0.60728475544E+03 -0.31721298685E+03  0.34437881973E+03  0.76682176854E+03  0.00000000000E+00 0. -1.
          3    1    6    6  503    0 -0.23462568047E+02 -0.15025595416E+02  0.10572382425E+03  0.10933337839E+03  0.00000000000E+00 0. -1.
         -3    1    6    6    0  503  0.74516218092E+02 -0.12535666266E+03  0.38901291394E+03  0.41544916277E+03  0.00000000000E+00 0.  1.
<mgrwt>
<rscale>  0 0.89773480E+03</rscale>
<asrwt>0</asrwt>
<pdfrwt beam="1">  1        2 0.15014712E+00 0.89773480E+03</pdfrwt>
<pdfrwt beam="2">  1       -2 0.21433135E+00 0.89773480E+03</pdfrwt>
<totfact> 0.28192933E+00</totfact>
</mgrwt>
</event>
<event>
12    1  0.1432447E-007  0.5734614E+03  0.7818608E-02  0.9962048E-01
         -1   -1    0    0    0  501 -0.00000000000E+00  0.00000000000E+00  0.18898540179E+03  0.18898540179E+03  0.00000000000E+00 0.  1.
          1   -1    0    0  501    0  0.00000000000E+00 -0.00000000000E+00 -0.32036420686E+04  0.32036420686E+04  0.00000000000E+00 0. -1.
         23    2    1    2    0    0 -0.19187310817E+03  0.40475709101E+03 -0.23549738760E+03  0.51437868175E+03  0.92102205742E+02 0.  0.
    5000000    2    1    2    0    0  0.19187310817E+03 -0.40475709101E+03 -0.27791592793E+04  0.28782487887E+04  0.59995516318E+03 0.  0.
         23    2    4    4    0    0  0.30880402955E+03 -0.44948065362E+03 -0.24738944611E+04  0.25348295327E+04  0.88397786908E+02 0.  0.
         23    2    4    4    0    0 -0.11693092138E+03  0.44723562607E+02 -0.30526481814E+03  0.34341925595E+03  0.95274019213E+02 0.  0.
          1    1    3    3  502    0 -0.10128537444E+03  0.24709346831E+03 -0.91014386018E+02  0.28213033800E+03  0.00000000000E+00 0. -1.
         -1    1    3    3    0  502 -0.90587733738E+02  0.15766362270E+03 -0.14448300159E+03  0.23224834375E+03  0.00000000000E+00 0.  1.
         13    1    5    5    0    0  0.67735876932E+02 -0.54234350202E+02 -0.49081653348E+03  0.49842791184E+03  0.00000000000E+00 0. -1.
        -13    1    5    5    0    0  0.24106815262E+03 -0.39524630341E+03 -0.19830779276E+04  0.20364016209E+04  0.00000000000E+00 0.  1.
          3    1    6    6  503    0 -0.12713973318E+03  0.30410499628E+02 -0.21630860534E+03  0.25274240440E+03  0.00000000000E+00 0. -1.
         -3    1    6    6    0  503  0.10208811802E+02  0.14313062979E+02 -0.88956212806E+02  0.90676851550E+02  0.00000000000E+00 0.  1.
<mgrwt>
<rscale>  0 0.57346145E+03</rscale>
<asrwt>0</asrwt>
<pdfrwt beam="1">  1        1 0.49286805E+00 0.57346145E+03</pdfrwt>
<pdfrwt beam="2">  1       -1 0.29074675E-01 0.57346145E+03</pdfrwt>
<totfact> 0.50691514E+00</totfact>
</mgrwt>
</event>
<event>
12    1  0.1432447E-007  0.9749187E+03  0.7818608E-02  0.9336489E-01
          2   -1    0    0  501    0  0.00000000000E+00  0.00000000000E+00  0.10110460947E+04  0.10110460947E+04  0.00000000000E+00 0. -1.
         -2   -1    0    0    0  501 -0.00000000000E+00 -0.00000000000E+00 -0.97449846441E+03  0.97449846441E+03  0.00000000000E+00 0.  1.
         23    2    1    2    0    0  0.74484288916E+03 -0.47477182965E+03 -0.15245807185E+03  0.90111847663E+03  0.92584153551E+02 0.  0.
    5000000    2    1    2    0    0 -0.74484288916E+03  0.47477182965E+03  0.18900570211E+03  0.10844260825E+04  0.60004795902E+03 0.  0.
         23    2    4    4    0    0 -0.71517864583E+03  0.57973607047E+03  0.17917780828E+03  0.94232037053E+03  0.91041676643E+02 0.  0.
         23    2    4    4    0    0 -0.29664243333E+02 -0.10496424082E+03  0.98278938218E+01  0.14210571192E+03  0.90553777840E+02 0.  0.
          4    1    3    3  502    0  0.10233856371E+03 -0.33759805026E+02 -0.42045855445E+01  0.10784518811E+03  0.00000000000E+00 0. -1.
         -4    1    3    3    0  502  0.64250432545E+03 -0.44101202463E+03 -0.14825348630E+03  0.79327328852E+03  0.00000000000E+00 0.  1.
         13    1    5    5    0    0 -0.41591412809E+03  0.36052438140E+03  0.14845054192E+03  0.57008767302E+03  0.00000000000E+00 0. -1.
        -13    1    5    5    0    0 -0.29926451774E+03  0.21921168907E+03  0.30727266366E+02  0.37223269752E+03  0.00000000000E+00 0.  1.
          2    1    6    6  503    0  0.30456438512E+02 -0.17093295056E+02  0.68722184690E+01  0.35594982363E+02  0.00000000000E+00 0. -1.
         -2    1    6    6    0  503 -0.60120681845E+02 -0.87870945764E+02  0.29556753528E+01  0.10651072956E+03  0.00000000000E+00 0.  1.
<mgrwt>
<rscale>  0 0.97491871E+03</rscale>
<asrwt>0</asrwt>
<pdfrwt beam="1">  1        2 0.15554555E+00 0.97491871E+03</pdfrwt>
<pdfrwt beam="2">  1       -2 0.14992284E+00 0.97491871E+03</pdfrwt>
<totfact> 0.73877146E+00</totfact>
</mgrwt>
</event>
<event>
12    1  0.1432447E-007  0.1189198E+04  0.7818608E-02  0.9122364E-01
         -1   -1    0    0    0  501 -0.00000000000E+00  0.00000000000E+00  0.19868083602E+04  0.19868083602E+04  0.00000000000E+00 0.  1.
          1   -1    0    0  501    0  0.00000000000E+00 -0.00000000000E+00 -0.15262019355E+04  0.15262019355E+04  0.00000000000E+00 0. -1.
         23    2    1    2    0    0 -0.79837768863E+03 -0.87761851407E+03 -0.98807528297E+03  0.15467406923E+04  0.92156468020E+02 0.  0.
    5000000    2    1    2    0    0  0.79837768863E+03  0.87761851407E+03  0.14486817077E+04  0.19662696034E+04  0.59993022373E+03 0.  0.
         23    2    4    4    0    0  0.43400517200E+03  0.45997224570E+03  0.34057243552E+03  0.72412283576E+03  0.91811444243E+02 0.  0.
         23    2    4    4    0    0  0.36437251663E+03  0.41764626837E+03  0.11081092721E+04  0.12421467677E+04  0.88468622054E+02 0.  0.
          4    1    3    3  502    0 -0.38224906757E+03 -0.47246738507E+03 -0.54386738719E+03  0.81555595421E+03  0.00000000000E+00 0.  1.
         -4    1    3    3    0  502 -0.41612862106E+03 -0.40515112900E+03 -0.44420789578E+03  0.73118473813E+03  0.00000000000E+00 0. -1.
         13    1    5    5    0    0  0.53639687811E+02  0.87555685032E+02  0.26477536696E+02  0.10603902131E+03  0.00000000000E+00 0.  1.
        -13    1    5    5    0    0  0.38036548419E+03  0.37241656067E+03  0.31409489882E+03  0.61808381445E+03  0.00000000000E+00 0. -1.
          2    1    6    6  503    0  0.57519947446E+02  0.52114697003E+02  0.98399753432E+02  0.12532756071E+03  0.00000000000E+00 0. -1.
         -2    1    6    6    0  503  0.30685256918E+03  0.36553157137E+03  0.10097095187E+04  0.11168192070E+04  0.00000000000E+00 0.  1.
<mgrwt>
<rscale>  0 0.11891984E+04</rscale>
<asrwt>0</asrwt>
<pdfrwt beam="1">  1        1 0.23480030E+00 0.11891984E+04</pdfrwt>
<pdfrwt beam="2">  1       -1 0.30566282E+00 0.11891984E+04</pdfrwt>
<totfact> 0.18774242E-01</totfact>
</mgrwt>
</event>
<event>
12    1  0.1432447E-007  0.8548459E+03  0.7818608E-02  0.9483856E-01
          1   -1    0    0  501    0  0.00000000000E+00  0.00000000000E+00  0.36951552097E+03  0.36951552097E+03  0.00000000000E+00 0. -1.
         -1   -1    0    0    0  501 -0.00000000000E+00 -0.00000000000E+00 -0.21558408301E+04  0.21558408301E+04  0.00000000000E+00 0.  1.
         23    2    1    2    0    0  0.75714202571E+02  0.78037734326E+03 -0.91620819177E+03  0.12093484946E+04  0.91459785089E+02 0.  0.
    5000000    2    1    2    0    0 -0.75714202571E+02 -0.78037734326E+03 -0.87011711736E+03  0.13160078565E+04  0.60004286693E+03 0.  0.
         23    2    4    4    0    0  0.13574819948E+03 -0.63254917184E+03 -0.80116805346E+03  0.10338791955E+04  0.92140721971E+02 0.  0.
         23    2    4    4    0    0 -0.21146240205E+03 -0.14782817142E+03 -0.68949063898E+02  0.28212866097E+03  0.90956540068E+02 0.  0.
          3    1    3    3  502    0  0.76657326948E+02  0.53596459178E+03 -0.57681626911E+03  0.79110770299E+03  0.00000000000E+00 0. -1.
         -3    1    3    3    0  502 -0.94312437724E+00  0.24441275148E+03 -0.33939192266E+03  0.41824079157E+03  0.00000000000E+00 0.  1.
         13    1    5    5    0    0  0.96822814942E+02 -0.55642287732E+03 -0.72765398566E+03  0.92111964410E+03  0.00000000000E+00 0. -1.
        -13    1    5    5    0    0  0.38925384538E+02 -0.76126294510E+02 -0.73514067803E+02  0.11275955145E+03  0.00000000000E+00 0.  1.
          1    1    6    6  503    0 -0.82105431613E+02 -0.70794235050E+01 -0.20571114172E+02  0.84938747788E+02  0.00000000000E+00 0. -1.
         -1    1    6    6    0  503 -0.12935697044E+03 -0.14074874792E+03 -0.48377949726E+02  0.19718991318E+03  0.00000000000E+00 0.  1.
<mgrwt>
<rscale>  0 0.85484592E+03</rscale>
<asrwt>0</asrwt>
<pdfrwt beam="1">  1        1 0.56848540E-01 0.85484592E+03</pdfrwt>
<pdfrwt beam="2">  1       -1 0.33166783E+00 0.85484592E+03</pdfrwt>
<totfact> 0.14226978E+00</totfact>
</mgrwt>
</event>
<event>
12    1  0.1432447E-007  0.8363311E+03  0.7818608E-02  0.9508869E-01
         -1   -1    0    0    0  501 -0.00000000000E+00  0.00000000000E+00  0.55972593927E+03  0.55972593927E+03  0.00000000000E+00 0.  1.
          1   -1    0    0  501    0  0.00000000000E+00 -0.00000000000E+00 -0.15112265561E+04  0.15112265561E+04  0.00000000000E+00 0. -1.
         23    2    1    2    0    0 -0.14563375771E+03  0.72970113737E+03 -0.81219592477E+03  0.11050729952E+04  0.88606789590E+02 0.  0.
    5000000    2    1    2    0    0  0.14563375771E+03 -0.72970113737E+03 -0.13930469208E+03  0.96587950023E+03  0.59987037804E+03 0.  0.
         23    2    4    4    0    0  0.32159607310E+03 -0.65557728126E+03 -0.54678429096E+02  0.73753143294E+03  0.88075411086E+02 0.  0.
         23    2    4    4    0    0 -0.17596231539E+03 -0.74123856117E+02 -0.84626262985E+02  0.22834806728E+03  0.92326339473E+02 0.  0.
          3    1    3    3  502    0 -0.64523964360E+02  0.47794660519E+03 -0.56745693710E+03  0.74471717776E+03  0.00000000000E+00 0. -1.
         -3    1    3    3    0  502 -0.81109793345E+02  0.25175453218E+03 -0.24473898768E+03  0.36035581741E+03  0.00000000000E+00 0.  1.
         13    1    5    5    0    0  0.27645131148E+03 -0.54342323312E+03 -0.77149580940E+02  0.61456179165E+03  0.00000000000E+00 0. -1.
        -13    1    5    5    0    0  0.45144761615E+02 -0.11215404814E+03  0.22471151844E+02  0.12296964129E+03  0.00000000000E+00 0.  1.
          4    1    6    6  503    0 -0.13097424428E+03 -0.73713433490E+02 -0.10032085972E+03  0.18069919158E+03  0.00000000000E+00 0. -1.
         -4    1    6    6    0  503 -0.44988071114E+02 -0.41042262714E+00  0.15694596736E+02  0.47648875705E+02  0.00000000000E+00 0.  1.
<mgrwt>
<rscale>  0 0.83633106E+03</rscale>
<asrwt>0</asrwt>
<pdfrwt beam="1">  1        1 0.23249639E+00 0.83633106E+03</pdfrwt>
<pdfrwt beam="2">  1       -1 0.86111684E-01 0.83633106E+03</pdfrwt>
<totfact> 0.87774246E+00</totfact>
</mgrwt>
</event>
<event>
12    1  0.1432447E-007  0.1172899E+04  0.7818608E-02  0.9136914E-01
         -1   -1    0    0    0  501 -0.00000000000E+00  0.00000000000E+00  0.55311953417E+03  0.55311953417E+03  0.00000000000E+00 0.  1.
          1   -1    0    0  501    0  0.00000000000E+00 -0.00000000000E+00 -0.25637479489E+04  0.25637479489E+04  0.00000000000E+00 0. -1.
         23    2    1    2    0    0 -0.10440784733E+04 -0.38783774663E+03 -0.95217188171E+03  0.14677918993E+04  0.85227877809E+02 0.  0.
    5000000    2    1    2    0    0  0.10440784733E+04  0.38783774663E+03 -0.10584565330E+04  0.16490755838E+04  0.59883392744E+03 0.  0.
         23    2    4    4    0    0  0.74152227164E+03  0.14132990880E+02 -0.80274323684E+03  0.10966558870E+04  0.90567154689E+02 0.  0.
         23    2    4    4    0    0  0.30255620164E+03  0.37370475575E+03 -0.25571329615E+03  0.55241969673E+03  0.92643034701E+02 0.  0.
          2    1    3    3  502    0 -0.61914349916E+03 -0.22010340955E+03 -0.61492545838E+03  0.89995416706E+03  0.00000000000E+00 0. -1.
         -2    1    3    3    0  502 -0.42493497413E+03 -0.16773433708E+03 -0.33724642332E+03  0.56783773221E+03  0.00000000000E+00 0.  1.
         13    1    5    5    0    0  0.71479660518E+03  0.22153391205E+02 -0.74593832879E+03  0.10333677709E+04  0.00000000000E+00 0. -1.
        -13    1    5    5    0    0  0.26725666463E+02 -0.80204003250E+01 -0.56804908050E+02  0.63288116166E+02  0.00000000000E+00 0.  1.
          3    1    6    6  503    0  0.26040078955E+03  0.26190550024E+03 -0.20705788279E+03  0.42341000115E+03  0.00000000000E+00 0. -1.
         -3    1    6    6    0  503  0.42155412098E+02  0.11179925552E+03 -0.48655413363E+02  0.12900969558E+03  0.00000000000E+00 0.  1.
<mgrwt>
<rscale>  0 0.11728993E+04</rscale>
<asrwt>0</asrwt>
<pdfrwt beam="1">  1        1 0.39442276E+00 0.11728993E+04</pdfrwt>
<pdfrwt beam="2">  1       -1 0.85095313E-01 0.11728993E+04</pdfrwt>
<totfact> 0.16631964E+00</totfact>
</mgrwt>
</event>
<event>
12    1  0.1432447E-007  0.6203786E+03  0.7818608E-02  0.9864006E-01
         -1   -1    0    0    0  501 -0.00000000000E+00  0.00000000000E+00  0.63484078335E+03  0.63484078335E+03  0.00000000000E+00 0.  1.
          1   -1    0    0  501    0  0.00000000000E+00 -0.00000000000E+00 -0.98545871309E+03  0.98545871309E+03  0.00000000000E+00 0. -1.
         23    2    1    2    0    0  0.47235822062E+03  0.26945894324E+03  0.25629484955E+03  0.60836211161E+03  0.93204067819E+02 0.  0.
    5000000    2    1    2    0    0 -0.47235822062E+03 -0.26945894324E+03 -0.60691277929E+03  0.10119373848E+04  0.59995311356E+03 0.  0.
         23    2    4    4    0    0 -0.49691066758E+03 -0.31294165846E+03 -0.25726491528E+03  0.64778687433E+03  0.92681739102E+02 0.  0.
         23    2    4    4    0    0  0.24552446964E+02  0.43482715220E+02 -0.34964786402E+03  0.36415051050E+03  0.88647596204E+02 0.  0.
          2    1    3    3  502    0  0.19693038928E+03  0.14185608847E+03  0.71625181224E+02  0.25305117001E+03  0.00000000000E+00 0. -1.
         -2    1    3    3    0  502  0.27542783134E+03  0.12760285477E+03  0.18466966832E+03  0.35531094160E+03  0.00000000000E+00 0.  1.
         13    1    5    5    0    0 -0.96567114778E+02 -0.10455940986E+03 -0.76670438245E+02  0.16166704657E+03  0.00000000000E+00 0.  1.
        -13    1    5    5    0    0 -0.40034355280E+03 -0.20838224860E+03 -0.18059447703E+03  0.48611982776E+03  0.00000000000E+00 0. -1.
          1    1    6    6  503    0  0.28800079360E+02  0.69108116468E+02 -0.27928982235E+03  0.28915079318E+03  0.00000000000E+00 0.  1.
         -1    1    6    6    0  503 -0.42476323954E+01 -0.25625401248E+02 -0.70358041669E+02  0.74999717317E+02  0.00000000000E+00 0. -1.
<mgrwt>
<rscale>  0 0.62037858E+03</rscale>
<asrwt>0</asrwt>
<pdfrwt beam="1">  1        1 0.15160903E+00 0.62037858E+03</pdfrwt>
<pdfrwt beam="2">  1       -1 0.97667813E-01 0.62037858E+03</pdfrwt>
<totfact> 0.16386122E+01</totfact>
</mgrwt>
</event>
<event>
12    1  0.1432447E-007  0.6276131E+03  0.7818608E-02  0.9849718E-01
          2   -1    0    0  501    0  0.00000000000E+00  0.00000000000E+00  0.87992723067E+03  0.87992723067E+03  0.00000000000E+00 0. -1.
         -2   -1    0    0    0  501 -0.00000000000E+00 -0.00000000000E+00 -0.62401500013E+03  0.62401500013E+03  0.00000000000E+00 0.  1.
         23    2    1    2    0    0  0.60526922052E+03 -0.22374129711E+01 -0.69341158008E+01  0.61215976808E+03  0.91299859623E+02 0.  0.
    5000000    2    1    2    0    0 -0.60526922052E+03  0.22374129711E+01  0.26284634635E+03  0.89178246272E+03  0.59985992006E+03 0.  0.
         23    2    4    4    0    0 -0.46961588833E+03  0.51750940781E+02 -0.99078635714E+02  0.49159783685E+03  0.92922627495E+02 0.  0.
         23    2    4    4    0    0 -0.13565333219E+03 -0.49513527810E+02  0.36192498206E+03  0.40018462587E+03  0.91129721640E+02 0.  0.
          2    1    3    3  502    0  0.38897847369E+03  0.40270504906E+02 -0.17815609138E+02  0.39146310489E+03  0.00000000000E+00 0. -1.
         -2    1    3    3    0  502  0.21629074683E+03 -0.42507917877E+02  0.10881493337E+02  0.22069666319E+03  0.00000000000E+00 0.  1.
         13    1    5    5    0    0 -0.10281093137E+03  0.10915507777E+01 -0.60527006600E+02  0.11930967111E+03  0.00000000000E+00 0. -1.
        -13    1    5    5    0    0 -0.36680495696E+03  0.50659390003E+02 -0.38551629114E+02  0.37228816574E+03  0.00000000000E+00 0.  1.
          1    1    6    6  503    0 -0.46470987403E+02 -0.65219675459E+02  0.17736564722E+03  0.19460660716E+03  0.00000000000E+00 0. -1.
         -1    1    6    6    0  503 -0.89182344791E+02  0.15706147649E+02  0.18455933484E+03  0.20557801870E+03  0.00000000000E+00 0.  1.
<mgrwt>
<rscale>  0 0.62761310E+03</rscale>
<asrwt>0</asrwt>
<pdfrwt beam="1">  1        2 0.13537342E+00 0.62761310E+03</pdfrwt>
<pdfrwt beam="2">  1       -2 0.96002308E-01 0.62761310E+03</pdfrwt>
<totfact> 0.28280673E+01</totfact>
</mgrwt>
</event>
<event>
12    1  0.1432447E-007  0.1418402E+04  0.7818608E-02  0.8940605E-01
          3   -1    0    0  501    0  0.00000000000E+00  0.00000000000E+00  0.20637860884E+04  0.20637860884E+04  0.00000000000E+00 0. -1.
         -3   -1    0    0    0  501 -0.00000000000E+00 -0.00000000000E+00 -0.11771831870E+04  0.11771831870E+04  0.00000000000E+00 0.  1.
         23    2    1    2    0    0 -0.10389716665E+04  0.93989144150E+03  0.98307346855E+03  0.17138191136E+04  0.88794503714E+02 0.  0.
    5000000    2    1    2    0    0  0.10389716665E+04 -0.93989144150E+03 -0.96470567233E+02  0.15271501618E+04  0.60001916714E+03 0.  0.
         23    2    4    4    0    0  0.44226145018E+03 -0.59417400601E+03  0.19769846102E+03  0.77184880666E+03  0.89598878957E+02 0.  0.
         23    2    4    4    0    0  0.59671021628E+03 -0.34571743549E+03 -0.29416902825E+03  0.75530135518E+03  0.91439009933E+02 0.  0.
          1    1    3    3  502    0 -0.29531748133E+03  0.21723149083E+03  0.24194913462E+03  0.43925086128E+03  0.00000000000E+00 0. -1.
         -1    1    3    3    0  502 -0.74365418513E+03  0.72265995067E+03  0.74112433392E+03  0.12745682523E+04  0.00000000000E+00 0.  1.
         11    1    5    5    0    0  0.23993815234E+03 -0.28991285042E+03  0.14207314196E+03  0.40224936974E+03  0.00000000000E+00 0.  1.
        -11    1    5    5    0    0  0.20232329784E+03 -0.30426115559E+03  0.55625319064E+02  0.36959943692E+03  0.00000000000E+00 0. -1.
          1    1    6    6  503    0  0.32840356457E+03 -0.21963922823E+03 -0.12715871604E+03  0.41504172184E+03  0.00000000000E+00 0. -1.
         -1    1    6    6    0  503  0.26830665172E+03 -0.12607820726E+03 -0.16701031221E+03  0.34025963335E+03  0.00000000000E+00 0.  1.
<mgrwt>
<rscale>  0 0.14184023E+04</rscale>
<asrwt>0</asrwt>
<pdfrwt beam="1">  1        3 0.31750555E+00 0.14184023E+04</pdfrwt>
<pdfrwt beam="2">  1       -3 0.18110511E+00 0.14184023E+04</pdfrwt>
<totfact> 0.14623176E-02</totfact>
</mgrwt>
</event>
<event>
12    1  0.1432447E-007  0.8809597E+03  0.7818608E-02  0.9449701E-01
         -2   -1    0    0    0  501 -0.00000000000E+00  0.00000000000E+00  0.66635073161E+03  0.66635073161E+03  0.00000000000E+00 0. -1.
          2   -1    0    0  501    0  0.00000000000E+00 -0.00000000000E+00 -0.23466914997E+04  0.23466914997E+04  0.00000000000E+00 0.  1.
         23    2    1    2    0    0  0.87839479961E+03  0.20578970368E+02 -0.17357780931E+04  0.19476090502E+04  0.90854311327E+02 0.  0.
    5000000    2    1    2    0    0 -0.87839479961E+03 -0.20578970368E+02  0.55437325007E+02  0.10654331811E+04  0.60006137055E+03 0.  0.
         23    2    4    4    0    0 -0.47838953443E+03 -0.23001449025E+02 -0.25612050408E+03  0.55063013684E+03  0.90610273609E+02 0.  0.
         23    2    4    4    0    0 -0.40000526518E+03  0.24224786564E+01  0.31155782909E+03  0.51480304427E+03  0.89128070515E+02 0.  0.
          3    1    3    3  502    0  0.12712874131E+03  0.27535467983E+02 -0.30479049232E+03  0.33138672736E+03  0.00000000000E+00 0. -1.
         -3    1    3    3    0  502  0.75126605830E+03 -0.69564976144E+01 -0.14309876008E+04  0.16162223228E+04  0.00000000000E+00 0.  1.
         11    1    5    5    0    0 -0.37933149269E+03 -0.78237775570E+01 -0.24047716561E+03  0.44920247108E+03  0.00000000000E+00 0. -1.
        -11    1    5    5    0    0 -0.99058041737E+02 -0.15177671467E+02 -0.15643338464E+02  0.10142766576E+03  0.00000000000E+00 0.  1.
          2    1    6    6  503    0 -0.21951088846E+03 -0.12073819702E+02  0.22331810469E+03  0.31337163745E+03  0.00000000000E+00 0. -1.
         -2    1    6    6    0  503 -0.18049437672E+03  0.14496298358E+02  0.88239724391E+02  0.20143140682E+03  0.00000000000E+00 0.  1.
<mgrwt>
<rscale>  0 0.88095967E+03</rscale>
<asrwt>0</asrwt>
<pdfrwt beam="1">  1        2 0.36102947E+00 0.88095967E+03</pdfrwt>
<pdfrwt beam="2">  1       -2 0.10251549E+00 0.88095967E+03</pdfrwt>
<totfact> 0.33962118E+00</totfact>
</mgrwt>
</event>
<event>
12    1  0.1432447E-007  0.5160035E+03  0.7818608E-02  0.1009684E+00
         -2   -1    0    0    0  501 -0.00000000000E+00  0.00000000000E+00  0.34149678534E+03  0.34149678534E+03  0.00000000000E+00 0.  1.
          2   -1    0    0  501    0  0.00000000000E+00 -0.00000000000E+00 -0.12632776096E+04  0.12632776096E+04  0.00000000000E+00 0. -1.
         23    2    1    2    0    0 -0.49324521444E+03 -0.12890947257E+03 -0.45757859203E+03  0.69081100984E+03  0.89068455416E+02 0.  0.
    5000000    2    1    2    0    0  0.49324521444E+03  0.12890947257E+03 -0.46420223220E+03  0.91396338507E+03  0.59994738368E+03 0.  0.
         23    2    4    4    0    0  0.22963240019E+03  0.32969494103E+02 -0.55199997155E+03  0.60605416747E+03  0.93699832188E+02 0.  0.
         23    2    4    4    0    0  0.26361281424E+03  0.95939978468E+02  0.87797739357E+02  0.30790921760E+03  0.91670322034E+02 0.  0.
          3    1    3    3  502    0 -0.18101855864E+03 -0.91935203784E+02 -0.17295118032E+03  0.26670566368E+03  0.00000000000E+00 0. -1.
         -3    1    3    3    0  502 -0.31222665580E+03 -0.36974268788E+02 -0.28462741171E+03  0.42410534616E+03  0.00000000000E+00 0.  1.
         13    1    5    5    0    0  0.16526920615E+03  0.11844874716E+02 -0.47715708227E+03  0.50510701115E+03  0.00000000000E+00 0. -1.
        -13    1    5    5    0    0  0.64363194041E+02  0.21124619388E+02 -0.74842889287E+02  0.10094715632E+03  0.00000000000E+00 0.  1.
          3    1    6    6  503    0  0.38980237897E+02  0.73488234759E+01  0.49479790939E+02  0.63416984037E+02  0.00000000000E+00 0. -1.
         -3    1    6    6    0  503  0.22463257635E+03  0.88591154993E+02  0.38317948417E+02  0.24449223356E+03  0.00000000000E+00 0.  1.
<mgrwt>
<rscale>  0 0.51600351E+03</rscale>
<asrwt>0</asrwt>
<pdfrwt beam="1">  1        2 0.19435040E+00 0.51600351E+03</pdfrwt>
<pdfrwt beam="2">  1       -2 0.52537967E-01 0.51600351E+03</pdfrwt>
<totfact> 0.62041824E+01</totfact>
</mgrwt>
</event>
<event>
12    1  0.1432447E-007  0.9140166E+03  0.7818608E-02  0.9408228E-01
          1   -1    0    0  501    0  0.00000000000E+00  0.00000000000E+00  0.22472864017E+04  0.22472864017E+04  0.00000000000E+00 0. -1.
         -1   -1    0    0    0  501 -0.00000000000E+00 -0.00000000000E+00 -0.43930214102E+03  0.43930214102E+03  0.00000000000E+00 0.  1.
         23    2    1    2    0    0  0.10851729087E+03 -0.88280791652E+03  0.63474335419E+03  0.10967380128E+04  0.93857994706E+02 0.  0.
    5000000    2    1    2    0    0 -0.10851729087E+03  0.88280791652E+03  0.11732409065E+04  0.15898505299E+04  0.60000388573E+03 0.  0.
         23    2    4    4    0    0  0.65632698402E+02  0.46113272085E+03  0.20961167400E+03  0.51878530274E+03  0.90830056301E+02 0.  0.
         23    2    4    4    0    0 -0.17414998928E+03  0.42167519567E+03  0.96362923246E+03  0.10710652271E+04  0.10228017272E+03 0.  0.
          1    1    3    3  502    0  0.63614700476E+02 -0.73562574219E+03  0.49558156304E+03  0.88926551058E+03  0.00000000000E+00 0. -1.
         -1    1    3    3    0  502  0.44902590397E+02 -0.14718217433E+03  0.13916179115E+03  0.20747250223E+03  0.00000000000E+00 0.  1.
         13    1    5    5    0    0  0.47980719690E+02  0.45138826727E+03  0.19588308876E+03  0.49439225494E+03  0.00000000000E+00 0.  1.
        -13    1    5    5    0    0  0.17651978711E+02  0.97444535790E+01  0.13728585243E+02  0.24393047796E+02  0.00000000000E+00 0. -1.
          1    1    6    6  503    0 -0.16457773541E+03  0.32263440282E+03  0.67921556944E+03  0.76974838658E+03  0.00000000000E+00 0.  1.
         -1    1    6    6    0  503 -0.95722538648E+01  0.99040792852E+02  0.28441366302E+03  0.30131684056E+03  0.00000000000E+00 0. -1.
<mgrwt>
<rscale>  0 0.91401656E+03</rscale>
<asrwt>0</asrwt>
<pdfrwt beam="1">  1        1 0.34573636E+00 0.91401656E+03</pdfrwt>
<pdfrwt beam="2">  1       -1 0.67584946E-01 0.91401656E+03</pdfrwt>
<totfact> 0.46050121E+00</totfact>
</mgrwt>
</event>
<event>
12    1  0.1432447E-007  0.1971144E+04  0.7818608E-02  0.8620232E-01
         -2   -1    0    0    0  501 -0.00000000000E+00  0.00000000000E+00  0.29538384036E+04  0.29538384036E+04  0.00000000000E+00 0.  1.
          2   -1    0    0  501    0  0.00000000000E+00 -0.00000000000E+00 -0.15118506077E+04  0.15118506077E+04  0.00000000000E+00 0. -1.
         23    2    1    2    0    0 -0.17215703787E+04  0.95238775642E+03  0.28185757273E+02  0.19697818283E+04  0.91646095669E+02 0.  0.
    5000000    2    1    2    0    0  0.17215703787E+04 -0.95238775642E+03  0.14138020387E+04  0.24959071829E+04  0.59989120158E+03 0.  0.
         23    2    4    4    0    0  0.13148137496E+04 -0.69088571364E+03  0.74067700220E+03  0.16621991637E+04  0.90804034109E+02 0.  0.
         23    2    4    4    0    0  0.40675662912E+03 -0.26150204278E+03  0.67312503645E+03  0.83370801925E+03  0.90207942905E+02 0.  0.
          4    1    3    3  502    0 -0.58832911955E+03  0.32905373702E+03 -0.33723681198E+02  0.67494059104E+03  0.00000000000E+00 0. -1.
         -4    1    3    3    0  502 -0.11332412592E+04  0.62333401941E+03  0.61909438471E+02  0.12948412373E+04  0.00000000000E+00 0.  1.
         13    1    5    5    0    0  0.83664109938E+03 -0.39379405986E+03  0.47946786196E+03  0.10416004615E+04  0.00000000000E+00 0. -1.
        -13    1    5    5    0    0  0.47817265022E+03 -0.29709165378E+03  0.26120914024E+03  0.62059870215E+03  0.00000000000E+00 0.  1.
          4    1    6    6  503    0  0.36208792391E+03 -0.25301353340E+03  0.57098885619E+03  0.72190843368E+03  0.00000000000E+00 0. -1.
         -4    1    6    6    0  503  0.44668705209E+02 -0.84885093813E+01  0.10213618026E+03  0.11179958558E+03  0.00000000000E+00 0.  1.
<mgrwt>
<rscale>  0 0.19711443E+04</rscale>
<asrwt>0</asrwt>
<pdfrwt beam="1">  1        2 0.23259240E+00 0.19711443E+04</pdfrwt>
<pdfrwt beam="2">  1       -2 0.45443668E+00 0.19711443E+04</pdfrwt>
<totfact> 0.36176582E-02</totfact>
</mgrwt>
</event>
<event>
12    1  0.1432447E-007  0.1124033E+04  0.7818608E-02  0.9182080E-01
         -2   -1    0    0    0  501 -0.00000000000E+00  0.00000000000E+00  0.76600786604E+03  0.76600786604E+03  0.00000000000E+00 0.  1.
          2   -1    0    0  501    0  0.00000000000E+00 -0.00000000000E+00 -0.22095662805E+04  0.22095662805E+04  0.00000000000E+00 0. -1.
         23    2    1    2    0    0 -0.10618319014E+04 -0.20412401921E+03 -0.13553256293E+04  0.17358974237E+04  0.85315309703E+02 0.  0.
    5000000    2    1    2    0    0  0.10618319014E+04  0.20412401921E+03 -0.88232785109E+02  0.12396767228E+04  0.59988311416E+03 0.  0.
         23    2    4    4    0    0 -0.67588717182E-02  0.27768322378E+02 -0.12691896161E+03  0.15863936162E+03  0.91032656046E+02 0.  0.
         23    2    4    4    0    0  0.10618386603E+04  0.17635569683E+03  0.38686176499E+02  0.10810373612E+04  0.92425558004E+02 0.  0.
          3    1    3    3  502    0 -0.47706453509E+03 -0.48689078125E+02 -0.60437941048E+03  0.77151517729E+03  0.00000000000E+00 0. -1.
         -3    1    3    3    0  502 -0.58476736631E+03 -0.15543494108E+03 -0.75094621884E+03  0.96438224641E+03  0.00000000000E+00 0.  1.
         11    1    5    5    0    0 -0.38421245959E+02 -0.18689932833E+01 -0.25326055469E+02  0.46055340217E+02  0.00000000000E+00 0. -1.
        -11    1    5    5    0    0  0.38414487087E+02  0.29637315661E+02 -0.10159290614E+03  0.11258402140E+03  0.00000000000E+00 0.  1.
          4    1    6    6  503    0  0.26970562883E+03  0.38992597197E+02 -0.29988124330E+02  0.27415476735E+03  0.00000000000E+00 0.  1.
         -4    1    6    6    0  503  0.79213303144E+03  0.13736309963E+03  0.68674300829E+02  0.80688259384E+03  0.00000000000E+00 0. -1.
<mgrwt>
<rscale>  0 0.11240325E+04</rscale>
<asrwt>0</asrwt>
<pdfrwt beam="1">  1        2 0.33993327E+00 0.11240325E+04</pdfrwt>
<pdfrwt beam="2">  1       -2 0.11784736E+00 0.11240325E+04</pdfrwt>
<totfact> 0.27945705E+00</totfact>
</mgrwt>
</event>
<event>
12    1  0.1432447E-007  0.4535457E+03  0.7818608E-02  0.1026670E+00
          1   -1    0    0  501    0  0.00000000000E+00  0.00000000000E+00  0.71241603172E+03  0.71241603172E+03  0.00000000000E+00 0. -1.
         -1   -1    0    0    0  501 -0.00000000000E+00 -0.00000000000E+00 -0.68722950063E+03  0.68722950063E+03  0.00000000000E+00 0.  1.
         23    2    1    2    0    0  0.33911336047E+03 -0.12305169040E+03  0.44763378630E+03  0.58207533008E+03  0.91082893546E+02 0.  0.
    5000000    2    1    2    0    0 -0.33911336047E+03  0.12305169040E+03 -0.42244725521E+03  0.81757020226E+03  0.59984978322E+03 0.  0.
         23    2    4    4    0    0 -0.30923650746E+02  0.19711164052E+03  0.66082539156E+02  0.22953433600E+03  0.92248785456E+02 0.  0.
         23    2    4    4    0    0 -0.30818970972E+03 -0.74059950125E+02 -0.48852979437E+03  0.58803586625E+03  0.81602981722E+02 0.  0.
          1    1    3    3  502    0  0.99269489712E+02 -0.49224494629E+00  0.87264791299E+02  0.13217343793E+03  0.00000000000E+00 0. -1.
         -1    1    3    3    0  502  0.23984387076E+03 -0.12255944545E+03  0.36036899500E+03  0.44990189216E+03  0.00000000000E+00 0.  1.
         13    1    5    5    0    0  0.33051187145E+02  0.73123327992E+02  0.26490939616E+02  0.84505455149E+02  0.00000000000E+00 0.  1.
        -13    1    5    5    0    0 -0.63974837891E+02  0.12398831253E+03  0.39591599540E+02  0.14502888085E+03  0.00000000000E+00 0. -1.
          3    1    6    6  503    0 -0.22977097409E+03 -0.40051071359E+02 -0.41134936329E+03  0.47287111091E+03  0.00000000000E+00 0. -1.
         -3    1    6    6    0  503 -0.78418735631E+02 -0.34008878766E+02 -0.77180431077E+02  0.11516475535E+03  0.00000000000E+00 0.  1.
<mgrwt>
<rscale>  0 0.45354573E+03</rscale>
<asrwt>0</asrwt>
<pdfrwt beam="1">  1        1 0.10960247E+00 0.45354573E+03</pdfrwt>
<pdfrwt beam="2">  1       -1 0.10572762E+00 0.45354573E+03</pdfrwt>
<totfact> 0.23775694E+01</totfact>
</mgrwt>
</event>
<event>
12    1  0.1432447E-007  0.1487454E+04  0.7818608E-02  0.8892839E-01
         -2   -1    0    0    0  501 -0.00000000000E+00  0.00000000000E+00  0.20218072473E+04  0.20218072473E+04  0.00000000000E+00 0. -1.
          2   -1    0    0  501    0  0.00000000000E+00 -0.00000000000E+00 -0.15513165654E+04  0.15513165654E+04  0.00000000000E+00 0.  1.
         23    2    1    2    0    0 -0.14500620012E+04 -0.12068115195E+02 -0.70248654649E+03  0.16138452008E+04  0.90462906129E+02 0.  0.
    5000000    2    1    2    0    0  0.14500620012E+04  0.12068115195E+02  0.11729772284E+04  0.19592786120E+04  0.60005970900E+03 0.  0.
         23    2    4    4    0    0  0.39120587133E+03 -0.20581685845E+03  0.53615597032E+03  0.70110196248E+03  0.93156450650E+02 0.  0.
         23    2    4    4    0    0  0.10588561299E+04  0.21788497365E+03  0.63682125808E+03  0.12581766495E+04  0.93898887897E+02 0.  0.
          2    1    3    3  502    0 -0.84999083094E+03 -0.24076120667E+01 -0.36230665758E+03  0.92398935243E+03  0.00000000000E+00 0. -1.
         -2    1    3    3    0  502 -0.60007117027E+03 -0.96605031278E+01 -0.34017988891E+03  0.68985584837E+03  0.00000000000E+00 0.  1.
         13    1    5    5    0    0  0.25635979163E+02 -0.25160234717E+02  0.88788220121E+02  0.95778853986E+02  0.00000000000E+00 0. -1.
        -13    1    5    5    0    0  0.36556989217E+03 -0.18065662373E+03  0.44736775019E+03  0.60532310849E+03  0.00000000000E+00 0.  1.
          3    1    6    6  503    0  0.27883103550E+03  0.61133991359E+02  0.12141158964E+03  0.31020136259E+03  0.00000000000E+00 0. -1.
         -3    1    6    6    0  503  0.78002509437E+03  0.15675098229E+03  0.51540966844E+03  0.94797528693E+03  0.00000000000E+00 0.  1.
<mgrwt>
<rscale>  0 0.14874544E+04</rscale>
<asrwt>0</asrwt>
<pdfrwt beam="1">  1        2 0.23866409E+00 0.14874544E+04</pdfrwt>
<pdfrwt beam="2">  1       -2 0.31104727E+00 0.14874544E+04</pdfrwt>
<totfact> 0.30417422E-01</totfact>
</mgrwt>
</event>
<event>
12    1  0.1432447E-007  0.7128123E+03  0.7818608E-02  0.9695569E-01
         -2   -1    0    0    0  501 -0.00000000000E+00  0.00000000000E+00  0.35827011228E+03  0.35827011228E+03  0.00000000000E+00 0.  1.
          2   -1    0    0  501    0  0.00000000000E+00 -0.00000000000E+00 -0.19191972106E+04  0.19191972106E+04  0.00000000000E+00 0. -1.
         23    2    1    2    0    0 -0.32167460647E+03  0.62112931467E+03 -0.90194843547E+03  0.11445414392E+04  0.84781765219E+02 0.  0.
    5000000    2    1    2    0    0  0.32167460647E+03 -0.62112931467E+03 -0.65897866282E+03  0.11329258837E+04  0.59999333485E+03 0.  0.
         23    2    4    4    0    0  0.61311203879E+02 -0.10309486613E+03 -0.50210363066E+03  0.52529506174E+03  0.97155704002E+02 0.  0.
         23    2    4    4    0    0  0.26036340260E+03 -0.51803444855E+03 -0.15687503216E+03  0.60763082194E+03  0.91960038963E+02 0.  0.
          2    1    3    3  502    0 -0.15971631541E+03  0.30005052990E+03 -0.36990583361E+03  0.50236435746E+03  0.00000000000E+00 0. -1.
         -2    1    3    3    0  502 -0.16195829106E+03  0.32107878477E+03 -0.53204260186E+03  0.64217708171E+03  0.00000000000E+00 0.  1.
         13    1    5    5    0    0  0.59416888486E+02 -0.20509413213E+02 -0.13363074730E+03  0.14767592658E+03  0.00000000000E+00 0. -1.
        -13    1    5    5    0    0  0.18943153931E+01 -0.82585452913E+02 -0.36847288336E+03  0.37761913516E+03  0.00000000000E+00 0.  1.
          2    1    6    6  503    0  0.68629047975E+02 -0.10757234251E+03 -0.72650178598E+02  0.14683256979E+03  0.00000000000E+00 0. -1.
         -2    1    6    6    0  503  0.19173435462E+03 -0.41046210603E+03 -0.84224853557E+02  0.46079825215E+03  0.00000000000E+00 0.  1.
<mgrwt>
<rscale>  0 0.71281234E+03</rscale>
<asrwt>0</asrwt>
<pdfrwt beam="1">  1        2 0.29526111E+00 0.71281234E+03</pdfrwt>
<pdfrwt beam="2">  1       -2 0.55118478E-01 0.71281234E+03</pdfrwt>
<totfact> 0.23780721E+01</totfact>
</mgrwt>
</event>
<event>
12    1  0.1432447E-007  0.8098769E+03  0.7818608E-02  0.9545830E-01
         -2   -1    0    0    0  501 -0.00000000000E+00  0.00000000000E+00  0.25509687511E+03  0.25509687511E+03  0.00000000000E+00 0.  1.
          2   -1    0    0  501    0  0.00000000000E+00 -0.00000000000E+00 -0.27727133462E+04  0.27727133462E+04  0.00000000000E+00 0. -1.
         23    2    1    2    0    0 -0.10054614169E+03  0.71213333181E+03 -0.13247024557E+04  0.15111032126E+04  0.10655005504E+03 0.  0.
    5000000    2    1    2    0    0  0.10054614169E+03 -0.71213333181E+03 -0.11929140154E+04  0.15167070087E+04  0.60009407024E+03 0.  0.
         23    2    4    4    0    0  0.58422451902E+02 -0.79656712550E+03 -0.99695998922E+03  0.12805912025E+04  0.89734271143E+02 0.  0.
         23    2    4    4    0    0  0.42123689788E+02  0.84433793691E+02 -0.19595402620E+03  0.23611580622E+03  0.91919654075E+02 0.  0.
          4    1    3    3  502    0 -0.80921884789E+02  0.58116069063E+03 -0.11582038178E+04  0.12983574944E+04  0.00000000000E+00 0. -1.
         -4    1    3    3    0  502 -0.19624256900E+02  0.13097264118E+03 -0.16649863794E+03  0.21274571825E+03  0.00000000000E+00 0.  1.
         11    1    5    5    0    0  0.75584304030E+02 -0.49243811282E+03 -0.58878584022E+03  0.77128272872E+03  0.00000000000E+00 0.  1.
        -11    1    5    5    0    0 -0.17161852128E+02 -0.30412901268E+03 -0.40817414899E+03  0.50930847374E+03  0.00000000000E+00 0. -1.
          2    1    6    6  503    0 -0.16323522192E+01 -0.87922621033E+00 -0.10152979790E+03  0.10154672557E+03  0.00000000000E+00 0. -1.
         -2    1    6    6    0  503  0.43756042007E+02  0.85313019901E+02 -0.94424228294E+02  0.13456908065E+03  0.00000000000E+00 0.  1.
<mgrwt>
<rscale>  0 0.80987690E+03</rscale>
<asrwt>0</asrwt>
<pdfrwt beam="1">  1        2 0.42657127E+00 0.80987690E+03</pdfrwt>
<pdfrwt beam="2">  1       -2 0.39245674E-01 0.80987690E+03</pdfrwt>
<totfact> 0.15398047E+01</totfact>
</mgrwt>
</event>
<event>
12    1  0.1432447E-007  0.4468220E+03  0.7818608E-02  0.1028674E+00
         -2   -1    0    0    0  501 -0.00000000000E+00  0.00000000000E+00  0.15216568783E+03  0.15216568783E+03  0.00000000000E+00 0. -1.
          2   -1    0    0  501    0  0.00000000000E+00 -0.00000000000E+00 -0.14043721406E+04  0.14043721406E+04  0.00000000000E+00 0.  1.
         23    2    1    2    0    0  0.22573677074E+03  0.94853722726E+02 -0.24192628071E+03  0.35627718660E+03  0.91928178570E+02 0.  0.
    5000000    2    1    2    0    0 -0.22573677074E+03 -0.94853722726E+02 -0.10102801721E+04  0.12002606418E+04  0.60000438656E+03 0.  0.
         23    2    4    4    0    0 -0.41245907070E+03 -0.94104980494E+01 -0.65402539876E+03  0.77912878169E+03  0.95296347055E+02 0.  0.
         23    2    4    4    0    0  0.18672229996E+03 -0.85443224677E+02 -0.35625477330E+03  0.42113186014E+03  0.90933042306E+02 0.  0.
          4    1    3    3  502    0  0.16821782808E+03  0.11065874180E+03 -0.19598848963E+03  0.28098769170E+03  0.00000000000E+00 0. -1.
         -4    1    3    3    0  502  0.57518942662E+02 -0.15805019075E+02 -0.45937791076E+02  0.75289494897E+02  0.00000000000E+00 0.  1.
         11    1    5    5    0    0 -0.24448105355E+03 -0.44454618235E+02 -0.33787241445E+03  0.41941026105E+03  0.00000000000E+00 0. -1.
        -11    1    5    5    0    0 -0.16797801715E+03  0.35044120185E+02 -0.31615298431E+03  0.35971852064E+03  0.00000000000E+00 0.  1.
          2    1    6    6  503    0  0.82153933959E+02 -0.82189754959E+01 -0.20895231332E+03  0.22467285031E+03  0.00000000000E+00 0. -1.
         -2    1    6    6    0  503  0.10456836600E+03 -0.77224249181E+02 -0.14730245998E+03  0.19645900983E+03  0.00000000000E+00 0.  1.
<mgrwt>
<rscale>  0 0.44682203E+03</rscale>
<asrwt>0</asrwt>
<pdfrwt beam="1">  1        2 0.21605726E+00 0.44682203E+03</pdfrwt>
<pdfrwt beam="2">  1       -2 0.23410105E-01 0.44682203E+03</pdfrwt>
<totfact> 0.24143675E+02</totfact>
</mgrwt>
</event>
<event>
12    1  0.1432447E-007  0.2988218E+03  0.7818608E-02  0.1085831E+00
          1   -1    0    0  501    0  0.00000000000E+00  0.00000000000E+00  0.63609552728E+03  0.63609552728E+03  0.00000000000E+00 0. -1.
         -1   -1    0    0    0  501 -0.00000000000E+00 -0.00000000000E+00 -0.29742721406E+03  0.29742721406E+03  0.00000000000E+00 0.  1.
         23    2    1    2    0    0  0.18745783828E+03 -0.17092651255E+02 -0.19757787341E+02  0.20971168174E+03  0.90310682846E+02 0.  0.
    5000000    2    1    2    0    0 -0.18745783828E+03  0.17092651255E+02  0.35842610056E+03  0.72381105960E+03  0.60000048381E+03 0.  0.
         23    2    4    4    0    0 -0.36605329679E+02  0.15725942184E+03  0.44572315766E+03  0.48270333746E+03  0.90900510493E+02 0.  0.
         23    2    4    4    0    0 -0.15085250861E+03 -0.14016677058E+03 -0.87297057096E+02  0.24110772214E+03  0.90049733868E+02 0.  0.
          2    1    3    3  502    0  0.63672727762E+02  0.33037483475E+02  0.11245454051E+02  0.72609584848E+02  0.00000000000E+00 0. -1.
         -2    1    3    3    0  502  0.12378511052E+03 -0.50130134730E+02 -0.31003241392E+02  0.13710209689E+03  0.00000000000E+00 0.  1.
         13    1    5    5    0    0  0.27406473787E+02  0.20279514383E+02  0.81570430772E+02  0.88408759099E+02  0.00000000000E+00 0.  1.
        -13    1    5    5    0    0 -0.64011803466E+02  0.13697990745E+03  0.36415272689E+03  0.39429457836E+03  0.00000000000E+00 0. -1.
          1    1    6    6  503    0 -0.45121681184E+02 -0.28934962437E+02 -0.67769214241E+02  0.86405234581E+02  0.00000000000E+00 0. -1.
         -1    1    6    6    0  503 -0.10573082742E+03 -0.11123180814E+03 -0.19527842855E+02  0.15470248756E+03  0.00000000000E+00 0.  1.
<mgrwt>
<rscale>  0 0.29882180E+03</rscale>
<asrwt>0</asrwt>
<pdfrwt beam="1">  1        1 0.97860850E-01 0.29882180E+03</pdfrwt>
<pdfrwt beam="2">  1       -1 0.45758033E-01 0.29882180E+03</pdfrwt>
<totfact> 0.15782994E+02</totfact>
</mgrwt>
</event>
<event>
12    1  0.1432447E-007  0.5464424E+03  0.7818608E-02  0.1002321E+00
         -2   -1    0    0    0  501 -0.00000000000E+00  0.00000000000E+00  0.86772027243E+03  0.86772027243E+03  0.00000000000E+00 0.  1.
          2   -1    0    0  501    0  0.00000000000E+00 -0.00000000000E+00 -0.70081326489E+03  0.70081326489E+03  0.00000000000E+00 0. -1.
         23    2    1    2    0    0 -0.35948397436E+03 -0.33873988445E+03 -0.37003886019E+03  0.62398578831E+03  0.91956885680E+02 0.  0.
    5000000    2    1    2    0    0  0.35948397436E+03  0.33873988445E+03  0.53694586774E+03  0.94454774900E+03  0.59990511594E+03 0.  0.
         23    2    4    4    0    0  0.12810162783E+03 -0.44570504531E+02 -0.72265156924E+02  0.18290654514E+03  0.99176582029E+02 0.  0.
         23    2    4    4    0    0  0.23138234653E+03  0.38331038898E+03  0.60921102466E+03  0.76164120386E+03  0.92166188318E+02 0.  0.
          4    1    3    3  502    0 -0.18517888903E+03 -0.19376381832E+03 -0.14581975942E+03  0.30512135368E+03  0.00000000000E+00 0. -1.
         -4    1    3    3    0  502 -0.17430508533E+03 -0.14497606612E+03 -0.22421910078E+03  0.31886443463E+03  0.00000000000E+00 0.  1.
         13    1    5    5    0    0  0.13502958534E+02  0.15877584694E+02 -0.46287754655E+02  0.50764001181E+02  0.00000000000E+00 0. -1.
        -13    1    5    5    0    0  0.11459866929E+03 -0.60448089225E+02 -0.25977402269E+02  0.13214254396E+03  0.00000000000E+00 0.  1.
          4    1    6    6  503    0  0.46183148756E+02  0.78458479800E+02  0.68754421114E+02  0.11408675078E+03  0.00000000000E+00 0. -1.
         -4    1    6    6    0  503  0.18519919778E+03  0.30485190918E+03  0.54045660355E+03  0.64755445308E+03  0.00000000000E+00 0.  1.
<mgrwt>
<rscale>  0 0.54644240E+03</rscale>
<asrwt>0</asrwt>
<pdfrwt beam="1">  1        2 0.10781743E+00 0.54644240E+03</pdfrwt>
<pdfrwt beam="2">  1       -2 0.13349543E+00 0.54644240E+03</pdfrwt>
<totfact> 0.17241950E+01</totfact>
</mgrwt>
</event>
<event>
12    1  0.1432447E-007  0.6110210E+03  0.7818608E-02  0.9882801E-01
         -1   -1    0    0    0  501 -0.00000000000E+00  0.00000000000E+00  0.68253559901E+03  0.68253559901E+03  0.00000000000E+00 0.  1.
          1   -1    0    0  501    0  0.00000000000E+00 -0.00000000000E+00 -0.28446130286E+04  0.28446130286E+04  0.00000000000E+00 0. -1.
         23    2    1    2    0    0 -0.37051068839E+02  0.51018234672E+03  0.51792664649E+03  0.73356899515E+03  0.90645743960E+02 0.  0.
    5000000    2    1    2    0    0  0.37051068839E+02 -0.51018234672E+03 -0.26800040761E+04  0.27935796325E+04  0.60000542208E+03 0.  0.
         23    2    4    4    0    0 -0.13169015081E+02  0.73309825576E+02 -0.12891180922E+03  0.17441266297E+03  0.90850255711E+02 0.  0.
         23    2    4    4    0    0  0.50220083920E+02 -0.58349217229E+03 -0.25510922669E+04  0.26191669695E+04  0.94755939819E+02 0.  0.
          4    1    3    3  502    0 -0.49549192906E+02  0.31179763752E+03  0.36618989207E+03  0.48349552876E+03  0.00000000000E+00 0. -1.
         -4    1    3    3    0  502  0.12498124067E+02  0.19838470920E+03  0.15173675442E+03  0.25007346639E+03  0.00000000000E+00 0.  1.
         13    1    5    5    0    0  0.31676762195E+02  0.64383543386E+02 -0.78901934979E+02  0.10664976918E+03  0.00000000000E+00 0. -1.
        -13    1    5    5    0    0 -0.44845777276E+02  0.89262821904E+01 -0.50009874242E+02  0.67762893791E+02  0.00000000000E+00 0.  1.
          2    1    6    6  503    0 -0.35582196613E+01 -0.36649834429E+03 -0.14496039072E+04  0.14952207814E+04  0.00000000000E+00 0.  1.
         -2    1    6    6    0  503  0.53778303581E+02 -0.21699382800E+03 -0.11014883597E+04  0.11239461881E+04  0.00000000000E+00 0. -1.
<mgrwt>
<rscale>  0 0.61102099E+03</rscale>
<asrwt>0</asrwt>
<pdfrwt beam="1">  1        1 0.43763277E+00 0.61102099E+03</pdfrwt>
<pdfrwt beam="2">  1       -1 0.10500548E+00 0.61102099E+03</pdfrwt>
<totfact> 0.73586853E-01</totfact>
</mgrwt>
</event>
<event>
12    1  0.1432447E-007  0.4527541E+03  0.7818608E-02  0.1026904E+00
         -2   -1    0    0    0  501 -0.00000000000E+00  0.00000000000E+00  0.28814345542E+03  0.28814345542E+03  0.00000000000E+00 0.  1.
          2   -1    0    0  501    0  0.00000000000E+00 -0.00000000000E+00 -0.10553090834E+04  0.10553090834E+04  0.00000000000E+00 0. -1.
         23    2    1    2    0    0  0.21108921352E+03  0.31709890161E+03 -0.25074022453E+03  0.46491037205E+03  0.90336174219E+02 0.  0.
    5000000    2    1    2    0    0 -0.21108921352E+03 -0.31709890161E+03 -0.51642540344E+03  0.87854216677E+03  0.60002564280E+03 0.  0.
         23    2    4    4    0    0 -0.50447677372E+02  0.41641077365E+02 -0.45691883420E+03  0.47055730416E+03  0.91489933759E+02 0.  0.
         23    2    4    4    0    0 -0.16064153614E+03 -0.35873997897E+03 -0.59506569247E+02  0.40798486261E+03  0.91709000049E+02 0.  0.
          1    1    3    3  502    0  0.34685208989E+02  0.10330888126E+02 -0.35636816750E+02  0.50791472514E+02  0.00000000000E+00 0. -1.
         -1    1    3    3    0  502  0.17640400453E+03  0.30676801348E+03 -0.21510340778E+03  0.41411889953E+03  0.00000000000E+00 0.  1.
         13    1    5    5    0    0 -0.37518978824E+02  0.70994762090E+02 -0.33509587696E+03  0.34458261240E+03  0.00000000000E+00 0. -1.
        -13    1    5    5    0    0 -0.12928698548E+02 -0.29353684725E+02 -0.12182295724E+03  0.12597469176E+03  0.00000000000E+00 0.  1.
          3    1    6    6  503    0 -0.76484399103E+02 -0.27062334823E+03 -0.31706092330E+02  0.28300554095E+03  0.00000000000E+00 0. -1.
         -3    1    6    6    0  503 -0.84157137040E+02 -0.88116630741E+02 -0.27800476917E+02  0.12497932167E+03  0.00000000000E+00 0.  1.
<mgrwt>
<rscale>  0 0.45275410E+03</rscale>
<asrwt>0</asrwt>
<pdfrwt beam="1">  1        2 0.16235524E+00 0.45275410E+03</pdfrwt>
<pdfrwt beam="2">  1       -2 0.44329763E-01 0.45275410E+03</pdfrwt>
<totfact> 0.11675033E+02</totfact>
</mgrwt>
</event>
<event>
12    1  0.2129434E-007  0.9914401E+03  0.7818608E-02  0.9317983E-01
          2   -1    0    0  501    0  0.00000000000E+00  0.00000000000E+00  0.19723337170E+04  0.19723337170E+04  0.00000000000E+00 0. -1.
         -2   -1    0    0    0  501 -0.00000000000E+00 -0.00000000000E+00 -0.59280211319E+03  0.59280211319E+03  0.00000000000E+00 0.  1.
         23    2    1    2    0    0  0.79194532553E+03  0.43662965023E+03  0.14304145997E+03  0.91992932067E+03  0.89365796934E+02 0.  0.
    5000000    2    1    2    0    0 -0.79194532553E+03 -0.43662965023E+03  0.12364901439E+04  0.16452065096E+04  0.59997811054E+03 0.  0.
         23    2    4    4    0    0 -0.85399855921E+03 -0.33800820470E+03  0.97809020218E+03  0.13448534184E+04  0.91690718816E+02 0.  0.
         23    2    4    4    0    0  0.62053233680E+02 -0.98621445529E+02  0.25839994169E+03  0.30035309112E+03  0.99320975379E+02 0.  0.
          4    1    3    3  502    0  0.43178102523E+03  0.28785978761E+03  0.89109804656E+02  0.52653458420E+03  0.00000000000E+00 0. -1.
         -4    1    3    3    0  502  0.36016430030E+03  0.14876986262E+03  0.53931655318E+02  0.39339473647E+03  0.00000000000E+00 0.  1.
         11    1    5    5    0    0 -0.48572819070E+03 -0.15177718367E+03  0.57744702105E+03  0.76968386423E+03  0.00000000000E+00 0.  1.
        -11    1    5    5    0    0 -0.36827036851E+03 -0.18623102103E+03  0.40064318113E+03  0.57516955422E+03  0.00000000000E+00 0. -1.
          1    1    6    6  503    0  0.89592741536E+01 -0.99190136516E+02  0.15780179025E+03  0.18660213499E+03  0.00000000000E+00 0. -1.
         -1    1    6    6    0  503  0.53093959527E+02  0.56869098692E+00  0.10059815144E+03  0.11375095613E+03  0.00000000000E+00 0.  1.
<mgrwt>
<rscale>  0 0.99144011E+03</rscale>
<asrwt>0</asrwt>
<pdfrwt beam="1">  1        2 0.30343595E+00 0.99144011E+03</pdfrwt>
<pdfrwt beam="2">  1       -2 0.91200326E-01 0.99144011E+03</pdfrwt>
<totfact> 0.71079574E+00</totfact>
</mgrwt>
</event>
<event>
12    1  0.1432447E-007  0.4357246E+03  0.7818608E-02  0.1032067E+00
          1   -1    0    0  501    0  0.00000000000E+00  0.00000000000E+00  0.13623966285E+04  0.13623966285E+04  0.00000000000E+00 0. -1.
         -1   -1    0    0    0  501 -0.00000000000E+00 -0.00000000000E+00 -0.22969540179E+03  0.22969540179E+03  0.00000000000E+00 0.  1.
         23    2    1    2    0    0 -0.24613753875E+03 -0.30360480752E+03  0.37023957317E+03  0.54606280764E+03  0.91365645716E+02 0.  0.
    5000000    2    1    2    0    0  0.24613753875E+03  0.30360480752E+03  0.76246165355E+03  0.10460292227E+04  0.60005815917E+03 0.  0.
         23    2    4    4    0    0  0.25320679461E+03  0.15175767684E+03  0.80407835637E+03  0.86245830471E+03  0.10073852720E+03 0.  0.
         23    2    4    4    0    0 -0.70692558639E+01  0.15184713068E+03 -0.41616702814E+02  0.18357091795E+03  0.94121232944E+02 0.  0.
          1    1    3    3  502    0 -0.24041501917E+02 -0.67569566046E+02  0.35104846141E+02  0.79849798326E+02  0.00000000000E+00 0. -1.
         -1    1    3    3    0  502 -0.22209603683E+03 -0.23603524147E+03  0.33513472703E+03  0.46621300931E+03  0.00000000000E+00 0.  1.
         11    1    5    5    0    0  0.58238936662E+02  0.19249653401E+02  0.78967989415E+02  0.99991330883E+02  0.00000000000E+00 0. -1.
        -11    1    5    5    0    0  0.19496785795E+03  0.13250802344E+03  0.72511036695E+03  0.76246697382E+03  0.00000000000E+00 0.  1.
          3    1    6    6  503    0 -0.17428355975E+02 -0.74301638311E+01 -0.15766997043E+01  0.19011599315E+02  0.00000000000E+00 0. -1.
         -3    1    6    6    0  503  0.10359100111E+02  0.15927729451E+03 -0.40040003110E+02  0.16455931864E+03  0.00000000000E+00 0.  1.
<mgrwt>
<rscale>  0 0.43572460E+03</rscale>
<asrwt>0</asrwt>
<pdfrwt beam="1">  1        1 0.20959948E+00 0.43572460E+03</pdfrwt>
<pdfrwt beam="2">  1       -1 0.35337755E-01 0.43572460E+03</pdfrwt>
<totfact> 0.66503899E+01</totfact>
</mgrwt>
</event>
<event>
12    1  0.1432447E-007  0.1085757E+04  0.7818608E-02  0.9219187E-01
         -1   -1    0    0    0  501 -0.00000000000E+00  0.00000000000E+00  0.86276107432E+03  0.86276107432E+03  0.00000000000E+00 0.  1.
          1   -1    0    0  501    0  0.00000000000E+00 -0.00000000000E+00 -0.15051607866E+04  0.15051607866E+04  0.00000000000E+00 0. -1.
         23    2    1    2    0    0 -0.65171672746E+03  0.77882011106E+03 -0.60954033874E+03  0.11879332418E+04  0.91381093098E+02 0.  0.
    5000000    2    1    2    0    0  0.65171672746E+03 -0.77882011106E+03 -0.32859373518E+02  0.11799886191E+04  0.59999828712E+03 0.  0.
         23    2    4    4    0    0  0.72309915699E+02 -0.48773449685E+03 -0.13020069243E+03  0.51792592125E+03  0.90450960548E+02 0.  0.
         23    2    4    4    0    0  0.57940681176E+03 -0.29108561421E+03  0.97341318908E+02  0.66206269785E+03  0.91698392659E+02 0.  0.
          4    1    3    3  502    0 -0.79273150730E+02  0.10881765171E+03 -0.47750824033E+02  0.14284836347E+03  0.00000000000E+00 0. -1.
         -4    1    3    3    0  502 -0.57244357673E+03  0.67000245935E+03 -0.56178951470E+03  0.10450848783E+04  0.00000000000E+00 0.  1.
         11    1    5    5    0    0 -0.18523889958E+02 -0.14635654478E+03 -0.27725585470E+02  0.15010689788E+03  0.00000000000E+00 0. -1.
        -11    1    5    5    0    0  0.90833805658E+02 -0.34137795207E+03 -0.10247510696E+03  0.36781902337E+03  0.00000000000E+00 0.  1.
          2    1    6    6  503    0  0.11799576862E+03 -0.19924996028E+02  0.19308535957E+02  0.12121396966E+03  0.00000000000E+00 0. -1.
         -2    1    6    6    0  503  0.46141104314E+03 -0.27116061818E+03  0.78032782951E+02  0.54084872820E+03  0.00000000000E+00 0.  1.
<mgrwt>
<rscale>  0 0.10857567E+04</rscale>
<asrwt>0</asrwt>
<pdfrwt beam="1">  1        1 0.23156320E+00 0.10857567E+04</pdfrwt>
<pdfrwt beam="2">  1       -1 0.13273247E+00 0.10857567E+04</pdfrwt>
<totfact> 0.31046161E+00</totfact>
</mgrwt>
</event>
<event>
12    1  0.1432447E-007  0.9214770E+03  0.7818608E-02  0.9399125E-01
          1   -1    0    0  501    0  0.00000000000E+00  0.00000000000E+00  0.23247578520E+04  0.23247578520E+04  0.00000000000E+00 0. -1.
         -1   -1    0    0    0  501 -0.00000000000E+00 -0.00000000000E+00 -0.42610479186E+03  0.42610479186E+03  0.00000000000E+00 0.  1.
         23    2    1    2    0    0  0.84060305033E+03  0.14246402691E+02  0.41204822791E+03  0.94066962660E+03  0.90879899094E+02 0.  0.
    5000000    2    1    2    0    0 -0.84060305033E+03 -0.14246402691E+02  0.14866048322E+04  0.18101930172E+04  0.59999032014E+03 0.  0.
         23    2    4    4    0    0 -0.70291236560E+03 -0.22267302971E+03  0.90777426883E+03  0.11731175056E+04  0.92094988475E+02 0.  0.
         23    2    4    4    0    0 -0.13769068474E+03  0.20842662702E+03  0.57883056337E+03  0.63707551164E+03  0.91760573888E+02 0.  0.
          1    1    3    3  502    0  0.50085700276E+03 -0.27493629976E+01  0.29298841306E+03  0.58026503117E+03  0.00000000000E+00 0. -1.
         -1    1    3    3    0  502  0.33974604757E+03  0.16995765689E+02  0.11905981484E+03  0.36040459542E+03  0.00000000000E+00 0.  1.
         11    1    5    5    0    0 -0.57943265043E+03 -0.20916463301E+03  0.71487036241E+03  0.94367985839E+03  0.00000000000E+00 0.  1.
        -11    1    5    5    0    0 -0.12347971517E+03 -0.13508396701E+02  0.19290390641E+03  0.22943764719E+03  0.00000000000E+00 0. -1.
          3    1    6    6  503    0 -0.12094577783E+03  0.11545611156E+03  0.31141220929E+03  0.35346224546E+03  0.00000000000E+00 0. -1.
         -3    1    6    6    0  503 -0.16744906912E+02  0.92970515455E+02  0.26741835408E+03  0.28361326617E+03  0.00000000000E+00 0.  1.
<mgrwt>
<rscale>  0 0.92147699E+03</rscale>
<asrwt>0</asrwt>
<pdfrwt beam="1">  1        1 0.35765505E+00 0.92147699E+03</pdfrwt>
<pdfrwt beam="2">  1       -1 0.65554585E-01 0.92147699E+03</pdfrwt>
<totfact> 0.43367953E+00</totfact>
</mgrwt>
</event>
<event>
12    1  0.1432447E-007  0.4690076E+03  0.7818608E-02  0.1022201E+00
          2   -1    0    0  501    0  0.00000000000E+00  0.00000000000E+00  0.14988718832E+04  0.14988718832E+04  0.00000000000E+00 0. -1.
         -2   -1    0    0    0  501 -0.00000000000E+00 -0.00000000000E+00 -0.28122075516E+03  0.28122075516E+03  0.00000000000E+00 0.  1.
         23    2    1    2    0    0  0.41094939404E+03  0.16235122094E+03  0.14455948690E+03  0.47368545013E+03  0.90791723270E+02 0.  0.
    5000000    2    1    2    0    0 -0.41094939404E+03 -0.16235122094E+03  0.10730916411E+04  0.13064071882E+04  0.59994728749E+03 0.  0.
         23    2    4    4    0    0 -0.11742100256E+03 -0.14628437387E+03  0.20245358610E+02  0.20951104788E+03  0.91094427680E+02 0.  0.
         23    2    4    4    0    0 -0.29352839147E+03 -0.16066847068E+02  0.10528462825E+04  0.10968961403E+04  0.90987844907E+02 0.  0.
          1    1    3    3  502    0  0.25920316095E+03  0.91238203332E+02  0.44127708248E+02  0.27831267134E+03  0.00000000000E+00 0. -1.
         -1    1    3    3    0  502  0.15174623308E+03  0.71113017610E+02  0.10043177865E+03  0.19537277879E+03  0.00000000000E+00 0.  1.
         11    1    5    5    0    0 -0.88247322086E+01 -0.36390402880E+02 -0.28991408362E+02  0.47356510420E+02  0.00000000000E+00 0.  1.
        -11    1    5    5    0    0 -0.10859627036E+03 -0.10989397099E+03  0.49236766973E+02  0.16215453746E+03  0.00000000000E+00 0. -1.
          2    1    6    6  503    0 -0.23428002084E+03 -0.43700201599E+02  0.89158237074E+03  0.92288458629E+03  0.00000000000E+00 0.  1.
         -2    1    6    6    0  503 -0.59248370634E+02  0.27633354531E+02  0.16126391174E+03  0.17401155403E+03  0.00000000000E+00 0. -1.
<mgrwt>
<rscale>  0 0.46900755E+03</rscale>
<asrwt>0</asrwt>
<pdfrwt beam="1">  1        2 0.23059567E+00 0.46900755E+03</pdfrwt>
<pdfrwt beam="2">  1       -2 0.43264732E-01 0.46900755E+03</pdfrwt>
<totfact> 0.68051728E+01</totfact>
</mgrwt>
</event>
<event>
12    1  0.1432447E-007  0.1790240E+04  0.7818608E-02  0.8711507E-01
         -2   -1    0    0    0  501 -0.00000000000E+00  0.00000000000E+00  0.13392845873E+04  0.13392845873E+04  0.00000000000E+00 0.  1.
          2   -1    0    0  501    0  0.00000000000E+00 -0.00000000000E+00 -0.34294632478E+04  0.34294632478E+04  0.00000000000E+00 0. -1.
         23    2    1    2    0    0 -0.15551827186E+04  0.83635017827E+03  0.24104815823E+03  0.17833467100E+04  0.64392269126E+02 0.  0.
    5000000    2    1    2    0    0  0.15551827186E+04 -0.83635017827E+03 -0.23312268186E+04  0.29854011251E+04  0.59993873754E+03 0.  0.
         23    2    4    4    0    0  0.64369709242E+03 -0.57213885914E+03 -0.78511859153E+03  0.11689533598E+04  0.91388914254E+02 0.  0.
         23    2    4    4    0    0  0.91148562623E+03 -0.26421131913E+03 -0.15461082271E+04  0.18164477653E+04  0.91750565471E+02 0.  0.
          3    1    3    3  502    0 -0.50675038557E+03  0.25406195404E+03  0.51887003573E+02  0.56924132923E+03  0.00000000000E+00 0. -1.
         -3    1    3    3    0  502 -0.10484323331E+04  0.58228822424E+03  0.18916115466E+03  0.12141053807E+04  0.00000000000E+00 0.  1.
         13    1    5    5    0    0  0.31029945679E+03 -0.23153426447E+03 -0.31006333632E+03  0.49601727897E+03  0.00000000000E+00 0.  1.
        -13    1    5    5    0    0  0.33339763564E+03 -0.34060459467E+03 -0.47505525521E+03  0.67293608082E+03  0.00000000000E+00 0. -1.
          1    1    6    6  503    0  0.43029418559E+03 -0.15288510698E+03 -0.67242257973E+03  0.81282167037E+03  0.00000000000E+00 0. -1.
         -1    1    6    6    0  503  0.48119144064E+03 -0.11132621215E+03 -0.87368564739E+03  0.10036260950E+04  0.00000000000E+00 0.  1.
<mgrwt>
<rscale>  0 0.17902398E+04</rscale>
<asrwt>0</asrwt>
<pdfrwt beam="1">  1        2 0.52760973E+00 0.17902398E+04</pdfrwt>
<pdfrwt beam="2">  1       -2 0.20604378E+00 0.17902398E+04</pdfrwt>
<totfact> 0.10092761E-01</totfact>
</mgrwt>
</event>
<event>
12    1  0.1432447E-007  0.9852221E+03  0.7818608E-02  0.9324903E-01
          2   -1    0    0  501    0  0.00000000000E+00  0.00000000000E+00  0.26639271859E+04  0.26639271859E+04  0.00000000000E+00 0. -1.
         -2   -1    0    0    0  501 -0.00000000000E+00 -0.00000000000E+00 -0.38503579448E+03  0.38503579448E+03  0.00000000000E+00 0.  1.
         23    2    1    2    0    0 -0.61179988914E+03  0.66387026489E+03  0.13199345518E+04  0.16017082651E+04  0.90660424443E+02 0.  0.
    5000000    2    1    2    0    0  0.61179988914E+03 -0.66387026489E+03  0.95895683966E+03  0.14472547153E+04  0.59993762811E+03 0.  0.
         23    2    4    4    0    0 -0.41264622209E+02  0.35867893699E+02  0.18109171450E+03  0.21047947389E+03  0.92293688985E+02 0.  0.
         23    2    4    4    0    0  0.65306451135E+03 -0.69973815859E+03  0.77786512516E+03  0.12367752414E+04  0.91717491266E+02 0.  0.
          4    1    3    3  502    0 -0.11140619913E+03  0.17204617641E+03  0.27210973117E+03  0.34066836340E+03  0.00000000000E+00 0. -1.
         -4    1    3    3    0  502 -0.50039369001E+03  0.49182408849E+03  0.10478248206E+04  0.12610399017E+04  0.00000000000E+00 0.  1.
         13    1    5    5    0    0 -0.19444927531E+01 -0.28245989995E+02  0.27540378238E+02  0.39497967497E+02  0.00000000000E+00 0. -1.
        -13    1    5    5    0    0 -0.39320129456E+02  0.64113883694E+02  0.15355133626E+03  0.17098150640E+03  0.00000000000E+00 0.  1.
          4    1    6    6  503    0  0.28317515612E+03 -0.36056882079E+03  0.34048742471E+03  0.57107769170E+03  0.00000000000E+00 0. -1.
         -4    1    6    6    0  503  0.36988935523E+03 -0.33916933781E+03  0.43737770045E+03  0.66569754970E+03  0.00000000000E+00 0.  1.
<mgrwt>
<rscale>  0 0.98522214E+03</rscale>
<asrwt>0</asrwt>
<pdfrwt beam="1">  1        2 0.40983494E+00 0.98522214E+03</pdfrwt>
<pdfrwt beam="2">  1       -2 0.59236278E-01 0.98522214E+03</pdfrwt>
<totfact> 0.75509358E+00</totfact>
</mgrwt>
</event>
<event>
12    1  0.1432447E-007  0.1346188E+04  0.7818608E-02  0.8993718E-01
         -1   -1    0    0    0  501 -0.00000000000E+00  0.00000000000E+00  0.78243278010E+03  0.78243278010E+03  0.00000000000E+00 0.  1.
          1   -1    0    0  501    0  0.00000000000E+00 -0.00000000000E+00 -0.26738303599E+04  0.26738303599E+04  0.00000000000E+00 0. -1.
         23    2    1    2    0    0 -0.87647693521E+03  0.10169304773E+04 -0.51159475060E+03  0.14397778628E+04  0.94189658573E+02 0.  0.
    5000000    2    1    2    0    0  0.87647693521E+03 -0.10169304773E+04 -0.13798028292E+04  0.20164852772E+04  0.59999801020E+03 0.  0.
         23    2    4    4    0    0  0.48832151119E+03 -0.53126969778E+03 -0.11226366539E+04  0.13375313792E+04  0.89284621254E+02 0.  0.
         23    2    4    4    0    0  0.38815542403E+03 -0.48566077948E+03 -0.25716617527E+03  0.67895389799E+03  0.91175259644E+02 0.  0.
          3    1    3    3  502    0 -0.44167587512E+03  0.51756084890E+03 -0.20900933117E+03  0.71178066249E+03  0.00000000000E+00 0. -1.
         -3    1    3    3    0  502 -0.43480106009E+03  0.49936962836E+03 -0.30258541943E+03  0.72799720029E+03  0.00000000000E+00 0.  1.
         13    1    5    5    0    0  0.37017636123E+03 -0.41440362431E+03 -0.79202420705E+03  0.96750361592E+03  0.00000000000E+00 0. -1.
        -13    1    5    5    0    0  0.11814514996E+03 -0.11686607347E+03 -0.33061244689E+03  0.37002776332E+03  0.00000000000E+00 0.  1.
          4    1    6    6  503    0  0.37433932427E+03 -0.42755661989E+03 -0.23941542316E+03  0.61664766095E+03  0.00000000000E+00 0. -1.
         -4    1    6    6    0  503  0.13816099755E+02 -0.58104159589E+02 -0.17750752109E+02  0.62306237043E+02  0.00000000000E+00 0.  1.
<mgrwt>
<rscale>  0 0.13461885E+04</rscale>
<asrwt>0</asrwt>
<pdfrwt beam="1">  1        1 0.41135851E+00 0.13461885E+04</pdfrwt>
<pdfrwt beam="2">  1       -1 0.12037427E+00 0.13461885E+04</pdfrwt>
<totfact> 0.61124094E-01</totfact>
</mgrwt>
</event>
<event>
12    1  0.1432447E-007  0.8532520E+03  0.7818608E-02  0.9485983E-01
         -2   -1    0    0    0  501 -0.00000000000E+00  0.00000000000E+00  0.29505895275E+03  0.29505895275E+03  0.00000000000E+00 0.  1.
          2   -1    0    0  501    0  0.00000000000E+00 -0.00000000000E+00 -0.47003002832E+04  0.47003002832E+04  0.00000000000E+00 0. -1.
         23    2    1    2    0    0 -0.47557667622E+03  0.65179546585E+03 -0.36464177565E+04  0.37357042174E+04  0.90072420087E+02 0.  0.
    5000000    2    1    2    0    0  0.47557667622E+03 -0.65179546585E+03 -0.75882357397E+03  0.12596550186E+04  0.59992253256E+03 0.  0.
         23    2    4    4    0    0  0.29273179841E+03 -0.11740257811E+03 -0.24793585431E+02  0.32897263530E+03  0.90183156693E+02 0.  0.
         23    2    4    4    0    0  0.18284487781E+03 -0.53439288774E+03 -0.73402998854E+03  0.93068238325E+03  0.91442148891E+02 0.  0.
          1    1    3    3  502    0 -0.12346436537E+03  0.14609971581E+03 -0.70907305816E+03  0.73442030084E+03  0.00000000000E+00 0. -1.
         -1    1    3    3    0  502 -0.35211231086E+03  0.50569575005E+03 -0.29373446984E+04  0.30012839166E+04  0.00000000000E+00 0.  1.
         13    1    5    5    0    0  0.20005080081E+03 -0.34507440947E+02 -0.50255997891E+01  0.20306733621E+03  0.00000000000E+00 0.  1.
        -13    1    5    5    0    0  0.92680997608E+02 -0.82895137161E+02 -0.19767985642E+02  0.12590529909E+03  0.00000000000E+00 0. -1.
          4    1    6    6  503    0  0.17085470661E+03 -0.37805720382E+03 -0.51513131338E+03  0.66142183980E+03  0.00000000000E+00 0. -1.
         -4    1    6    6    0  503  0.11990171203E+02 -0.15633568392E+03 -0.21889867516E+03  0.26926054345E+03  0.00000000000E+00 0.  1.
<mgrwt>
<rscale>  0 0.85325202E+03</rscale>
<asrwt>0</asrwt>
<pdfrwt beam="1">  1        2 0.72312311E+00 0.85325202E+03</pdfrwt>
<pdfrwt beam="2">  1       -2 0.45393686E-01 0.85325202E+03</pdfrwt>
<totfact> 0.39671265E-01</totfact>
</mgrwt>
</event>
<event>
12    1  0.1432447E-007  0.1580789E+04  0.7818608E-02  0.8832438E-01
         -1   -1    0    0    0  501 -0.00000000000E+00  0.00000000000E+00  0.20135043336E+04  0.20135043336E+04  0.00000000000E+00 0.  1.
          1   -1    0    0  501    0  0.00000000000E+00 -0.00000000000E+00 -0.15781962002E+04  0.15781962002E+04  0.00000000000E+00 0. -1.
         23    2    1    2    0    0 -0.10183606778E+04  0.11932960399E+04 -0.52507865716E+03  0.16569572570E+04  0.93732845496E+02 0.  0.
    5000000    2    1    2    0    0  0.10183606778E+04 -0.11932960399E+04  0.96038679059E+03  0.19347432768E+04  0.59989569970E+03 0.  0.
         23    2    4    4    0    0  0.90960907743E+03 -0.97424665824E+03  0.10022355949E+04  0.16702591294E+04  0.93510142091E+02 0.  0.
         23    2    4    4    0    0  0.10875160035E+03 -0.21904938169E+03 -0.41848804342E+02  0.26448414740E+03  0.91602399553E+02 0.  0.
          3    1    3    3  502    0 -0.18865587998E+03  0.27309229108E+03 -0.92143099261E+02  0.34447175681E+03  0.00000000000E+00 0. -1.
         -3    1    3    3    0  502 -0.82970479780E+03  0.92020374886E+03 -0.43293555790E+03  0.13124855002E+04  0.00000000000E+00 0.  1.
         13    1    5    5    0    0  0.79099568991E+02 -0.66627655181E+02  0.51986480133E+02  0.11575223698E+03  0.00000000000E+00 0. -1.
        -13    1    5    5    0    0  0.83050950844E+03 -0.90761900306E+03  0.95024911480E+03  0.15545068924E+04  0.00000000000E+00 0.  1.
          2    1    6    6  503    0  0.11446639213E+01  0.67418332650E+01  0.68349527275E+01  0.96684616177E+01  0.00000000000E+00 0. -1.
         -2    1    6    6    0  503  0.10760693643E+03 -0.22579121496E+03 -0.48683757069E+02  0.25481568579E+03  0.00000000000E+00 0.  1.
<mgrwt>
<rscale>  0 0.15807890E+04</rscale>
<asrwt>0</asrwt>
<pdfrwt beam="1">  1        1 0.24279941E+00 0.15807890E+04</pdfrwt>
<pdfrwt beam="2">  1       -1 0.30976990E+00 0.15807890E+04</pdfrwt>
<totfact> 0.15432095E-01</totfact>
</mgrwt>
</event>
<event>
12    1  0.1432447E-007  0.6383225E+03  0.7818608E-02  0.9828941E-01
          2   -1    0    0  501    0  0.00000000000E+00  0.00000000000E+00  0.15441992073E+04  0.15441992073E+04  0.00000000000E+00 0. -1.
         -2   -1    0    0    0  501 -0.00000000000E+00 -0.00000000000E+00 -0.35383419755E+03  0.35383419755E+03  0.00000000000E+00 0.  1.
         23    2    1    2    0    0  0.47746917555E+03  0.27650385026E+03  0.84328574629E+03  0.10120723691E+04  0.93426107767E+02 0.  0.
    5000000    2    1    2    0    0 -0.47746917555E+03 -0.27650385026E+03  0.34707926344E+03  0.88596103572E+03  0.60002645682E+03 0.  0.
         23    2    4    4    0    0 -0.22378979614E+03 -0.37620054840E+03  0.15839901471E+02  0.44733217570E+03  0.90809952496E+02 0.  0.
         23    2    4    4    0    0 -0.25367937941E+03  0.99696698138E+02  0.33123936197E+03  0.43862886001E+03  0.91559285485E+02 0.  0.
          4    1    3    3  502    0  0.40837796645E+03  0.19516624676E+03  0.66982294965E+03  0.80840906182E+03  0.00000000000E+00 0.  1.
         -4    1    3    3    0  502  0.69091209102E+02  0.81337603502E+02  0.17346279664E+03  0.20366330729E+03  0.00000000000E+00 0. -1.
         13    1    5    5    0    0 -0.97048277824E+02 -0.12609624760E+03 -0.33586468631E+02  0.16262436091E+03  0.00000000000E+00 0.  1.
        -13    1    5    5    0    0 -0.12674151832E+03 -0.25010430080E+03  0.49426370103E+02  0.28470781479E+03  0.00000000000E+00 0. -1.
          1    1    6    6  503    0 -0.11846070997E+03  0.17997971464E+02  0.20045226172E+03  0.23353367211E+03  0.00000000000E+00 0. -1.
         -1    1    6    6    0  503 -0.13521866945E+03  0.81698726675E+02  0.13078710025E+03  0.20509518790E+03  0.00000000000E+00 0.  1.
<mgrwt>
<rscale>  0 0.63832251E+03</rscale>
<asrwt>0</asrwt>
<pdfrwt beam="1">  1        2 0.23756910E+00 0.63832251E+03</pdfrwt>
<pdfrwt beam="2">  1       -2 0.54436031E-01 0.63832251E+03</pdfrwt>
<totfact> 0.39484458E+01</totfact>
</mgrwt>
</event>
<event>
12    1  0.1432447E-007  0.3463645E+03  0.7818608E-02  0.1064117E+00
         -1   -1    0    0    0  501 -0.00000000000E+00  0.00000000000E+00  0.68850842956E+02  0.68850842956E+02  0.00000000000E+00 0.  1.
          1   -1    0    0  501    0  0.00000000000E+00 -0.00000000000E+00 -0.20866827218E+04  0.20866827218E+04  0.00000000000E+00 0. -1.
         23    2    1    2    0    0  0.95740662281E+02  0.59386473505E+02 -0.35051338299E+03  0.37993692316E+03  0.93805150581E+02 0.  0.
    5000000    2    1    2    0    0 -0.95740662281E+02 -0.59386473505E+02 -0.16673184958E+04  0.17755966416E+04  0.60008286043E+03 0.  0.
         23    2    4    4    0    0 -0.13504798656E+03 -0.28923131060E+03 -0.66775041599E+03  0.74511110516E+03  0.86065273358E+02 0.  0.
         23    2    4    4    0    0  0.39307324274E+02  0.22984483710E+03 -0.99956807985E+03  0.10304855364E+04  0.91599015444E+02 0.  0.
          2    1    3    3  502    0  0.11191772467E+02  0.45532480457E+02 -0.55096624507E+02  0.72347084112E+02  0.00000000000E+00 0.  1.
         -2    1    3    3    0  502  0.84548889814E+02  0.13853993047E+02 -0.29541675848E+03  0.30758983904E+03  0.00000000000E+00 0. -1.
         11    1    5    5    0    0 -0.48616134004E+02 -0.84029492467E+02 -0.12359739650E+03  0.15716488320E+03  0.00000000000E+00 0. -1.
        -11    1    5    5    0    0 -0.86431852551E+02 -0.20520181813E+03 -0.54415301949E+03  0.58794622196E+03  0.00000000000E+00 0.  1.
          1    1    6    6  503    0  0.50895966470E+02  0.21796082060E+03 -0.81510603671E+03  0.84527816120E+03  0.00000000000E+00 0. -1.
         -1    1    6    6    0  503 -0.11588642195E+02  0.11884016498E+02 -0.18446204315E+03  0.18520737522E+03  0.00000000000E+00 0.  1.
<mgrwt>
<rscale>  0 0.34636450E+03</rscale>
<asrwt>0</asrwt>
<pdfrwt beam="1">  1        1 0.32102803E+00 0.34636450E+03</pdfrwt>
<pdfrwt beam="2">  1       -1 0.10592440E-01 0.34636450E+03</pdfrwt>
<totfact> 0.16283222E+02</totfact>
</mgrwt>
</event>
<event>
12    1  0.1432447E-007  0.1071780E+04  0.7818608E-02  0.9233142E-01
          2   -1    0    0  501    0  0.00000000000E+00  0.00000000000E+00  0.13991860790E+04  0.13991860790E+04  0.00000000000E+00 0. -1.
         -2   -1    0    0    0  501 -0.00000000000E+00 -0.00000000000E+00 -0.13994122359E+04  0.13994122359E+04  0.00000000000E+00 0.  1.
         23    2    1    2    0    0 -0.63158416466E+03  0.80079965285E+03  0.85868090969E+03  0.13364037599E+04  0.91997085651E+02 0.  0.
    5000000    2    1    2    0    0  0.63158416466E+03 -0.80079965285E+03 -0.85890706663E+03  0.14621945550E+04  0.60009409800E+03 0.  0.
         23    2    4    4    0    0  0.14476222495E+03 -0.54921143135E+03 -0.21954183472E+03  0.61557143272E+03  0.90223464186E+02 0.  0.
         23    2    4    4    0    0  0.48682193970E+03 -0.25158822150E+03 -0.63936523191E+03  0.84662312226E+03  0.87695936016E+02 0.  0.
          1    1    3    3  502    0 -0.12373609509E+03  0.16612683830E+03  0.22421437424E+03  0.30525535744E+03  0.00000000000E+00 0. -1.
         -1    1    3    3    0  502 -0.50784806957E+03  0.63467281455E+03  0.63446653545E+03  0.10311484025E+04  0.00000000000E+00 0.  1.
         13    1    5    5    0    0  0.86294756873E+02 -0.27238483052E+03 -0.15619359390E+03  0.32563279893E+03  0.00000000000E+00 0. -1.
        -13    1    5    5    0    0  0.58467468082E+02 -0.27682660083E+03 -0.63348240817E+02  0.28993863379E+03  0.00000000000E+00 0.  1.
          4    1    6    6  503    0  0.27807908042E+03 -0.94629533174E+02 -0.33259761194E+03  0.44373854349E+03  0.00000000000E+00 0. -1.
         -4    1    6    6    0  503  0.20874285928E+03 -0.15695868832E+03 -0.30676761997E+03  0.40288457876E+03  0.00000000000E+00 0.  1.
<mgrwt>
<rscale>  0 0.10717804E+04</rscale>
<asrwt>0</asrwt>
<pdfrwt beam="1">  1        2 0.21525940E+00 0.10717804E+04</pdfrwt>
<pdfrwt beam="2">  1       -2 0.21529419E+00 0.10717804E+04</pdfrwt>
<totfact> 0.15108826E+00</totfact>
</mgrwt>
</event>
<event>
12    1  0.1432447E-007  0.1348263E+04  0.7818608E-02  0.8992144E-01
          2   -1    0    0  501    0  0.00000000000E+00  0.00000000000E+00  0.27395940566E+04  0.27395940566E+04  0.00000000000E+00 0. -1.
         -2   -1    0    0    0  501 -0.00000000000E+00 -0.00000000000E+00 -0.75073430269E+03  0.75073430269E+03  0.00000000000E+00 0.  1.
         23    2    1    2    0    0 -0.89095722313E+03  0.96489463502E+03  0.14254781080E+04  0.19404012000E+04  0.91337563266E+02 0.  0.
    5000000    2    1    2    0    0  0.89095722313E+03 -0.96489463502E+03  0.56338164583E+03  0.15499271592E+04  0.60004074016E+03 0.  0.
         23    2    4    4    0    0  0.30861132972E+03 -0.64163398802E+03  0.80867893121E+02  0.72255786737E+03  0.92817714585E+02 0.  0.
         23    2    4    4    0    0  0.58234589341E+03 -0.32326064700E+03  0.48251375271E+03  0.82736929184E+03  0.89979097877E+02 0.  0.
          3    1    3    3  502    0 -0.21691399543E+03  0.21959337758E+03  0.28161847343E+03  0.41782998632E+03  0.00000000000E+00 0. -1.
         -3    1    3    3    0  502 -0.67404322770E+03  0.74530125745E+03  0.11438596346E+04  0.15225712137E+04  0.00000000000E+00 0.  1.
         13    1    5    5    0    0  0.33478172143E+02 -0.48510424205E+02  0.31591385525E+02  0.66873499280E+02  0.00000000000E+00 0. -1.
        -13    1    5    5    0    0  0.27513315758E+03 -0.59312356382E+03  0.49276507595E+02  0.65568436809E+03  0.00000000000E+00 0.  1.
          3    1    6    6  503    0  0.50329209617E+03 -0.24810533117E+03  0.38005385976E+03  0.67771684776E+03  0.00000000000E+00 0. -1.
         -3    1    6    6    0  503  0.79053797246E+02 -0.75155315827E+02  0.10245989295E+03  0.14965244408E+03  0.00000000000E+00 0.  1.
<mgrwt>
<rscale>  0 0.13482634E+04</rscale>
<asrwt>0</asrwt>
<pdfrwt beam="1">  1        2 0.42147600E+00 0.13482634E+04</pdfrwt>
<pdfrwt beam="2">  1       -2 0.11549759E+00 0.13482634E+04</pdfrwt>
<totfact> 0.14189794E+00</totfact>
</mgrwt>
</event>
<event>
12    1  0.1432447E-007  0.2671178E+03  0.7818608E-02  0.1102941E+00
         -2   -1    0    0    0  501 -0.00000000000E+00  0.00000000000E+00  0.11200212338E+03  0.11200212338E+03  0.00000000000E+00 0.  1.
          2   -1    0    0  501    0  0.00000000000E+00 -0.00000000000E+00 -0.15667144050E+04  0.15667144050E+04  0.00000000000E+00 0. -1.
         23    2    1    2    0    0 -0.15342609784E+03 -0.80004267522E+02 -0.22034488063E+03  0.29528648647E+03  0.93284470042E+02 0.  0.
    5000000    2    1    2    0    0  0.15342609784E+03  0.80004267522E+02 -0.12343674010E+04  0.13834300420E+04  0.60022958103E+03 0.  0.
         23    2    4    4    0    0  0.21737800641E+03  0.95262039600E+02 -0.12457054616E+04  0.12713207066E+04  0.90256236526E+02 0.  0.
         23    2    4    4    0    0 -0.63951908567E+02 -0.15257772079E+02  0.11338060535E+02  0.11210933535E+03  0.90096088909E+02 0.  0.
          4    1    3    3  502    0 -0.21119479206E+02 -0.38568244385E+02 -0.12989248861E+02  0.45850435798E+02  0.00000000000E+00 0. -1.
         -4    1    3    3    0  502 -0.13230661864E+03 -0.41436023136E+02 -0.20735563177E+03  0.24943605067E+03  0.00000000000E+00 0.  1.
         13    1    5    5    0    0  0.19960794339E+03  0.64408335434E+02 -0.11547687091E+04  0.11736620196E+04  0.00000000000E+00 0. -1.
        -13    1    5    5    0    0  0.17770063014E+02  0.30853704167E+02 -0.90936752506E+02  0.97658687051E+02  0.00000000000E+00 0.  1.
          4    1    6    6  503    0 -0.50343392204E+02  0.30278121792E+02 -0.10714783234E+02  0.59716232111E+02  0.00000000000E+00 0. -1.
         -4    1    6    6    0  503 -0.13608516364E+02 -0.45535893870E+02  0.22052843769E+02  0.52393103234E+02  0.00000000000E+00 0.  1.
<mgrwt>
<rscale>  0 0.26711785E+03</rscale>
<asrwt>0</asrwt>
<pdfrwt beam="1">  1        2 0.24103299E+00 0.26711785E+03</pdfrwt>
<pdfrwt beam="2">  1       -2 0.17231095E-01 0.26711785E+03</pdfrwt>
<totfact> 0.34302849E+02</totfact>
</mgrwt>
</event>
<event>
12    1  0.1432447E-007  0.1201898E+04  0.7818608E-02  0.9111197E-01
         -1   -1    0    0    0  501 -0.00000000000E+00  0.00000000000E+00  0.96065227793E+03  0.96065227793E+03  0.00000000000E+00 0.  1.
          1   -1    0    0  501    0  0.00000000000E+00 -0.00000000000E+00 -0.18455642471E+04  0.18455642471E+04  0.00000000000E+00 0. -1.
         23    2    1    2    0    0 -0.27790641330E+03 -0.11028562505E+04 -0.99731477675E+03  0.15153802948E+04  0.90646512451E+02 0.  0.
    5000000    2    1    2    0    0  0.27790641330E+03  0.11028562505E+04  0.11240280755E+03  0.12908362302E+04  0.60008324286E+03 0.  0.
         23    2    4    4    0    0 -0.12861394428E+02  0.91022650903E+03 -0.27165404222E+00  0.91418086925E+03  0.83957576849E+02 0.  0.
         23    2    4    4    0    0  0.29076780773E+03  0.19262974146E+03  0.11267446159E+03  0.37665536099E+03  0.86727108568E+02 0.  0.
          2    1    3    3  502    0 -0.13506051209E+03 -0.65492434113E+03 -0.63026121070E+03  0.91891045714E+03  0.00000000000E+00 0. -1.
         -2    1    3    3    0  502 -0.14284590121E+03 -0.44793190936E+03 -0.36705356605E+03  0.59646983768E+03  0.00000000000E+00 0.  1.
         11    1    5    5    0    0 -0.38659718010E+02  0.21771402138E+03  0.47150326777E+01  0.22117007129E+03  0.00000000000E+00 0. -1.
        -11    1    5    5    0    0  0.25798323582E+02  0.69251248764E+03 -0.49866867199E+01  0.69301079796E+03  0.00000000000E+00 0.  1.
          2    1    6    6  503    0  0.17992543449E+03  0.96888114695E+02  0.24807487774E+02  0.20585402643E+03  0.00000000000E+00 0. -1.
         -2    1    6    6    0  503  0.11084237323E+03  0.95741626770E+02  0.87866973817E+02  0.17080133456E+03  0.00000000000E+00 0.  1.
<mgrwt>
<rscale>  0 0.12018981E+04</rscale>
<asrwt>0</asrwt>
<pdfrwt beam="1">  1        1 0.28393296E+00 0.12018981E+04</pdfrwt>
<pdfrwt beam="2">  1       -1 0.14779266E+00 0.12018981E+04</pdfrwt>
<totfact> 0.13525652E+00</totfact>
</mgrwt>
</event>
<event>
12    1  0.1432447E-007  0.8119674E+03  0.7818608E-02  0.9542855E-01
         -2   -1    0    0    0  501 -0.00000000000E+00  0.00000000000E+00  0.76857643878E+03  0.76857643878E+03  0.00000000000E+00 0.  1.
          2   -1    0    0  501    0  0.00000000000E+00 -0.00000000000E+00 -0.10740658418E+04  0.10740658418E+04  0.00000000000E+00 0. -1.
         23    2    1    2    0    0 -0.18928063535E+03  0.78108410447E+03 -0.65336264316E+02  0.81148176218E+03  0.91182705311E+02 0.  0.
    5000000    2    1    2    0    0  0.18928063535E+03 -0.78108410447E+03 -0.24015313875E+03  0.10311605184E+04  0.59974907051E+03 0.  0.
         23    2    4    4    0    0  0.11125083308E+03 -0.41626761235E+03 -0.42021634697E+03  0.60881267575E+03  0.91736704421E+02 0.  0.
         23    2    4    4    0    0  0.78029802269E+02 -0.36481649212E+03  0.18006320821E+03  0.42234784270E+03  0.82311714333E+02 0.  0.
          4    1    3    3  502    0 -0.17465664754E+03  0.64294691632E+03 -0.83225438445E+02  0.67142546522E+03  0.00000000000E+00 0. -1.
         -4    1    3    3    0  502 -0.14623987809E+02  0.13813718814E+03  0.17889174129E+02  0.14005629696E+03  0.00000000000E+00 0.  1.
         11    1    5    5    0    0 -0.85155724470E+01 -0.82242584612E+02 -0.53275980794E+02  0.98359990989E+02  0.00000000000E+00 0. -1.
        -11    1    5    5    0    0  0.11976640553E+03 -0.33402502774E+03 -0.36694036617E+03  0.51045268476E+03  0.00000000000E+00 0.  1.
          2    1    6    6  503    0 -0.16143999847E+02 -0.42786863831E+02  0.30739020021E+02  0.55102012662E+02  0.00000000000E+00 0.  1.
         -2    1    6    6    0  503  0.94173802116E+02 -0.32202962829E+03  0.14932418819E+03  0.36724583003E+03  0.00000000000E+00 0. -1.
<mgrwt>
<rscale>  0 0.81196736E+03</rscale>
<asrwt>0</asrwt>
<pdfrwt beam="1">  1        2 0.16524090E+00 0.81196736E+03</pdfrwt>
<pdfrwt beam="2">  1       -2 0.11824253E+00 0.81196736E+03</pdfrwt>
<totfact> 0.12588205E+01</totfact>
</mgrwt>
</event>
<event>
12    1  0.1432447E-007  0.6143132E+03  0.7818608E-02  0.9876148E-01
          1   -1    0    0  501    0  0.00000000000E+00  0.00000000000E+00  0.31618820000E+04  0.31618820000E+04  0.00000000000E+00 0. -1.
         -1   -1    0    0    0  501 -0.00000000000E+00 -0.00000000000E+00 -0.15440514086E+03  0.15440514086E+03  0.00000000000E+00 0.  1.
         23    2    1    2    0    0  0.56874641154E+02 -0.55932257254E+03  0.13830011145E+04  0.14955435369E+04  0.88780195992E+02 0.  0.
    5000000    2    1    2    0    0 -0.56874641154E+02  0.55932257254E+03  0.16244757446E+04  0.18207436039E+04  0.60009112751E+03 0.  0.
         23    2    4    4    0    0 -0.14038315038E+03  0.67369631532E+02  0.99952175276E+03  0.10157094371E+04  0.91519561809E+02 0.  0.
         23    2    4    4    0    0  0.83508509230E+02  0.49195294101E+03  0.62495399189E+03  0.80503416683E+03  0.92310078026E+02 0.  0.
          2    1    3    3  502    0  0.22660149399E+02 -0.50114108888E+03  0.12144821361E+04  0.13140101720E+04  0.00000000000E+00 0. -1.
         -2    1    3    3    0  502  0.34214491755E+02 -0.58181483664E+02  0.16851897841E+03  0.18153336490E+03  0.00000000000E+00 0.  1.
         11    1    5    5    0    0 -0.24852444612E+02  0.24799851006E+02  0.72575832879E+02  0.80622131771E+02  0.00000000000E+00 0. -1.
        -11    1    5    5    0    0 -0.11553070577E+03  0.42569780526E+02  0.92694591988E+03  0.93508730532E+03  0.00000000000E+00 0.  1.
          1    1    6    6  503    0 -0.62661938472E+01  0.29728552260E+02  0.75743623416E+02  0.81609732833E+02  0.00000000000E+00 0. -1.
         -1    1    6    6    0  503  0.89774703078E+02  0.46222438875E+03  0.54921036847E+03  0.72342443400E+03  0.00000000000E+00 0.  1.
<mgrwt>
<rscale>  0 0.61431317E+03</rscale>
<asrwt>0</asrwt>
<pdfrwt beam="1">  1        1 0.48644334E+00 0.61431317E+03</pdfrwt>
<pdfrwt beam="2">  1       -1 0.23754639E-01 0.61431317E+03</pdfrwt>
<totfact> 0.76071686E+00</totfact>
</mgrwt>
</event>
<event>
12    1  0.1432447E-007  0.8787081E+03  0.7818608E-02  0.9452596E-01
         -1   -1    0    0    0  501 -0.00000000000E+00  0.00000000000E+00  0.92955188655E+03  0.92955188655E+03  0.00000000000E+00 0.  1.
          1   -1    0    0  501    0  0.00000000000E+00 -0.00000000000E+00 -0.11253943169E+04  0.11253943169E+04  0.00000000000E+00 0. -1.
         23    2    1    2    0    0 -0.59574039734E+03  0.57936389222E+03 -0.51440055586E+03  0.98150671036E+03  0.90434230134E+02 0.  0.
    5000000    2    1    2    0    0  0.59574039734E+03 -0.57936389222E+03  0.31855812553E+03  0.10734394931E+04  0.60018657542E+03 0.  0.
         23    2    4    4    0    0  0.41868282001E+03 -0.58958441021E+03  0.38249390688E+02  0.72977473992E+03  0.90570826418E+02 0.  0.
         23    2    4    4    0    0  0.17705757733E+03  0.10220517995E+02  0.28030873484E+03  0.34366475315E+03  0.89881205245E+02 0.  0.
          2    1    3    3  502    0 -0.10247752167E+03  0.57913934133E+02 -0.61903832479E+02  0.13299530326E+03  0.00000000000E+00 0. -1.
         -2    1    3    3    0  502 -0.49326287568E+03  0.52144995808E+03 -0.45249672338E+03  0.84851140710E+03  0.00000000000E+00 0.  1.
         11    1    5    5    0    0  0.21094038816E+03 -0.29831532063E+03 -0.26016783749E+02  0.36628506783E+03  0.00000000000E+00 0.  1.
        -11    1    5    5    0    0  0.20774243186E+03 -0.29126908958E+03  0.64266174437E+02  0.36348967209E+03  0.00000000000E+00 0. -1.
          1    1    6    6  503    0  0.65153085943E+02 -0.39663077663E+02  0.10456235981E+03  0.12942708923E+03  0.00000000000E+00 0. -1.
         -1    1    6    6    0  503  0.11190449139E+03  0.49883595657E+02  0.17574637502E+03  0.21423766392E+03  0.00000000000E+00 0.  1.
<mgrwt>
<rscale>  0 0.87870808E+03</rscale>
<asrwt>0</asrwt>
<pdfrwt beam="1">  1        1 0.17313759E+00 0.87870808E+03</pdfrwt>
<pdfrwt beam="2">  1       -1 0.14300798E+00 0.87870808E+03</pdfrwt>
<totfact> 0.48973019E+00</totfact>
</mgrwt>
</event>
<event>
12    1  0.1432447E-007  0.4186086E+03  0.7818608E-02  0.1037520E+00
         -1   -1    0    0    0  501 -0.00000000000E+00  0.00000000000E+00  0.15265277191E+03  0.15265277191E+03  0.00000000000E+00 0.  1.
          1   -1    0    0  501    0  0.00000000000E+00 -0.00000000000E+00 -0.16275766282E+04  0.16275766282E+04  0.00000000000E+00 0. -1.
         23    2    1    2    0    0  0.22050972486E+03 -0.11577587880E+03 -0.16137158741E+03  0.31444879102E+03  0.10396470593E+03 0.  0.
    5000000    2    1    2    0    0 -0.22050972486E+03  0.11577587880E+03 -0.13135522688E+04  0.14657806090E+04  0.60088654339E+03 0.  0.
         23    2    4    4    0    0 -0.33910329193E+03 -0.67852501521E+02 -0.47587894633E+03  0.59538313506E+03  0.91789440528E+02 0.  0.
         23    2    4    4    0    0  0.11859356707E+03  0.18362838032E+03 -0.83767332251E+03  0.87039747399E+03  0.90063040592E+02 0.  0.
          3    1    3    3  502    0  0.61447972265E+02 -0.79757754868E+02 -0.94819461047E+02  0.13830358980E+03  0.00000000000E+00 0. -1.
         -3    1    3    3    0  502  0.15906175260E+03 -0.36018123931E+02 -0.66552126368E+02  0.17614520123E+03  0.00000000000E+00 0.  1.
         13    1    5    5    0    0 -0.19446086274E+03 -0.78732637263E+02 -0.24309905421E+03  0.32110902426E+03  0.00000000000E+00 0. -1.
        -13    1    5    5    0    0 -0.14464242920E+03  0.10880135742E+02 -0.23277989212E+03  0.27427411079E+03  0.00000000000E+00 0.  1.
          1    1    6    6  503    0  0.86138974806E+02  0.13228407781E+03 -0.42677774448E+03  0.45503652975E+03  0.00000000000E+00 0. -1.
         -1    1    6    6    0  503  0.32454592262E+02  0.51344302509E+02 -0.41089557802E+03  0.41536094424E+03  0.00000000000E+00 0.  1.
<mgrwt>
<rscale>  0 0.41860857E+03</rscale>
<asrwt>0</asrwt>
<pdfrwt beam="1">  1        1 0.25039642E+00 0.41860857E+03</pdfrwt>
<pdfrwt beam="2">  1       -1 0.23485040E-01 0.41860857E+03</pdfrwt>
<totfact> 0.89091128E+01</totfact>
</mgrwt>
</event>
<event>
12    1  0.1432447E-007  0.4409908E+03  0.7818608E-02  0.1030443E+00
         -1   -1    0    0    0  501 -0.00000000000E+00  0.00000000000E+00  0.38436860922E+03  0.38436860922E+03  0.00000000000E+00 0.  1.
          1   -1    0    0  501    0  0.00000000000E+00 -0.00000000000E+00 -0.89524651553E+03  0.89524651553E+03  0.00000000000E+00 0. -1.
         23    2    1    2    0    0 -0.38924621388E+03 -0.13748436199E+03 -0.31166219308E+03  0.52451359480E+03  0.86986342141E+02 0.  0.
    5000000    2    1    2    0    0  0.38924621388E+03  0.13748436199E+03 -0.19921571324E+03  0.75510152995E+03  0.60006404268E+03 0.  0.
         23    2    4    4    0    0  0.27816675968E+03  0.15610925038E+03  0.15889105409E+03  0.36871345552E+03  0.94638263733E+02 0.  0.
         23    2    4    4    0    0  0.11107945420E+03 -0.18624888393E+02 -0.35810676733E+03  0.38638807443E+03  0.91486368631E+02 0.  0.
          1    1    3    3  502    0 -0.30899369287E+03 -0.95914860013E+02 -0.28258749483E+03  0.42957240931E+03  0.00000000000E+00 0. -1.
         -1    1    3    3    0  502 -0.80252521016E+02 -0.41569501977E+02 -0.29074698245E+02  0.94941185489E+02  0.00000000000E+00 0.  1.
         13    1    5    5    0    0  0.94152826579E+02  0.26185691561E+02  0.90776155112E+02  0.13338199103E+03  0.00000000000E+00 0. -1.
        -13    1    5    5    0    0  0.18401393310E+03  0.12992355882E+03  0.68114898980E+02  0.23533146448E+03  0.00000000000E+00 0.  1.
          4    1    6    6  503    0  0.48308338643E+02  0.37281593528E+02 -0.14709233007E+03  0.15924750034E+03  0.00000000000E+00 0. -1.
         -4    1    6    6    0  503  0.62771115558E+02 -0.55906481922E+02 -0.21101443725E+03  0.22714057409E+03  0.00000000000E+00 0.  1.
<mgrwt>
<rscale>  0 0.44099079E+03</rscale>
<asrwt>0</asrwt>
<pdfrwt beam="1">  1        1 0.13773023E+00 0.44099079E+03</pdfrwt>
<pdfrwt beam="2">  1       -1 0.59133633E-01 0.44099079E+03</pdfrwt>
<totfact> 0.56508647E+01</totfact>
</mgrwt>
</event>
<event>
12    1  0.1432447E-007  0.8757639E+03  0.7818608E-02  0.9456395E-01
         -2   -1    0    0    0  501 -0.00000000000E+00  0.00000000000E+00  0.35653166949E+03  0.35653166949E+03  0.00000000000E+00 0. -1.
          2   -1    0    0  501    0  0.00000000000E+00 -0.00000000000E+00 -0.22617672072E+04  0.22617672072E+04  0.00000000000E+00 0.  1.
         23    2    1    2    0    0  0.79007970382E+03 -0.47819705569E+02 -0.74113892215E+03  0.10880878133E+04  0.90197144844E+02 0.  0.
    5000000    2    1    2    0    0 -0.79007970382E+03  0.47819705569E+02 -0.11640966156E+04  0.15302110634E+04  0.59992691678E+03 0.  0.
         23    2    4    4    0    0 -0.14961957862E+03  0.23407735916E+03 -0.19851088464E+03  0.35310997499E+03  0.90010303540E+02 0.  0.
         23    2    4    4    0    0 -0.64046012520E+03 -0.18625765359E+03 -0.96558573094E+03  0.11771010884E+04  0.91269288382E+02 0.  0.
          2    1    3    3  502    0  0.33021428616E+03 -0.59724846984E+02 -0.34042583251E+03  0.47801493655E+03  0.00000000000E+00 0. -1.
         -2    1    3    3    0  502  0.45986541766E+03  0.11905141415E+02 -0.40071308965E+03  0.61007287677E+03  0.00000000000E+00 0.  1.
         13    1    5    5    0    0  0.81319258311E+01  0.26940844037E+02 -0.47082942408E+01  0.28532531080E+02  0.00000000000E+00 0. -1.
        -13    1    5    5    0    0 -0.15775150445E+03  0.20713651512E+03 -0.19380259040E+03  0.32457744391E+03  0.00000000000E+00 0.  1.
          2    1    6    6  503    0 -0.13050353468E+03 -0.48126044336E+02 -0.26884744030E+03  0.30269825712E+03  0.00000000000E+00 0. -1.
         -2    1    6    6    0  503 -0.50995659052E+03 -0.13813160926E+03 -0.69673829064E+03  0.87440283127E+03  0.00000000000E+00 0.  1.
<mgrwt>
<rscale>  0 0.87576392E+03</rscale>
<asrwt>0</asrwt>
<pdfrwt beam="1">  1        2 0.34796418E+00 0.87576392E+03</pdfrwt>
<pdfrwt beam="2">  1       -2 0.54851027E-01 0.87576392E+03</pdfrwt>
<totfact> 0.15239970E+01</totfact>
</mgrwt>
</event>
<event>
12    1  0.1432447E-007  0.1422346E+04  0.7818608E-02  0.8937800E-01
          2   -1    0    0  501    0  0.00000000000E+00  0.00000000000E+00  0.13517287575E+04  0.13517287575E+04  0.00000000000E+00 0. -1.
         -2   -1    0    0    0  501 -0.00000000000E+00 -0.00000000000E+00 -0.21749596697E+04  0.21749596697E+04  0.00000000000E+00 0.  1.
         23    2    1    2    0    0 -0.12459020309E+04 -0.59611771350E+03  0.54930587144E+03  0.14891820088E+04  0.91092896942E+02 0.  0.
    5000000    2    1    2    0    0  0.12459020309E+04  0.59611771350E+03 -0.13725367836E+04  0.20375064184E+04  0.59995581796E+03 0.  0.
         23    2    4    4    0    0  0.84269437190E+03  0.14559343929E+03 -0.10165437613E+04  0.13308058246E+04  0.79697366555E+02 0.  0.
         23    2    4    4    0    0  0.40320765905E+03  0.45052427422E+03 -0.35599302231E+03  0.70670059375E+03  0.84534959037E+02 0.  0.
          4    1    3    3  502    0 -0.10806664148E+04 -0.49044985418E+03  0.49342505132E+03  0.12852428723E+04  0.00000000000E+00 0. -1.
         -4    1    3    3    0  502 -0.16523561609E+03 -0.10566785933E+03  0.55880820126E+02  0.20393913646E+03  0.00000000000E+00 0.  1.
         13    1    5    5    0    0  0.56306161799E+03  0.85075846032E+02 -0.73052622440E+03  0.92625312403E+03  0.00000000000E+00 0. -1.
        -13    1    5    5    0    0  0.27963275391E+03  0.60517593256E+02 -0.28601753692E+03  0.40455270062E+03  0.00000000000E+00 0.  1.
          1    1    6    6  503    0  0.63830383373E+02  0.97620154960E+02 -0.10292071931E+03  0.15555284298E+03  0.00000000000E+00 0. -1.
         -1    1    6    6    0  503  0.33937727567E+03  0.35290411926E+03 -0.25307230300E+03  0.55114775077E+03  0.00000000000E+00 0.  1.
<mgrwt>
<rscale>  0 0.14223459E+04</rscale>
<asrwt>0</asrwt>
<pdfrwt beam="1">  1        2 0.20795827E+00 0.14223459E+04</pdfrwt>
<pdfrwt beam="2">  1       -2 0.33460918E+00 0.14223459E+04</pdfrwt>
<totfact> 0.28530258E-01</totfact>
</mgrwt>
</event>
<event>
12    1  0.1432447E-007  0.9507601E+03  0.7818608E-02  0.9364263E-01
          2   -1    0    0  501    0  0.00000000000E+00  0.00000000000E+00  0.21369854387E+04  0.21369854387E+04  0.00000000000E+00 0.  1.
         -2   -1    0    0    0  501 -0.00000000000E+00 -0.00000000000E+00 -0.50537709720E+03  0.50537709720E+03  0.00000000000E+00 0. -1.
         23    2    1    2    0    0 -0.36127802120E+03 -0.86906168919E+03  0.91692141385E+03  0.13171285099E+04  0.91063736569E+02 0.  0.
    5000000    2    1    2    0    0  0.36127802120E+03  0.86906168919E+03  0.71468692765E+03  0.13252340260E+04  0.59973143236E+03 0.  0.
         23    2    4    4    0    0  0.97311392025E+02  0.27674273409E+03 -0.57616568508E+02  0.31262390073E+03  0.91422023883E+02 0.  0.
         23    2    4    4    0    0  0.26396662918E+03  0.59231895510E+03  0.77230349615E+03  0.10126101253E+04  0.91686693598E+02 0.  0.
          2    1    3    3  502    0 -0.15198634374E+03 -0.25568843603E+03  0.29159841032E+03  0.41654058374E+03  0.00000000000E+00 0. -1.
         -2    1    3    3    0  502 -0.20929167747E+03 -0.61337325317E+03  0.62532300354E+03  0.90058792614E+03  0.00000000000E+00 0.  1.
         11    1    5    5    0    0  0.95995656016E+02  0.17714218010E+03 -0.87424571387E+01  0.20167039570E+03  0.00000000000E+00 0. -1.
        -11    1    5    5    0    0  0.13157360094E+01  0.99600553991E+02 -0.48874111369E+02  0.11095350503E+03  0.00000000000E+00 0.  1.
          4    1    6    6  503    0  0.13882158991E+03  0.41686009604E+03  0.51277144911E+03  0.67526167707E+03  0.00000000000E+00 0.  1.
         -4    1    6    6    0  503  0.12514503927E+03  0.17545885906E+03  0.25953204704E+03  0.33734844822E+03  0.00000000000E+00 0. -1.
<mgrwt>
<rscale>  0 0.95076015E+03</rscale>
<asrwt>0</asrwt>
<pdfrwt beam="1">  1        2 0.32876699E+00 0.95076015E+03</pdfrwt>
<pdfrwt beam="2">  1       -2 0.77750324E-01 0.95076015E+03</pdfrwt>
<totfact> 0.83406780E+00</totfact>
</mgrwt>
</event>
<event>
12    1  0.1432447E-007  0.3794573E+03  0.7818608E-02  0.1051135E+00
          1   -1    0    0  501    0  0.00000000000E+00  0.00000000000E+00  0.12567939798E+04  0.12567939798E+04  0.00000000000E+00 0. -1.
         -1   -1    0    0    0  501 -0.00000000000E+00 -0.00000000000E+00 -0.19453853061E+03  0.19453853061E+03  0.00000000000E+00 0.  1.
         23    2    1    2    0    0  0.28949399859E+03  0.67491479515E+01  0.20888056683E+03  0.36816825113E+03  0.89802247879E+02 0.  0.
    5000000    2    1    2    0    0 -0.28949399859E+03 -0.67491479515E+01  0.85337488232E+03  0.10831642592E+04  0.60095240785E+03 0.  0.
         23    2    4    4    0    0 -0.24633565171E+03  0.15209493329E+03  0.84210094329E+03  0.89502854813E+03  0.90155317324E+02 0.  0.
         23    2    4    4    0    0 -0.43158346876E+02 -0.15884408124E+03  0.11273939026E+02  0.18813571110E+03  0.90409396863E+02 0.  0.
          2    1    3    3  502    0  0.44414145040E+02  0.73094782154E+01  0.78690393377E+02  0.90654413910E+02  0.00000000000E+00 0. -1.
         -2    1    3    3    0  502  0.24507985355E+03 -0.56033026387E+00  0.13019017346E+03  0.27751383722E+03  0.00000000000E+00 0.  1.
         11    1    5    5    0    0 -0.10145088651E+03  0.11341261945E+03  0.38613941401E+03  0.41504018080E+03  0.00000000000E+00 0.  1.
        -11    1    5    5    0    0 -0.14488476520E+03  0.38682313838E+02  0.45596152928E+03  0.47998836734E+03  0.00000000000E+00 0. -1.
          3    1    6    6  503    0 -0.33655394119E+02 -0.14994964564E+03  0.38087859044E+02  0.15832961437E+03  0.00000000000E+00 0. -1.
         -3    1    6    6    0  503 -0.95029527573E+01 -0.88944356056E+01 -0.26813920019E+02  0.29806096736E+02  0.00000000000E+00 0.  1.
<mgrwt>
<rscale>  0 0.37945734E+03</rscale>
<asrwt>0</asrwt>
<pdfrwt beam="1">  1        1 0.19335291E+00 0.37945734E+03</pdfrwt>
<pdfrwt beam="2">  1       -1 0.29929005E-01 0.37945734E+03</pdfrwt>
<totfact> 0.10614696E+02</totfact>
</mgrwt>
</event>
<event>
12    1  0.1432447E-007  0.9292168E+03  0.7818608E-02  0.9389778E-01
          2   -1    0    0  501    0  0.00000000000E+00  0.00000000000E+00  0.19260124351E+04  0.19260124351E+04  0.00000000000E+00 0. -1.
         -2   -1    0    0    0  501 -0.00000000000E+00 -0.00000000000E+00 -0.74208366008E+03  0.74208366008E+03  0.00000000000E+00 0.  1.
         23    2    1    2    0    0 -0.22644146425E+03 -0.83523354220E+03 -0.23467945518E+03  0.90134240160E+03  0.91939499091E+02 0.  0.
    5000000    2    1    2    0    0  0.22644146425E+03  0.83523354220E+03  0.14186082302E+04  0.17667536936E+04  0.60006540998E+03 0.  0.
         23    2    4    4    0    0  0.37541259514E+03  0.61822980406E+03  0.12311892566E+04  0.14308729408E+04  0.91802396907E+02 0.  0.
         23    2    4    4    0    0 -0.14897113089E+03  0.21700373814E+03  0.18741897364E+03  0.33588075277E+03  0.91689629695E+02 0.  0.
          4    1    3    3  502    0 -0.48231136331E+02 -0.22352894764E+03 -0.22370756811E+02  0.22976484436E+03  0.00000000000E+00 0. -1.
         -4    1    3    3    0  502 -0.17821032792E+03 -0.61170459456E+03 -0.21230869837E+03  0.67157755724E+03  0.00000000000E+00 0.  1.
         11    1    5    5    0    0  0.20824095513E+03  0.42709523693E+03  0.80478917893E+03  0.93459095829E+03  0.00000000000E+00 0.  1.
        -11    1    5    5    0    0  0.16717164001E+03  0.19113456713E+03  0.42640007766E+03  0.49628198255E+03  0.00000000000E+00 0. -1.
          2    1    6    6  503    0 -0.35583945322E+02  0.62101235122E+02  0.61215082323E+01  0.71834903991E+02  0.00000000000E+00 0. -1.
         -2    1    6    6    0  503 -0.11338718556E+03  0.15490250302E+03  0.18129746541E+03  0.26404584878E+03  0.00000000000E+00 0.  1.
<mgrwt>
<rscale>  0 0.92921682E+03</rscale>
<asrwt>0</asrwt>
<pdfrwt beam="1">  1        2 0.29630960E+00 0.92921682E+03</pdfrwt>
<pdfrwt beam="2">  1       -2 0.11416672E+00 0.92921682E+03</pdfrwt>
<totfact> 0.44416930E+00</totfact>
</mgrwt>
</event>
<event>
12    1  0.1432447E-007  0.9430492E+03  0.7818608E-02  0.9373312E-01
          2   -1    0    0  501    0  0.00000000000E+00  0.00000000000E+00  0.20475600973E+04  0.20475600973E+04  0.00000000000E+00 0. -1.
         -2   -1    0    0    0  501 -0.00000000000E+00 -0.00000000000E+00 -0.63501553362E+03  0.63501553362E+03  0.00000000000E+00 0.  1.
         23    2    1    2    0    0  0.51228204316E+03 -0.72275214527E+03 -0.25929691987E+02  0.88982805157E+03  0.79486207533E+02 0.  0.
    5000000    2    1    2    0    0 -0.51228204316E+03  0.72275214527E+03  0.14384742557E+04  0.17927475794E+04  0.59994345053E+03 0.  0.
         23    2    4    4    0    0 -0.33956308969E+03  0.73078287856E+03  0.85801588875E+03  0.11804735411E+04  0.89329773520E+02 0.  0.
         23    2    4    4    0    0 -0.17271895347E+03 -0.80307332918E+01  0.58045836695E+03  0.61227403827E+03  0.89728772498E+02 0.  0.
          4    1    3    3  502    0  0.15840662581E+03 -0.28890063380E+03 -0.31320877352E+01  0.32949361948E+03  0.00000000000E+00 0. -1.
         -4    1    3    3    0  502  0.35387541735E+03 -0.43385151148E+03 -0.22797604252E+02  0.56033443208E+03  0.00000000000E+00 0.  1.
         13    1    5    5    0    0 -0.14439327658E+03  0.27364818465E+03  0.38926723261E+03  0.49725418617E+03  0.00000000000E+00 0.  1.
        -13    1    5    5    0    0 -0.19516981311E+03  0.45713469392E+03  0.46874865614E+03  0.68321935494E+03  0.00000000000E+00 0. -1.
          4    1    6    6  503    0 -0.52398597918E+02 -0.39850383575E+02  0.26739226422E+03  0.27537663136E+03  0.00000000000E+00 0. -1.
         -4    1    6    6    0  503 -0.12032035555E+03  0.31819650283E+02  0.31306610272E+03  0.33689740690E+03  0.00000000000E+00 0.  1.
<mgrwt>
<rscale>  0 0.94304916E+03</rscale>
<asrwt>0</asrwt>
<pdfrwt beam="1">  1        2 0.31500924E+00 0.94304916E+03</pdfrwt>
<pdfrwt beam="2">  1       -2 0.97694699E-01 0.94304916E+03</pdfrwt>
<totfact> 0.55327996E+00</totfact>
</mgrwt>
</event>
<event>
12    1  0.1432447E-007  0.6472900E+03  0.7818608E-02  0.9811878E-01
          2   -1    0    0  501    0  0.00000000000E+00  0.00000000000E+00  0.11906217252E+04  0.11906217252E+04  0.00000000000E+00 0. -1.
         -2   -1    0    0    0  501 -0.00000000000E+00 -0.00000000000E+00 -0.38866120759E+03  0.38866120759E+03  0.00000000000E+00 0.  1.
         23    2    1    2    0    0  0.43061318832E+03 -0.32656052581E+03  0.38748052406E+03  0.67164235767E+03  0.94301670816E+02 0.  0.
    5000000    2    1    2    0    0 -0.43061318832E+03  0.32656052581E+03  0.41447999359E+03  0.90764057517E+03  0.59995687647E+03 0.  0.
         23    2    4    4    0    0 -0.46604202920E+03  0.42498321006E+03  0.42898758589E+03  0.76856499455E+03  0.94105792530E+02 0.  0.
         23    2    4    4    0    0  0.35428840877E+02 -0.98422684246E+02 -0.14507592293E+02  0.13907558062E+03  0.90494858142E+02 0.  0.
          2    1    3    3  502    0  0.81028673631E+02 -0.11192186273E+03  0.10572568154E+03  0.17398295619E+03  0.00000000000E+00 0. -1.
         -2    1    3    3    0  502  0.34958451469E+03 -0.21463866308E+03  0.28175484251E+03  0.49765940148E+03  0.00000000000E+00 0.  1.
         11    1    5    5    0    0 -0.28293231740E+02  0.47096779714E+02  0.65635768950E+02  0.85595956606E+02  0.00000000000E+00 0.  1.
        -11    1    5    5    0    0 -0.43774879746E+03  0.37788643034E+03  0.36335181694E+03  0.68296903794E+03  0.00000000000E+00 0. -1.
          3    1    6    6  503    0  0.16269355167E+02 -0.42010307649E+01  0.29018727449E+02  0.33532478581E+02  0.00000000000E+00 0.  1.
         -3    1    6    6    0  503  0.19159485710E+02 -0.94221653481E+02 -0.43526319742E+02  0.10554310204E+03  0.00000000000E+00 0. -1.
<mgrwt>
<rscale>  0 0.64728998E+03</rscale>
<asrwt>0</asrwt>
<pdfrwt beam="1">  1        2 0.18317257E+00 0.64728998E+03</pdfrwt>
<pdfrwt beam="2">  1       -2 0.59794033E-01 0.64728998E+03</pdfrwt>
<totfact> 0.51465685E+01</totfact>
</mgrwt>
</event>
<event>
12    1  0.1432447E-007  0.5398716E+03  0.7818608E-02  0.1003866E+00
         -1   -1    0    0    0  501 -0.00000000000E+00  0.00000000000E+00  0.95000911063E+03  0.95000911063E+03  0.00000000000E+00 0.  1.
          1   -1    0    0  501    0  0.00000000000E+00 -0.00000000000E+00 -0.45365793888E+03  0.45365793888E+03  0.00000000000E+00 0. -1.
         23    2    1    2    0    0  0.22787782767E+03  0.38152851241E+03 -0.79921726678E+02  0.46055321436E+03  0.90716430391E+02 0.  0.
    5000000    2    1    2    0    0 -0.22787782767E+03 -0.38152851241E+03  0.57627289843E+03  0.94311383514E+03  0.59990077717E+03 0.  0.
         23    2    4    4    0    0 -0.20993910745E+03  0.26160329460E+02  0.16417830523E+00  0.23131004374E+03  0.93517472725E+02 0.  0.
         23    2    4    4    0    0 -0.17938720213E+02 -0.40768884187E+03  0.57610872012E+03  0.71180379140E+03  0.90727011337E+02 0.  0.
          1    1    3    3  502    0  0.12861941804E+03  0.16706564840E+03  0.75670486133E+00  0.21084225899E+03  0.00000000000E+00 0. -1.
         -1    1    3    3    0  502  0.99258409631E+02  0.21446286400E+03 -0.80678431539E+02  0.24971095538E+03  0.00000000000E+00 0.  1.
         13    1    5    5    0    0 -0.13044283437E+03  0.47338062613E+02  0.33155401711E+02  0.14267272295E+03  0.00000000000E+00 0. -1.
        -13    1    5    5    0    0 -0.79496273086E+02 -0.21177733153E+02 -0.32991223405E+02  0.88637320796E+02  0.00000000000E+00 0.  1.
          1    1    6    6  503    0 -0.35355937613E+02 -0.33218307304E+03  0.51144975724E+03  0.61088173202E+03  0.00000000000E+00 0. -1.
         -1    1    6    6    0  503  0.17417217399E+02 -0.75505768826E+02  0.64658962883E+02  0.10092205938E+03  0.00000000000E+00 0.  1.
<mgrwt>
<rscale>  0 0.53987158E+03</rscale>
<asrwt>0</asrwt>
<pdfrwt beam="1">  1        1 0.69793529E-01 0.53987158E+03</pdfrwt>
<pdfrwt beam="2">  1       -1 0.14615525E+00 0.53987158E+03</pdfrwt>
<totfact> 0.19958428E+01</totfact>
</mgrwt>
</event>
<event>
12    1  0.1432447E-007  0.6838186E+03  0.7818608E-02  0.9745312E-01
         -2   -1    0    0    0  501 -0.00000000000E+00  0.00000000000E+00  0.22107909924E+03  0.22107909924E+03  0.00000000000E+00 0.  1.
          2   -1    0    0  501    0  0.00000000000E+00 -0.00000000000E+00 -0.22425693671E+04  0.22425693671E+04  0.00000000000E+00 0. -1.
         23    2    1    2    0    0 -0.23685416138E+03  0.50989918079E+03 -0.64886301250E+03  0.86361314130E+03  0.93313345754E+02 0.  0.
    5000000    2    1    2    0    0  0.23685416138E+03 -0.50989918079E+03 -0.13726272553E+04  0.16000353250E+04  0.59992532109E+03 0.  0.
         23    2    4    4    0    0  0.17217142474E+03  0.81429719391E+02 -0.25499100395E+03  0.33070178613E+03  0.89830176206E+02 0.  0.
         23    2    4    4    0    0  0.64682736636E+02 -0.59132890018E+03 -0.11176362514E+04  0.12693335389E+04  0.90791618143E+02 0.  0.
          2    1    3    3  502    0 -0.13644319380E+03  0.26851987918E+03 -0.41544559327E+03  0.51314199947E+03  0.00000000000E+00 0. -1.
         -2    1    3    3    0  502 -0.10041096757E+03  0.24137930161E+03 -0.23341741923E+03  0.35047114183E+03  0.00000000000E+00 0.  1.
         11    1    5    5    0    0  0.76512947131E+02  0.83340728841E+02 -0.11669267014E+03  0.16253334251E+03  0.00000000000E+00 0. -1.
        -11    1    5    5    0    0  0.95658477609E+02 -0.19110094498E+01 -0.13829833381E+03  0.16816844363E+03  0.00000000000E+00 0.  1.
          3    1    6    6  503    0  0.40778662411E+02 -0.50419039250E+03 -0.10033108136E+04  0.11236117835E+04  0.00000000000E+00 0. -1.
         -3    1    6    6    0  503  0.23904074226E+02 -0.87138507683E+02 -0.11432543777E+03  0.14572175544E+03  0.00000000000E+00 0.  1.
<mgrwt>
<rscale>  0 0.68381858E+03</rscale>
<asrwt>0</asrwt>
<pdfrwt beam="1">  1        2 0.34501069E+00 0.68381858E+03</pdfrwt>
<pdfrwt beam="2">  1       -2 0.34012167E-01 0.68381858E+03</pdfrwt>
<totfact> 0.41324702E+01</totfact>
</mgrwt>
</event>
<event>
12    1  0.1782470E-007  0.1394982E+04  0.7818608E-02  0.8957459E-01
          1   -1    0    0  501    0  0.00000000000E+00  0.00000000000E+00  0.21519794635E+04  0.21519794635E+04  0.00000000000E+00 0. -1.
         -1   -1    0    0    0  501 -0.00000000000E+00 -0.00000000000E+00 -0.97342130043E+03  0.97342130043E+03  0.00000000000E+00 0.  1.
         23    2    1    2    0    0 -0.93436052140E+03 -0.10075918369E+04  0.39023612597E+03  0.14313845384E+04  0.91140380391E+02 0.  0.
    5000000    2    1    2    0    0  0.93436052140E+03  0.10075918369E+04  0.78832203713E+03  0.16940162256E+04  0.59997370316E+03 0.  0.
         23    2    4    4    0    0  0.81571187669E+03  0.95882560129E+03  0.48359933374E+03  0.13519204988E+04  0.95332681163E+02 0.  0.
         23    2    4    4    0    0  0.11864864471E+03  0.48766235637E+02  0.30472270339E+03  0.34209572675E+03  0.87851657161E+02 0.  0.
          3    1    3    3  502    0 -0.39070240720E+03 -0.45854093154E+03  0.20998453467E+03  0.63796681865E+03  0.00000000000E+00 0. -1.
         -3    1    3    3    0  502 -0.54365811420E+03 -0.54905090538E+03  0.18025159130E+03  0.79341771974E+03  0.00000000000E+00 0.  1.
         11    1    5    5    0    0  0.30942549555E+03  0.43210116180E+03  0.22065764308E+03  0.57545229757E+03  0.00000000000E+00 0.  1.
        -11    1    5    5    0    0  0.50628638114E+03  0.52672443949E+03  0.26294169066E+03  0.77646820126E+03  0.00000000000E+00 0. -1.
          3    1    6    6  503    0 -0.79561967346E+01 -0.10379682402E+02  0.48639259244E+02  0.50366818571E+02  0.00000000000E+00 0. -1.
         -3    1    6    6    0  503  0.12660484145E+03  0.59145918039E+02  0.25608344415E+03  0.29172890817E+03  0.00000000000E+00 0.  1.
<mgrwt>
<rscale>  0 0.13949823E+04</rscale>
<asrwt>0</asrwt>
<pdfrwt beam="1">  1        1 0.33107376E+00 0.13949823E+04</pdfrwt>
<pdfrwt beam="2">  1       -1 0.14975712E+00 0.13949823E+04</pdfrwt>
<totfact> 0.79081483E-01</totfact>
</mgrwt>
</event>
<event>
12    1  0.1432447E-007  0.5046299E+03  0.7818608E-02  0.1012577E+00
          2   -1    0    0  501    0  0.00000000000E+00  0.00000000000E+00  0.17243080214E+04  0.17243080214E+04  0.00000000000E+00 0. -1.
         -2   -1    0    0    0  501 -0.00000000000E+00 -0.00000000000E+00 -0.28109156625E+03  0.28109156625E+03  0.00000000000E+00 0.  1.
         23    2    1    2    0    0  0.36461787480E+03  0.16843420348E+03  0.23312985245E+02  0.41251061178E+03  0.91133056708E+02 0.  0.
    5000000    2    1    2    0    0 -0.36461787480E+03 -0.16843420348E+03  0.14199034699E+04  0.15928889759E+04  0.59987761260E+03 0.  0.
         23    2    4    4    0    0 -0.99103173336E+02  0.15238695018E+03  0.89034203868E+03  0.91302974173E+03  0.88719456072E+02 0.  0.
         23    2    4    4    0    0 -0.26551470146E+03 -0.32082115366E+03  0.52956143121E+03  0.67985923414E+03  0.91372859674E+02 0.  0.
          1    1    3    3  502    0  0.31406982214E+03  0.14856071555E+03  0.51644488491E+02  0.35125103925E+03  0.00000000000E+00 0. -1.
         -1    1    3    3    0  502  0.50548052658E+02  0.19873487928E+02 -0.28331503246E+02  0.61259572526E+02  0.00000000000E+00 0.  1.
         11    1    5    5    0    0 -0.56562425282E+02  0.38936253517E+02  0.18451377537E+03  0.19687730466E+03  0.00000000000E+00 0. -1.
        -11    1    5    5    0    0 -0.42540748054E+02  0.11345069667E+03  0.70582826332E+03  0.71615243706E+03  0.00000000000E+00 0.  1.
          1    1    6    6  503    0 -0.78299504333E+02 -0.11846466340E+03  0.24821507486E+03  0.28596400515E+03  0.00000000000E+00 0. -1.
         -1    1    6    6    0  503 -0.18721519713E+03 -0.20235649026E+03  0.28134635635E+03  0.39389522899E+03  0.00000000000E+00 0.  1.
<mgrwt>
<rscale>  0 0.50462994E+03</rscale>
<asrwt>0</asrwt>
<pdfrwt beam="1">  1        2 0.26527815E+00 0.50462994E+03</pdfrwt>
<pdfrwt beam="2">  1       -2 0.43244857E-01 0.50462994E+03</pdfrwt>
<totfact> 0.51090931E+01</totfact>
</mgrwt>
</event>
<event>
12    1  0.1432447E-007  0.6341458E+03  0.7818608E-02  0.9836992E-01
         -1   -1    0    0    0  501 -0.00000000000E+00  0.00000000000E+00  0.22852240716E+03  0.22852240716E+03  0.00000000000E+00 0.  1.
          1   -1    0    0  501    0  0.00000000000E+00 -0.00000000000E+00 -0.23122941835E+04  0.23122941835E+04  0.00000000000E+00 0. -1.
         23    2    1    2    0    0  0.57353749311E+03 -0.99516048541E+02 -0.62199110636E+03  0.85696551599E+03  0.93103486987E+02 0.  0.
    5000000    2    1    2    0    0 -0.57353749311E+03  0.99516048541E+02 -0.14617806700E+04  0.16838510747E+04  0.59975246113E+03 0.  0.
         23    2    4    4    0    0 -0.87110980075E+02  0.14839506751E+03 -0.95007976907E+03  0.96990120476E+03  0.91909523324E+02 0.  0.
         23    2    4    4    0    0 -0.48642651303E+03 -0.48879018967E+02 -0.51170090089E+03  0.71394986990E+03  0.94269261603E+02 0.  0.
          1    1    3    3  502    0  0.42171457799E+03 -0.11378836073E+03 -0.47111287142E+03  0.64244712930E+03  0.00000000000E+00 0. -1.
         -1    1    3    3    0  502  0.15182291512E+03  0.14272312191E+02 -0.15087823494E+03  0.21451838669E+03  0.00000000000E+00 0.  1.
         11    1    5    5    0    0  0.57609102951E+01  0.35736258639E+02 -0.36853540739E+03  0.37030881001E+03  0.00000000000E+00 0.  1.
        -11    1    5    5    0    0 -0.92871890370E+02  0.11265880887E+03 -0.58154436168E+03  0.59959239475E+03  0.00000000000E+00 0. -1.
          4    1    6    6  503    0 -0.25602699980E+03  0.18661535902E+02 -0.28786347684E+03  0.38569866327E+03  0.00000000000E+00 0. -1.
         -4    1    6    6    0  503 -0.23039951323E+03 -0.67540554869E+02 -0.22383742405E+03  0.32825120663E+03  0.00000000000E+00 0.  1.
<mgrwt>
<rscale>  0 0.63414579E+03</rscale>
<asrwt>0</asrwt>
<pdfrwt beam="1">  1        1 0.35573757E+00 0.63414579E+03</pdfrwt>
<pdfrwt beam="2">  1       -1 0.35157294E-01 0.63414579E+03</pdfrwt>
<totfact> 0.15004162E+01</totfact>
</mgrwt>
</event>
<event>
12    1  0.1432447E-007  0.7864150E+03  0.7818608E-02  0.9579892E-01
          2   -1    0    0  501    0  0.00000000000E+00  0.00000000000E+00  0.12010366933E+04  0.12010366933E+04  0.00000000000E+00 0. -1.
         -2   -1    0    0    0  501 -0.00000000000E+00 -0.00000000000E+00 -0.88745541463E+03  0.88745541463E+03  0.00000000000E+00 0.  1.
         23    2    1    2    0    0 -0.55185260023E+03  0.46825386776E+03 -0.46745563460E+03  0.86626167348E+03  0.89952985278E+02 0.  0.
    5000000    2    1    2    0    0  0.55185260023E+03 -0.46825386776E+03  0.78103691330E+03  0.12222304345E+04  0.60002133129E+03 0.  0.
         23    2    4    4    0    0 -0.60339159901E+02 -0.44493760786E+02 -0.28176462196E+02  0.11882068425E+03  0.87772051462E+02 0.  0.
         23    2    4    4    0    0  0.61219176014E+03 -0.42376010697E+03  0.80921337549E+03  0.11034097502E+04  0.91298468798E+02 0.  0.
          2    1    3    3  502    0 -0.34388211038E+03  0.29018758330E+03 -0.34157632777E+03  0.56492311604E+03  0.00000000000E+00 0. -1.
         -2    1    3    3    0  502 -0.20797048986E+03  0.17806628446E+03 -0.12587930682E+03  0.30133855744E+03  0.00000000000E+00 0.  1.
         13    1    5    5    0    0 -0.51700631606E+02  0.25386840029E+01  0.15524352056E+02  0.54040778415E+02  0.00000000000E+00 0. -1.
        -13    1    5    5    0    0 -0.86385282953E+01 -0.47032444789E+02 -0.43700814253E+02  0.64779905837E+02  0.00000000000E+00 0.  1.
          4    1    6    6  503    0  0.53145323911E+03 -0.40054465666E+03  0.73219519011E+03  0.98943840827E+03  0.00000000000E+00 0. -1.
         -4    1    6    6    0  503  0.80738521025E+02 -0.23215450317E+02  0.77018185384E+02  0.11397134197E+03  0.00000000000E+00 0.  1.
<mgrwt>
<rscale>  0 0.78641499E+03</rscale>
<asrwt>0</asrwt>
<pdfrwt beam="1">  1        2 0.18477488E+00 0.78641499E+03</pdfrwt>
<pdfrwt beam="2">  1       -2 0.13653160E+00 0.78641499E+03</pdfrwt>
<totfact> 0.73629225E+00</totfact>
</mgrwt>
</event>
<event>
12    1  0.1432447E-007  0.9247340E+03  0.7818608E-02  0.9395180E-01
         -2   -1    0    0    0  501 -0.00000000000E+00  0.00000000000E+00  0.93765481700E+03  0.93765481700E+03  0.00000000000E+00 0.  1.
          2   -1    0    0  501    0  0.00000000000E+00 -0.00000000000E+00 -0.14168739586E+04  0.14168739586E+04  0.00000000000E+00 0. -1.
         23    2    1    2    0    0  0.17837905430E+03 -0.89900636854E+03 -0.79250737078E+03  0.12151978082E+04  0.92769836663E+02 0.  0.
    5000000    2    1    2    0    0 -0.17837905430E+03  0.89900636854E+03  0.31328822915E+03  0.11393309674E+04  0.59991166109E+03 0.  0.
         23    2    4    4    0    0 -0.10583555606E+03  0.36191465479E+03  0.42824078109E+03  0.57773240908E+03  0.90560408769E+02 0.  0.
         23    2    4    4    0    0 -0.72543498243E+02  0.53709171375E+03 -0.11495255193E+03  0.56159855835E+03  0.91917264010E+02 0.  0.
          2    1    3    3  502    0  0.87312416917E+02 -0.29718833380E+03 -0.22331104390E+03  0.38185361884E+03  0.00000000000E+00 0. -1.
         -2    1    3    3    0  502  0.91066637387E+02 -0.60181803475E+03 -0.56919632689E+03  0.83334418935E+03  0.00000000000E+00 0.  1.
         11    1    5    5    0    0 -0.10864794798E+03  0.21543398667E+03  0.26482156545E+03  0.35825499402E+03  0.00000000000E+00 0.  1.
        -11    1    5    5    0    0  0.28123919231E+01  0.14648066813E+03  0.16341921564E+03  0.21947741506E+03  0.00000000000E+00 0. -1.
          1    1    6    6  503    0  0.33186384982E+01  0.67555901660E+02  0.13416389479E+02  0.68955150041E+02  0.00000000000E+00 0. -1.
         -1    1    6    6    0  503 -0.75862136741E+02  0.46953581209E+03 -0.12836894141E+03  0.49264340831E+03  0.00000000000E+00 0.  1.
<mgrwt>
<rscale>  0 0.92473405E+03</rscale>
<asrwt>0</asrwt>
<pdfrwt beam="1">  1        2 0.21798061E+00 0.92473405E+03</pdfrwt>
<pdfrwt beam="2">  1       -2 0.14425459E+00 0.92473405E+03</pdfrwt>
<totfact> 0.47053221E+00</totfact>
</mgrwt>
</event>
<event>
12    1  0.1432447E-007  0.5236386E+03  0.7818608E-02  0.1007787E+00
          1   -1    0    0  501    0  0.00000000000E+00  0.00000000000E+00  0.67579511975E+03  0.67579511975E+03  0.00000000000E+00 0. -1.
         -1   -1    0    0    0  501 -0.00000000000E+00 -0.00000000000E+00 -0.43939223099E+03  0.43939223099E+03  0.00000000000E+00 0.  1.
         23    2    1    2    0    0  0.26836274493E+03 -0.25443357344E+03  0.45375325985E+02  0.38487157164E+03  0.96499742411E+02 0.  0.
    5000000    2    1    2    0    0 -0.26836274493E+03  0.25443357344E+03  0.19102756277E+03  0.73031577910E+03  0.60009549349E+03 0.  0.
         23    2    4    4    0    0 -0.43346852402E+03  0.14456511696E+03  0.49769941675E+02  0.46921155720E+03  0.94278332371E+02 0.  0.
         23    2    4    4    0    0  0.16510577909E+03  0.10986845648E+03  0.14125762109E+03  0.26110422191E+03  0.94290525307E+02 0.  0.
          1    1    3    3  502    0  0.17228440393E+03 -0.10539732599E+03  0.47749329868E+02  0.20753436020E+03  0.00000000000E+00 0. -1.
         -1    1    3    3    0  502  0.96078341003E+02 -0.14903624745E+03 -0.23740038832E+01  0.17733721143E+03  0.00000000000E+00 0.  1.
         13    1    5    5    0    0 -0.21806055219E+03  0.33858737431E+02 -0.57092542389E+01  0.22074739886E+03  0.00000000000E+00 0. -1.
        -13    1    5    5    0    0 -0.21540797183E+03  0.11070637953E+03  0.55479195913E+02  0.24846415834E+03  0.00000000000E+00 0.  1.
          1    1    6    6  503    0  0.26011989245E+02  0.44251292051E+02 -0.13770616233E+01  0.51348775364E+02  0.00000000000E+00 0. -1.
         -1    1    6    6    0  503  0.13909378984E+03  0.65617164433E+02  0.14263468272E+03  0.20975544654E+03  0.00000000000E+00 0.  1.
<mgrwt>
<rscale>  0 0.52363858E+03</rscale>
<asrwt>0</asrwt>
<pdfrwt beam="1">  1        1 0.10396848E+00 0.52363858E+03</pdfrwt>
<pdfrwt beam="2">  1       -1 0.67598805E-01 0.52363858E+03</pdfrwt>
<totfact> 0.66469382E+01</totfact>
</mgrwt>
</event>
<event>
12    1  0.1432447E-007  0.1161416E+04  0.7818608E-02  0.9147316E-01
         -2   -1    0    0    0  501 -0.00000000000E+00  0.00000000000E+00  0.11372453713E+04  0.11372453713E+04  0.00000000000E+00 0.  1.
          2   -1    0    0  501    0  0.00000000000E+00 -0.00000000000E+00 -0.12136319283E+04  0.12136319283E+04  0.00000000000E+00 0. -1.
         23    2    1    2    0    0  0.10934468166E+04  0.74146977119E+02 -0.10466541797E+02  0.10996780328E+04  0.89769217478E+02 0.  0.
    5000000    2    1    2    0    0 -0.10934468166E+04 -0.74146977119E+02 -0.65920015163E+02  0.12511992668E+04  0.60002536777E+03 0.  0.
         23    2    4    4    0    0 -0.11410084721E+03  0.16732952935E+03 -0.85952741468E+02  0.23813614126E+03  0.91119554898E+02 0.  0.
         23    2    4    4    0    0 -0.97934596938E+03 -0.24147650647E+03  0.20032726305E+02  0.10130631256E+04  0.92011712971E+02 0.  0.
          3    1    3    3  502    0  0.79169705302E+03  0.57785774013E+02 -0.47506900642E+02  0.79522344347E+03  0.00000000000E+00 0. -1.
         -3    1    3    3    0  502  0.30174976356E+03  0.16361203106E+02  0.37040358845E+02  0.30445458932E+03  0.00000000000E+00 0.  1.
         11    1    5    5    0    0 -0.77690930095E+02  0.51460075342E+02 -0.73773841196E+01  0.93479654309E+02  0.00000000000E+00 0.  1.
        -11    1    5    5    0    0 -0.36409917113E+02  0.11586945401E+03 -0.78575357348E+02  0.14465648695E+03  0.00000000000E+00 0. -1.
          1    1    6    6  503    0 -0.49512180938E+03 -0.16546587666E+03 -0.81144008081E+01  0.52210191148E+03  0.00000000000E+00 0. -1.
         -1    1    6    6    0  503 -0.48422415999E+03 -0.76010629808E+02  0.28147127113E+02  0.49096121408E+03  0.00000000000E+00 0.  1.
<mgrwt>
<rscale>  0 0.11614161E+04</rscale>
<asrwt>0</asrwt>
<pdfrwt beam="1">  1        2 0.18671260E+00 0.11614161E+04</pdfrwt>
<pdfrwt beam="2">  1       -2 0.17496083E+00 0.11614161E+04</pdfrwt>
<totfact> 0.35633924E+00</totfact>
</mgrwt>
</event>
<event>
12    1  0.1432447E-007  0.4744232E+03  0.7818608E-02  0.1020679E+00
          2   -1    0    0  501    0  0.00000000000E+00  0.00000000000E+00  0.14863149971E+04  0.14863149971E+04  0.00000000000E+00 0.  1.
         -2   -1    0    0    0  501 -0.00000000000E+00 -0.00000000000E+00 -0.19182938906E+03  0.19182938906E+03  0.00000000000E+00 0. -1.
         23    2    1    2    0    0 -0.14741901834E+03 -0.25913813382E+03  0.13685927261E+03  0.34058901850E+03  0.91572264659E+02 0.  0.
    5000000    2    1    2    0    0  0.14741901834E+03  0.25913813382E+03  0.11576263354E+04  0.13375553676E+04  0.60005890518E+03 0.  0.
         23    2    4    4    0    0 -0.12781005974E+03  0.32125469798E+03  0.48688542348E+03  0.60390140173E+03  0.89997194762E+02 0.  0.
         23    2    4    4    0    0  0.27522907807E+03 -0.62116564156E+02  0.67074091191E+03  0.73365396589E+03  0.93516083092E+02 0.  0.
          4    1    3    3  502    0 -0.14455767077E+02 -0.10916011014E+03  0.63779204697E+02  0.12725048448E+03  0.00000000000E+00 0. -1.
         -4    1    3    3    0  502 -0.13296325126E+03 -0.14997802368E+03  0.73080067910E+02  0.21333853402E+03  0.00000000000E+00 0.  1.
         13    1    5    5    0    0 -0.26839483049E+02  0.17601496205E+03  0.27864555251E+03  0.33067350763E+03  0.00000000000E+00 0. -1.
        -13    1    5    5    0    0 -0.10097057669E+03  0.14523973593E+03  0.20823987097E+03  0.27322789409E+03  0.00000000000E+00 0.  1.
          4    1    6    6  503    0  0.23455894870E+03 -0.62306915323E+02  0.47139106699E+03  0.53019768969E+03  0.00000000000E+00 0. -1.
         -4    1    6    6    0  503  0.40670129375E+02  0.19035116704E+00  0.19934984491E+03  0.20345627620E+03  0.00000000000E+00 0.  1.
<mgrwt>
<rscale>  0 0.47442321E+03</rscale>
<asrwt>0</asrwt>
<pdfrwt beam="1">  1        2 0.22866384E+00 0.47442321E+03</pdfrwt>
<pdfrwt beam="2">  1       -2 0.29512215E-01 0.47442321E+03</pdfrwt>
<totfact> 0.14280210E+02</totfact>
</mgrwt>
</event>
<event>
12    1  0.1432447E-007  0.6068371E+03  0.7818608E-02  0.9891322E-01
          1   -1    0    0  501    0  0.00000000000E+00  0.00000000000E+00  0.16801404597E+04  0.16801404597E+04  0.00000000000E+00 0. -1.
         -1   -1    0    0    0  501 -0.00000000000E+00 -0.00000000000E+00 -0.27972094903E+03  0.27972094903E+03  0.00000000000E+00 0.  1.
         23    2    1    2    0    0 -0.50672631532E+03  0.50303902200E+02  0.86581461829E+03  0.10083657112E+04  0.88681525883E+02 0.  0.
    5000000    2    1    2    0    0  0.50672631532E+03 -0.50303902200E+02  0.53460489236E+03  0.95149569753E+03  0.60019965867E+03 0.  0.
         23    2    4    4    0    0  0.14148318614E+03  0.20655577723E+03  0.23871788594E+02  0.26691811364E+03  0.89401543790E+02 0.  0.
         23    2    4    4    0    0  0.36524312918E+03 -0.25685967943E+03  0.51073310377E+03  0.68457758389E+03  0.91753619755E+02 0.  0.
          4    1    3    3  502    0 -0.95381120029E+02 -0.22165657042E+02  0.19360576634E+03  0.21696098075E+03  0.00000000000E+00 0. -1.
         -4    1    3    3    0  502 -0.41134519529E+03  0.72469559242E+02  0.67220885195E+03  0.79140473043E+03  0.00000000000E+00 0.  1.
         13    1    5    5    0    0  0.17055238197E+02  0.23011805898E+02  0.34595767549E+02  0.44914268256E+02  0.00000000000E+00 0. -1.
        -13    1    5    5    0    0  0.12442794794E+03  0.18354397134E+03 -0.10723978955E+02  0.22200384539E+03  0.00000000000E+00 0.  1.
          4    1    6    6  503    0  0.11511593652E+03 -0.63009316508E+02  0.21239659613E+03  0.24966811341E+03  0.00000000000E+00 0. -1.
         -4    1    6    6    0  503  0.25012719267E+03 -0.19385036293E+03  0.29833650764E+03  0.43490947048E+03  0.00000000000E+00 0.  1.
<mgrwt>
<rscale>  0 0.60683714E+03</rscale>
<asrwt>0</asrwt>
<pdfrwt beam="1">  1        1 0.25848314E+00 0.60683714E+03</pdfrwt>
<pdfrwt beam="2">  1       -1 0.43033993E-01 0.60683714E+03</pdfrwt>
<totfact> 0.27634246E+01</totfact>
</mgrwt>
</event>
<event>
12    1  0.1432447E-007  0.8020750E+03  0.7818608E-02  0.9557018E-01
         -2   -1    0    0    0  501 -0.00000000000E+00  0.00000000000E+00  0.69800552584E+03  0.69800552584E+03  0.00000000000E+00 0.  1.
          2   -1    0    0  501    0  0.00000000000E+00 -0.00000000000E+00 -0.10356555325E+04  0.10356555325E+04  0.00000000000E+00 0. -1.
         23    2    1    2    0    0 -0.67518360801E+03 -0.18557713496E+03 -0.39683538771E+03  0.80973527140E+03  0.88775600636E+02 0.  0.
    5000000    2    1    2    0    0  0.67518360801E+03  0.18557713496E+03  0.59185381021E+02  0.92392578697E+03  0.59985345956E+03 0.  0.
         23    2    4    4    0    0  0.21793358716E+03 -0.19912395309E+03  0.81905976774E+02  0.31926200246E+03  0.89856775377E+02 0.  0.
         23    2    4    4    0    0  0.45725002086E+03  0.38470108805E+03 -0.22720595753E+02  0.60466378451E+03  0.89607801575E+02 0.  0.
          3    1    3    3  502    0 -0.31146092462E+03 -0.12631777609E+03 -0.16566814649E+03  0.37471325421E+03  0.00000000000E+00 0. -1.
         -3    1    3    3    0  502 -0.36372268339E+03 -0.59259358871E+02 -0.23116724122E+03  0.43502201719E+03  0.00000000000E+00 0.  1.
         13    1    5    5    0    0  0.34482759344E+02 -0.25699499936E+02 -0.19484004384E+02  0.47213890072E+02  0.00000000000E+00 0.  1.
        -13    1    5    5    0    0  0.18345082781E+03 -0.17342445315E+03  0.10138998116E+03  0.27204811239E+03  0.00000000000E+00 0. -1.
          2    1    6    6  503    0  0.18362998515E+03  0.99540385691E+02 -0.14498063709E+02  0.20937634461E+03  0.00000000000E+00 0. -1.
         -2    1    6    6    0  503  0.27362003571E+03  0.28516070236E+03 -0.82225320439E+01  0.39528743990E+03  0.00000000000E+00 0.  1.
<mgrwt>
<rscale>  0 0.80207504E+03</rscale>
<asrwt>0</asrwt>
<pdfrwt beam="1">  1        2 0.15933162E+00 0.80207504E+03</pdfrwt>
<pdfrwt beam="2">  1       -2 0.10738547E+00 0.80207504E+03</pdfrwt>
<totfact> 0.16836825E+01</totfact>
</mgrwt>
</event>
<event>
12    1  0.1432447E-007  0.7917030E+03  0.7818608E-02  0.9572105E-01
         -2   -1    0    0    0  501 -0.00000000000E+00  0.00000000000E+00  0.14851827949E+04  0.14851827949E+04  0.00000000000E+00 0. -1.
          2   -1    0    0  501    0  0.00000000000E+00 -0.00000000000E+00 -0.42784091660E+03  0.42784091660E+03  0.00000000000E+00 0.  1.
         23    2    1    2    0    0  0.67871512006E+03  0.35358375711E+02  0.50526245041E+03  0.85133709959E+03  0.87064828826E+02 0.  0.
    5000000    2    1    2    0    0 -0.67871512006E+03 -0.35358375711E+02  0.55207942789E+03  0.10616866119E+04  0.60040181402E+03 0.  0.
         23    2    4    4    0    0 -0.16637411617E+03  0.24936312908E+03  0.16934740838E+03  0.35602962327E+03  0.90643429144E+02 0.  0.
         23    2    4    4    0    0 -0.51234100389E+03 -0.28472150479E+03  0.38273201952E+03  0.70565698864E+03  0.88928889028E+02 0.  0.
          3    1    3    3  502    0  0.61416305504E+03  0.64108437553E+01  0.45989831805E+03  0.76729643557E+03  0.00000000000E+00 0. -1.
         -3    1    3    3    0  502  0.64552065023E+02  0.28947531956E+02  0.45364132364E+02  0.84040664028E+02  0.00000000000E+00 0.  1.
         11    1    5    5    0    0  0.16590112607E+01  0.40274227686E+02  0.44861169179E+02  0.60309951369E+02  0.00000000000E+00 0. -1.
        -11    1    5    5    0    0 -0.16803312743E+03  0.20908890139E+03  0.12448623920E+03  0.29571967190E+03  0.00000000000E+00 0.  1.
          3    1    6    6  503    0 -0.28699274588E+03 -0.12143766470E+03  0.23707157870E+03  0.39155443558E+03  0.00000000000E+00 0. -1.
         -3    1    6    6    0  503 -0.22534825801E+03 -0.16328384009E+03  0.14566044082E+03  0.31410255307E+03  0.00000000000E+00 0.  1.
<mgrwt>
<rscale>  0 0.79170303E+03</rscale>
<asrwt>0</asrwt>
<pdfrwt beam="1">  1        2 0.65821680E-01 0.79170303E+03</pdfrwt>
<pdfrwt beam="2">  1       -2 0.22848966E+00 0.79170303E+03</pdfrwt>
<totfact> 0.65611826E+00</totfact>
</mgrwt>
</event>
<event>
12    1  0.1432447E-007  0.4977232E+03  0.7818608E-02  0.1014375E+00
         -1   -1    0    0    0  501 -0.00000000000E+00  0.00000000000E+00  0.16418432414E+04  0.16418432414E+04  0.00000000000E+00 0.  1.
          1   -1    0    0  501    0  0.00000000000E+00 -0.00000000000E+00 -0.23701763795E+03  0.23701763795E+03  0.00000000000E+00 0. -1.
         23    2    1    2    0    0  0.36734082218E+03 -0.29191678276E+03  0.43587282362E+03  0.64631384053E+03  0.87073385099E+02 0.  0.
    5000000    2    1    2    0    0 -0.36734082218E+03  0.29191678276E+03  0.96895277979E+03  0.12325470388E+04  0.60012334202E+03 0.  0.
         23    2    4    4    0    0 -0.34389077465E+03  0.16324201394E+03  0.99627439237E+03  0.10707742003E+04  0.95320003628E+02 0.  0.
         23    2    4    4    0    0 -0.23450047533E+02  0.12867476882E+03 -0.27321612584E+02  0.16177283849E+03  0.91196929223E+02 0.  0.
          1    1    3    3  502    0  0.13193475292E+03 -0.13945290518E+03  0.13310648669E+03  0.23360485567E+03  0.00000000000E+00 0. -1.
         -1    1    3    3    0  502  0.23540606925E+03 -0.15246387758E+03  0.30276633692E+03  0.41270898486E+03  0.00000000000E+00 0.  1.
         13    1    5    5    0    0 -0.16017612586E+03  0.12824605159E+03  0.53878023769E+03  0.57653064582E+03  0.00000000000E+00 0.  1.
        -13    1    5    5    0    0 -0.18371464878E+03  0.34995962348E+02  0.45749415469E+03  0.49424355447E+03  0.00000000000E+00 0. -1.
          1    1    6    6  503    0 -0.32289389762E+01  0.16033321592E+02 -0.43239266946E+02  0.46229078016E+02  0.00000000000E+00 0. -1.
         -1    1    6    6    0  503 -0.20221108557E+02  0.11264144722E+03  0.15917654362E+02  0.11554376047E+03  0.00000000000E+00 0.  1.
<mgrwt>
<rscale>  0 0.49772325E+03</rscale>
<asrwt>0</asrwt>
<pdfrwt beam="1">  1        1 0.36464253E-01 0.49772325E+03</pdfrwt>
<pdfrwt beam="2">  1       -1 0.25259126E+00 0.49772325E+03</pdfrwt>
<totfact> 0.86076986E+00</totfact>
</mgrwt>
</event>
<event>
12    1  0.1432447E-007  0.7727133E+03  0.7818608E-02  0.9600375E-01
         -2   -1    0    0    0  501 -0.00000000000E+00  0.00000000000E+00  0.43173022263E+03  0.43173022263E+03  0.00000000000E+00 0.  1.
          2   -1    0    0  501    0  0.00000000000E+00 -0.00000000000E+00 -0.15005442911E+04  0.15005442911E+04  0.00000000000E+00 0. -1.
         23    2    1    2    0    0 -0.64299851606E+03  0.21579787064E+03 -0.60987184302E+03  0.91671225671E+03  0.91661791716E+02 0.  0.
    5000000    2    1    2    0    0  0.64299851606E+03 -0.21579787064E+03 -0.45894222542E+03  0.10155622570E+04  0.60060213032E+03 0.  0.
         23    2    4    4    0    0  0.38790208464E+03 -0.38727688266E+03 -0.41171308855E+03  0.69135742487E+03  0.89532175935E+02 0.  0.
         23    2    4    4    0    0  0.25509643142E+03  0.17147901202E+03 -0.47229136869E+02  0.32420483213E+03  0.91645735970E+02 0.  0.
          1    1    3    3  502    0 -0.36265569836E+03  0.84647497049E+02 -0.29385681313E+03  0.47437978555E+03  0.00000000000E+00 0. -1.
         -1    1    3    3    0  502 -0.28034281770E+03  0.13115037359E+03 -0.31601502989E+03  0.44233247117E+03  0.00000000000E+00 0.  1.
         13    1    5    5    0    0  0.19587740241E+03 -0.15800887149E+03 -0.23302469929E+03  0.34297998590E+03  0.00000000000E+00 0. -1.
        -13    1    5    5    0    0  0.19202468223E+03 -0.22926801116E+03 -0.17868838926E+03  0.34837743897E+03  0.00000000000E+00 0.  1.
          4    1    6    6  503    0  0.78656944029E+02  0.22339359263E+02  0.18852043333E+02  0.83912819963E+02  0.00000000000E+00 0. -1.
         -4    1    6    6    0  503  0.17643948739E+03  0.14913965276E+03 -0.66081180201E+02  0.24029201217E+03  0.00000000000E+00 0.  1.
<mgrwt>
<rscale>  0 0.77271333E+03</rscale>
<asrwt>0</asrwt>
<pdfrwt beam="1">  1        2 0.23085298E+00 0.77271333E+03</pdfrwt>
<pdfrwt beam="2">  1       -2 0.66420032E-01 0.77271333E+03</pdfrwt>
<totfact> 0.26982122E+01</totfact>
</mgrwt>
</event>
<event>
12    1  0.1432447E-007  0.1130440E+04  0.7818608E-02  0.9176021E-01
         -1   -1    0    0    0  501 -0.00000000000E+00  0.00000000000E+00  0.81225598280E+03  0.81225598280E+03  0.00000000000E+00 0. -1.
          1   -1    0    0  501    0  0.00000000000E+00 -0.00000000000E+00 -0.17364045510E+04  0.17364045510E+04  0.00000000000E+00 0.  1.
         23    2    1    2    0    0  0.51271337323E+03 -0.98412535219E+03 -0.44943832809E+03  0.12006372214E+04  0.90317300918E+02 0.  0.
    5000000    2    1    2    0    0 -0.51271337323E+03  0.98412535219E+03 -0.47471024015E+03  0.13480233124E+04  0.60036599402E+03 0.  0.
         23    2    4    4    0    0 -0.33281985588E+03  0.36118166406E+03 -0.48080892596E+03  0.69347371523E+03  0.92235131625E+02 0.  0.
         23    2    4    4    0    0 -0.17989351735E+03  0.62294368812E+03  0.60986858159E+01  0.65454959717E+03  0.89316655953E+02 0.  0.
          2    1    3    3  502    0  0.16058217215E+03 -0.40351289232E+03 -0.17679927699E+03  0.46890006677E+03  0.00000000000E+00 0. -1.
         -2    1    3    3    0  502  0.35213120108E+03 -0.58061245987E+03 -0.27263905110E+03  0.73173715466E+03  0.00000000000E+00 0.  1.
         11    1    5    5    0    0 -0.24746879548E+03  0.20585418249E+03 -0.29365181284E+03  0.43571566000E+03  0.00000000000E+00 0.  1.
        -11    1    5    5    0    0 -0.85351060401E+02  0.15532748158E+03 -0.18715711312E+03  0.25775805523E+03  0.00000000000E+00 0. -1.
          2    1    6    6  503    0 -0.17295007086E+03  0.59600173762E+03 -0.13133394331E+02  0.62072722214E+03  0.00000000000E+00 0. -1.
         -2    1    6    6    0  503 -0.69434464909E+01  0.26941950503E+02  0.19232080147E+02  0.33822375033E+02  0.00000000000E+00 0.  1.
<mgrwt>
<rscale>  0 0.11304396E+04</rscale>
<asrwt>0</asrwt>
<pdfrwt beam="1">  1        1 0.26713916E+00 0.11304396E+04</pdfrwt>
<pdfrwt beam="2">  1       -1 0.12496246E+00 0.11304396E+04</pdfrwt>
<totfact> 0.24982349E+00</totfact>
</mgrwt>
</event>
<event>
12    1  0.1432447E-007  0.1828252E+04  0.7818608E-02  0.8691418E-01
          2   -1    0    0  501    0  0.00000000000E+00  0.00000000000E+00  0.14112912091E+04  0.14112912091E+04  0.00000000000E+00 0. -1.
         -2   -1    0    0    0  501 -0.00000000000E+00 -0.00000000000E+00 -0.27540070769E+04  0.27540070769E+04  0.00000000000E+00 0.  1.
         23    2    1    2    0    0  0.16612817026E+04 -0.63549888214E+03 -0.14331059285E+04  0.22859051649E+04  0.88623336378E+02 0.  0.
    5000000    2    1    2    0    0 -0.16612817026E+04  0.63549888214E+03  0.90390060655E+02  0.18793931212E+04  0.60019364890E+03 0.  0.
         23    2    4    4    0    0 -0.99121165767E+03  0.66957362024E+03  0.40278747754E+02  0.12004105308E+04  0.92377928366E+02 0.  0.
         23    2    4    4    0    0 -0.67007004496E+03 -0.34074738099E+02  0.50111312901E+02  0.67898259041E+03  0.91385236576E+02 0.  0.
          4    1    3    3  502    0  0.12320876835E+04 -0.42957099913E+03 -0.10447297536E+04  0.16715356895E+04  0.00000000000E+00 0. -1.
         -4    1    3    3    0  502  0.42919401909E+03 -0.20592788302E+03 -0.38837617492E+03  0.61436947537E+03  0.00000000000E+00 0.  1.
         11    1    5    5    0    0 -0.32928132622E+03  0.27427233635E+03  0.25044302433E+02  0.42927697745E+03  0.00000000000E+00 0. -1.
        -11    1    5    5    0    0 -0.66193033145E+03  0.39530128389E+03  0.15234445321E+02  0.77113355332E+03  0.00000000000E+00 0.  1.
          4    1    6    6  503    0 -0.37851558056E+03  0.22226924134E+02  0.46604396507E+02  0.38202100814E+03  0.00000000000E+00 0.  1.
         -4    1    6    6    0  503 -0.29155446440E+03 -0.56301662233E+02  0.35069163942E+01  0.29696158227E+03  0.00000000000E+00 0. -1.
<mgrwt>
<rscale>  0 0.18282516E+04</rscale>
<asrwt>0</asrwt>
<pdfrwt beam="1">  1        2 0.21712173E+00 0.18282516E+04</pdfrwt>
<pdfrwt beam="2">  1       -2 0.42369339E+00 0.18282516E+04</pdfrwt>
<totfact> 0.67171579E-02</totfact>
</mgrwt>
</event>
<event>
12    1  0.1432447E-007  0.5012779E+03  0.7818608E-02  0.1013446E+00
          1   -1    0    0  501    0  0.00000000000E+00  0.00000000000E+00  0.25223181658E+04  0.25223181658E+04  0.00000000000E+00 0. -1.
         -1   -1    0    0    0  501 -0.00000000000E+00 -0.00000000000E+00 -0.11745654884E+03  0.11745654884E+03  0.00000000000E+00 0.  1.
         23    2    1    2    0    0 -0.61889796463E+02 -0.35135126856E+03  0.10946131577E+04  0.11551946328E+04  0.94966382020E+02 0.  0.
    5000000    2    1    2    0    0  0.61889796463E+02  0.35135126856E+03  0.13102484593E+04  0.14845800819E+04  0.59995744328E+03 0.  0.
         23    2    4    4    0    0 -0.22992396399E+03  0.18129630875E+03  0.36772158812E+03  0.47925254025E+03  0.93436878073E+02 0.  0.
         23    2    4    4    0    0  0.29181376045E+03  0.17005495981E+03  0.94252687115E+03  0.10053275417E+04  0.90843838687E+02 0.  0.
          2    1    3    3  502    0 -0.44955430709E+02 -0.19803941574E+03  0.76133544260E+03  0.78795447654E+03  0.00000000000E+00 0. -1.
         -2    1    3    3    0  502 -0.16934365754E+02 -0.15331185282E+03  0.33327771514E+03  0.36724015625E+03  0.00000000000E+00 0.  1.
         13    1    5    5    0    0 -0.10967805218E+03  0.30164446878E+02  0.14920736334E+03  0.18762197702E+03  0.00000000000E+00 0. -1.
        -13    1    5    5    0    0 -0.12024591181E+03  0.15113186187E+03  0.21851422477E+03  0.29163056323E+03  0.00000000000E+00 0.  1.
          1    1    6    6  503    0  0.20123571639E+03  0.12792644793E+03  0.53499590246E+03  0.58573168369E+03  0.00000000000E+00 0. -1.
         -1    1    6    6    0  503  0.90578044055E+02  0.42128511884E+02  0.40753096869E+03  0.41959585797E+03  0.00000000000E+00 0.  1.
<mgrwt>
<rscale>  0 0.50127789E+03</rscale>
<asrwt>0</asrwt>
<pdfrwt beam="1">  1        1 0.38804891E+00 0.50127789E+03</pdfrwt>
<pdfrwt beam="2">  1       -1 0.18070240E-01 0.50127789E+03</pdfrwt>
<totfact> 0.34458790E+01</totfact>
</mgrwt>
</event>
<event>
12    1  0.1432447E-007  0.1034583E+04  0.7818608E-02  0.9271407E-01
          2   -1    0    0  501    0  0.00000000000E+00  0.00000000000E+00  0.24671019425E+04  0.24671019425E+04  0.00000000000E+00 0. -1.
         -2   -1    0    0    0  501 -0.00000000000E+00 -0.00000000000E+00 -0.46672965564E+03  0.46672965564E+03  0.00000000000E+00 0.  1.
         23    2    1    2    0    0  0.29637740240E+03 -0.92767172925E+03  0.11424535424E+04  0.15039714940E+04  0.91190767481E+02 0.  0.
    5000000    2    1    2    0    0 -0.29637740240E+03  0.92767172925E+03  0.85791874446E+03  0.14298601042E+04  0.60005078422E+03 0.  0.
         23    2    4    4    0    0 -0.21626808098E+03  0.93204009339E+02  0.40966541185E+02  0.25567195090E+03  0.90724962247E+02 0.  0.
         23    2    4    4    0    0 -0.80109321420E+02  0.83446771991E+03  0.81695220327E+03  0.11741881533E+04  0.92482636228E+02 0.  0.
          3    1    3    3  502    0  0.13084665595E+03 -0.34292343818E+03  0.49151991668E+03  0.61344042932E+03  0.00000000000E+00 0. -1.
         -3    1    3    3    0  502  0.16553074645E+03 -0.58474829108E+03  0.65093362576E+03  0.89053106463E+03  0.00000000000E+00 0.  1.
         11    1    5    5    0    0 -0.15157336027E+03  0.17928304278E+02  0.17087287450E+02  0.15358347252E+03  0.00000000000E+00 0.  1.
        -11    1    5    5    0    0 -0.64694720704E+02  0.75275705061E+02  0.23879253735E+02  0.10208847838E+03  0.00000000000E+00 0. -1.
          2    1    6    6  503    0  0.69193004107E+01  0.36400851923E+03  0.37962899921E+03  0.52599263858E+03  0.00000000000E+00 0.  1.
         -2    1    6    6    0  503 -0.87028621831E+02  0.47045920068E+03  0.43732320406E+03  0.64819551474E+03  0.00000000000E+00 0. -1.
<mgrwt>
<rscale>  0 0.10345832E+04</rscale>
<asrwt>0</asrwt>
<pdfrwt beam="1">  1        2 0.37955414E+00 0.10345832E+04</pdfrwt>
<pdfrwt beam="2">  1       -2 0.71804564E-01 0.10345832E+04</pdfrwt>
<totfact> 0.64319913E+00</totfact>
</mgrwt>
</event>
<event>
12    1  0.1432447E-007  0.4720099E+03  0.7818608E-02  0.1021354E+00
         -2   -1    0    0    0  501 -0.00000000000E+00  0.00000000000E+00  0.14319038926E+03  0.14319038926E+03  0.00000000000E+00 0.  1.
          2   -1    0    0  501    0  0.00000000000E+00 -0.00000000000E+00 -0.20373498564E+04  0.20373498564E+04  0.00000000000E+00 0. -1.
         23    2    1    2    0    0 -0.19094830772E+03  0.28444042923E+03 -0.40142507861E+03  0.53558014751E+03  0.91303815174E+02 0.  0.
    5000000    2    1    2    0    0  0.19094830772E+03 -0.28444042923E+03 -0.14927343886E+04  0.16449600982E+04  0.60022508761E+03 0.  0.
         23    2    4    4    0    0 -0.14882341701E+03 -0.16296536708E+03 -0.24321160820E+03  0.34097023004E+03  0.91666193842E+02 0.  0.
         23    2    4    4    0    0  0.33977172473E+03 -0.12147506215E+03 -0.12495227804E+04  0.13039898681E+04  0.94241083981E+02 0.  0.
          1    1    3    3  502    0 -0.15365665931E+03  0.15242466659E+03 -0.26437243505E+03  0.34166713677E+03  0.00000000000E+00 0. -1.
         -1    1    3    3    0  502 -0.37291648418E+02  0.13201576264E+03 -0.13705264356E+03  0.19391301074E+03  0.00000000000E+00 0.  1.
         13    1    5    5    0    0 -0.95695509225E+02 -0.11149650953E+03 -0.21785697412E+03  0.26277511924E+03  0.00000000000E+00 0. -1.
        -13    1    5    5    0    0 -0.53127907786E+02 -0.51468857548E+02 -0.25354634085E+02  0.78195110797E+02  0.00000000000E+00 0.  1.
          1    1    6    6  503    0  0.54347355084E+02 -0.53141960521E+02 -0.19205391233E+03  0.20654880347E+03  0.00000000000E+00 0. -1.
         -1    1    6    6    0  503  0.28542436965E+03 -0.68333101632E+02 -0.10574688680E+04  0.10974410647E+04  0.00000000000E+00 0.  1.
<mgrwt>
<rscale>  0 0.47200987E+03</rscale>
<asrwt>0</asrwt>
<pdfrwt beam="1">  1        2 0.31343843E+00 0.47200987E+03</pdfrwt>
<pdfrwt beam="2">  1       -2 0.22029291E-01 0.47200987E+03</pdfrwt>
<totfact> 0.12184628E+02</totfact>
</mgrwt>
</event>
<event>
12    1  0.1432447E-007  0.5349211E+03  0.7818608E-02  0.1005046E+00
          2   -1    0    0  501    0  0.00000000000E+00  0.00000000000E+00  0.18786955078E+04  0.18786955078E+04  0.00000000000E+00 0. -1.
         -2   -1    0    0    0  501 -0.00000000000E+00 -0.00000000000E+00 -0.17138296490E+03  0.17138296490E+03  0.00000000000E+00 0.  1.
         23    2    1    2    0    0 -0.23116611713E+03  0.32500875207E+03  0.52565193883E+03  0.66610843107E+03  0.91225098055E+02 0.  0.
    5000000    2    1    2    0    0  0.23116611713E+03 -0.32500875207E+03  0.11816606041E+04  0.13839700417E+04  0.59998569175E+03 0.  0.
         23    2    4    4    0    0  0.29393283697E+03  0.27692027509E+02  0.78054437628E+03  0.83947653019E+03  0.91148013479E+02 0.  0.
         23    2    4    4    0    0 -0.62766719845E+02 -0.35270077958E+03  0.40111622784E+03  0.54449351148E+03  0.85096737759E+02 0.  0.
          3    1    3    3  502    0 -0.76713817215E+02  0.18220304933E+03  0.27894574703E+03  0.34189719321E+03  0.00000000000E+00 0. -1.
         -3    1    3    3    0  502 -0.15445229991E+03  0.14280570274E+03  0.24670619180E+03  0.32421123787E+03  0.00000000000E+00 0.  1.
         11    1    5    5    0    0  0.21090641256E+03 -0.12467395376E+02  0.46533816454E+03  0.51105435932E+03  0.00000000000E+00 0.  1.
        -11    1    5    5    0    0  0.83026424409E+02  0.40159422884E+02  0.31520621175E+03  0.32842217087E+03  0.00000000000E+00 0. -1.
          1    1    6    6  503    0 -0.47574405785E+02 -0.25226653990E+03  0.33970801104E+03  0.42579720995E+03  0.00000000000E+00 0. -1.
         -1    1    6    6    0  503 -0.15192314060E+02 -0.10043423969E+03  0.61408216797E+02  0.11869630153E+03  0.00000000000E+00 0.  1.
<mgrwt>
<rscale>  0 0.53492105E+03</rscale>
<asrwt>0</asrwt>
<pdfrwt beam="1">  1        2 0.28903006E+00 0.53492105E+03</pdfrwt>
<pdfrwt beam="2">  1       -2 0.26366611E-01 0.53492105E+03</pdfrwt>
<totfact> 0.10663207E+02</totfact>
</mgrwt>
</event>
<event>
12    1  0.1432447E-007  0.9098466E+03  0.7818608E-02  0.9413356E-01
          1   -1    0    0  501    0  0.00000000000E+00  0.00000000000E+00  0.94609159379E+03  0.94609159379E+03  0.00000000000E+00 0. -1.
         -1   -1    0    0    0  501 -0.00000000000E+00 -0.00000000000E+00 -0.93969065827E+03  0.93969065827E+03  0.00000000000E+00 0.  1.
         23    2    1    2    0    0  0.30380092976E+03  0.78408272877E+03 -0.77108489751E+02  0.84942279041E+03  0.92155451194E+02 0.  0.
    5000000    2    1    2    0    0 -0.30380092976E+03 -0.78408272877E+03  0.83509425272E+02  0.10363594617E+04  0.59998864920E+03 0.  0.
         23    2    4    4    0    0 -0.11205552658E+03  0.35367821753E+02  0.11617808482E+03  0.18914020261E+03  0.92029044329E+02 0.  0.
         23    2    4    4    0    0 -0.19174540318E+03 -0.81945055053E+03 -0.32668659551E+02  0.84721925904E+03  0.91911518155E+02 0.  0.
          4    1    3    3  502    0  0.20142436472E+03  0.49663520185E+03 -0.92720786816E+02  0.54388918239E+03  0.00000000000E+00 0. -1.
         -4    1    3    3    0  502  0.10237656504E+03  0.28744752692E+03  0.15612297065E+02  0.30553360801E+03  0.00000000000E+00 0.  1.
         13    1    5    5    0    0 -0.40602767417E+01 -0.15221251509E+02  0.50698114284E+02  0.53089275157E+02  0.00000000000E+00 0.  1.
        -13    1    5    5    0    0 -0.10799524983E+03  0.50589073262E+02  0.65479970540E+02  0.13605092746E+03  0.00000000000E+00 0. -1.
          3    1    6    6  503    0 -0.23896061338E+02 -0.21414718991E+03 -0.39346439035E+02  0.21903922698E+03  0.00000000000E+00 0. -1.
         -3    1    6    6    0  503 -0.16784934185E+03 -0.60530336062E+03  0.66777794833E+01  0.62818003206E+03  0.00000000000E+00 0.  1.
<mgrwt>
<rscale>  0 0.90984665E+03</rscale>
<asrwt>0</asrwt>
<pdfrwt beam="1">  1        1 0.14555255E+00 0.90984665E+03</pdfrwt>
<pdfrwt beam="2">  1       -1 0.14456779E+00 0.90984665E+03</pdfrwt>
<totfact> 0.65116969E+00</totfact>
</mgrwt>
</event>
<event>
12    1  0.1432447E-007  0.1107442E+04  0.7818608E-02  0.9197969E-01
         -1   -1    0    0    0  501 -0.00000000000E+00  0.00000000000E+00  0.76500440539E+03  0.76500440539E+03  0.00000000000E+00 0.  1.
          1   -1    0    0  501    0  0.00000000000E+00 -0.00000000000E+00 -0.20511550361E+04  0.20511550361E+04  0.00000000000E+00 0. -1.
         23    2    1    2    0    0 -0.10702874754E+04  0.29550494892E+00 -0.11627783889E+04  0.15829412244E+04  0.90188529569E+02 0.  0.
    5000000    2    1    2    0    0  0.10702874754E+04 -0.29550494892E+00 -0.12337224186E+03  0.12332182171E+04  0.60007590656E+03 0.  0.
         23    2    4    4    0    0  0.70167956965E+03 -0.16800437940E+03  0.14174859306E+03  0.74093162109E+03  0.91144465251E+02 0.  0.
         23    2    4    4    0    0  0.36860790578E+03  0.16770887445E+03 -0.26512083492E+03  0.49228659604E+03  0.89771826108E+02 0.  0.
          3    1    3    3  502    0 -0.18289059208E+03 -0.30938835490E+02 -0.22213530086E+03  0.28939639269E+03  0.00000000000E+00 0. -1.
         -3    1    3    3    0  502 -0.88739688334E+03  0.31234340439E+02 -0.94064308802E+03  0.12935448317E+04  0.00000000000E+00 0.  1.
         13    1    5    5    0    0  0.29353746640E+03 -0.11423478745E+03  0.76311302977E+02  0.32409450135E+03  0.00000000000E+00 0. -1.
        -13    1    5    5    0    0  0.40814210325E+03 -0.53769591945E+02  0.65437290084E+02  0.41683711974E+03  0.00000000000E+00 0.  1.
          2    1    6    6  503    0  0.10937740548E+03  0.65878241025E+01 -0.70067837844E+02  0.13006274699E+03  0.00000000000E+00 0. -1.
         -2    1    6    6    0  503  0.25923050030E+03  0.16112105035E+03 -0.19505299707E+03  0.36222384904E+03  0.00000000000E+00 0.  1.
<mgrwt>
<rscale>  0 0.11074420E+04</rscale>
<asrwt>0</asrwt>
<pdfrwt beam="1">  1        1 0.31556230E+00 0.11074420E+04</pdfrwt>
<pdfrwt beam="2">  1       -1 0.11769299E+00 0.11074420E+04</pdfrwt>
<totfact> 0.17797478E+00</totfact>
</mgrwt>
</event>
<event>
12    1  0.1432447E-007  0.3522397E+03  0.7818608E-02  0.1061700E+00
          2   -1    0    0  501    0  0.00000000000E+00  0.00000000000E+00  0.22235621392E+04  0.22235621392E+04  0.00000000000E+00 0. -1.
         -2   -1    0    0    0  501 -0.00000000000E+00 -0.00000000000E+00 -0.69232417183E+02  0.69232417183E+02  0.00000000000E+00 0.  1.
         23    2    1    2    0    0  0.10496036307E+03 -0.13197844526E+02  0.72979899740E+03  0.74315956705E+03  0.92134166188E+02 0.  0.
    5000000    2    1    2    0    0 -0.10496036307E+03  0.13197844526E+02  0.14245307246E+04  0.15496349893E+04  0.60074117044E+03 0.  0.
         23    2    4    4    0    0 -0.27536339140E+03 -0.15435517033E+03  0.10119110261E+04  0.10641973605E+04  0.94348192848E+02 0.  0.
         23    2    4    4    0    0  0.17040302833E+03  0.16755301486E+03  0.41261969857E+03  0.48543762884E+03  0.91013575904E+02 0.  0.
          4    1    3    3  502    0  0.89333069761E+02  0.30074699990E+02  0.49571746559E+03  0.50459953491E+03  0.00000000000E+00 0.  1.
         -4    1    3    3    0  502  0.15627293311E+02 -0.43272544516E+02  0.23408153180E+03  0.23856003214E+03  0.00000000000E+00 0. -1.
         11    1    5    5    0    0 -0.16461093954E+03 -0.50755601479E+02  0.63421348400E+03  0.65719071492E+03  0.00000000000E+00 0. -1.
        -11    1    5    5    0    0 -0.11075245187E+03 -0.10359956886E+03  0.37769754206E+03  0.40700664557E+03  0.00000000000E+00 0.  1.
          2    1    6    6  503    0  0.13243287682E+03  0.11455620827E+03  0.36459434507E+03  0.40446338298E+03  0.00000000000E+00 0. -1.
         -2    1    6    6    0  503  0.37970151506E+02  0.52996806594E+02  0.48025353502E+02  0.80974245866E+02  0.00000000000E+00 0.  1.
<mgrwt>
<rscale>  0 0.35223973E+03</rscale>
<asrwt>0</asrwt>
<pdfrwt beam="1">  1        2 0.34208643E+00 0.35223973E+03</pdfrwt>
<pdfrwt beam="2">  1       -2 0.10651143E-01 0.35223973E+03</pdfrwt>
<totfact> 0.33463049E+02</totfact>
</mgrwt>
</event>
<event>
12    1  0.1432447E-007  0.6182691E+03  0.7818608E-02  0.9868212E-01
         -2   -1    0    0    0  501 -0.00000000000E+00  0.00000000000E+00  0.68457496863E+03  0.68457496863E+03  0.00000000000E+00 0.  1.
          2   -1    0    0  501    0  0.00000000000E+00 -0.00000000000E+00 -0.71773713966E+03  0.71773713966E+03  0.00000000000E+00 0. -1.
         23    2    1    2    0    0 -0.14741622971E+03  0.51913267833E+03  0.16563895989E+03  0.57119303160E+03  0.87148906074E+02 0.  0.
    5000000    2    1    2    0    0  0.14741622971E+03 -0.51913267833E+03 -0.19880113092E+03  0.83111907668E+03  0.60000562287E+03 0.  0.
         23    2    4    4    0    0 -0.14125317185E+03 -0.16649697185E+03 -0.27210151823E+03  0.36075659716E+03  0.91828023930E+02 0.  0.
         23    2    4    4    0    0  0.28866940156E+03 -0.35263570647E+03  0.73300387307E+02  0.47036247952E+03  0.90476242650E+02 0.  0.
          2    1    3    3  502    0 -0.65887317009E+01  0.12463362261E+03  0.63525900335E+02  0.14004460462E+03  0.00000000000E+00 0. -1.
         -2    1    3    3    0  502 -0.14082749801E+03  0.39449905571E+03  0.10211305956E+03  0.43114842698E+03  0.00000000000E+00 0.  1.
         11    1    5    5    0    0 -0.11226786696E+03 -0.16456261234E+03 -0.26375347023E+03  0.33053111864E+03  0.00000000000E+00 0.  1.
        -11    1    5    5    0    0 -0.28985304896E+02 -0.19343595130E+01 -0.83480480033E+01  0.30225478525E+02  0.00000000000E+00 0. -1.
          2    1    6    6  503    0  0.25702947413E+03 -0.25544013189E+03  0.59295801045E+02  0.36719178037E+03  0.00000000000E+00 0.  1.
         -2    1    6    6    0  503  0.31639927431E+02 -0.97195574584E+02  0.14004586262E+02  0.10317069915E+03  0.00000000000E+00 0. -1.
<mgrwt>
<rscale>  0 0.61826908E+03</rscale>
<asrwt>0</asrwt>
<pdfrwt beam="1">  1        2 0.11042110E+00 0.61826908E+03</pdfrwt>
<pdfrwt beam="2">  1       -2 0.10531923E+00 0.61826908E+03</pdfrwt>
<totfact> 0.29723544E+01</totfact>
</mgrwt>
</event>
<event>
12    1  0.1432447E-007  0.7905711E+03  0.7818608E-02  0.9573766E-01
          2   -1    0    0  501    0  0.00000000000E+00  0.00000000000E+00  0.75292618174E+03  0.75292618174E+03  0.00000000000E+00 0. -1.
         -2   -1    0    0    0  501 -0.00000000000E+00 -0.00000000000E+00 -0.11402254655E+04  0.11402254655E+04  0.00000000000E+00 0.  1.
         23    2    1    2    0    0 -0.68227310521E+02 -0.68815501626E+03 -0.63634061327E+03  0.94434660517E+03  0.92999152159E+02 0.  0.
    5000000    2    1    2    0    0  0.68227310521E+02  0.68815501626E+03  0.24904132949E+03  0.94880504207E+03  0.59999760979E+03 0.  0.
         23    2    4    4    0    0 -0.19263076575E+03  0.74175862535E+02 -0.14238422007E+02  0.22632575794E+03  0.91716659067E+02 0.  0.
         23    2    4    4    0    0  0.26085807627E+03  0.61397915373E+03  0.26327975150E+03  0.72247928413E+03  0.87422830393E+02 0.  0.
          3    1    3    3  502    0 -0.48257058731E+01 -0.38529466010E+03 -0.39613770725E+03  0.55263038791E+03  0.00000000000E+00 0. -1.
         -3    1    3    3    0  502 -0.63401604648E+02 -0.30286035616E+03 -0.24020290602E+03  0.39171621726E+03  0.00000000000E+00 0.  1.
         13    1    5    5    0    0 -0.52497888783E+02  0.47879434597E+02  0.29876174513E+02  0.77078235498E+02  0.00000000000E+00 0.  1.
        -13    1    5    5    0    0 -0.14013287697E+03  0.26296427938E+02 -0.44114596520E+02  0.14924752245E+03  0.00000000000E+00 0. -1.
          1    1    6    6  503    0  0.24224782866E+03  0.48175124270E+03  0.20788233449E+03  0.57791291327E+03  0.00000000000E+00 0. -1.
         -1    1    6    6    0  503  0.18610247614E+02  0.13222791103E+03  0.55397417012E+02  0.14456637086E+03  0.00000000000E+00 0.  1.
<mgrwt>
<rscale>  0 0.79057114E+03</rscale>
<asrwt>0</asrwt>
<pdfrwt beam="1">  1        2 0.11583480E+00 0.79057114E+03</pdfrwt>
<pdfrwt beam="2">  1       -2 0.17541930E+00 0.79057114E+03</pdfrwt>
<totfact> 0.73779997E+00</totfact>
</mgrwt>
</event>
<event>
12    1  0.1432447E-007  0.7030944E+03  0.7818608E-02  0.9711955E-01
          2   -1    0    0  501    0  0.00000000000E+00  0.00000000000E+00  0.23669944679E+04  0.23669944679E+04  0.00000000000E+00 0. -1.
         -2   -1    0    0    0  501 -0.00000000000E+00 -0.00000000000E+00 -0.22258423641E+03  0.22258423641E+03  0.00000000000E+00 0.  1.
         23    2    1    2    0    0 -0.26584420535E+03 -0.53372357095E+03  0.97137846345E+03  0.11433736982E+04  0.90516864514E+02 0.  0.
    5000000    2    1    2    0    0  0.26584420535E+03  0.53372357095E+03  0.11730317680E+04  0.14462050061E+04  0.59997616547E+03 0.  0.
         23    2    4    4    0    0  0.37061910425E+03  0.16196880277E+03  0.39352881639E+03  0.57151572216E+03  0.90403970250E+02 0.  0.
         23    2    4    4    0    0 -0.10477489890E+03  0.37175476818E+03  0.77950295162E+03  0.87468928392E+03  0.90978594837E+02 0.  0.
          2    1    3    3  502    0 -0.83170146785E+02 -0.15663039372E+03  0.37136836339E+03  0.41153956660E+03  0.00000000000E+00 0. -1.
         -2    1    3    3    0  502 -0.18267405857E+03 -0.37709317724E+03  0.60001010006E+03  0.73183413160E+03  0.00000000000E+00 0.  1.
         13    1    5    5    0    0  0.11322155900E+03  0.95089697857E+02  0.12549572612E+03  0.19393387877E+03  0.00000000000E+00 0. -1.
        -13    1    5    5    0    0  0.25739754525E+03  0.66879104915E+02  0.26803309028E+03  0.37758184339E+03  0.00000000000E+00 0.  1.
          4    1    6    6  503    0 -0.67469344675E+02  0.34122611451E+03  0.70134098682E+03  0.78285793953E+03  0.00000000000E+00 0. -1.
         -4    1    6    6    0  503 -0.37305554225E+02  0.30528653667E+02  0.78161964803E+02  0.91831344391E+02  0.00000000000E+00 0.  1.
<mgrwt>
<rscale>  0 0.70309437E+03</rscale>
<asrwt>0</asrwt>
<pdfrwt beam="1">  1        2 0.36415298E+00 0.70309437E+03</pdfrwt>
<pdfrwt beam="2">  1       -2 0.34243730E-01 0.70309437E+03</pdfrwt>
<totfact> 0.34706911E+01</totfact>
</mgrwt>
</event>
<event>
12    1  0.1432447E-007  0.8883968E+03  0.7818608E-02  0.9440203E-01
          2   -1    0    0  501    0  0.00000000000E+00  0.00000000000E+00  0.28876885687E+04  0.28876885687E+04  0.00000000000E+00 0. -1.
         -2   -1    0    0    0  501 -0.00000000000E+00 -0.00000000000E+00 -0.42717288284E+03  0.42717288284E+03  0.00000000000E+00 0.  1.
         23    2    1    2    0    0  0.10626167665E+03  0.83293008712E+03  0.20230335366E+04  0.21940002071E+04  0.12612749485E+03 0.  0.
    5000000    2    1    2    0    0 -0.10626167665E+03 -0.83293008712E+03  0.43748214933E+03  0.11208612444E+04  0.59989601124E+03 0.  0.
         23    2    4    4    0    0 -0.24363866448E+03 -0.59379386833E+03  0.50598409330E+03  0.82248208912E+03  0.92227584570E+02 0.  0.
         23    2    4    4    0    0  0.13737698783E+03 -0.23913621880E+03 -0.68501943973E+02  0.29837915530E+03  0.90989208493E+02 0.  0.
          3    1    3    3  502    0 -0.15139670478E+02  0.11819704895E+03  0.37708077015E+03  0.39546132456E+03  0.00000000000E+00 0. -1.
         -3    1    3    3    0  502  0.12140134713E+03  0.71473303817E+03  0.16459527664E+04  0.17985388826E+04  0.00000000000E+00 0.  1.
         13    1    5    5    0    0 -0.96835278487E+02 -0.15244577445E+03  0.17614702676E+03  0.25227873541E+03  0.00000000000E+00 0. -1.
        -13    1    5    5    0    0 -0.14680338599E+03 -0.44134809388E+03  0.32983706654E+03  0.57020335371E+03  0.00000000000E+00 0.  1.
          2    1    6    6  503    0  0.90991641681E+02 -0.79935992568E+02 -0.63133972170E+01  0.12128108158E+03  0.00000000000E+00 0. -1.
         -2    1    6    6    0  503  0.46385346151E+02 -0.15920022623E+03 -0.62188546756E+02  0.17709807372E+03  0.00000000000E+00 0.  1.
<mgrwt>
<rscale>  0 0.88839685E+03</rscale>
<asrwt>0</asrwt>
<pdfrwt beam="1">  1        2 0.44425977E+00 0.88839685E+03</pdfrwt>
<pdfrwt beam="2">  1       -2 0.65718907E-01 0.88839685E+03</pdfrwt>
<totfact> 0.45195407E+00</totfact>
</mgrwt>
</event>
<event>
12    1  0.1432447E-007  0.6964062E+03  0.7818608E-02  0.9723398E-01
         -2   -1    0    0    0  501 -0.00000000000E+00  0.00000000000E+00  0.82958657461E+03  0.82958657461E+03  0.00000000000E+00 0. -1.
          2   -1    0    0  501    0  0.00000000000E+00 -0.00000000000E+00 -0.90884291006E+03  0.90884291006E+03  0.00000000000E+00 0.  1.
         23    2    1    2    0    0  0.40667909524E+03  0.41775377662E+03  0.45545661263E+03  0.74541833968E+03  0.91113504844E+02 0.  0.
    5000000    2    1    2    0    0 -0.40667909524E+03 -0.41775377662E+03 -0.53471294808E+03  0.99301114499E+03  0.60020587540E+03 0.  0.
         23    2    4    4    0    0  0.11062689636E+03 -0.21498683826E+03 -0.25984330063E+03  0.36638517614E+03  0.90895025118E+02 0.  0.
         23    2    4    4    0    0 -0.51730599160E+03 -0.20276693835E+03 -0.27486964745E+03  0.62662596885E+03  0.91579809574E+02 0.  0.
          1    1    3    3  502    0  0.15792895076E+03  0.21732885259E+03  0.17770088953E+03  0.32210400462E+03  0.00000000000E+00 0. -1.
         -1    1    3    3    0  502  0.24875014448E+03  0.20042492403E+03  0.27775572311E+03  0.42331433506E+03  0.00000000000E+00 0.  1.
         13    1    5    5    0    0  0.84063865195E+02 -0.16325521247E+03 -0.24534444658E+03  0.30645210931E+03  0.00000000000E+00 0.  1.
        -13    1    5    5    0    0  0.26563031164E+02 -0.51731625791E+02 -0.14498854048E+02  0.59933066835E+02  0.00000000000E+00 0. -1.
          1    1    6    6  503    0 -0.26231798648E+03 -0.15123149979E+03 -0.15592712256E+03  0.34058032842E+03  0.00000000000E+00 0. -1.
         -1    1    6    6    0  503 -0.25498800511E+03 -0.51535438561E+02 -0.11894252489E+03  0.28604564043E+03  0.00000000000E+00 0.  1.
<mgrwt>
<rscale>  0 0.69640625E+03</rscale>
<asrwt>0</asrwt>
<pdfrwt beam="1">  1        2 0.13982199E+00 0.69640625E+03</pdfrwt>
<pdfrwt beam="2">  1       -2 0.12762870E+00 0.69640625E+03</pdfrwt>
<totfact> 0.13453052E+01</totfact>
</mgrwt>
</event>
<event>
12    1  0.1432447E-007  0.6173192E+03  0.7818608E-02  0.9870112E-01
          2   -1    0    0  501    0  0.00000000000E+00  0.00000000000E+00  0.14079957037E+04  0.14079957037E+04  0.00000000000E+00 0. -1.
         -2   -1    0    0    0  501 -0.00000000000E+00 -0.00000000000E+00 -0.29159414955E+03  0.29159414955E+03  0.00000000000E+00 0.  1.
         23    2    1    2    0    0  0.40657259835E+03 -0.28116263121E+03  0.48064942198E+03  0.69534244076E+03  0.90130683757E+02 0.  0.
    5000000    2    1    2    0    0 -0.40657259835E+03  0.28116263121E+03  0.63575213217E+03  0.10042474125E+04  0.59998199056E+03 0.  0.
         23    2    4    4    0    0 -0.12537574076E+03  0.40510174238E+03  0.48741545750E+03  0.65260987483E+03  0.92191770107E+02 0.  0.
         23    2    4    4    0    0 -0.28119685759E+03 -0.12393911116E+03  0.14833667467E+03  0.35163753765E+03  0.84927103086E+02 0.  0.
          2    1    3    3  502    0  0.29458349578E+03 -0.15433272034E+03  0.30085283957E+03  0.44845340408E+03  0.00000000000E+00 0. -1.
         -2    1    3    3    0  502  0.11198910257E+03 -0.12682991088E+03  0.17979658241E+03  0.24688903668E+03  0.00000000000E+00 0.  1.
         13    1    5    5    0    0 -0.11383089367E+03  0.33844193140E+03  0.35287095353E+03  0.50201426586E+03  0.00000000000E+00 0. -1.
        -13    1    5    5    0    0 -0.11544847097E+02  0.66659810972E+02  0.13454450397E+03  0.15059560897E+03  0.00000000000E+00 0.  1.
          4    1    6    6  503    0 -0.14229998851E+03 -0.75250770061E+02  0.32219768277E+02  0.16416479097E+03  0.00000000000E+00 0. -1.
         -4    1    6    6    0  503 -0.13889686907E+03 -0.48688341102E+02  0.11611690639E+03  0.18747274668E+03  0.00000000000E+00 0.  1.
<mgrwt>
<rscale>  0 0.61731920E+03</rscale>
<asrwt>0</asrwt>
<pdfrwt beam="1">  1        2 0.21661472E+00 0.61731920E+03</pdfrwt>
<pdfrwt beam="2">  1       -2 0.44860639E-01 0.61731920E+03</pdfrwt>
<totfact> 0.69727641E+01</totfact>
</mgrwt>
</event>
<event>
12    1  0.1432447E-007  0.7948567E+03  0.7818608E-02  0.9567492E-01
         -1   -1    0    0    0  501 -0.00000000000E+00  0.00000000000E+00  0.69305134994E+03  0.69305134994E+03  0.00000000000E+00 0.  1.
          1   -1    0    0  501    0  0.00000000000E+00 -0.00000000000E+00 -0.97225760243E+03  0.97225760243E+03  0.00000000000E+00 0. -1.
         23    2    1    2    0    0  0.65840469644E+03 -0.25848076222E+03 -0.12056769082E+03  0.72339259906E+03  0.91930601971E+02 0.  0.
    5000000    2    1    2    0    0 -0.65840469644E+03  0.25848076222E+03 -0.15863856167E+03  0.94191635331E+03  0.60144091535E+03 0.  0.
         23    2    4    4    0    0 -0.25979277637E+03 -0.13977189094E+03  0.86713918629E+02  0.32063102059E+03  0.90865172241E+02 0.  0.
         23    2    4    4    0    0 -0.39861192007E+03  0.39825265316E+03 -0.24535248030E+03  0.62128533272E+03  0.91109749738E+02 0.  0.
          2    1    3    3  502    0  0.28539292888E+03 -0.64707535143E+02 -0.59773208204E+02  0.29867879968E+03  0.00000000000E+00 0.  1.
         -2    1    3    3    0  502  0.37301176755E+03 -0.19377322708E+03 -0.60794482613E+02  0.42471379938E+03  0.00000000000E+00 0. -1.
         13    1    5    5    0    0 -0.15432097165E+03 -0.33655851377E+02  0.30893753422E+02  0.16094130180E+03  0.00000000000E+00 0.  1.
        -13    1    5    5    0    0 -0.10547180472E+03 -0.10611603956E+03  0.55820165207E+02  0.15968971879E+03  0.00000000000E+00 0. -1.
          4    1    6    6  503    0 -0.27622420642E+03  0.32504496786E+03 -0.16327816342E+03  0.45674259927E+03  0.00000000000E+00 0. -1.
         -4    1    6    6    0  503 -0.12238771365E+03  0.73207685306E+02 -0.82074316885E+02  0.16454273345E+03  0.00000000000E+00 0.  1.
<mgrwt>
<rscale>  0 0.79485674E+03</rscale>
<asrwt>0</asrwt>
<pdfrwt beam="1">  1        1 0.14957809E+00 0.79485674E+03</pdfrwt>
<pdfrwt beam="2">  1       -1 0.10662328E+00 0.79485674E+03</pdfrwt>
<totfact> 0.13396787E+01</totfact>
</mgrwt>
</event>
<event>
12    1  0.1432447E-007  0.4488434E+03  0.7818608E-02  0.1028068E+00
         -2   -1    0    0    0  501 -0.00000000000E+00  0.00000000000E+00  0.92844320860E+02  0.92844320860E+02  0.00000000000E+00 0.  1.
          2   -1    0    0  501    0  0.00000000000E+00 -0.00000000000E+00 -0.26545318046E+04  0.26545318046E+04  0.00000000000E+00 0. -1.
         23    2    1    2    0    0  0.20489450456E+03 -0.21505452758E+03 -0.10272938797E+04  0.10733393913E+04  0.92165752000E+02 0.  0.
    5000000    2    1    2    0    0 -0.20489450456E+03  0.21505452758E+03 -0.15343936041E+04  0.16740367342E+04  0.59983751744E+03 0.  0.
         23    2    4    4    0    0 -0.36031650280E+03  0.21815564669E+03 -0.13454295031E+04  0.14127211303E+04  0.90446535141E+02 0.  0.
         23    2    4    4    0    0  0.15542199824E+03 -0.31011191061E+01 -0.18896410095E+03  0.26131560389E+03  0.91721311106E+02 0.  0.
          4    1    3    3  502    0  0.18625647973E+03 -0.22316317300E+03 -0.95893813155E+03  0.10020257572E+04  0.00000000000E+00 0. -1.
         -4    1    3    3    0  502  0.18638024827E+02  0.81086454168E+01 -0.68355748124E+02  0.71313634051E+02  0.00000000000E+00 0.  1.
         11    1    5    5    0    0 -0.17588650482E+03  0.15743366838E+03 -0.77483596136E+03  0.80999517870E+03  0.00000000000E+00 0. -1.
        -11    1    5    5    0    0 -0.18442999799E+03  0.60721978314E+02 -0.57059354176E+03  0.60272595158E+03  0.00000000000E+00 0.  1.
          2    1    6    6  503    0  0.60669564665E+02 -0.98707143584E+01 -0.14327824184E+03  0.15590664406E+03  0.00000000000E+00 0. -1.
         -2    1    6    6    0  503  0.94752433575E+02  0.67695952523E+01 -0.45685859106E+02  0.10540895982E+03  0.00000000000E+00 0.  1.
<mgrwt>
<rscale>  0 0.44884341E+03</rscale>
<asrwt>0</asrwt>
<pdfrwt beam="1">  1        2 0.40838953E+00 0.44884341E+03</pdfrwt>
<pdfrwt beam="2">  1       -2 0.14283741E-01 0.44884341E+03</pdfrwt>
<totfact> 0.11739683E+02</totfact>
</mgrwt>
</event>
<event>
12    1  0.1432447E-007  0.1134956E+04  0.7818608E-02  0.9171776E-01
         -1   -1    0    0    0  501 -0.00000000000E+00  0.00000000000E+00  0.93004033838E+03  0.93004033838E+03  0.00000000000E+00 0.  1.
          1   -1    0    0  501    0  0.00000000000E+00 -0.00000000000E+00 -0.14746050823E+04  0.14746050823E+04  0.00000000000E+00 0. -1.
         23    2    1    2    0    0  0.81368478499E+03 -0.68057871962E+03  0.11846851193E+02  0.10648577017E+04  0.92256457916E+02 0.  0.
    5000000    2    1    2    0    0 -0.81368478499E+03  0.68057871962E+03 -0.55641159515E+03  0.13397877190E+04  0.60013910550E+03 0.  0.
         23    2    4    4    0    0 -0.27149626991E+03 -0.62279213137E+02 -0.10474773880E+03  0.31107759427E+03  0.90599425543E+02 0.  0.
         23    2    4    4    0    0 -0.54218851508E+03  0.74285793276E+03 -0.45166385635E+03  0.10287101248E+04  0.91858519088E+02 0.  0.
          3    1    3    3  502    0  0.43712269658E+03 -0.41474897111E+03  0.32588972663E+02  0.60345256818E+03  0.00000000000E+00 0. -1.
         -3    1    3    3    0  502  0.37656208841E+03 -0.26582974850E+03 -0.20742121470E+02  0.46140513350E+03  0.00000000000E+00 0.  1.
         11    1    5    5    0    0 -0.21354499493E+03 -0.24697184516E+02 -0.11061467252E+03  0.24175818819E+03  0.00000000000E+00 0. -1.
        -11    1    5    5    0    0 -0.57951274986E+02 -0.37582028621E+02  0.58669337213E+01  0.69319406079E+02  0.00000000000E+00 0.  1.
          3    1    6    6  503    0 -0.10390780270E+03  0.99227083938E+02 -0.47090388933E+02  0.15119639671E+03  0.00000000000E+00 0. -1.
         -3    1    6    6    0  503 -0.43828071238E+03  0.64363084882E+03 -0.40457346741E+03  0.87751372806E+03  0.00000000000E+00 0.  1.
<mgrwt>
<rscale>  0 0.11349556E+04</rscale>
<asrwt>0</asrwt>
<pdfrwt beam="1">  1        1 0.22686232E+00 0.11349556E+04</pdfrwt>
<pdfrwt beam="2">  1       -1 0.14308313E+00 0.11349556E+04</pdfrwt>
<totfact> 0.26658455E+00</totfact>
</mgrwt>
</event>
<event>
12    1  0.1432447E-007  0.8847702E+03  0.7818608E-02  0.9444822E-01
          1   -1    0    0  501    0  0.00000000000E+00  0.00000000000E+00  0.11286893334E+04  0.11286893334E+04  0.00000000000E+00 0. -1.
         -1   -1    0    0    0  501 -0.00000000000E+00 -0.00000000000E+00 -0.10243095158E+04  0.10243095158E+04  0.00000000000E+00 0.  1.
         23    2    1    2    0    0  0.79358477542E+02 -0.80720565251E+03  0.61545093189E+03  0.10222137545E+04  0.90897617931E+02 0.  0.
    5000000    2    1    2    0    0 -0.79358477542E+02  0.80720565251E+03 -0.51107111426E+03  0.11307850947E+04  0.59966866951E+03 0.  0.
         23    2    4    4    0    0 -0.28448440764E+03  0.52025998969E+03 -0.15418443540E+03  0.61863254326E+03  0.85624461447E+02 0.  0.
         23    2    4    4    0    0  0.20512593010E+03  0.28694566283E+03 -0.35688667886E+03  0.51215255146E+03  0.10255571071E+03 0.  0.
          4    1    3    3  502    0  0.55559831525E+02 -0.27878102525E+03  0.17437471027E+03  0.33348507388E+03  0.00000000000E+00 0. -1.
         -4    1    3    3    0  502  0.23798646017E+02 -0.52842462727E+03  0.44107622162E+03  0.68872868064E+03  0.00000000000E+00 0.  1.
         13    1    5    5    0    0 -0.13242224897E+03  0.31410269239E+03 -0.62560794712E+02  0.34656890574E+03  0.00000000000E+00 0.  1.
        -13    1    5    5    0    0 -0.15206215867E+03  0.20615729730E+03 -0.91623640684E+02  0.27206363752E+03  0.00000000000E+00 0. -1.
          3    1    6    6  503    0  0.64882590747E+02  0.42852266047E+02 -0.12602659414E+03  0.14808365784E+03  0.00000000000E+00 0. -1.
         -3    1    6    6    0  503  0.14024333935E+03  0.24409339678E+03 -0.23086008472E+03  0.36406889362E+03  0.00000000000E+00 0.  1.
<mgrwt>
<rscale>  0 0.88477025E+03</rscale>
<asrwt>0</asrwt>
<pdfrwt beam="1">  1        1 0.17364451E+00 0.88477025E+03</pdfrwt>
<pdfrwt beam="2">  1       -1 0.15758608E+00 0.88477025E+03</pdfrwt>
<totfact> 0.37457097E+00</totfact>
</mgrwt>
</event>
<event>
12    1  0.1432447E-007  0.4754574E+03  0.7818608E-02  0.1020391E+00
         -1   -1    0    0    0  501 -0.00000000000E+00  0.00000000000E+00  0.92881713673E+03  0.92881713673E+03  0.00000000000E+00 0.  1.
          1   -1    0    0  501    0  0.00000000000E+00 -0.00000000000E+00 -0.46261639916E+03  0.46261639916E+03  0.00000000000E+00 0. -1.
         23    2    1    2    0    0 -0.17899921495E+03  0.32016460149E+03 -0.19528758869E+03  0.42600811484E+03  0.93806079803E+02 0.  0.
    5000000    2    1    2    0    0  0.17899921495E+03 -0.32016460149E+03  0.66148832626E+03  0.96542542105E+03  0.59994445312E+03 0.  0.
         23    2    4    4    0    0 -0.94439473846E+02 -0.27300232763E+03  0.77527410766E+02  0.31231661181E+03  0.89900397562E+02 0.  0.
         23    2    4    4    0    0  0.27343868879E+03 -0.47162273866E+02  0.58396091550E+03  0.65310880924E+03  0.92454146884E+02 0.  0.
          2    1    3    3  502    0 -0.56728360229E+02  0.14512224100E+03 -0.12944098738E+03  0.20256737373E+03  0.00000000000E+00 0. -1.
         -2    1    3    3    0  502 -0.12227085472E+03  0.17504236049E+03 -0.65846601314E+02  0.22344074110E+03  0.00000000000E+00 0.  1.
         13    1    5    5    0    0 -0.76307696972E+02 -0.24581871041E+03  0.36653305832E+02  0.25998686088E+03  0.00000000000E+00 0. -1.
        -13    1    5    5    0    0 -0.18131776874E+02 -0.27183617217E+02  0.40874104933E+02  0.52329750923E+02  0.00000000000E+00 0.  1.
          1    1    6    6  503    0  0.14849849127E+03 -0.70548528871E+02  0.35529440857E+03  0.39148820365E+03  0.00000000000E+00 0. -1.
         -1    1    6    6    0  503  0.12494019753E+03  0.23386255006E+02  0.22866650693E+03  0.26162060559E+03  0.00000000000E+00 0.  1.
<mgrwt>
<rscale>  0 0.47545735E+03</rscale>
<asrwt>0</asrwt>
<pdfrwt beam="1">  1        1 0.71171754E-01 0.47545735E+03</pdfrwt>
<pdfrwt beam="2">  1       -1 0.14289494E+00 0.47545735E+03</pdfrwt>
<totfact> 0.20837979E+01</totfact>
</mgrwt>
</event>
<event>
12    1  0.1432447E-007  0.5915110E+03  0.7818608E-02  0.9923176E-01
         -1   -1    0    0    0  501 -0.00000000000E+00  0.00000000000E+00  0.84828501170E+03  0.84828501170E+03  0.00000000000E+00 0.  1.
          1   -1    0    0  501    0  0.00000000000E+00 -0.00000000000E+00 -0.55022058610E+03  0.55022058610E+03  0.00000000000E+00 0. -1.
         23    2    1    2    0    0 -0.27194794492E+03 -0.35522002457E+03  0.44317267096E+03  0.63602710673E+03  0.89395266127E+02 0.  0.
    5000000    2    1    2    0    0  0.27194794492E+03  0.35522002457E+03 -0.14510824537E+03  0.76247849107E+03  0.60015006113E+03 0.  0.
         23    2    4    4    0    0 -0.15419162447E+03  0.22571782490E+03 -0.10120881012E+03  0.30588819696E+03  0.92740348590E+02 0.  0.
         23    2    4    4    0    0  0.42613956939E+03  0.12950219967E+03 -0.43899435246E+02  0.45659029411E+03  0.90453214108E+02 0.  0.
          1    1    3    3  502    0 -0.60367715040E+02 -0.12802139056E+03  0.18033967940E+03  0.22925125393E+03  0.00000000000E+00 0. -1.
         -1    1    3    3    0  502 -0.21158022988E+03 -0.22719863401E+03  0.26283299156E+03  0.40677585280E+03  0.00000000000E+00 0.  1.
         13    1    5    5    0    0 -0.37724529603E+02  0.18221926407E+02  0.10248279257E+02  0.43130105072E+02  0.00000000000E+00 0. -1.
        -13    1    5    5    0    0 -0.11646709487E+03  0.20749589850E+03 -0.11145708938E+03  0.26275809189E+03  0.00000000000E+00 0.  1.
          1    1    6    6  503    0  0.11285780008E+03  0.18076862162E+01 -0.34971903403E+02  0.11816592062E+03  0.00000000000E+00 0. -1.
         -1    1    6    6    0  503  0.31328176931E+03  0.12769451345E+03 -0.89275318422E+01  0.33842437349E+03  0.00000000000E+00 0.  1.
<mgrwt>
<rscale>  0 0.59151103E+03</rscale>
<asrwt>0</asrwt>
<pdfrwt beam="1">  1        1 0.84649321E-01 0.59151103E+03</pdfrwt>
<pdfrwt beam="2">  1       -1 0.13050539E+00 0.59151103E+03</pdfrwt>
<totfact> 0.20369573E+01</totfact>
</mgrwt>
</event>
<event>
12    1  0.1432447E-007  0.5036478E+03  0.7818608E-02  0.1012831E+00
         -2   -1    0    0    0  501 -0.00000000000E+00  0.00000000000E+00  0.25338857739E+03  0.25338857739E+03  0.00000000000E+00 0.  1.
          2   -1    0    0  501    0  0.00000000000E+00 -0.00000000000E+00 -0.19883584807E+04  0.19883584807E+04  0.00000000000E+00 0. -1.
         23    2    1    2    0    0  0.33042611848E+02  0.38018303838E+03 -0.29194681144E+02  0.39368663637E+03  0.92227335317E+02 0.  0.
    5000000    2    1    2    0    0 -0.33042611848E+02 -0.38018303838E+03 -0.17057752222E+04  0.18480604217E+04  0.60002271368E+03 0.  0.
         23    2    4    4    0    0  0.52990523319E+02  0.10541252169E+03 -0.79217154207E+03  0.80599067048E+03  0.90362677896E+02 0.  0.
         23    2    4    4    0    0 -0.86033135167E+02 -0.48559556007E+03 -0.91360368010E+03  0.10420697512E+04  0.89626635852E+02 0.  0.
          3    1    3    3  502    0  0.58828751846E+02  0.17380878071E+03 -0.28577552144E+02  0.18570673327E+03  0.00000000000E+00 0. -1.
         -3    1    3    3    0  502 -0.25786139998E+02  0.20637425767E+03 -0.61712899984E+00  0.20797990310E+03  0.00000000000E+00 0.  1.
         13    1    5    5    0    0  0.28864406315E+02  0.81686319144E+02 -0.28960002812E+03  0.30228130107E+03  0.00000000000E+00 0. -1.
        -13    1    5    5    0    0  0.24126117004E+02  0.23726202549E+02 -0.50257151394E+03  0.50370936942E+03  0.00000000000E+00 0.  1.
          4    1    6    6  503    0 -0.55254401240E+02 -0.18216790332E+03 -0.27604993163E+03  0.33532336425E+03  0.00000000000E+00 0. -1.
         -4    1    6    6    0  503 -0.30778733927E+02 -0.30342765675E+03 -0.63755374847E+03  0.70674638699E+03  0.00000000000E+00 0.  1.
<mgrwt>
<rscale>  0 0.50364785E+03</rscale>
<asrwt>0</asrwt>
<pdfrwt beam="1">  1        2 0.30590131E+00 0.50364785E+03</pdfrwt>
<pdfrwt beam="2">  1       -2 0.38982858E-01 0.50364785E+03</pdfrwt>
<totfact> 0.45093629E+01</totfact>
</mgrwt>
</event>
<event>
12    1  0.1432447E-007  0.4096824E+03  0.7818608E-02  0.1040478E+00
         -1   -1    0    0    0  501 -0.00000000000E+00  0.00000000000E+00  0.23017106944E+03  0.23017106944E+03  0.00000000000E+00 0.  1.
          1   -1    0    0  501    0  0.00000000000E+00 -0.00000000000E+00 -0.13204244314E+04  0.13204244314E+04  0.00000000000E+00 0. -1.
         23    2    1    2    0    0 -0.40633201310E+02 -0.30753620755E+03 -0.69828677641E+03  0.76981903876E+03  0.93740889283E+02 0.  0.
    5000000    2    1    2    0    0  0.40633201310E+02  0.30753620755E+03 -0.39196658559E+03  0.78077646213E+03  0.59978704853E+03 0.  0.
         23    2    4    4    0    0 -0.26616368414E+02 -0.75006332695E+02 -0.36053574790E+03  0.38028356662E+03  0.91077903548E+02 0.  0.
         23    2    4    4    0    0  0.67249569724E+02  0.38254254025E+03 -0.31430837690E+02  0.40049289550E+03  0.92441127567E+02 0.  0.
          4    1    3    3  502    0 -0.57714630423E+02 -0.26917461254E+03 -0.64959432549E+03  0.70552018986E+03  0.00000000000E+00 0. -1.
         -4    1    3    3    0  502  0.17081429114E+02 -0.38361595013E+02 -0.48692450926E+02  0.64298848898E+02  0.00000000000E+00 0.  1.
         11    1    5    5    0    0 -0.28657788314E+02  0.86405507276E+01 -0.16351214308E+03  0.16622920587E+03  0.00000000000E+00 0. -1.
        -11    1    5    5    0    0  0.20414199000E+01 -0.83646883422E+02 -0.19702360482E+03  0.21405436076E+03  0.00000000000E+00 0.  1.
          2    1    6    6  503    0  0.21659200544E+02  0.10458694840E+03 -0.50571360233E+02  0.11817365705E+03  0.00000000000E+00 0. -1.
         -2    1    6    6    0  503  0.45590369180E+02  0.27795559185E+03  0.19140522543E+02  0.28231923846E+03  0.00000000000E+00 0.  1.
<mgrwt>
<rscale>  0 0.40968241E+03</rscale>
<asrwt>0</asrwt>
<pdfrwt beam="1">  1        1 0.20314222E+00 0.40968241E+03</pdfrwt>
<pdfrwt beam="2">  1       -1 0.35410935E-01 0.40968241E+03</pdfrwt>
<totfact> 0.71153273E+01</totfact>
</mgrwt>
</event>
<event>
12    1  0.1432447E-007  0.5033439E+03  0.7818608E-02  0.1012910E+00
         -1   -1    0    0    0  501 -0.00000000000E+00  0.00000000000E+00  0.69676361415E+03  0.69676361415E+03  0.00000000000E+00 0.  1.
          1   -1    0    0  501    0  0.00000000000E+00 -0.00000000000E+00 -0.58102413088E+03  0.58102413088E+03  0.00000000000E+00 0. -1.
         23    2    1    2    0    0 -0.48323004833E+03 -0.36957220215E+02  0.11322111734E+03  0.50650720651E+03  0.94092577268E+02 0.  0.
    5000000    2    1    2    0    0  0.48323004833E+03  0.36957220215E+02  0.25183659299E+01  0.77128053852E+03  0.59999184261E+03 0.  0.
         23    2    4    4    0    0  0.34066722476E+03 -0.16195715187E+01 -0.27426542699E+03  0.44603413493E+03  0.87567939571E+02 0.  0.
         23    2    4    4    0    0  0.14256282356E+03  0.38576791733E+02  0.27678379292E+03  0.32524640359E+03  0.85811581426E+02 0.  0.
          2    1    3    3  502    0 -0.13350236614E+03 -0.11041526915E+02 -0.11145422470E+02  0.13442104568E+03  0.00000000000E+00 0. -1.
         -2    1    3    3    0  502 -0.34972768219E+03 -0.25915693299E+02  0.12436653981E+03  0.37208616082E+03  0.00000000000E+00 0.  1.
         13    1    5    5    0    0  0.13822357384E+03  0.41908414442E+02 -0.12080468683E+03  0.18829722230E+03  0.00000000000E+00 0.  1.
        -13    1    5    5    0    0  0.20244365092E+03 -0.43527985961E+02 -0.15346074016E+03  0.25773691263E+03  0.00000000000E+00 0. -1.
          3    1    6    6  503    0  0.32830796955E+02 -0.27169366136E+02  0.61408031366E+02  0.74746116964E+02  0.00000000000E+00 0. -1.
         -3    1    6    6    0  503  0.10973202661E+03  0.65746157870E+02  0.21537576155E+03  0.25050028663E+03  0.00000000000E+00 0.  1.
<mgrwt>
<rscale>  0 0.50334386E+03</rscale>
<asrwt>0</asrwt>
<pdfrwt beam="1">  1        1 0.89388328E-01 0.50334386E+03</pdfrwt>
<pdfrwt beam="2">  1       -1 0.10719440E+00 0.50334386E+03</pdfrwt>
<totfact> 0.30706285E+01</totfact>
</mgrwt>
</event>
<event>
12    1  0.1432447E-007  0.4455124E+03  0.7818608E-02  0.1029069E+00
         -2   -1    0    0    0  501 -0.00000000000E+00  0.00000000000E+00  0.21183228187E+03  0.21183228187E+03  0.00000000000E+00 0.  1.
          2   -1    0    0  501    0  0.00000000000E+00 -0.00000000000E+00 -0.14072999729E+04  0.14072999729E+04  0.00000000000E+00 0. -1.
         23    2    1    2    0    0 -0.21205678673E+03 -0.30442072428E+03 -0.35109109005E+03  0.51888771013E+03  0.91320556494E+02 0.  0.
    5000000    2    1    2    0    0  0.21205678673E+03  0.30442072428E+03 -0.84437660101E+03  0.11002445447E+04  0.59993845982E+03 0.  0.
         23    2    4    4    0    0 -0.50660374468E+02 -0.37186421052E+02 -0.56823286141E+03  0.57923278999E+03  0.93127529544E+02 0.  0.
         23    2    4    4    0    0  0.26271716120E+03  0.34160714533E+03 -0.27614373960E+03  0.52101175469E+03  0.97376255157E+02 0.  0.
          1    1    3    3  502    0 -0.10886677776E+03 -0.21124250196E+03 -0.17824619696E+03  0.29706409522E+03  0.00000000000E+00 0. -1.
         -1    1    3    3    0  502 -0.10319000897E+03 -0.93178222316E+02 -0.17284489308E+03  0.22182361490E+03  0.00000000000E+00 0.  1.
         13    1    5    5    0    0 -0.29642303040E+02 -0.45479470443E+02 -0.13635419531E+03  0.14676346596E+03  0.00000000000E+00 0.  1.
        -13    1    5    5    0    0 -0.21018071428E+02  0.82930493910E+01 -0.43187866610E+03  0.43246932403E+03  0.00000000000E+00 0. -1.
          3    1    6    6  503    0  0.25600190904E+03  0.29592492249E+03 -0.26762660305E+03  0.47405963322E+03  0.00000000000E+00 0. -1.
         -3    1    6    6    0  503  0.67152521550E+01  0.45682222843E+02 -0.85171365494E+01  0.46952121468E+02  0.00000000000E+00 0.  1.
<mgrwt>
<rscale>  0 0.44551243E+03</rscale>
<asrwt>0</asrwt>
<pdfrwt beam="1">  1        2 0.21650769E+00 0.44551243E+03</pdfrwt>
<pdfrwt beam="2">  1       -2 0.32589581E-01 0.44551243E+03</pdfrwt>
<totfact> 0.13190149E+02</totfact>
</mgrwt>
</event>
<event>
12    1  0.1432447E-007  0.1145292E+04  0.7818608E-02  0.9162138E-01
         -2   -1    0    0    0  501 -0.00000000000E+00  0.00000000000E+00  0.28588465420E+04  0.28588465420E+04  0.00000000000E+00 0.  1.
          2   -1    0    0  501    0  0.00000000000E+00 -0.00000000000E+00 -0.55820711702E+03  0.55820711702E+03  0.00000000000E+00 0. -1.
         23    2    1    2    0    0  0.11129364645E+04  0.21616808352E+03  0.59683870845E+03  0.12844235267E+04  0.90394344898E+02 0.  0.
    5000000    2    1    2    0    0 -0.11129364645E+04 -0.21616808352E+03  0.17038007165E+04  0.21326301324E+04  0.59984846872E+03 0.  0.
         23    2    4    4    0    0 -0.72645415982E+03 -0.65207459746E+02  0.59722812879E+03  0.94739167494E+03  0.94243773240E+02 0.  0.
         23    2    4    4    0    0 -0.38648230469E+03 -0.15096062378E+03  0.11065725877E+04  0.11852384574E+04  0.90164445560E+02 0.  0.
          3    1    3    3  502    0  0.24943556158E+03  0.87197160983E+02  0.14161478192E+03  0.29979358019E+03  0.00000000000E+00 0. -1.
         -3    1    3    3    0  502  0.86350090293E+03  0.12897092254E+03  0.45522392652E+03  0.98462994648E+03  0.00000000000E+00 0.  1.
         13    1    5    5    0    0 -0.44373116461E+03  0.28822850113E+01  0.33783251055E+03  0.55770642743E+03  0.00000000000E+00 0.  1.
        -13    1    5    5    0    0 -0.28272299521E+03 -0.68089744757E+02  0.25939561824E+03  0.38968524751E+03  0.00000000000E+00 0. -1.
          2    1    6    6  503    0 -0.19710607428E+03 -0.46789822783E+02  0.43761557322E+03  0.48223177203E+03  0.00000000000E+00 0. -1.
         -2    1    6    6    0  503 -0.18937623041E+03 -0.10417080099E+03  0.66895701452E+03  0.70300668539E+03  0.00000000000E+00 0.  1.
<mgrwt>
<rscale>  0 0.11452919E+04</rscale>
<asrwt>0</asrwt>
<pdfrwt beam="1">  1        2 0.85878020E-01 0.11452919E+04</pdfrwt>
<pdfrwt beam="2">  1       -2 0.43982254E+00 0.11452919E+04</pdfrwt>
<totfact> 0.21917381E-01</totfact>
</mgrwt>
</event>
<event>
12    1  0.1432447E-007  0.1090302E+04  0.7818608E-02  0.9214696E-01
          2   -1    0    0  501    0  0.00000000000E+00  0.00000000000E+00  0.83007314949E+03  0.83007314949E+03  0.00000000000E+00 0. -1.
         -2   -1    0    0    0  501 -0.00000000000E+00 -0.00000000000E+00 -0.15141854519E+04  0.15141854519E+04  0.00000000000E+00 0.  1.
         23    2    1    2    0    0 -0.56460902776E+03 -0.87130530313E+03 -0.33439208375E+03  0.10951226584E+04  0.97566827556E+02 0.  0.
    5000000    2    1    2    0    0  0.56460902776E+03  0.87130530313E+03 -0.34972021861E+03  0.12491359429E+04  0.60006673555E+03 0.  0.
         23    2    4    4    0    0  0.60842340250E+02 -0.22328065617E+02  0.75025917981E+02  0.13502145943E+03  0.91660096315E+02 0.  0.
         23    2    4    4    0    0  0.50376668751E+03  0.89363336874E+03 -0.42474613659E+03  0.11141144835E+04  0.92088699637E+02 0.  0.
          3    1    3    3  502    0 -0.13098560903E+03 -0.14703316104E+03 -0.88451115660E+02  0.21586935883E+03  0.00000000000E+00 0. -1.
         -3    1    3    3    0  502 -0.43362341873E+03 -0.72427214209E+03 -0.24594096809E+03  0.87925329960E+03  0.00000000000E+00 0.  1.
         13    1    5    5    0    0  0.78509805145E+00 -0.46233000955E+02  0.41844954039E+02  0.62362704678E+02  0.00000000000E+00 0.  1.
        -13    1    5    5    0    0  0.60057242198E+02  0.23904935338E+02  0.33180963943E+02  0.72658754752E+02  0.00000000000E+00 0. -1.
          3    1    6    6  503    0  0.40168439659E+03  0.64464958714E+03 -0.33815495351E+03  0.83142781842E+03  0.00000000000E+00 0. -1.
         -3    1    6    6    0  503  0.10208229092E+03  0.24898378160E+03 -0.86591183088E+02  0.28268666507E+03  0.00000000000E+00 0.  1.
<mgrwt>
<rscale>  0 0.10903023E+04</rscale>
<asrwt>0</asrwt>
<pdfrwt beam="1">  1        2 0.12770356E+00 0.10903023E+04</pdfrwt>
<pdfrwt beam="2">  1       -2 0.23295161E+00 0.10903023E+04</pdfrwt>
<totfact> 0.26479523E+00</totfact>
</mgrwt>
</event>
<event>
12    1  0.1432447E-007  0.5845997E+03  0.7818608E-02  0.9937882E-01
         -2   -1    0    0    0  501 -0.00000000000E+00  0.00000000000E+00  0.10617735517E+03  0.10617735517E+03  0.00000000000E+00 0.  1.
          2   -1    0    0  501    0  0.00000000000E+00 -0.00000000000E+00 -0.33789792135E+04  0.33789792135E+04  0.00000000000E+00 0. -1.
         23    2    1    2    0    0 -0.25401750108E+03  0.36265795043E+03 -0.12372591074E+04  0.13173343291E+04  0.92271099014E+02 0.  0.
    5000000    2    1    2    0    0  0.25401750108E+03 -0.36265795043E+03 -0.20355427509E+04  0.21678222396E+04  0.59997774289E+03 0.  0.
         23    2    4    4    0    0  0.15146974633E+03  0.13935572405E+03 -0.59759430458E+03  0.63857505663E+03  0.91082644873E+02 0.  0.
         23    2    4    4    0    0  0.10254775474E+03 -0.50201367448E+03 -0.14379484463E+04  0.15292471830E+04  0.91473717732E+02 0.  0.
          4    1    3    3  502    0 -0.54988580947E+02  0.10601376016E+03 -0.23232973883E+03  0.26122742759E+03  0.00000000000E+00 0.  1.
         -4    1    3    3    0  502 -0.19902892013E+03  0.25664419027E+03 -0.10049293686E+04  0.10561069015E+04  0.00000000000E+00 0. -1.
         13    1    5    5    0    0  0.35413961313E+02  0.58785830834E+02 -0.31789687534E+03  0.32522045741E+03  0.00000000000E+00 0. -1.
        -13    1    5    5    0    0  0.11605578502E+03  0.80569893217E+02 -0.27969742924E+03  0.31335459922E+03  0.00000000000E+00 0.  1.
          2    1    6    6  503    0  0.12808588849E+02 -0.14345265847E+02 -0.11151805007E+03  0.11316413784E+03  0.00000000000E+00 0. -1.
         -2    1    6    6    0  503  0.89739165895E+02 -0.48766840864E+03 -0.13264303962E+04  0.14160830451E+04  0.00000000000E+00 0.  1.
<mgrwt>
<rscale>  0 0.58459974E+03</rscale>
<asrwt>0</asrwt>
<pdfrwt beam="1">  1        2 0.51984298E+00 0.58459974E+03</pdfrwt>
<pdfrwt beam="2">  1       -2 0.16334977E-01 0.58459974E+03</pdfrwt>
<totfact> 0.32965119E+01</totfact>
</mgrwt>
</event>
<event>
12    1  0.1432447E-007  0.8855215E+03  0.7818608E-02  0.9443863E-01
         -1   -1    0    0    0  501 -0.00000000000E+00  0.00000000000E+00  0.58028506465E+03  0.58028506465E+03  0.00000000000E+00 0.  1.
          1   -1    0    0  501    0  0.00000000000E+00 -0.00000000000E+00 -0.18740565410E+04  0.18740565410E+04  0.00000000000E+00 0. -1.
         23    2    1    2    0    0  0.76679237918E+03  0.22401123245E+03  0.19446444272E+02  0.80427649518E+03  0.91273936393E+02 0.  0.
    5000000    2    1    2    0    0 -0.76679237918E+03 -0.22401123245E+03 -0.13132179206E+04  0.16500651105E+04  0.60001831365E+03 0.  0.
         23    2    4    4    0    0  0.63511867820E+02 -0.15059428841E+02 -0.29954854480E+03  0.31992320660E+03  0.91438414681E+02 0.  0.
         23    2    4    4    0    0 -0.83030424700E+03 -0.20895180361E+03 -0.10136693758E+04  0.13301419039E+04  0.93198080073E+02 0.  0.
          1    1    3    3  502    0  0.37050656684E+03  0.98990801279E+02  0.54079406930E+02  0.38729688491E+03  0.00000000000E+00 0. -1.
         -1    1    3    3    0  502  0.39628581234E+03  0.12502043117E+03 -0.34632962658E+02  0.41697961027E+03  0.00000000000E+00 0.  1.
         13    1    5    5    0    0  0.44436785495E+02  0.36138252356E+02 -0.13924930391E+03  0.15056882090E+03  0.00000000000E+00 0.  1.
        -13    1    5    5    0    0  0.19075082325E+02 -0.51197681197E+02 -0.16029924089E+03  0.16935438570E+03  0.00000000000E+00 0. -1.
          4    1    6    6  503    0 -0.53467516704E+03 -0.17465015953E+03 -0.62964690305E+03  0.84429582197E+03  0.00000000000E+00 0. -1.
         -4    1    6    6    0  503 -0.29562907996E+03 -0.34301644085E+02 -0.38402247276E+03  0.48584608189E+03  0.00000000000E+00 0.  1.
<mgrwt>
<rscale>  0 0.88552153E+03</rscale>
<asrwt>0</asrwt>
<pdfrwt beam="1">  1        1 0.28831640E+00 0.88552153E+03</pdfrwt>
<pdfrwt beam="2">  1       -1 0.89274623E-01 0.88552153E+03</pdfrwt>
<totfact> 0.45760762E+00</totfact>
</mgrwt>
</event>
<event>
12    1  0.1432447E-007  0.1086002E+04  0.7818608E-02  0.9218944E-01
         -2   -1    0    0    0  501 -0.00000000000E+00  0.00000000000E+00  0.11005545002E+04  0.11005545002E+04  0.00000000000E+00 0.  1.
          2   -1    0    0  501    0  0.00000000000E+00 -0.00000000000E+00 -0.15584562525E+04  0.15584562525E+04  0.00000000000E+00 0. -1.
         23    2    1    2    0    0 -0.97071685120E+03 -0.39707009161E+03 -0.88740892264E+03  0.13766779588E+04  0.88270852076E+02 0.  0.
    5000000    2    1    2    0    0  0.97071685120E+03  0.39707009161E+03  0.42950717033E+03  0.12823327939E+04  0.59995426658E+03 0.  0.
         23    2    4    4    0    0  0.76612947051E+03  0.12413133421E+03  0.78519830762E+02  0.78491341592E+03  0.86952590241E+02 0.  0.
         23    2    4    4    0    0  0.20458738069E+03  0.27293875740E+03  0.35098733957E+03  0.49741937794E+03  0.88782675040E+02 0.  0.
          3    1    3    3  502    0 -0.24159877114E+03 -0.13310518175E+03 -0.26259286721E+03  0.38084376001E+03  0.00000000000E+00 0. -1.
         -3    1    3    3    0  502 -0.72911808006E+03 -0.26396490986E+03 -0.62481605543E+03  0.99583419876E+03  0.00000000000E+00 0.  1.
         11    1    5    5    0    0  0.12896416685E+03 -0.61867299145E+01 -0.50456771871E+01  0.12921103210E+03  0.00000000000E+00 0.  1.
        -11    1    5    5    0    0  0.63716530366E+03  0.13031806412E+03  0.83565507949E+02  0.65570238381E+03  0.00000000000E+00 0. -1.
          2    1    6    6  503    0  0.15605088710E+03  0.20050323168E+03  0.20115447982E+03  0.32406257117E+03  0.00000000000E+00 0. -1.
         -2    1    6    6    0  503  0.48536493592E+02  0.72435525722E+02  0.14983285974E+03  0.17335680678E+03  0.00000000000E+00 0.  1.
<mgrwt>
<rscale>  0 0.10860016E+04</rscale>
<asrwt>0</asrwt>
<pdfrwt beam="1">  1        2 0.23976250E+00 0.10860016E+04</pdfrwt>
<pdfrwt beam="2">  1       -2 0.16931608E+00 0.10860016E+04</pdfrwt>
<totfact> 0.24927015E+00</totfact>
</mgrwt>
</event>
<event>
12    1  0.1432447E-007  0.4503480E+03  0.7818608E-02  0.1027618E+00
         -2   -1    0    0    0  501 -0.00000000000E+00  0.00000000000E+00  0.13150235235E+03  0.13150235235E+03  0.00000000000E+00 0.  1.
          2   -1    0    0  501    0  0.00000000000E+00 -0.00000000000E+00 -0.16254841551E+04  0.16254841551E+04  0.00000000000E+00 0. -1.
         23    2    1    2    0    0  0.10245388294E+03 -0.23171103062E+03 -0.37167451472E+03  0.45979632652E+03  0.95309585793E+02 0.  0.
    5000000    2    1    2    0    0 -0.10245388294E+03  0.23171103062E+03 -0.11223072880E+04  0.12971901809E+04  0.59911761525E+03 0.  0.
         23    2    4    4    0    0 -0.28982274244E+03  0.29107195320E+03 -0.61869366344E+03  0.74818695538E+03  0.91004214416E+02 0.  0.
         23    2    4    4    0    0  0.18736885951E+03 -0.59360922574E+02 -0.50361362460E+03  0.54900322556E+03  0.95640212027E+02 0.  0.
          2    1    3    3  502    0 -0.98922582343E+01 -0.11984830777E+02 -0.61462312973E+02  0.63396441996E+02  0.00000000000E+00 0. -1.
         -2    1    3    3    0  502  0.11234614117E+03 -0.21972619985E+03 -0.31021220175E+03  0.39639988452E+03  0.00000000000E+00 0.  1.
         11    1    5    5    0    0 -0.26277061441E+03  0.21459057880E+03 -0.51071584219E+03  0.61312982620E+03  0.00000000000E+00 0. -1.
        -11    1    5    5    0    0 -0.27052128029E+02  0.76481374396E+02 -0.10797782125E+03  0.13505712918E+03  0.00000000000E+00 0.  1.
          3    1    6    6  503    0  0.99913623355E+02 -0.80159486458E+02 -0.31557823358E+03  0.34058463987E+03  0.00000000000E+00 0. -1.
         -3    1    6    6    0  503  0.87455236151E+02  0.20798563884E+02 -0.18803539102E+03  0.20841858570E+03  0.00000000000E+00 0.  1.
<mgrwt>
<rscale>  0 0.45034798E+03</rscale>
<asrwt>0</asrwt>
<pdfrwt beam="1">  1        2 0.25007449E+00 0.45034798E+03</pdfrwt>
<pdfrwt beam="2">  1       -2 0.20231130E-01 0.45034798E+03</pdfrwt>
<totfact> 0.23603822E+02</totfact>
</mgrwt>
</event>
<event>
12    1  0.1432447E-007  0.6893965E+03  0.7818608E-02  0.9735539E-01
          1   -1    0    0  501    0  0.00000000000E+00  0.00000000000E+00  0.84909549299E+03  0.84909549299E+03  0.00000000000E+00 0. -1.
         -1   -1    0    0    0  501 -0.00000000000E+00 -0.00000000000E+00 -0.81502082858E+03  0.81502082858E+03  0.00000000000E+00 0.  1.
         23    2    1    2    0    0 -0.37777670644E+03 -0.47349508329E+03  0.40490449252E+03  0.73430810627E+03  0.91366914366E+02 0.  0.
    5000000    2    1    2    0    0  0.37777670644E+03  0.47349508329E+03 -0.37082982810E+03  0.92980821530E+03  0.60009642725E+03 0.  0.
         23    2    4    4    0    0  0.67546891581E+02  0.44032997937E+03 -0.25834388421E+02  0.45480864443E+03  0.87922773657E+02 0.  0.
         23    2    4    4    0    0  0.31022981486E+03  0.33165103921E+02 -0.34499543968E+03  0.47499957087E+03  0.96230331906E+02 0.  0.
          3    1    3    3  502    0 -0.54070603128E+02 -0.41229452954E+02  0.19131475210E+02  0.70636472571E+02  0.00000000000E+00 0. -1.
         -3    1    3    3    0  502 -0.32370610331E+03 -0.43226563034E+03  0.38577301731E+03  0.66367163370E+03  0.00000000000E+00 0.  1.
         11    1    5    5    0    0  0.14504091748E+02  0.21033887981E+03  0.28082207727E+02  0.21270031365E+03  0.00000000000E+00 0. -1.
        -11    1    5    5    0    0  0.53042799833E+02  0.22999109956E+03 -0.53916596148E+02  0.24210833078E+03  0.00000000000E+00 0.  1.
          1    1    6    6  503    0  0.50092520826E+02 -0.26976435847E+02 -0.39452746923E+02  0.69235164284E+02  0.00000000000E+00 0. -1.
         -1    1    6    6    0  503  0.26013729403E+03  0.60141539768E+02 -0.30554269276E+03  0.40576440659E+03  0.00000000000E+00 0.  1.
<mgrwt>
<rscale>  0 0.68939645E+03</rscale>
<asrwt>0</asrwt>
<pdfrwt beam="1">  1        1 0.13063008E+00 0.68939645E+03</pdfrwt>
<pdfrwt beam="2">  1       -1 0.12538782E+00 0.68939645E+03</pdfrwt>
<totfact> 0.11578859E+01</totfact>
</mgrwt>
</event>
<event>
12    1  0.1432447E-007  0.7216265E+03  0.7818608E-02  0.9680946E-01
         -2   -1    0    0    0  501 -0.00000000000E+00  0.00000000000E+00  0.12488839961E+04  0.12488839961E+04  0.00000000000E+00 0.  1.
          2   -1    0    0  501    0  0.00000000000E+00 -0.00000000000E+00 -0.52286715796E+03  0.52286715796E+03  0.00000000000E+00 0. -1.
         23    2    1    2    0    0  0.56547875200E+03  0.32017673554E+03  0.49169495255E+02  0.65796595971E+03  0.90676369222E+02 0.  0.
    5000000    2    1    2    0    0 -0.56547875200E+03 -0.32017673554E+03  0.67684734284E+03  0.11137851943E+04  0.60009646942E+03 0.  0.
         23    2    4    4    0    0  0.41291241970E+02  0.17521134488E+02  0.30315975950E+03  0.31981195902E+03  0.91443384298E+02 0.  0.
         23    2    4    4    0    0 -0.60676999397E+03 -0.33769787003E+03  0.37368758334E+03  0.79397323529E+03  0.92419756652E+02 0.  0.
          1    1    3    3  502    0  0.14849850854E+03  0.12688639066E+03 -0.34970031322E+01  0.19535657707E+03  0.00000000000E+00 0. -1.
         -1    1    3    3    0  502  0.41698024346E+03  0.19329034488E+03  0.52666498388E+02  0.46260938265E+03  0.00000000000E+00 0.  1.
         11    1    5    5    0    0  0.42433835969E+02  0.44549637719E+02  0.27047332195E+03  0.27738262120E+03  0.00000000000E+00 0.  1.
        -11    1    5    5    0    0 -0.11425939990E+01 -0.27028503231E+02  0.32686437554E+02  0.42429337821E+02  0.00000000000E+00 0. -1.
          3    1    6    6  503    0 -0.37466560523E+02 -0.48250727054E+02  0.43620340902E+02  0.75064039054E+02  0.00000000000E+00 0. -1.
         -3    1    6    6    0  503 -0.56930343344E+03 -0.28944714297E+03  0.33006724244E+03  0.71890919624E+03  0.00000000000E+00 0.  1.
<mgrwt>
<rscale>  0 0.72162651E+03</rscale>
<asrwt>0</asrwt>
<pdfrwt beam="1">  1        2 0.80441102E-01 0.72162651E+03</pdfrwt>
<pdfrwt beam="2">  1       -2 0.19213600E+00 0.72162651E+03</pdfrwt>
<totfact> 0.89537224E+00</totfact>
</mgrwt>
</event>
<event>
12    1  0.1432447E-007  0.1737313E+04  0.7818608E-02  0.8740365E-01
          1   -1    0    0  501    0  0.00000000000E+00  0.00000000000E+00  0.27555167134E+04  0.27555167134E+04  0.00000000000E+00 0. -1.
         -1   -1    0    0    0  501 -0.00000000000E+00 -0.00000000000E+00 -0.11550954554E+04  0.11550954554E+04  0.00000000000E+00 0.  1.
         23    2    1    2    0    0 -0.16354330717E+04 -0.56242960624E+03  0.66711178069E+03  0.18558613794E+04  0.90636291605E+02 0.  0.
    5000000    2    1    2    0    0  0.16354330717E+04  0.56242960624E+03  0.93330947727E+03  0.20547507894E+04  0.59997152611E+03 0.  0.
         23    2    4    4    0    0  0.67150264015E+03  0.12653385524E+03  0.66929407479E+03  0.96053290508E+03  0.87990288893E+02 0.  0.
         23    2    4    4    0    0  0.96393043160E+03  0.43589575100E+03  0.26401540248E+03  0.10942178843E+04  0.91878522951E+02 0.  0.
          3    1    3    3  502    0 -0.47369875940E+03 -0.16167911504E+03  0.23750033409E+03  0.55401900653E+03  0.00000000000E+00 0. -1.
         -3    1    3    3    0  502 -0.11617343123E+04 -0.40075049120E+03  0.42961144659E+03  0.13018423728E+04  0.00000000000E+00 0.  1.
         13    1    5    5    0    0  0.52744163818E+03  0.10362147556E+03  0.57347093513E+03  0.78600318404E+03  0.00000000000E+00 0. -1.
        -13    1    5    5    0    0  0.14406100197E+03  0.22912379681E+02  0.95823139659E+02  0.17452972104E+03  0.00000000000E+00 0.  1.
          2    1    6    6  503    0  0.79475026073E+03  0.39610198677E+03  0.21514955870E+03  0.91368161493E+03  0.00000000000E+00 0. -1.
         -2    1    6    6    0  503  0.16918017086E+03  0.39793764225E+02  0.48865843776E+02  0.18053626941E+03  0.00000000000E+00 0.  1.
<mgrwt>
<rscale>  0 0.17373128E+04</rscale>
<asrwt>0</asrwt>
<pdfrwt beam="1">  1        1 0.42392565E+00 0.17373128E+04</pdfrwt>
<pdfrwt beam="2">  1       -1 0.17770699E+00 0.17373128E+04</pdfrwt>
<totfact> 0.17879844E-01</totfact>
</mgrwt>
</event>
<event>
12    1  0.1432447E-007  0.1018254E+04  0.7818608E-02  0.9288748E-01
         -1   -1    0    0    0  501 -0.00000000000E+00  0.00000000000E+00  0.61986568296E+03  0.61986568296E+03  0.00000000000E+00 0.  1.
          1   -1    0    0  501    0  0.00000000000E+00 -0.00000000000E+00 -0.17568002143E+04  0.17568002143E+04  0.00000000000E+00 0. -1.
         23    2    1    2    0    0 -0.84041147862E+03 -0.40336121018E+03 -0.75423119898E+03  0.12039128181E+04  0.10746931095E+03 0.  0.
    5000000    2    1    2    0    0  0.84041147862E+03  0.40336121018E+03 -0.38270333233E+03  0.11727530791E+04  0.59991351440E+03 0.  0.
         23    2    4    4    0    0  0.58721311899E+03 -0.33137578750E+02 -0.18760867672E+03  0.62405563979E+03  0.91274748663E+02 0.  0.
         23    2    4    4    0    0  0.25319835964E+03  0.43649878893E+03 -0.19509465562E+03  0.54869743934E+03  0.91467771526E+02 0.  0.
          1    1    3    3  502    0 -0.15796397638E+03 -0.34598019812E+02 -0.11006416390E+03  0.19561124964E+03  0.00000000000E+00 0. -1.
         -1    1    3    3    0  502 -0.68244750224E+03 -0.36876319037E+03 -0.64416703508E+03  0.10083015685E+04  0.00000000000E+00 0.  1.
         13    1    5    5    0    0  0.34716774367E+03  0.21895396768E+02 -0.91469656077E+02  0.35968256648E+03  0.00000000000E+00 0.  1.
        -13    1    5    5    0    0  0.24004537531E+03 -0.55032975518E+02 -0.96139020638E+02  0.26437307331E+03  0.00000000000E+00 0. -1.
          2    1    6    6  503    0  0.52669842410E+01  0.15635571357E+02 -0.27898992971E+02  0.32412436247E+02  0.00000000000E+00 0. -1.
         -2    1    6    6    0  503  0.24793137540E+03  0.42086321758E+03 -0.16719566264E+03  0.51628500310E+03  0.00000000000E+00 0.  1.
<mgrwt>
<rscale>  0 0.10182537E+04</rscale>
<asrwt>0</asrwt>
<pdfrwt beam="1">  1        1 0.27027695E+00 0.10182537E+04</pdfrwt>
<pdfrwt beam="2">  1       -1 0.95363953E-01 0.10182537E+04</pdfrwt>
<totfact> 0.46552341E+00</totfact>
</mgrwt>
</event>
<event>
12    1  0.1432447E-007  0.4243167E+03  0.7818608E-02  0.1035670E+00
          2   -1    0    0  501    0  0.00000000000E+00  0.00000000000E+00  0.30877836403E+04  0.30877836403E+04  0.00000000000E+00 0. -1.
         -2   -1    0    0    0  501 -0.00000000000E+00 -0.00000000000E+00 -0.10653651410E+03  0.10653651410E+03  0.00000000000E+00 0.  1.
         23    2    1    2    0    0  0.10213312713E+03 -0.39738825159E+03  0.10319469680E+04  0.11141446539E+04  0.89750582297E+02 0.  0.
    5000000    2    1    2    0    0 -0.10213312713E+03  0.39738825159E+03  0.19493001582E+04  0.20801755005E+04  0.59917477229E+03 0.  0.
         23    2    4    4    0    0 -0.20168939453E+02  0.16108762191E+03  0.98106917026E+02  0.21013439682E+03  0.90418413546E+02 0.  0.
         23    2    4    4    0    0 -0.81964187673E+02  0.23630062968E+03  0.18511932412E+04  0.18700411036E+04  0.87070071998E+02 0.  0.
          4    1    3    3  502    0  0.88534216577E+02 -0.26954925332E+03  0.60423023290E+03  0.66752474248E+03  0.00000000000E+00 0. -1.
         -4    1    3    3    0  502  0.13598910548E+02 -0.12783899827E+03  0.42771673508E+03  0.44661991146E+03  0.00000000000E+00 0.  1.
         13    1    5    5    0    0 -0.51901003576E+02  0.66484374460E+02  0.30887203866E+02  0.89821520708E+02  0.00000000000E+00 0.  1.
        -13    1    5    5    0    0  0.31732064124E+02  0.94603247448E+02  0.67219713160E+02  0.12031287611E+03  0.00000000000E+00 0. -1.
          3    1    6    6  503    0 -0.44271732699E+02  0.79843309810E+02  0.41879706774E+03  0.42863262170E+03  0.00000000000E+00 0. -1.
         -3    1    6    6    0  503 -0.37692454974E+02  0.15645731987E+03  0.14323961734E+04  0.14414084819E+04  0.00000000000E+00 0.  1.
<mgrwt>
<rscale>  0 0.42431672E+03</rscale>
<asrwt>0</asrwt>
<pdfrwt beam="1">  1        2 0.47504357E+00 0.42431672E+03</pdfrwt>
<pdfrwt beam="2">  1       -2 0.16390235E-01 0.42431672E+03</pdfrwt>
<totfact> 0.52076477E+01</totfact>
</mgrwt>
</event>
<event>
12    1  0.1432447E-007  0.1625132E+04  0.7818608E-02  0.8805256E-01
          2   -1    0    0  501    0  0.00000000000E+00  0.00000000000E+00  0.16897818628E+04  0.16897818628E+04  0.00000000000E+00 0. -1.
         -2   -1    0    0    0  501 -0.00000000000E+00 -0.00000000000E+00 -0.17218021879E+04  0.17218021879E+04  0.00000000000E+00 0.  1.
         23    2    1    2    0    0  0.14729098586E+04 -0.64740847270E+03  0.35801482763E+03  0.16507137596E+04  0.89889471866E+02 0.  0.
    5000000    2    1    2    0    0 -0.14729098586E+04  0.64740847270E+03 -0.39003515276E+03  0.17608702911E+04  0.59994631390E+03 0.  0.
         23    2    4    4    0    0 -0.66459756945E+03  0.14445944344E+03 -0.41981829032E+03  0.80390046644E+03  0.86313978859E+02 0.  0.
         23    2    4    4    0    0 -0.80831228918E+03  0.50294902926E+03  0.29783137562E+02  0.95696982467E+03  0.92616020023E+02 0.  0.
          3    1    3    3  502    0  0.12205949142E+04 -0.55040268543E+03  0.26566577907E+03  0.13650543458E+04  0.00000000000E+00 0. -1.
         -3    1    3    3    0  502  0.25231494442E+03 -0.97005787269E+02  0.92349048562E+02  0.28565941383E+03  0.00000000000E+00 0.  1.
         11    1    5    5    0    0 -0.45776605893E+03  0.13927509929E+03 -0.30174852337E+03  0.56568497359E+03  0.00000000000E+00 0. -1.
        -11    1    5    5    0    0 -0.20683151052E+03  0.51843441477E+01 -0.11806976696E+03  0.23821549286E+03  0.00000000000E+00 0.  1.
          4    1    6    6  503    0 -0.53964388596E+03  0.28897465975E+03 -0.80832863757E+00  0.61214584130E+03  0.00000000000E+00 0. -1.
         -4    1    6    6    0  503 -0.26866840322E+03  0.21397436952E+03  0.30591466200E+02  0.34482398336E+03  0.00000000000E+00 0.  1.
<mgrwt>
<rscale>  0 0.16251318E+04</rscale>
<asrwt>0</asrwt>
<pdfrwt beam="1">  1        2 0.25996644E+00 0.16251318E+04</pdfrwt>
<pdfrwt beam="2">  1       -2 0.26489264E+00 0.16251318E+04</pdfrwt>
<totfact> 0.47979195E-01</totfact>
</mgrwt>
</event>
<event>
12    1  0.1432447E-007  0.4155833E+03  0.7818608E-02  0.1038513E+00
          2   -1    0    0  501    0  0.00000000000E+00  0.00000000000E+00  0.18352702177E+04  0.18352702177E+04  0.00000000000E+00 0. -1.
         -2   -1    0    0    0  501 -0.00000000000E+00 -0.00000000000E+00 -0.19036262755E+03  0.19036262755E+03  0.00000000000E+00 0.  1.
         23    2    1    2    0    0  0.85909822443E+02 -0.33560704860E+03  0.10623471970E+04  0.11204408820E+04  0.82423384093E+02 0.  0.
    5000000    2    1    2    0    0 -0.85909822443E+02  0.33560704860E+03  0.58256039314E+03  0.90519196333E+03  0.59998607497E+03 0.  0.
         23    2    4    4    0    0  0.11284754607E+03  0.10874357289E+03  0.56084861552E+03  0.58947584525E+03  0.91492454861E+02 0.  0.
         23    2    4    4    0    0 -0.19875736851E+03  0.22686347571E+03  0.21711777619E+02  0.31571611808E+03  0.90739945906E+02 0.  0.
          4    1    3    3  502    0  0.18004220981E+02 -0.65761957280E+02  0.33095257928E+03  0.33790293981E+03  0.00000000000E+00 0. -1.
         -4    1    3    3    0  502  0.67905601461E+02 -0.26984509132E+03  0.73139461776E+03  0.78253794215E+03  0.00000000000E+00 0.  1.
         13    1    5    5    0    0  0.12475320345E+03  0.74712603918E+02  0.44966871877E+03  0.47259633050E+03  0.00000000000E+00 0. -1.
        -13    1    5    5    0    0 -0.11905657382E+02  0.34030968975E+02  0.11117989675E+03  0.11687951475E+03  0.00000000000E+00 0.  1.
          1    1    6    6  503    0 -0.12659450556E+03  0.12086014580E+03 -0.29761606215E+02  0.17753618472E+03  0.00000000000E+00 0. -1.
         -1    1    6    6    0  503 -0.72162862951E+02  0.10600332991E+03  0.51473383834E+02  0.13817993337E+03  0.00000000000E+00 0.  1.
<mgrwt>
<rscale>  0 0.41558330E+03</rscale>
<asrwt>0</asrwt>
<pdfrwt beam="1">  1        2 0.28234925E+00 0.41558330E+03</pdfrwt>
<pdfrwt beam="2">  1       -2 0.29286559E-01 0.41558330E+03</pdfrwt>
<totfact> 0.94746625E+01</totfact>
</mgrwt>
</event>
<event>
12    1  0.1432447E-007  0.6438719E+03  0.7818608E-02  0.9818347E-01
          2   -1    0    0  501    0  0.00000000000E+00  0.00000000000E+00  0.12472026352E+04  0.12472026352E+04  0.00000000000E+00 0. -1.
         -2   -1    0    0    0  501 -0.00000000000E+00 -0.00000000000E+00 -0.43025177107E+03  0.43025177107E+03  0.00000000000E+00 0.  1.
         23    2    1    2    0    0  0.48168685629E+03  0.15903182507E+03 -0.35474940426E+02  0.51812561087E+03  0.99409900589E+02 0.  0.
    5000000    2    1    2    0    0 -0.48168685629E+03 -0.15903182507E+03  0.85242580452E+03  0.11593287954E+04  0.60008345639E+03 0.  0.
         23    2    4    4    0    0 -0.37852973309E+02  0.18793264754E+03  0.25588298633E+03  0.33348410647E+03  0.94784064993E+02 0.  0.
         23    2    4    4    0    0 -0.44383388298E+03 -0.34696447261E+03  0.59654281819E+03  0.82584468889E+03  0.93719023155E+02 0.  0.
          3    1    3    3  502    0  0.13037196044E+02  0.15752429488E+02  0.15159138412E+02  0.25454017224E+02  0.00000000000E+00 0. -1.
         -3    1    3    3    0  502  0.46864966025E+03  0.14327939558E+03 -0.50634078838E+02  0.49267159365E+03  0.00000000000E+00 0.  1.
         13    1    5    5    0    0  0.29853072603E+02  0.89801168816E+02  0.11416442119E+03  0.14828678610E+03  0.00000000000E+00 0.  1.
        -13    1    5    5    0    0 -0.67706045912E+02  0.98131478720E+02  0.14171856514E+03  0.18519732037E+03  0.00000000000E+00 0. -1.
          4    1    6    6  503    0 -0.30056617643E+03 -0.23218256296E+03  0.46292523832E+03  0.59878923273E+03  0.00000000000E+00 0. -1.
         -4    1    6    6    0  503 -0.14326770655E+03 -0.11478190965E+03  0.13361757986E+03  0.22705545616E+03  0.00000000000E+00 0.  1.
<mgrwt>
<rscale>  0 0.64387186E+03</rscale>
<asrwt>0</asrwt>
<pdfrwt beam="1">  1        2 0.19187733E+00 0.64387186E+03</pdfrwt>
<pdfrwt beam="2">  1       -2 0.66192581E-01 0.64387186E+03</pdfrwt>
<totfact> 0.38420793E+01</totfact>
</mgrwt>
</event>
<event>
12    1  0.1432447E-007  0.6013839E+03  0.7818608E-02  0.9902539E-01
          1   -1    0    0  501    0  0.00000000000E+00  0.00000000000E+00  0.13671590031E+04  0.13671590031E+04  0.00000000000E+00 0. -1.
         -1   -1    0    0    0  501 -0.00000000000E+00 -0.00000000000E+00 -0.36696617388E+03  0.36696617388E+03  0.00000000000E+00 0.  1.
         23    2    1    2    0    0 -0.55728816543E+03  0.14696551176E+03  0.37771383720E+03  0.69508959208E+03  0.91174762057E+02 0.  0.
    5000000    2    1    2    0    0  0.55728816543E+03 -0.14696551176E+03  0.62247899198E+03  0.10390355849E+04  0.59995490677E+03 0.  0.
         23    2    4    4    0    0  0.53110277892E+03 -0.68704698772E+02  0.16842660337E+03  0.56880638613E+03  0.91557013731E+02 0.  0.
         23    2    4    4    0    0  0.26185386505E+02 -0.78260812991E+02  0.45405238861E+03  0.47022919873E+03  0.90230252237E+02 0.  0.
          1    1    3    3  502    0 -0.13275412893E+03  0.17382243831E+02  0.13075334953E+03  0.18714229763E+03  0.00000000000E+00 0. -1.
         -1    1    3    3    0  502 -0.42453403649E+03  0.12958326793E+03  0.24696048767E+03  0.50794729445E+03  0.00000000000E+00 0.  1.
         11    1    5    5    0    0  0.14476656440E+03 -0.24564210379E+02  0.89702650924E+02  0.17206778950E+03  0.00000000000E+00 0. -1.
        -11    1    5    5    0    0  0.38633621452E+03 -0.44140488393E+02  0.78723952449E+02  0.39673859663E+03  0.00000000000E+00 0.  1.
          3    1    6    6  503    0  0.32198376159E+00 -0.53559588120E+02  0.92311114801E+02  0.10672429465E+03  0.00000000000E+00 0. -1.
         -3    1    6    6    0  503  0.25863402744E+02 -0.24701224871E+02  0.36174127381E+03  0.36350490407E+03  0.00000000000E+00 0.  1.
<mgrwt>
<rscale>  0 0.60138389E+03</rscale>
<asrwt>0</asrwt>
<pdfrwt beam="1">  1        1 0.21033215E+00 0.60138389E+03</pdfrwt>
<pdfrwt beam="2">  1       -1 0.56456335E-01 0.60138389E+03</pdfrwt>
<totfact> 0.27079795E+01</totfact>
</mgrwt>
</event>
<event>
12    1  0.1432447E-007  0.1204976E+04  0.7818608E-02  0.9108512E-01
          1   -1    0    0  501    0  0.00000000000E+00  0.00000000000E+00  0.16855417812E+04  0.16855417812E+04  0.00000000000E+00 0. -1.
         -1   -1    0    0    0  501 -0.00000000000E+00 -0.00000000000E+00 -0.14271151568E+04  0.14271151568E+04  0.00000000000E+00 0.  1.
         23    2    1    2    0    0 -0.80509747428E+03 -0.87437275602E+03 -0.77963382320E+03  0.14243725586E+04  0.91096804844E+02 0.  0.
    5000000    2    1    2    0    0  0.80509747428E+03  0.87437275602E+03  0.10380604476E+04  0.16882843794E+04  0.60002082737E+03 0.  0.
         23    2    4    4    0    0  0.48117975756E+03  0.35373155950E+03  0.17748003632E+03  0.62814112889E+03  0.80013369096E+02 0.  0.
         23    2    4    4    0    0  0.32391771672E+03  0.52064119651E+03  0.86058041127E+03  0.10601432505E+04  0.85528501687E+02 0.  0.
          3    1    3    3  502    0 -0.26333471069E+03 -0.25022016775E+03 -0.19769797863E+03  0.41356957451E+03  0.00000000000E+00 0. -1.
         -3    1    3    3    0  502 -0.54176276359E+03 -0.62415258827E+03 -0.58193584457E+03  0.10108029841E+04  0.00000000000E+00 0.  1.
         13    1    5    5    0    0  0.38401569315E+03  0.24606326123E+03  0.11591606181E+03  0.47058656430E+03  0.00000000000E+00 0.  1.
        -13    1    5    5    0    0  0.97164064414E+02  0.10766829827E+03  0.61563974508E+02  0.15755456459E+03  0.00000000000E+00 0. -1.
          1    1    6    6  503    0  0.10951721568E+03  0.10656778347E+03  0.20883656913E+03  0.25877292287E+03  0.00000000000E+00 0.  1.
         -1    1    6    6    0  503  0.21440050104E+03  0.41407341304E+03  0.65174384214E+03  0.80137032763E+03  0.00000000000E+00 0. -1.
<mgrwt>
<rscale>  0 0.12049759E+04</rscale>
<asrwt>0</asrwt>
<pdfrwt beam="1">  1        1 0.25931412E+00 0.12049759E+04</pdfrwt>
<pdfrwt beam="2">  1       -1 0.21955618E+00 0.12049759E+04</pdfrwt>
<totfact> 0.52932465E-01</totfact>
</mgrwt>
</event>
<event>
12    1  0.1432447E-007  0.3956125E+03  0.7818608E-02  0.1045310E+00
          2   -1    0    0  501    0  0.00000000000E+00  0.00000000000E+00  0.90780823674E+03  0.90780823674E+03  0.00000000000E+00 0. -1.
         -2   -1    0    0    0  501 -0.00000000000E+00 -0.00000000000E+00 -0.27437409656E+03  0.27437409656E+03  0.00000000000E+00 0.  1.
         23    2    1    2    0    0  0.18938403560E+03 -0.11924046018E+03  0.45875493237E+03  0.51847915919E+03  0.90994232032E+02 0.  0.
    5000000    2    1    2    0    0 -0.18938403560E+03  0.11924046018E+03  0.17467920781E+03  0.66370317411E+03  0.59992039255E+03 0.  0.
         23    2    4    4    0    0 -0.33050662258E+03  0.21486193168E+03  0.15661966530E+01  0.40430113632E+03  0.89759002884E+02 0.  0.
         23    2    4    4    0    0  0.14112258699E+03 -0.95621471505E+02  0.17311301116E+03  0.25940203780E+03  0.90896931792E+02 0.  0.
          1    1    3    3  502    0  0.87112822108E+02 -0.50125922782E+02  0.30601902992E+03  0.32210075844E+03  0.00000000000E+00 0. -1.
         -1    1    3    3    0  502  0.10227121349E+03 -0.69114537393E+02  0.15273590244E+03  0.19637840075E+03  0.00000000000E+00 0.  1.
         13    1    5    5    0    0 -0.23806202630E+03  0.17719798446E+03 -0.33145002704E+02  0.29861554760E+03  0.00000000000E+00 0. -1.
        -13    1    5    5    0    0 -0.92444596279E+02  0.37663947219E+02  0.34711199357E+02  0.10568558871E+03  0.00000000000E+00 0.  1.
          2    1    6    6  503    0  0.75215983051E+02 -0.56224919958E+02  0.32832252620E+02  0.99481870422E+02  0.00000000000E+00 0. -1.
         -2    1    6    6    0  503  0.65906603935E+02 -0.39396551547E+02  0.14028075854E+03  0.15992016737E+03  0.00000000000E+00 0.  1.
<mgrwt>
<rscale>  0 0.39561247E+03</rscale>
<asrwt>0</asrwt>
<pdfrwt beam="1">  1        2 0.13966280E+00 0.39561247E+03</pdfrwt>
<pdfrwt beam="2">  1       -2 0.42211400E-01 0.39561247E+03</pdfrwt>
<totfact> 0.16033296E+02</totfact>
</mgrwt>
</event>
<event>
12    1  0.1432447E-007  0.1740883E+04  0.7818608E-02  0.8738385E-01
         -2   -1    0    0    0  501 -0.00000000000E+00  0.00000000000E+00  0.15564705550E+04  0.15564705550E+04  0.00000000000E+00 0.  1.
          2   -1    0    0  501    0  0.00000000000E+00 -0.00000000000E+00 -0.20698957501E+04  0.20698957501E+04  0.00000000000E+00 0. -1.
         23    2    1    2    0    0  0.13563333154E+04  0.10812281173E+04 -0.68269220351E+02  0.17377675944E+04  0.80506034691E+02 0.  0.
    5000000    2    1    2    0    0 -0.13563333154E+04 -0.10812281173E+04 -0.44515597477E+03  0.18885987106E+04  0.59995578499E+03 0.  0.
         23    2    4    4    0    0 -0.89849557292E+03 -0.82982201233E+03 -0.50541259477E+02  0.12276655849E+04  0.93324716274E+02 0.  0.
         23    2    4    4    0    0 -0.45783774245E+03 -0.25140610497E+03 -0.39461471529E+03  0.66093312577E+03  0.91057098503E+02 0.  0.
          1    1    3    3  502    0  0.45165172058E+03  0.31507547005E+03 -0.34587416284E+02  0.55177723575E+03  0.00000000000E+00 0. -1.
         -1    1    3    3    0  502  0.90468159479E+03  0.76615264725E+03 -0.33681804067E+02  0.11859903586E+04  0.00000000000E+00 0.  1.
         11    1    5    5    0    0 -0.34524954962E+03 -0.31190387100E+03 -0.64325143232E+02  0.46970096904E+03  0.00000000000E+00 0.  1.
        -11    1    5    5    0    0 -0.55324602330E+03 -0.51791814132E+03  0.13783883755E+02  0.75796461584E+03  0.00000000000E+00 0. -1.
          1    1    6    6  503    0 -0.32004997836E+03 -0.18169356952E+03 -0.32717092388E+03  0.49242802041E+03  0.00000000000E+00 0. -1.
         -1    1    6    6    0  503 -0.13778776409E+03 -0.69712535453E+02 -0.67443791408E+02  0.16850510536E+03  0.00000000000E+00 0.  1.
<mgrwt>
<rscale>  0 0.17408830E+04</rscale>
<asrwt>0</asrwt>
<pdfrwt beam="1">  1        2 0.31844550E+00 0.17408830E+04</pdfrwt>
<pdfrwt beam="2">  1       -2 0.23945701E+00 0.17408830E+04</pdfrwt>
<totfact> 0.41725137E-01</totfact>
</mgrwt>
</event>
<event>
12    1  0.1432447E-007  0.1201088E+04  0.7818608E-02  0.9111904E-01
         -2   -1    0    0    0  501 -0.00000000000E+00  0.00000000000E+00  0.44154918813E+04  0.44154918813E+04  0.00000000000E+00 0.  1.
          2   -1    0    0  501    0  0.00000000000E+00 -0.00000000000E+00 -0.81466864270E+03  0.81466864270E+03  0.00000000000E+00 0. -1.
         23    2    1    2    0    0  0.11763643269E+04  0.20485943762E+03  0.37011392481E+04  0.38900728278E+04  0.91839278082E+02 0.  0.
    5000000    2    1    2    0    0 -0.11763643269E+04 -0.20485943762E+03 -0.10031600946E+03  0.13400876962E+04  0.59997609379E+03 0.  0.
         23    2    4    4    0    0 -0.14131755012E+03  0.55178834147E+01  0.17658908952E+03  0.24385021703E+03  0.90984200811E+02 0.  0.
         23    2    4    4    0    0 -0.10350467768E+04 -0.21037732103E+03 -0.27690509898E+03  0.10962374792E+04  0.97363903456E+02 0.  0.
          3    1    3    3  502    0  0.66187685840E+03  0.75502578952E+02  0.21360216391E+04  0.22374919124E+04  0.00000000000E+00 0. -1.
         -3    1    3    3    0  502  0.51448746849E+03  0.12935685866E+03  0.15651176090E+04  0.16525809154E+04  0.00000000000E+00 0.  1.
         13    1    5    5    0    0 -0.34091656089E+02 -0.19213404637E+02  0.42328178861E+01  0.39361309428E+02  0.00000000000E+00 0. -1.
        -13    1    5    5    0    0 -0.10722589403E+03  0.24731288052E+02  0.17235627164E+03  0.20448890760E+03  0.00000000000E+00 0.  1.
          4    1    6    6  503    0 -0.45529438317E+03 -0.84397302130E+02 -0.72276172006E+02  0.46865736417E+03  0.00000000000E+00 0. -1.
         -4    1    6    6    0  503 -0.57975239360E+03 -0.12598001890E+03 -0.20462892697E+03  0.62758011504E+03  0.00000000000E+00 0.  1.
<mgrwt>
<rscale>  0 0.12010883E+04</rscale>
<asrwt>0</asrwt>
<pdfrwt beam="1">  1        2 0.12533364E+00 0.12010883E+04</pdfrwt>
<pdfrwt beam="2">  1       -2 0.67930643E+00 0.12010883E+04</pdfrwt>
<totfact> 0.87233994E-03</totfact>
</mgrwt>
</event>
<event>
12    1  0.1432447E-007  0.4375509E+03  0.7818608E-02  0.1031501E+00
          1   -1    0    0  501    0  0.00000000000E+00  0.00000000000E+00  0.55578754193E+03  0.55578754193E+03  0.00000000000E+00 0. -1.
         -1   -1    0    0    0  501 -0.00000000000E+00 -0.00000000000E+00 -0.72995937021E+03  0.72995937021E+03  0.00000000000E+00 0.  1.
         23    2    1    2    0    0  0.20363550180E+03 -0.23524877683E+03 -0.45066439262E+03  0.55502070781E+03  0.90222983407E+02 0.  0.
    5000000    2    1    2    0    0 -0.20363550180E+03  0.23524877683E+03  0.27649256434E+03  0.73072620432E+03  0.60058574988E+03 0.  0.
         23    2    4    4    0    0 -0.21395228420E+03 -0.93800450842E+02  0.30161372029E+03  0.38960485278E+03  0.79037969044E+02 0.  0.
         23    2    4    4    0    0  0.10316782403E+02  0.32904922767E+03 -0.25121155950E+02  0.34112135154E+03  0.85748899542E+02 0.  0.
          3    1    3    3  502    0  0.88050498551E+02 -0.11344498623E+03 -0.13313292240E+03  0.19582397765E+03  0.00000000000E+00 0. -1.
         -3    1    3    3    0  502  0.11558500324E+03 -0.12180379060E+03 -0.31753147022E+03  0.35919673016E+03  0.00000000000E+00 0.  1.
         13    1    5    5    0    0 -0.85347188389E+02 -0.32958148434E+02  0.60623218538E+02  0.10975225164E+03  0.00000000000E+00 0.  1.
        -13    1    5    5    0    0 -0.12860509581E+03 -0.60842302408E+02  0.24099050175E+03  0.27985260114E+03  0.00000000000E+00 0. -1.
          4    1    6    6  503    0  0.16212532911E+02  0.21106435534E+03  0.24283607401E+02  0.21307440463E+03  0.00000000000E+00 0. -1.
         -4    1    6    6    0  503 -0.58957505078E+01  0.11798487233E+03 -0.49404763351E+02  0.12804694692E+03  0.00000000000E+00 0.  1.
<mgrwt>
<rscale>  0 0.43755089E+03</rscale>
<asrwt>0</asrwt>
<pdfrwt beam="1">  1        1 0.85505775E-01 0.43755089E+03</pdfrwt>
<pdfrwt beam="2">  1       -1 0.11230144E+00 0.43755089E+03</pdfrwt>
<totfact> 0.29621972E+01</totfact>
</mgrwt>
</event>
<event>
12    1  0.1432447E-007  0.1007443E+04  0.7818608E-02  0.9300419E-01
         -2   -1    0    0    0  501 -0.00000000000E+00  0.00000000000E+00  0.83250137423E+03  0.83250137423E+03  0.00000000000E+00 0.  1.
          2   -1    0    0  501    0  0.00000000000E+00 -0.00000000000E+00 -0.22040799532E+04  0.22040799532E+04  0.00000000000E+00 0. -1.
         23    2    1    2    0    0 -0.17565148516E+03 -0.99013246332E+03 -0.15522736104E+04  0.18517636112E+04  0.90881081256E+02 0.  0.
    5000000    2    1    2    0    0  0.17565148516E+03  0.99013246332E+03  0.18069503147E+03  0.11848177162E+04  0.59993881949E+03 0.  0.
         23    2    4    4    0    0  0.13033658753E+03  0.81784533131E+03 -0.10362763610E+03  0.83977551239E+03  0.92874174337E+02 0.  0.
         23    2    4    4    0    0  0.45314897632E+02  0.17228713201E+03  0.28432266757E+03  0.34504220384E+03  0.80488802504E+02 0.  0.
          1    1    3    3  502    0 -0.13785918182E+03 -0.68785099073E+03 -0.10090730310E+04  0.12289721402E+04  0.00000000000E+00 0. -1.
         -1    1    3    3    0  502 -0.37792303345E+02 -0.30228147259E+03 -0.54320057943E+03  0.62279147101E+03  0.00000000000E+00 0.  1.
         11    1    5    5    0    0  0.56922587458E+02  0.50878784465E+03 -0.25211514944E+02  0.51258255170E+03  0.00000000000E+00 0. -1.
        -11    1    5    5    0    0  0.73414000074E+02  0.30905748666E+03 -0.78416121159E+02  0.32719296069E+03  0.00000000000E+00 0.  1.
          4    1    6    6  503    0  0.17170913455E+02  0.10120599514E+03  0.91106429356E+02  0.13725113912E+03  0.00000000000E+00 0. -1.
         -4    1    6    6    0  503  0.28143984177E+02  0.71081136880E+02  0.19321623822E+03  0.20779106472E+03  0.00000000000E+00 0.  1.
<mgrwt>
<rscale>  0 0.10074432E+04</rscale>
<asrwt>0</asrwt>
<pdfrwt beam="1">  1        2 0.33908922E+00 0.10074432E+04</pdfrwt>
<pdfrwt beam="2">  1       -2 0.12807714E+00 0.10074432E+04</pdfrwt>
<totfact> 0.23176698E+00</totfact>
</mgrwt>
</event>
<event>
12    1  0.1432447E-007  0.8638269E+03  0.7818608E-02  0.9471965E-01
         -1   -1    0    0    0  501 -0.00000000000E+00  0.00000000000E+00  0.12983866446E+04  0.12983866446E+04  0.00000000000E+00 0.  1.
          1   -1    0    0  501    0  0.00000000000E+00 -0.00000000000E+00 -0.76403012736E+03  0.76403012736E+03  0.00000000000E+00 0. -1.
         23    2    1    2    0    0 -0.72804240591E+03 -0.22473431757E+03 -0.25810941669E+03  0.80998697480E+03  0.94377804951E+02 0.  0.
    5000000    2    1    2    0    0  0.72804240591E+03  0.22473431757E+03  0.79246593390E+03  0.12524297971E+04  0.60002240130E+03 0.  0.
         23    2    4    4    0    0  0.22993057847E+03  0.36672461555E+03  0.32708806018E+03  0.55037378576E+03  0.92572622175E+02 0.  0.
         23    2    4    4    0    0  0.49811182744E+03 -0.14199029798E+03  0.46537787371E+03  0.70205601136E+03  0.89607144782E+02 0.  0.
          3    1    3    3  502    0 -0.11984298979E+03 -0.12413514182E+02 -0.67890407339E+02  0.13829513710E+03  0.00000000000E+00 0. -1.
         -3    1    3    3    0  502 -0.60819941611E+03 -0.21232080339E+03 -0.19021900935E+03  0.67169183770E+03  0.00000000000E+00 0.  1.
         11    1    5    5    0    0  0.14834877091E+03  0.14961355634E+03  0.15734818074E+03  0.26296392158E+03  0.00000000000E+00 0.  1.
        -11    1    5    5    0    0  0.81581807553E+02  0.21711105921E+03  0.16973987944E+03  0.28740986418E+03  0.00000000000E+00 0. -1.
          1    1    6    6  503    0  0.15064073149E+02 -0.14157853967E+02  0.43261238790E+02  0.47946907204E+02  0.00000000000E+00 0. -1.
         -1    1    6    6    0  503  0.48304775429E+03 -0.12783244402E+03  0.42211663492E+03  0.65410910416E+03  0.00000000000E+00 0.  1.
<mgrwt>
<rscale>  0 0.86382686E+03</rscale>
<asrwt>0</asrwt>
<pdfrwt beam="1">  1        1 0.11754310E+00 0.86382686E+03</pdfrwt>
<pdfrwt beam="2">  1       -1 0.19975179E+00 0.86382686E+03</pdfrwt>
<totfact> 0.36712164E+00</totfact>
</mgrwt>
</event>
<event>
12    1  0.1432447E-007  0.1062798E+04  0.7818608E-02  0.9242230E-01
          2   -1    0    0  501    0  0.00000000000E+00  0.00000000000E+00  0.25390368118E+04  0.25390368118E+04  0.00000000000E+00 0. -1.
         -2   -1    0    0    0  501 -0.00000000000E+00 -0.00000000000E+00 -0.49770898927E+03  0.49770898927E+03  0.00000000000E+00 0.  1.
         23    2    1    2    0    0 -0.95174057300E+03 -0.42198595035E+03  0.10105883460E+04  0.14536340147E+04  0.88773774027E+02 0.  0.
    5000000    2    1    2    0    0  0.95174057300E+03  0.42198595035E+03  0.10307394765E+04  0.15831117863E+04  0.59994733030E+03 0.  0.
         23    2    4    4    0    0  0.46800159477E+03  0.59405697394E+02  0.79368425824E+03  0.92768130722E+03  0.90018755837E+02 0.  0.
         23    2    4    4    0    0  0.48373897823E+03  0.36258025296E+03  0.23705521823E+03  0.65543047912E+03  0.89028633499E+02 0.  0.
          4    1    3    3  502    0 -0.43411782132E+03 -0.19442835783E+03  0.40056787564E+03  0.62186436794E+03  0.00000000000E+00 0.  1.
         -4    1    3    3    0  502 -0.51762275168E+03 -0.22755759252E+03  0.61002047038E+03  0.83176964675E+03  0.00000000000E+00 0. -1.
         11    1    5    5    0    0  0.18623285175E+03  0.48907819975E+02  0.39419249775E+03  0.43870533985E+03  0.00000000000E+00 0.  1.
        -11    1    5    5    0    0  0.28176874302E+03  0.10497877419E+02  0.39949176048E+03  0.48897596737E+03  0.00000000000E+00 0. -1.
          4    1    6    6  503    0  0.15390902761E+03  0.69986424478E+02  0.48462731047E+02  0.17588270152E+03  0.00000000000E+00 0. -1.
         -4    1    6    6    0  503  0.32982995061E+03  0.29259382848E+03  0.18859248718E+03  0.47954777761E+03  0.00000000000E+00 0.  1.
<mgrwt>
<rscale>  0 0.10627980E+04</rscale>
<asrwt>0</asrwt>
<pdfrwt beam="1">  1        2 0.39062104E+00 0.10627980E+04</pdfrwt>
<pdfrwt beam="2">  1       -2 0.76570616E-01 0.10627980E+04</pdfrwt>
<totfact> 0.50537572E+00</totfact>
</mgrwt>
</event>
<event>
12    1  0.1432447E-007  0.1121656E+04  0.7818608E-02  0.9184338E-01
          2   -1    0    0  501    0  0.00000000000E+00  0.00000000000E+00  0.89558766862E+03  0.89558766862E+03  0.00000000000E+00 0. -1.
         -2   -1    0    0    0  501 -0.00000000000E+00 -0.00000000000E+00 -0.17403492529E+04  0.17403492529E+04  0.00000000000E+00 0.  1.
         23    2    1    2    0    0 -0.93382457937E+03 -0.57328269256E+03  0.48520556142E+02  0.11002083064E+04  0.86154991048E+02 0.  0.
    5000000    2    1    2    0    0  0.93382457937E+03  0.57328269256E+03 -0.89328214045E+03  0.15357286151E+04  0.59985665479E+03 0.  0.
         23    2    4    4    0    0  0.80606158282E+03  0.58371393419E+03 -0.94304094387E+03  0.13743837602E+04  0.95641341542E+02 0.  0.
         23    2    4    4    0    0  0.12776299655E+03 -0.10431241636E+02  0.49758803416E+02  0.16134485494E+03  0.84403966799E+02 0.  0.
          1    1    3    3  502    0 -0.12479091718E+03 -0.99808658487E+02 -0.15994878499E+02  0.16059382758E+03  0.00000000000E+00 0. -1.
         -1    1    3    3    0  502 -0.80903366219E+03 -0.47347403407E+03  0.64515434641E+02  0.93961447882E+03  0.00000000000E+00 0.  1.
         13    1    5    5    0    0  0.52104868671E+03  0.41099298115E+03 -0.57745301511E+03  0.87969253102E+03  0.00000000000E+00 0. -1.
        -13    1    5    5    0    0  0.28501289612E+03  0.17272095304E+03 -0.36558792876E+03  0.49469122918E+03  0.00000000000E+00 0.  1.
          2    1    6    6  503    0  0.82180274127E+02  0.30797307984E+02  0.47613401890E+02  0.99845418895E+02  0.00000000000E+00 0.  1.
         -2    1    6    6    0  503  0.45582722418E+02 -0.41228549620E+02  0.21454015258E+01  0.61499436050E+02  0.00000000000E+00 0. -1.
<mgrwt>
<rscale>  0 0.11216557E+04</rscale>
<asrwt>0</asrwt>
<pdfrwt beam="1">  1        2 0.13778272E+00 0.11216557E+04</pdfrwt>
<pdfrwt beam="2">  1       -2 0.26774604E+00 0.11216557E+04</pdfrwt>
<totfact> 0.14548512E+00</totfact>
</mgrwt>
</event>
<event>
12    1  0.1432447E-007  0.1907337E+04  0.7818608E-02  0.8651213E-01
         -2   -1    0    0    0  501 -0.00000000000E+00  0.00000000000E+00  0.22770486150E+04  0.22770486150E+04  0.00000000000E+00 0.  1.
          2   -1    0    0  501    0  0.00000000000E+00 -0.00000000000E+00 -0.16656865222E+04  0.16656865222E+04  0.00000000000E+00 0. -1.
         23    2    1    2    0    0  0.17008909950E+04 -0.84289862432E+03  0.38421022030E+03  0.19388507029E+04  0.89533719835E+02 0.  0.
    5000000    2    1    2    0    0 -0.17008909950E+04  0.84289862432E+03  0.22715187255E+03  0.20038844343E+04  0.60037203876E+03 0.  0.
         23    2    4    4    0    0 -0.11666496335E+04  0.69763560134E+03  0.39461242294E+03  0.14183166699E+04  0.90202062476E+02 0.  0.
         23    2    4    4    0    0 -0.53424136153E+03  0.14526302299E+03 -0.16746055040E+03  0.58556776442E+03  0.91276462350E+02 0.  0.
          4    1    3    3  502    0  0.14979496908E+04 -0.74510087182E+03  0.36776965629E+03  0.17129749284E+04  0.00000000000E+00 0. -1.
         -4    1    3    3    0  502  0.20294130422E+03 -0.97797752506E+02  0.16440564016E+02  0.22587577449E+03  0.00000000000E+00 0.  1.
         13    1    5    5    0    0 -0.56142698621E+03  0.36627926630E+03  0.15626928162E+03  0.68831740508E+03  0.00000000000E+00 0.  1.
        -13    1    5    5    0    0 -0.60522264731E+03  0.33135633504E+03  0.23834314132E+03  0.72999926479E+03  0.00000000000E+00 0. -1.
          2    1    6    6  503    0 -0.18520794666E+03  0.25146823633E+02 -0.19604298433E+02  0.18793263358E+03  0.00000000000E+00 0. -1.
         -2    1    6    6    0  503 -0.34903341486E+03  0.12011619935E+03 -0.14785625196E+03  0.39763513084E+03  0.00000000000E+00 0.  1.
<mgrwt>
<rscale>  0 0.19073375E+04</rscale>
<asrwt>0</asrwt>
<pdfrwt beam="1">  1        2 0.25625946E+00 0.19073375E+04</pdfrwt>
<pdfrwt beam="2">  1       -2 0.35031517E+00 0.19073375E+04</pdfrwt>
<totfact> 0.14299037E-01</totfact>
</mgrwt>
</event>
<event>
12    1  0.1432447E-007  0.1578102E+04  0.7818608E-02  0.8834115E-01
         -1   -1    0    0    0  501 -0.00000000000E+00  0.00000000000E+00  0.23267911562E+04  0.23267911562E+04  0.00000000000E+00 0.  1.
          1   -1    0    0  501    0  0.00000000000E+00 -0.00000000000E+00 -0.16122028293E+04  0.16122028293E+04  0.00000000000E+00 0. -1.
         23    2    1    2    0    0 -0.11653904857E+04 -0.98756252308E+03  0.14796885602E+04  0.21286454414E+04  0.90765957331E+02 0.  0.
    5000000    2    1    2    0    0  0.11653904857E+04  0.98756252308E+03 -0.76510023325E+03  0.18103485441E+04  0.59880611474E+03 0.  0.
         23    2    4    4    0    0  0.18724627011E+03 -0.45558724802E+02 -0.13003022548E+03  0.24962545962E+03  0.90929904194E+02 0.  0.
         23    2    4    4    0    0  0.97814421557E+03  0.10331212479E+04 -0.63507000777E+03  0.15607230845E+04  0.91853210787E+02 0.  0.
          1    1    3    3  502    0 -0.82555723857E+03 -0.66210081231E+03  0.10663205166E+04  0.15023187691E+04  0.00000000000E+00 0. -1.
         -1    1    3    3    0  502 -0.33983324711E+03 -0.32546171077E+03  0.41336804359E+03  0.62632667234E+03  0.00000000000E+00 0.  1.
         13    1    5    5    0    0  0.44565807551E+01 -0.16249885114E+02 -0.40751014441E+02  0.44097222772E+02  0.00000000000E+00 0.  1.
        -13    1    5    5    0    0  0.18278968936E+03 -0.29308839688E+02 -0.89279211039E+02  0.20552823685E+03  0.00000000000E+00 0. -1.
          3    1    6    6  503    0  0.46036886235E+03  0.42282112963E+03 -0.26398512803E+03  0.67853175674E+03  0.00000000000E+00 0. -1.
         -3    1    6    6    0  503  0.51777535322E+03  0.61030011825E+03 -0.37108487974E+03  0.88219132773E+03  0.00000000000E+00 0.  1.
<mgrwt>
<rscale>  0 0.15781023E+04</rscale>
<asrwt>0</asrwt>
<pdfrwt beam="1">  1        1 0.24803121E+00 0.15781023E+04</pdfrwt>
<pdfrwt beam="2">  1       -1 0.35796787E+00 0.15781023E+04</pdfrwt>
<totfact> 0.70500727E-02</totfact>
</mgrwt>
</event>
<event>
12    1  0.1432447E-007  0.4021820E+03  0.7818608E-02  0.1043027E+00
         -1   -1    0    0    0  501 -0.00000000000E+00  0.00000000000E+00  0.96128678917E+03  0.96128678917E+03  0.00000000000E+00 0.  1.
          1   -1    0    0  501    0  0.00000000000E+00 -0.00000000000E+00 -0.67373245811E+03  0.67373245811E+03  0.00000000000E+00 0. -1.
         23    2    1    2    0    0  0.86753059909E+02  0.30894599670E+03  0.74413393953E+03  0.81554908498E+03  0.91712964030E+02 0.  0.
    5000000    2    1    2    0    0 -0.86753059909E+02 -0.30894599670E+03 -0.45657960847E+03  0.81947016229E+03  0.60007723314E+03 0.  0.
         23    2    4    4    0    0  0.11222464760E+03 -0.22249915744E+03  0.40607209161E+02  0.27015249604E+03  0.96089432749E+02 0.  0.
         23    2    4    4    0    0 -0.19897770751E+03 -0.86446839261E+02 -0.49718681763E+03  0.54931766626E+03  0.86544686333E+02 0.  0.
          4    1    3    3  502    0  0.54484874930E+02  0.22676140539E+03  0.42915563415E+03  0.48843003071E+03  0.00000000000E+00 0. -1.
         -4    1    3    3    0  502  0.32268184979E+02  0.82184591311E+02  0.31497830538E+03  0.32711905428E+03  0.00000000000E+00 0.  1.
         11    1    5    5    0    0  0.10245431218E+03 -0.10565029793E+03  0.41441161799E+02  0.15289290837E+03  0.00000000000E+00 0.  1.
        -11    1    5    5    0    0  0.97703354216E+01 -0.11684885951E+03 -0.83395263805E+00  0.11725958767E+03  0.00000000000E+00 0. -1.
          3    1    6    6  503    0 -0.11784264170E+03 -0.64679970372E+02 -0.20379639248E+03  0.24413798631E+03  0.00000000000E+00 0. -1.
         -3    1    6    6    0  503 -0.81135065816E+02 -0.21766868889E+02 -0.29339042515E+03  0.30517967995E+03  0.00000000000E+00 0.  1.
<mgrwt>
<rscale>  0 0.40218201E+03</rscale>
<asrwt>0</asrwt>
<pdfrwt beam="1">  1        1 0.10365115E+00 0.40218201E+03</pdfrwt>
<pdfrwt beam="2">  1       -1 0.14789028E+00 0.40218201E+03</pdfrwt>
<totfact> 0.11449924E+01</totfact>
</mgrwt>
</event>
<event>
12    1  0.1432447E-007  0.6744827E+03  0.7818608E-02  0.9761894E-01
          3   -1    0    0  501    0  0.00000000000E+00  0.00000000000E+00  0.89874905602E+03  0.89874905602E+03  0.00000000000E+00 0. -1.
         -3   -1    0    0    0  501 -0.00000000000E+00 -0.00000000000E+00 -0.76244400042E+03  0.76244400042E+03  0.00000000000E+00 0.  1.
         23    2    1    2    0    0 -0.49503042602E+03  0.21980725923E+03 -0.40922525842E+03  0.68605863484E+03  0.99200727837E+02 0.  0.
    5000000    2    1    2    0    0  0.49503042602E+03 -0.21980725923E+03  0.54553031402E+03  0.97513442161E+03  0.59992788133E+03 0.  0.
         23    2    4    4    0    0  0.61792719252E+03 -0.17215604600E+03  0.42933706162E+03  0.77678082825E+03  0.87100075967E+02 0.  0.
         23    2    4    4    0    0 -0.12289676650E+03 -0.47651213237E+02  0.11619325240E+03  0.19835359336E+03  0.92027293530E+02 0.  0.
          2    1    3    3  502    0 -0.46156212279E+03  0.20779172007E+03 -0.34475584870E+03  0.61243251656E+03  0.00000000000E+00 0.  1.
         -2    1    3    3    0  502 -0.33468303226E+02  0.12015539168E+02 -0.64469409725E+02  0.73626118277E+02  0.00000000000E+00 0. -1.
         11    1    5    5    0    0  0.16419400899E+03 -0.72127002036E+01  0.10047515070E+03  0.19263164730E+03  0.00000000000E+00 0.  1.
        -11    1    5    5    0    0  0.45373318353E+03 -0.16494334579E+03  0.32886191092E+03  0.58414918095E+03  0.00000000000E+00 0. -1.
          1    1    6    6  503    0 -0.15298640366E+02 -0.50182658318E+02  0.29761673999E+02  0.60316704421E+02  0.00000000000E+00 0. -1.
         -1    1    6    6    0  503 -0.10759812614E+03  0.25314450810E+01  0.86431578406E+02  0.13803688894E+03  0.00000000000E+00 0.  1.
<mgrwt>
<rscale>  0 0.67448271E+03</rscale>
<asrwt>0</asrwt>
<pdfrwt beam="1">  1        3 0.13826908E+00 0.67448271E+03</pdfrwt>
<pdfrwt beam="2">  1       -3 0.11729908E+00 0.67448271E+03</pdfrwt>
<totfact> 0.61947463E-01</totfact>
</mgrwt>
</event>
<event>
12    1  0.1432447E-007  0.3904435E+03  0.7818608E-02  0.1047140E+00
         -2   -1    0    0    0  501 -0.00000000000E+00  0.00000000000E+00  0.14281690092E+04  0.14281690092E+04  0.00000000000E+00 0.  1.
          2   -1    0    0  501    0  0.00000000000E+00 -0.00000000000E+00 -0.12403231884E+03  0.12403231884E+03  0.00000000000E+00 0. -1.
         23    2    1    2    0    0 -0.17831118594E+03 -0.58347235124E+02  0.25502254041E+03  0.32914889080E+03  0.90017872237E+02 0.  0.
    5000000    2    1    2    0    0  0.17831118594E+03  0.58347235124E+02  0.10491141499E+04  0.12230524372E+04  0.60001457123E+03 0.  0.
         23    2    4    4    0    0  0.49234499122E+02 -0.23309718703E+03  0.68390213586E+03  0.72980821370E+03  0.90219525836E+02 0.  0.
         23    2    4    4    0    0  0.12907668682E+03  0.29144442215E+03  0.36521201406E+03  0.49324422350E+03  0.91155946134E+02 0.  0.
          3    1    3    3  502    0 -0.16320418512E+03 -0.71358758596E+02  0.18696787987E+03  0.25823374406E+03  0.00000000000E+00 0. -1.
         -3    1    3    3    0  502 -0.15107000828E+02  0.13011523472E+02  0.68054660533E+02  0.70915146741E+02  0.00000000000E+00 0.  1.
         13    1    5    5    0    0 -0.25503441574E+02 -0.84055170867E+02  0.22307245616E+03  0.23974365055E+03  0.00000000000E+00 0.  1.
        -13    1    5    5    0    0  0.74737940696E+02 -0.14904201616E+03  0.46082967970E+03  0.49006456315E+03  0.00000000000E+00 0. -1.
          3    1    6    6  503    0  0.97748969271E+02  0.12394307399E+03  0.21029064350E+03  0.26294277196E+03  0.00000000000E+00 0. -1.
         -3    1    6    6    0  503  0.31327717551E+02  0.16750134817E+03  0.15492137057E+03  0.23030145154E+03  0.00000000000E+00 0.  1.
<mgrwt>
<rscale>  0 0.39044348E+03</rscale>
<asrwt>0</asrwt>
<pdfrwt beam="1">  1        2 0.19081896E-01 0.39044348E+03</pdfrwt>
<pdfrwt beam="2">  1       -2 0.21971830E+00 0.39044348E+03</pdfrwt>
<totfact> 0.31441194E+01</totfact>
</mgrwt>
</event>
<event>
12    1  0.1432447E-007  0.4441462E+03  0.7818608E-02  0.1029482E+00
         -2   -1    0    0    0  501 -0.00000000000E+00  0.00000000000E+00  0.25698376616E+03  0.25698376616E+03  0.00000000000E+00 0. -1.
          2   -1    0    0  501    0  0.00000000000E+00 -0.00000000000E+00 -0.16875633737E+04  0.16875633737E+04  0.00000000000E+00 0.  1.
         23    2    1    2    0    0  0.53896317453E+02  0.40191756557E+03 -0.10437671656E+04  0.11235643681E+04  0.92219579730E+02 0.  0.
    5000000    2    1    2    0    0 -0.53896317453E+02 -0.40191756557E+03 -0.38681244195E+03  0.82098277170E+03  0.59995525136E+03 0.  0.
         23    2    4    4    0    0  0.92595497236E+02 -0.21430775570E+03  0.10128690212E+03  0.27018663306E+03  0.90774665411E+02 0.  0.
         23    2    4    4    0    0 -0.14649181469E+03 -0.18760980987E+03 -0.48809934407E+03  0.55079613864E+03  0.92076729596E+02 0.  0.
          4    1    3    3  502    0  0.37902386544E+02  0.33197600736E+03 -0.74829305458E+03  0.81950421347E+03  0.00000000000E+00 0. -1.
         -4    1    3    3    0  502  0.15993930909E+02  0.69941558211E+02 -0.29547411100E+03  0.30406015468E+03  0.00000000000E+00 0.  1.
         11    1    5    5    0    0  0.13741045974E+02 -0.17148312839E+01 -0.10503669119E+02  0.17380565461E+02  0.00000000000E+00 0.  1.
        -11    1    5    5    0    0  0.78854451263E+02 -0.21259292442E+03  0.11179057124E+03  0.25280606760E+03  0.00000000000E+00 0. -1.
          3    1    6    6  503    0 -0.11072298467E+03 -0.10861036012E+03 -0.39084067863E+03  0.42049045855E+03  0.00000000000E+00 0. -1.
         -3    1    6    6    0  503 -0.35768830020E+02 -0.78999449750E+02 -0.97258665443E+02  0.13030568010E+03  0.00000000000E+00 0.  1.
<mgrwt>
<rscale>  0 0.44414622E+03</rscale>
<asrwt>0</asrwt>
<pdfrwt beam="1">  1        2 0.25962514E+00 0.44414622E+03</pdfrwt>
<pdfrwt beam="2">  1       -2 0.39535963E-01 0.44414622E+03</pdfrwt>
<totfact> 0.64354397E+01</totfact>
</mgrwt>
</event>
<event>
12    1  0.1432447E-007  0.9231692E+03  0.7818608E-02  0.9397073E-01
         -2   -1    0    0    0  501 -0.00000000000E+00  0.00000000000E+00  0.34994398058E+03  0.34994398058E+03  0.00000000000E+00 0.  1.
          2   -1    0    0  501    0  0.00000000000E+00 -0.00000000000E+00 -0.25992828257E+04  0.25992828257E+04  0.00000000000E+00 0. -1.
         23    2    1    2    0    0 -0.55888919122E+02  0.83279188049E+03 -0.71750479787E+03  0.11044808873E+04  0.91646101103E+02 0.  0.
    5000000    2    1    2    0    0  0.55888919122E+02 -0.83279188049E+03 -0.15318340472E+04  0.18447459190E+04  0.59992171983E+03 0.  0.
         23    2    4    4    0    0  0.27545781621E+02 -0.90370962229E+03 -0.13636453006E+04  0.16386994357E+04  0.91419271388E+02 0.  0.
         23    2    4    4    0    0  0.28343137500E+02  0.70917741800E+02 -0.16818874662E+03  0.20604648330E+03  0.91296436103E+02 0.  0.
          1    1    3    3  502    0 -0.34662294292E+02  0.16663041024E+03 -0.18498528224E+03  0.25136969369E+03  0.00000000000E+00 0. -1.
         -1    1    3    3    0  502 -0.21226624830E+02  0.66616147025E+03 -0.53251951563E+03  0.85311119356E+03  0.00000000000E+00 0.  1.
         13    1    5    5    0    0  0.50566784352E+02 -0.29661874670E+03 -0.47211731467E+03  0.55985215851E+03  0.00000000000E+00 0. -1.
        -13    1    5    5    0    0 -0.23021002731E+02 -0.60709087559E+03 -0.89152798595E+03  0.10788472772E+04  0.00000000000E+00 0.  1.
          2    1    6    6  503    0  0.50018414795E+02  0.54870204975E+02 -0.62745636296E+02  0.97209032949E+02  0.00000000000E+00 0. -1.
         -2    1    6    6    0  503 -0.21675277294E+02  0.16047536824E+02 -0.10544311033E+03  0.10883745035E+03  0.00000000000E+00 0.  1.
<mgrwt>
<rscale>  0 0.92316918E+03</rscale>
<asrwt>0</asrwt>
<pdfrwt beam="1">  1        2 0.39988967E+00 0.92316918E+03</pdfrwt>
<pdfrwt beam="2">  1       -2 0.53837534E-01 0.92316918E+03</pdfrwt>
<totfact> 0.10139540E+01</totfact>
</mgrwt>
</event>
<event>
12    1  0.1432447E-007  0.6809837E+03  0.7818608E-02  0.9750317E-01
          2   -1    0    0  501    0  0.00000000000E+00  0.00000000000E+00  0.10379235744E+04  0.10379235744E+04  0.00000000000E+00 0. -1.
         -2   -1    0    0    0  501 -0.00000000000E+00 -0.00000000000E+00 -0.56366189476E+03  0.56366189476E+03  0.00000000000E+00 0.  1.
         23    2    1    2    0    0 -0.61215545418E+03  0.19121711783E+03  0.15210205805E+03  0.66531479846E+03  0.90611581814E+02 0.  0.
    5000000    2    1    2    0    0  0.61215545418E+03 -0.19121711783E+03  0.32215962161E+03  0.93627067071E+03  0.60126338721E+03 0.  0.
         23    2    4    4    0    0  0.59475980958E+03 -0.21562646991E+03  0.44601306540E+03  0.77958707619E+03  0.92705713071E+02 0.  0.
         23    2    4    4    0    0  0.17395644594E+02  0.24409352076E+02 -0.12385344379E+03  0.15668359452E+03  0.91168241909E+02 0.  0.
          3    1    3    3  502    0 -0.32889110203E+03  0.10418360570E+03  0.35323983910E+02  0.34680162129E+03  0.00000000000E+00 0. -1.
         -3    1    3    3    0  502 -0.28326435215E+03  0.87033512131E+02  0.11677807414E+03  0.31851317717E+03  0.00000000000E+00 0.  1.
         13    1    5    5    0    0  0.56160949790E+03 -0.22481103989E+03  0.41949248479E+03  0.73615159891E+03  0.00000000000E+00 0.  1.
        -13    1    5    5    0    0  0.33150311686E+02  0.91845699814E+01  0.26520580606E+02  0.43435477277E+02  0.00000000000E+00 0. -1.
          2    1    6    6  503    0  0.24218629791E+02  0.49604003910E+02 -0.38169171351E+02  0.67111734253E+02  0.00000000000E+00 0. -1.
         -2    1    6    6    0  503 -0.68229851968E+01 -0.25194651834E+02 -0.85684272437E+02  0.89571860263E+02  0.00000000000E+00 0.  1.
<mgrwt>
<rscale>  0 0.68098366E+03</rscale>
<asrwt>0</asrwt>
<pdfrwt beam="1">  1        2 0.15968055E+00 0.68098366E+03</pdfrwt>
<pdfrwt beam="2">  1       -2 0.86717215E-01 0.68098366E+03</pdfrwt>
<totfact> 0.28080876E+01</totfact>
</mgrwt>
</event>
<event>
12    1  0.1432447E-007  0.2340547E+04  0.7818608E-02  0.8462103E-01
          2   -1    0    0  501    0  0.00000000000E+00  0.00000000000E+00  0.34464260964E+04  0.34464260964E+04  0.00000000000E+00 0. -1.
         -2   -1    0    0    0  501 -0.00000000000E+00 -0.00000000000E+00 -0.20197105349E+04  0.20197105349E+04  0.00000000000E+00 0.  1.
         23    2    1    2    0    0 -0.13779426642E+04 -0.18443685655E+04  0.19634429762E+04  0.30271717219E+04  0.90768509855E+02 0.  0.
    5000000    2    1    2    0    0  0.13779426642E+04  0.18443685655E+04 -0.53672741471E+03  0.24389649094E+04  0.60004343204E+03 0.  0.
         23    2    4    4    0    0  0.79726511137E+03  0.59810266213E+03 -0.22189890937E+03  0.10255024560E+04  0.95171997577E+02 0.  0.
         23    2    4    4    0    0  0.58067755281E+03  0.12462659034E+04 -0.31482850535E+03  0.14134624533E+04  0.91618758940E+02 0.  0.
          4    1    3    3  502    0 -0.70302516146E+03 -0.87068981597E+03  0.93148264667E+03  0.14560237135E+04  0.00000000000E+00 0.  1.
         -4    1    3    3    0  502 -0.67491750272E+03 -0.97367874952E+03  0.10319603295E+04  0.15711480084E+04  0.00000000000E+00 0. -1.
         13    1    5    5    0    0  0.67865790756E+03  0.54657534767E+03 -0.18225836330E+03  0.89024675072E+03  0.00000000000E+00 0. -1.
        -13    1    5    5    0    0  0.11860720381E+03  0.51527314465E+02 -0.39640546067E+02  0.13525570533E+03  0.00000000000E+00 0.  1.
          1    1    6    6  503    0  0.44074730182E+03  0.87296187005E+03 -0.19493291821E+03  0.99715568154E+03  0.00000000000E+00 0. -1.
         -1    1    6    6    0  503  0.13993025099E+03  0.37330403330E+03 -0.11989558713E+03  0.41630677179E+03  0.00000000000E+00 0.  1.
<mgrwt>
<rscale>  0 0.23405474E+04</rscale>
<asrwt>0</asrwt>
<pdfrwt beam="1">  1        2 0.53021940E+00 0.23405474E+04</pdfrwt>
<pdfrwt beam="2">  1       -2 0.31072470E+00 0.23405474E+04</pdfrwt>
<totfact> 0.20625943E-02</totfact>
</mgrwt>
</event>
<event>
12    1  0.1432447E-007  0.1031575E+04  0.7818608E-02  0.9274576E-01
         -2   -1    0    0    0  501 -0.00000000000E+00  0.00000000000E+00  0.38379784005E+03  0.38379784005E+03  0.00000000000E+00 0.  1.
          2   -1    0    0  501    0  0.00000000000E+00 -0.00000000000E+00 -0.31862777640E+04  0.31862777640E+04  0.00000000000E+00 0. -1.
         23    2    1    2    0    0 -0.70337935735E+03 -0.74035313974E+03 -0.13792730114E+04  0.17185670164E+04  0.90627025862E+02 0.  0.
    5000000    2    1    2    0    0  0.70337935735E+03  0.74035313974E+03 -0.14232069126E+04  0.18515085877E+04  0.59975065033E+03 0.  0.
         23    2    4    4    0    0  0.19873487535E+03  0.10482312945E+03 -0.76403981251E+03  0.80207166801E+03  0.95282140894E+02 0.  0.
         23    2    4    4    0    0  0.50464448200E+03  0.63553001029E+03 -0.65916710008E+03  0.10494369197E+04  0.90841265310E+02 0.  0.
          3    1    3    3  502    0 -0.24511283366E+03 -0.19832560451E+03 -0.41156903821E+03  0.51846158955E+03  0.00000000000E+00 0. -1.
         -3    1    3    3    0  502 -0.45826652369E+03 -0.54202753523E+03 -0.96770397320E+03  0.12001054268E+04  0.00000000000E+00 0.  1.
         13    1    5    5    0    0  0.47834274131E+02  0.16607939483E+02 -0.33478941954E+03  0.33859695343E+03  0.00000000000E+00 0. -1.
        -13    1    5    5    0    0  0.15090060122E+03  0.88215189967E+02 -0.42925039297E+03  0.46347471458E+03  0.00000000000E+00 0.  1.
          1    1    6    6  503    0  0.31705649569E+03  0.36575682043E+03 -0.44267625855E+03  0.65594599094E+03  0.00000000000E+00 0. -1.
         -1    1    6    6    0  503  0.18758798631E+03  0.26977318987E+03 -0.21649084153E+03  0.39349092880E+03  0.00000000000E+00 0.  1.
<mgrwt>
<rscale>  0 0.10315749E+04</rscale>
<asrwt>0</asrwt>
<pdfrwt beam="1">  1        2 0.49019655E+00 0.10315749E+04</pdfrwt>
<pdfrwt beam="2">  1       -2 0.59045825E-01 0.10315749E+04</pdfrwt>
<totfact> 0.36275069E+00</totfact>
</mgrwt>
</event>
<event>
12    1  0.1432447E-007  0.8114928E+03  0.7818608E-02  0.9543529E-01
         -2   -1    0    0    0  501 -0.00000000000E+00  0.00000000000E+00  0.23551937690E+03  0.23551937690E+03  0.00000000000E+00 0.  1.
          2   -1    0    0  501    0  0.00000000000E+00 -0.00000000000E+00 -0.43380460042E+04  0.43380460042E+04  0.00000000000E+00 0. -1.
         23    2    1    2    0    0 -0.58487919318E+03 -0.46846946516E+03 -0.30768603791E+04  0.31687574855E+04  0.11138625924E+03 0.  0.
    5000000    2    1    2    0    0  0.58487919318E+03  0.46846946516E+03 -0.10256662482E+04  0.14048078956E+04  0.59995554878E+03 0.  0.
         23    2    4    4    0    0  0.59084405451E+03  0.23102583770E+03 -0.47468247536E+03  0.79782990864E+03  0.93485166066E+02 0.  0.
         23    2    4    4    0    0 -0.59648613299E+01  0.23744362746E+03 -0.55098377282E+03  0.60697798697E+03  0.91782912150E+02 0.  0.
          1    1    3    3  502    0 -0.59930124812E+02 -0.45780609857E+02 -0.47874151294E+03  0.48464514885E+03  0.00000000000E+00 0. -1.
         -1    1    3    3    0  502 -0.52494906837E+03 -0.42268885531E+03 -0.25981188662E+04  0.26841123366E+04  0.00000000000E+00 0.  1.
         13    1    5    5    0    0  0.69908631195E+02  0.40628898537E+02 -0.27612648875E+02  0.85442275776E+02  0.00000000000E+00 0. -1.
        -13    1    5    5    0    0  0.52093542332E+03  0.19039693917E+03 -0.44706982648E+03  0.71238763287E+03  0.00000000000E+00 0.  1.
          1    1    6    6  503    0 -0.81371003051E+01  0.50939382369E+02 -0.47756954712E+02  0.70297651460E+02  0.00000000000E+00 0. -1.
         -1    1    6    6    0  503  0.21722389753E+01  0.18650424509E+03 -0.50322681811E+03  0.53668033551E+03  0.00000000000E+00 0.  1.
<mgrwt>
<rscale>  0 0.81149278E+03</rscale>
<asrwt>0</asrwt>
<pdfrwt beam="1">  1        2 0.66739163E+00 0.81149278E+03</pdfrwt>
<pdfrwt beam="2">  1       -2 0.36233754E-01 0.81149278E+03</pdfrwt>
<totfact> 0.13951850E+00</totfact>
</mgrwt>
</event>
<event>
12    1  0.1432447E-007  0.1567515E+04  0.7818608E-02  0.8840757E-01
         -2   -1    0    0    0  501 -0.00000000000E+00  0.00000000000E+00  0.10630967840E+04  0.10630967840E+04  0.00000000000E+00 0.  1.
          2   -1    0    0  501    0  0.00000000000E+00 -0.00000000000E+00 -0.43118917650E+04  0.43118917650E+04  0.00000000000E+00 0. -1.
         23    2    1    2    0    0 -0.41911530944E+03 -0.14998503864E+04  0.17150917706E+03  0.15692503583E+04  0.89008229910E+02 0.  0.
    5000000    2    1    2    0    0  0.41911530944E+03  0.14998503864E+04 -0.34203041581E+04  0.38057381908E+04  0.59996151433E+03 0.  0.
         23    2    4    4    0    0  0.34793713122E+03  0.98395954111E+03 -0.27982125716E+04  0.29878805186E+04  0.90552589799E+02 0.  0.
         23    2    4    4    0    0  0.71178178218E+02  0.51589084527E+03 -0.62209158644E+03  0.81785767216E+03  0.10336117597E+03 0.  0.
          3    1    3    3  502    0 -0.16965087277E+03 -0.76653006168E+03  0.98227758943E+02  0.79120063620E+03  0.00000000000E+00 0. -1.
         -3    1    3    3    0  502 -0.24946443667E+03 -0.73332032470E+03  0.73281418118E+02  0.77804972208E+03  0.00000000000E+00 0.  1.
         11    1    5    5    0    0  0.24882204358E+03  0.59441043153E+03 -0.16518846942E+04  0.17731213195E+04  0.00000000000E+00 0. -1.
        -11    1    5    5    0    0  0.99115087640E+02  0.38954910957E+03 -0.11463278774E+04  0.12147591991E+04  0.00000000000E+00 0.  1.
          1    1    6    6  503    0  0.63407498220E+02  0.14767826299E+03 -0.22191100292E+03  0.27399611933E+03  0.00000000000E+00 0. -1.
         -1    1    6    6    0  503  0.77706799978E+01  0.36821258228E+03 -0.40018058352E+03  0.54386155283E+03  0.00000000000E+00 0.  1.
<mgrwt>
<rscale>  0 0.15675145E+04</rscale>
<asrwt>0</asrwt>
<pdfrwt beam="1">  1        2 0.66336797E+00 0.15675145E+04</pdfrwt>
<pdfrwt beam="2">  1       -2 0.16355335E+00 0.15675145E+04</pdfrwt>
<totfact> 0.41949162E-02</totfact>
</mgrwt>
</event>
<event>
12    1  0.1432447E-007  0.5670238E+03  0.7818608E-02  0.9976286E-01
         -2   -1    0    0    0  501 -0.00000000000E+00  0.00000000000E+00  0.28368953900E+03  0.28368953900E+03  0.00000000000E+00 0.  1.
          2   -1    0    0  501    0  0.00000000000E+00 -0.00000000000E+00 -0.12066365266E+04  0.12066365266E+04  0.00000000000E+00 0. -1.
         23    2    1    2    0    0 -0.33300533106E+03 -0.24661906469E+03 -0.46483400714E+03  0.62938276230E+03  0.91315353026E+02 0.  0.
    5000000    2    1    2    0    0  0.33300533106E+03  0.24661906469E+03 -0.45811298050E+03  0.86094330334E+03  0.59970188850E+03 0.  0.
         23    2    4    4    0    0 -0.66542716742E+02 -0.12801134543E+03 -0.14066163083E+03  0.22123326244E+03  0.91343441531E+02 0.  0.
         23    2    4    4    0    0  0.39954804781E+03  0.37463041013E+03 -0.31745134968E+03  0.63971004090E+03  0.92016250304E+02 0.  0.
          1    1    3    3  502    0 -0.24178389528E+03 -0.13798407591E+03 -0.26524257880E+03  0.38451616719E+03  0.00000000000E+00 0. -1.
         -1    1    3    3    0  502 -0.91221435789E+02 -0.10863498878E+03 -0.19959142834E+03  0.24486659511E+03  0.00000000000E+00 0.  1.
         13    1    5    5    0    0 -0.53344203883E+02 -0.19731921064E+02 -0.74232453776E+02  0.93516896818E+02  0.00000000000E+00 0.  1.
        -13    1    5    5    0    0 -0.13198512859E+02 -0.10827942437E+03 -0.66429177049E+02  0.12771636562E+03  0.00000000000E+00 0. -1.
          4    1    6    6  503    0  0.30992188433E+03  0.28346618482E+03 -0.28575499816E+03  0.50799662528E+03  0.00000000000E+00 0.  1.
         -4    1    6    6    0  503  0.89626163479E+02  0.91164225303E+02 -0.31696351521E+02  0.13171341562E+03  0.00000000000E+00 0. -1.
<mgrwt>
<rscale>  0 0.56702378E+03</rscale>
<asrwt>0</asrwt>
<pdfrwt beam="1">  1        2 0.18563639E+00 0.56702378E+03</pdfrwt>
<pdfrwt beam="2">  1       -2 0.43644544E-01 0.56702378E+03</pdfrwt>
<totfact> 0.96514388E+01</totfact>
</mgrwt>
</event>
<event>
12    1  0.1432447E-007  0.3457886E+03  0.7818608E-02  0.1064357E+00
         -3   -1    0    0    0  501 -0.00000000000E+00  0.00000000000E+00  0.16087239334E+03  0.16087239334E+03  0.00000000000E+00 0.  1.
          3   -1    0    0  501    0  0.00000000000E+00 -0.00000000000E+00 -0.14998653301E+04  0.14998653301E+04  0.00000000000E+00 0. -1.
         23    2    1    2    0    0  0.20251018978E+03 -0.42326856658E+02 -0.63492052520E+02  0.23610819074E+03  0.94413437810E+02 0.  0.
    5000000    2    1    2    0    0 -0.20251018978E+03  0.42326856658E+02 -0.12755008842E+04  0.14246295327E+04  0.59988737275E+03 0.  0.
         23    2    4    4    0    0 -0.31743913497E+03 -0.18529166129E+01 -0.32756277125E+03  0.46384615357E+03  0.84171535345E+02 0.  0.
         23    2    4    4    0    0  0.11492894518E+03  0.44179773271E+02 -0.94793811294E+03  0.96078337909E+03  0.96734279113E+02 0.  0.
          1    1    3    3  502    0  0.57165623722E+02  0.30506947911E+02 -0.16045294171E+02  0.66753530778E+02  0.00000000000E+00 0. -1.
         -1    1    3    3    0  502  0.14534456606E+03 -0.72833804570E+02 -0.47446758348E+02  0.16935465996E+03  0.00000000000E+00 0.  1.
         11    1    5    5    0    0 -0.13259149864E+03  0.21366531460E+02 -0.88816959230E+02  0.16101393239E+03  0.00000000000E+00 0. -1.
        -11    1    5    5    0    0 -0.18484763633E+03 -0.23219448073E+02 -0.23874581202E+03  0.30283222118E+03  0.00000000000E+00 0.  1.
          2    1    6    6  503    0  0.38337974920E+02  0.54172293009E+02 -0.63480012699E+03  0.63825985216E+03  0.00000000000E+00 0.  1.
         -2    1    6    6    0  503  0.76590970264E+02 -0.99925197381E+01 -0.31313798595E+03  0.32252352693E+03  0.00000000000E+00 0. -1.
<mgrwt>
<rscale>  0 0.34578862E+03</rscale>
<asrwt>0</asrwt>
<pdfrwt beam="1">  1        3 0.23074851E+00 0.34578862E+03</pdfrwt>
<pdfrwt beam="2">  1       -3 0.24749599E-01 0.34578862E+03</pdfrwt>
<totfact> 0.39895581E+00</totfact>
</mgrwt>
</event>
<event>
12    1  0.1432447E-007  0.6333829E+03  0.7818608E-02  0.9838470E-01
          2   -1    0    0  501    0  0.00000000000E+00  0.00000000000E+00  0.15343282386E+04  0.15343282386E+04  0.00000000000E+00 0. -1.
         -2   -1    0    0    0  501 -0.00000000000E+00 -0.00000000000E+00 -0.44597088525E+03  0.44597088525E+03  0.00000000000E+00 0.  1.
         23    2    1    2    0    0  0.29323863854E+03 -0.55657143026E+03  0.68314754584E+02  0.63956166012E+03  0.92798465935E+02 0.  0.
    5000000    2    1    2    0    0 -0.29323863854E+03  0.55657143026E+03  0.10200425987E+04  0.13407374637E+04  0.60110680184E+03 0.  0.
         23    2    4    4    0    0 -0.61769416949E+02  0.14568658526E+03  0.78658823121E+03  0.80746357059E+03  0.90754230501E+02 0.  0.
         23    2    4    4    0    0 -0.23146922159E+03  0.41088484501E+03  0.23345436752E+03  0.53327389311E+03  0.86462402000E+02 0.  0.
          3    1    3    3  502    0  0.19553112245E+03 -0.27221231373E+03  0.31418777032E+02  0.33662902897E+03  0.00000000000E+00 0. -1.
         -3    1    3    3    0  502  0.97707516086E+02 -0.28435911653E+03  0.36895977551E+02  0.30293263115E+03  0.00000000000E+00 0.  1.
         11    1    5    5    0    0 -0.28630998458E+02  0.64863768029E+02  0.16253632378E+03  0.17732766006E+03  0.00000000000E+00 0.  1.
        -11    1    5    5    0    0 -0.33138418491E+02  0.80822817227E+02  0.62405190744E+03  0.63013591053E+03  0.00000000000E+00 0. -1.
          3    1    6    6  503    0 -0.19677027020E+03  0.32337732221E+03  0.14900528789E+03  0.40680954705E+03  0.00000000000E+00 0. -1.
         -3    1    6    6    0  503 -0.34698951389E+02  0.87507522796E+02  0.84449079628E+02  0.12646434606E+03  0.00000000000E+00 0.  1.
<mgrwt>
<rscale>  0 0.63338288E+03</rscale>
<asrwt>0</asrwt>
<pdfrwt beam="1">  1        2 0.23605050E+00 0.63338288E+03</pdfrwt>
<pdfrwt beam="2">  1       -2 0.68610906E-01 0.63338288E+03</pdfrwt>
<totfact> 0.24519964E+01</totfact>
</mgrwt>
</event>
<event>
12    1  0.1432447E-007  0.5875751E+03  0.7818608E-02  0.9931524E-01
         -2   -1    0    0    0  501 -0.00000000000E+00  0.00000000000E+00  0.53789175023E+03  0.53789175023E+03  0.00000000000E+00 0.  1.
          2   -1    0    0  501    0  0.00000000000E+00 -0.00000000000E+00 -0.16571616221E+04  0.16571616221E+04  0.00000000000E+00 0. -1.
         23    2    1    2    0    0 -0.45226524412E+03  0.11899718905E+03 -0.13242924104E+04  0.14072438487E+04  0.88773190894E+02 0.  0.
    5000000    2    1    2    0    0  0.45226524412E+03 -0.11899718905E+03  0.20502253859E+03  0.78780952357E+03  0.59992117987E+03 0.  0.
         23    2    4    4    0    0  0.13083960582E+03 -0.30302490342E+03  0.21813275095E+03  0.40567167709E+03  0.89691237088E+02 0.  0.
         23    2    4    4    0    0  0.32142563830E+03  0.18402771437E+03 -0.13110212365E+02  0.38213784648E+03  0.93149425272E+02 0.  0.
          1    1    3    3  502    0 -0.40781482713E+02 -0.50635230704E+01 -0.18681125084E+03  0.19127783991E+03  0.00000000000E+00 0. -1.
         -1    1    3    3    0  502 -0.41148376141E+03  0.12406071212E+03 -0.11374811596E+04  0.12159660088E+04  0.00000000000E+00 0.  1.
         11    1    5    5    0    0  0.83529275365E+02 -0.20538423408E+03  0.94049318695E+02  0.24084247507E+03  0.00000000000E+00 0. -1.
        -11    1    5    5    0    0  0.47310330451E+02 -0.97640669340E+02  0.12408343226E+03  0.16482920201E+03  0.00000000000E+00 0.  1.
          3    1    6    6  503    0  0.13383197284E+03  0.10666356565E+03 -0.44439528114E+02  0.17681341819E+03  0.00000000000E+00 0. -1.
         -3    1    6    6    0  503  0.18759366546E+03  0.77364148720E+02  0.31329315749E+02  0.20532442829E+03  0.00000000000E+00 0.  1.
<mgrwt>
<rscale>  0 0.58757515E+03</rscale>
<asrwt>0</asrwt>
<pdfrwt beam="1">  1        2 0.25494794E+00 0.58757515E+03</pdfrwt>
<pdfrwt beam="2">  1       -2 0.82752577E-01 0.58757515E+03</pdfrwt>
<totfact> 0.13974011E+01</totfact>
</mgrwt>
</event>
<event>
12    1  0.1432447E-007  0.9312585E+03  0.7818608E-02  0.9387329E-01
         -1   -1    0    0    0  501 -0.00000000000E+00  0.00000000000E+00  0.44603844862E+03  0.44603844862E+03  0.00000000000E+00 0.  1.
          1   -1    0    0  501    0  0.00000000000E+00 -0.00000000000E+00 -0.23206360873E+04  0.23206360873E+04  0.00000000000E+00 0. -1.
         23    2    1    2    0    0  0.64922576593E+03 -0.56253795044E+03 -0.13292544676E+04  0.15852699605E+04  0.90666240881E+02 0.  0.
    5000000    2    1    2    0    0 -0.64922576593E+03  0.56253795044E+03 -0.54534317106E+03  0.11814045754E+04  0.60031204859E+03 0.  0.
         23    2    4    4    0    0 -0.67865096516E+03  0.32389332227E+03 -0.52933820923E+03  0.92380407451E+03  0.87983018886E+02 0.  0.
         23    2    4    4    0    0  0.29425199232E+02  0.23864462817E+03 -0.16004961834E+02  0.25760050087E+03  0.91020647883E+02 0.  0.
          1    1    3    3  502    0  0.46096673501E+03 -0.38340597493E+03 -0.99787545690E+03  0.11641502909E+04  0.00000000000E+00 0. -1.
         -1    1    3    3    0  502  0.18825903092E+03 -0.17913197551E+03 -0.33137901068E+03  0.42111966956E+03  0.00000000000E+00 0.  1.
         11    1    5    5    0    0 -0.43338376234E+03  0.16084891097E+03 -0.33645626317E+03  0.57174878631E+03  0.00000000000E+00 0. -1.
        -11    1    5    5    0    0 -0.24526720282E+03  0.16304441130E+03 -0.19288194606E+03  0.35205528820E+03  0.00000000000E+00 0.  1.
          3    1    6    6  503    0  0.18714658227E+01  0.19275870720E+03  0.18914589324E+02  0.19369352925E+03  0.00000000000E+00 0. -1.
         -3    1    6    6    0  503  0.27553733409E+02  0.45885920969E+02 -0.34919551157E+02  0.63906971615E+02  0.00000000000E+00 0.  1.
<mgrwt>
<rscale>  0 0.93125850E+03</rscale>
<asrwt>0</asrwt>
<pdfrwt beam="1">  1        1 0.35702094E+00 0.93125850E+03</pdfrwt>
<pdfrwt beam="2">  1       -1 0.68621299E-01 0.93125850E+03</pdfrwt>
<totfact> 0.39718720E+00</totfact>
</mgrwt>
</event>
<event>
12    1  0.1432447E-007  0.3978761E+03  0.7818608E-02  0.1044518E+00
         -2   -1    0    0    0  501 -0.00000000000E+00  0.00000000000E+00  0.46093679460E+03  0.46093679460E+03  0.00000000000E+00 0. -1.
          2   -1    0    0  501    0  0.00000000000E+00 -0.00000000000E+00 -0.47547773327E+03  0.47547773327E+03  0.00000000000E+00 0.  1.
         23    2    1    2    0    0  0.15401220308E+03  0.16260919354E+03 -0.14549521109E+03  0.28247351417E+03  0.91983266069E+02 0.  0.
    5000000    2    1    2    0    0 -0.15401220308E+03 -0.16260919354E+03  0.13095427241E+03  0.65394101370E+03  0.60027353716E+03 0.  0.
         23    2    4    4    0    0 -0.86417418365E+01  0.18021432974E+03 -0.79402721432E+02  0.21671604073E+03  0.90050906673E+02 0.  0.
         23    2    4    4    0    0 -0.14537046125E+03 -0.34282352328E+03  0.21035699385E+03  0.43722497297E+03  0.90857432341E+02 0.  0.
          3    1    3    3  502    0  0.57704008245E+02  0.73252987146E+02 -0.10067886757E+02  0.93792937032E+02  0.00000000000E+00 0. -1.
         -3    1    3    3    0  502  0.96308194837E+02  0.89356206395E+02 -0.13542732433E+03  0.18868057714E+03  0.00000000000E+00 0.  1.
         13    1    5    5    0    0 -0.32783385689E+02  0.13202754379E+03 -0.21697949314E+02  0.13775639260E+03  0.00000000000E+00 0. -1.
        -13    1    5    5    0    0  0.24141643852E+02  0.48186785948E+02 -0.57704772118E+02  0.78959648131E+02  0.00000000000E+00 0.  1.
          3    1    6    6  503    0 -0.10228665726E+03 -0.13736775797E+03  0.71871084590E+02  0.18573614076E+03  0.00000000000E+00 0. -1.
         -3    1    6    6    0  503 -0.43083803984E+02 -0.20545576531E+03  0.13848590926E+03  0.25148883221E+03  0.00000000000E+00 0.  1.
<mgrwt>
<rscale>  0 0.39787609E+03</rscale>
<asrwt>0</asrwt>
<pdfrwt beam="1">  1        2 0.73150420E-01 0.39787609E+03</pdfrwt>
<pdfrwt beam="2">  1       -2 0.70913353E-01 0.39787609E+03</pdfrwt>
<totfact> 0.12191771E+02</totfact>
</mgrwt>
</event>
<event>
12    1  0.1432447E-007  0.1218247E+04  0.7818608E-02  0.9097033E-01
         -2   -1    0    0    0  501 -0.00000000000E+00  0.00000000000E+00  0.97659593881E+03  0.97659593881E+03  0.00000000000E+00 0. -1.
          2   -1    0    0  501    0  0.00000000000E+00 -0.00000000000E+00 -0.16676352537E+04  0.16676352537E+04  0.00000000000E+00 0.  1.
         23    2    1    2    0    0 -0.11608539165E+04 -0.14757656362E+03 -0.61909669895E+03  0.13270613825E+04  0.91926778649E+02 0.  0.
    5000000    2    1    2    0    0  0.11608539165E+04  0.14757656362E+03 -0.71942615904E+02  0.13171698100E+04  0.60033316637E+03 0.  0.
         23    2    4    4    0    0  0.44658333059E+03 -0.17304810980E+03 -0.18325843566E+03  0.52090154298E+03  0.91501058879E+02 0.  0.
         23    2    4    4    0    0  0.71427058594E+03  0.32062467342E+03  0.11131581975E+03  0.79626826698E+03  0.93109022832E+02 0.  0.
          1    1    3    3  502    0 -0.41416781879E+03 -0.76150521628E+02 -0.18063519691E+03  0.45821715205E+03  0.00000000000E+00 0. -1.
         -1    1    3    3    0  502 -0.74668609774E+03 -0.71426041992E+02 -0.43846150204E+03  0.86884423046E+03  0.00000000000E+00 0.  1.
         13    1    5    5    0    0  0.28774330993E+03 -0.13279956000E+03 -0.78739183166E+02  0.32654524114E+03  0.00000000000E+00 0.  1.
        -13    1    5    5    0    0  0.15884002066E+03 -0.40248549797E+02 -0.10451925249E+03  0.19435630184E+03  0.00000000000E+00 0. -1.
          2    1    6    6  503    0  0.43652009964E+03  0.22242416387E+03  0.30916805220E+02  0.49089525860E+03  0.00000000000E+00 0. -1.
         -2    1    6    6    0  503  0.27775048629E+03  0.98200509544E+02  0.80399014534E+02  0.30537300838E+03  0.00000000000E+00 0.  1.
<mgrwt>
<rscale>  0 0.12182473E+04</rscale>
<asrwt>0</asrwt>
<pdfrwt beam="1">  1        2 0.25655927E+00 0.12182473E+04</pdfrwt>
<pdfrwt beam="2">  1       -2 0.15024553E+00 0.12182473E+04</pdfrwt>
<totfact> 0.29589994E+00</totfact>
</mgrwt>
</event>
<event>
12    1  0.1432447E-007  0.6139195E+03  0.7818608E-02  0.9876941E-01
          2   -1    0    0  501    0  0.00000000000E+00  0.00000000000E+00  0.31925286230E+03  0.31925286230E+03  0.00000000000E+00 0. -1.
         -2   -1    0    0    0  501 -0.00000000000E+00 -0.00000000000E+00 -0.15975169869E+04  0.15975169869E+04  0.00000000000E+00 0.  1.
         23    2    1    2    0    0 -0.43712061365E+03 -0.25510661961E+03 -0.13751001354E+03  0.53212893207E+03  0.89990989914E+02 0.  0.
    5000000    2    1    2    0    0  0.43712061365E+03  0.25510661961E+03 -0.11407541111E+04  0.13846409171E+04  0.59979722345E+03 0.  0.
         23    2    4    4    0    0 -0.24482262537E+02  0.23557388583E+03 -0.16930471740E+03  0.30520811666E+03  0.91615884435E+02 0.  0.
         23    2    4    4    0    0  0.46160287619E+03  0.19532733781E+02 -0.97144939367E+03  0.10794328005E+04  0.89456711833E+02 0.  0.
          4    1    3    3  502    0 -0.16425487973E+03 -0.58891813775E+02 -0.17980712466E+02  0.17541726616E+03  0.00000000000E+00 0. -1.
         -4    1    3    3    0  502 -0.27286573392E+03 -0.19621480584E+03 -0.11952930108E+03  0.35671166591E+03  0.00000000000E+00 0.  1.
         11    1    5    5    0    0  0.14921950169E+02  0.20060375573E+03 -0.13060487066E+03  0.23983778612E+03  0.00000000000E+00 0.  1.
        -11    1    5    5    0    0 -0.39404212706E+02  0.34970130098E+02 -0.38699846740E+02  0.65370330546E+02  0.00000000000E+00 0. -1.
          2    1    6    6  503    0  0.20634182080E+03 -0.91660652988E+01 -0.34118123232E+03  0.39883028602E+03  0.00000000000E+00 0. -1.
         -2    1    6    6    0  503  0.25526105539E+03  0.28698799080E+02 -0.63026816136E+03  0.68060251446E+03  0.00000000000E+00 0.  1.
<mgrwt>
<rscale>  0 0.61391953E+03</rscale>
<asrwt>0</asrwt>
<pdfrwt beam="1">  1        2 0.49115825E-01 0.61391953E+03</pdfrwt>
<pdfrwt beam="2">  1       -2 0.24577184E+00 0.61391953E+03</pdfrwt>
<totfact> 0.72982417E+00</totfact>
</mgrwt>
</event>
<event>
12    1  0.1432447E-007  0.1905476E+04  0.7818608E-02  0.8652136E-01
         -2   -1    0    0    0  501 -0.00000000000E+00  0.00000000000E+00  0.21478526042E+04  0.21478526042E+04  0.00000000000E+00 0.  1.
          2   -1    0    0  501    0  0.00000000000E+00 -0.00000000000E+00 -0.22330374093E+04  0.22330374093E+04  0.00000000000E+00 0. -1.
         23    2    1    2    0    0  0.14456931319E+04 -0.12289879493E+04 -0.10486280987E+04  0.21698635417E+04  0.90812383271E+02 0.  0.
    5000000    2    1    2    0    0 -0.14456931319E+04  0.12289879493E+04  0.96344329357E+03  0.22110264718E+04  0.59997922311E+03 0.  0.
         23    2    4    4    0    0 -0.56825686256E+03  0.61136411736E+03  0.13074436574E+03  0.84988141780E+03  0.92316787810E+02 0.  0.
         23    2    4    4    0    0 -0.87743626933E+03  0.61762383190E+03  0.83269892783E+03  0.13611450540E+04  0.89301451360E+02 0.  0.
          1    1    3    3  502    0  0.24975227405E+02 -0.32809999999E+02 -0.12108740213E+02  0.42975337968E+02  0.00000000000E+00 0. -1.
         -1    1    3    3    0  502  0.14207179045E+04 -0.11961779493E+04 -0.10365193585E+04  0.21268882037E+04  0.00000000000E+00 0.  1.
         11    1    5    5    0    0 -0.38244633823E+03  0.46464202205E+03  0.73175150501E+02  0.60622769067E+03  0.00000000000E+00 0. -1.
        -11    1    5    5    0    0 -0.18581052432E+03  0.14672209530E+03  0.57569215239E+02  0.24365372713E+03  0.00000000000E+00 0.  1.
          2    1    6    6  503    0 -0.12936478267E+02  0.16606841415E+02  0.32343359500E+02  0.38590575993E+02  0.00000000000E+00 0. -1.
         -2    1    6    6    0  503 -0.86449979107E+03  0.60101699049E+03  0.80035556833E+03  0.13225544780E+04  0.00000000000E+00 0.  1.
<mgrwt>
<rscale>  0 0.19054756E+04</rscale>
<asrwt>0</asrwt>
<pdfrwt beam="1">  1        2 0.34354421E+00 0.19054756E+04</pdfrwt>
<pdfrwt beam="2">  1       -2 0.33043886E+00 0.19054756E+04</pdfrwt>
<totfact> 0.91379120E-02</totfact>
</mgrwt>
</event>
<event>
12    1  0.1432447E-007  0.1518396E+04  0.7818608E-02  0.8872311E-01
         -2   -1    0    0    0  501 -0.00000000000E+00  0.00000000000E+00  0.11915920665E+04  0.11915920665E+04  0.00000000000E+00 0.  1.
          2   -1    0    0  501    0  0.00000000000E+00 -0.00000000000E+00 -0.26196286666E+04  0.26196286666E+04  0.00000000000E+00 0. -1.
         23    2    1    2    0    0  0.97288289658E+03  0.11086045126E+04  0.24904849702E+03  0.14986323892E+04  0.91481081445E+02 0.  0.
    5000000    2    1    2    0    0 -0.97288289658E+03 -0.11086045126E+04 -0.16770850972E+04  0.23125883439E+04  0.59995443951E+03 0.  0.
         23    2    4    4    0    0 -0.42305568366E+02  0.19005093303E+02 -0.21547764111E+03  0.24315317561E+03  0.10267374691E+03 0.  0.
         23    2    4    4    0    0 -0.93057732822E+03 -0.11276096059E+04 -0.14616074561E+04  0.20694351683E+04  0.93744189874E+02 0.  0.
          1    1    3    3  502    0  0.59796286796E+03  0.67975860080E+03  0.19791783573E+03  0.92671614668E+03  0.00000000000E+00 0. -1.
         -1    1    3    3    0  502  0.37492002862E+03  0.42884591178E+03  0.51130661297E+02  0.57191624250E+03  0.00000000000E+00 0.  1.
         11    1    5    5    0    0 -0.68841716176E+02  0.13140760283E+02 -0.86427307445E+02  0.11127237276E+03  0.00000000000E+00 0.  1.
        -11    1    5    5    0    0  0.26536147810E+02  0.58643330207E+01 -0.12905033367E+03  0.13188080285E+03  0.00000000000E+00 0. -1.
          4    1    6    6  503    0 -0.57595285950E+03 -0.76261500365E+03 -0.92932996235E+03  0.13330257008E+04  0.00000000000E+00 0. -1.
         -4    1    6    6    0  503 -0.35462446871E+03 -0.36499460223E+03 -0.53227749373E+03  0.73640946748E+03  0.00000000000E+00 0.  1.
<mgrwt>
<rscale>  0 0.15183957E+04</rscale>
<asrwt>0</asrwt>
<pdfrwt beam="1">  1        2 0.40301979E+00 0.15183957E+04</pdfrwt>
<pdfrwt beam="2">  1       -2 0.18332186E+00 0.15183957E+04</pdfrwt>
<totfact> 0.47896544E-01</totfact>
</mgrwt>
</event>
<event>
12    1  0.1432447E-007  0.8256731E+03  0.7818608E-02  0.9523582E-01
         -2   -1    0    0    0  501 -0.00000000000E+00  0.00000000000E+00  0.12028655350E+04  0.12028655350E+04  0.00000000000E+00 0.  1.
          2   -1    0    0  501    0  0.00000000000E+00 -0.00000000000E+00 -0.82280349309E+03  0.82280349309E+03  0.00000000000E+00 0. -1.
         23    2    1    2    0    0  0.19301962317E+03  0.72518244381E+03 -0.33597679833E+03  0.82728399245E+03  0.91499963935E+02 0.  0.
    5000000    2    1    2    0    0 -0.19301962317E+03 -0.72518244381E+03  0.71603884020E+03  0.11983850356E+04  0.60022405908E+03 0.  0.
         23    2    4    4    0    0  0.59827944121E+02  0.31626453302E+02 -0.11368539502E+02  0.11494222897E+03  0.92210936789E+02 0.  0.
         23    2    4    4    0    0 -0.25284756730E+03 -0.75680889712E+03  0.72740737970E+03  0.10834428066E+04  0.89639389410E+02 0.  0.
          3    1    3    3  502    0  0.11580939779E+03  0.39369052764E+03 -0.13496881319E+03  0.43199609802E+03  0.00000000000E+00 0. -1.
         -3    1    3    3    0  502  0.77210225382E+02  0.33149191617E+03 -0.20100798514E+03  0.39528789443E+03  0.00000000000E+00 0.  1.
         13    1    5    5    0    0  0.52554712392E+02 -0.15659219281E+02 -0.31269034871E+02  0.63126551347E+02  0.00000000000E+00 0.  1.
        -13    1    5    5    0    0  0.72732317287E+01  0.47285672583E+02  0.19900495369E+02  0.51815677621E+02  0.00000000000E+00 0. -1.
          4    1    6    6  503    0 -0.15889528385E+03 -0.47336054174E+03  0.39549742366E+03  0.63697419558E+03  0.00000000000E+00 0. -1.
         -4    1    6    6    0  503 -0.93952283448E+02 -0.28344835537E+03  0.33190995604E+03  0.44646861104E+03  0.00000000000E+00 0.  1.
<mgrwt>
<rscale>  0 0.82567315E+03</rscale>
<asrwt>0</asrwt>
<pdfrwt beam="1">  1        2 0.12658515E+00 0.82567315E+03</pdfrwt>
<pdfrwt beam="2">  1       -2 0.18505624E+00 0.82567315E+03</pdfrwt>
<totfact> 0.56116457E+00</totfact>
</mgrwt>
</event>
<event>
12    1  0.1432447E-007  0.1150866E+04  0.7818608E-02  0.9156985E-01
          1   -1    0    0  501    0  0.00000000000E+00  0.00000000000E+00  0.30264843731E+04  0.30264843731E+04  0.00000000000E+00 0. -1.
         -1   -1    0    0    0  501 -0.00000000000E+00 -0.00000000000E+00 -0.52475689326E+03  0.52475689326E+03  0.00000000000E+00 0.  1.
         23    2    1    2    0    0  0.37542756616E+03  0.10641040261E+04  0.66745631931E+03  0.13157370178E+04  0.11136752698E+03 0.  0.
    5000000    2    1    2    0    0 -0.37542756616E+03 -0.10641040261E+04  0.18342711605E+04  0.22355042485E+04  0.59972103451E+03 0.  0.
         23    2    4    4    0    0 -0.49641409066E+02 -0.49908092713E+03  0.12689416645E+04  0.13674469927E+04  0.90290023937E+02 0.  0.
         23    2    4    4    0    0 -0.32578615709E+03 -0.56502309895E+03  0.56532949596E+03  0.86805725587E+03  0.92402586383E+02 0.  0.
          1    1    3    3  502    0  0.32521238345E+03  0.10050370863E+04  0.62223895142E+03  0.12259869297E+04  0.00000000000E+00 0. -1.
         -1    1    3    3    0  502  0.50215182710E+02  0.59066939745E+02  0.45217367886E+02  0.89750088045E+02  0.00000000000E+00 0.  1.
         13    1    5    5    0    0  0.23407542405E+02 -0.68118674546E+02  0.15990581840E+03  0.17537941048E+03  0.00000000000E+00 0. -1.
        -13    1    5    5    0    0 -0.73048951472E+02 -0.43096225258E+03  0.11090358461E+04  0.11920675822E+04  0.00000000000E+00 0.  1.
          4    1    6    6  503    0 -0.86918824434E+02 -0.24081661959E+03  0.21765764160E+03  0.33603924660E+03  0.00000000000E+00 0. -1.
         -4    1    6    6    0  503 -0.23886733266E+03 -0.32420647935E+03  0.34767185437E+03  0.53201800927E+03  0.00000000000E+00 0.  1.
<mgrwt>
<rscale>  0 0.11508658E+04</rscale>
<asrwt>0</asrwt>
<pdfrwt beam="1">  1        1 0.46561297E+00 0.11508658E+04</pdfrwt>
<pdfrwt beam="2">  1       -1 0.80731831E-01 0.11508658E+04</pdfrwt>
<totfact> 0.87907008E-01</totfact>
</mgrwt>
</event>
<event>
12    1  0.1432447E-007  0.4044924E+03  0.7818608E-02  0.1042235E+00
          1   -1    0    0  501    0  0.00000000000E+00  0.00000000000E+00  0.23145141010E+03  0.23145141010E+03  0.00000000000E+00 0. -1.
         -1   -1    0    0    0  501 -0.00000000000E+00 -0.00000000000E+00 -0.10954754039E+04  0.10954754039E+04  0.00000000000E+00 0.  1.
         23    2    1    2    0    0 -0.29662498368E+03  0.82385807709E+02 -0.37695569664E+03  0.49503288820E+03  0.90488457367E+02 0.  0.
    5000000    2    1    2    0    0  0.29662498368E+03 -0.82385807709E+02 -0.48706829713E+03  0.83189392577E+03  0.60003181200E+03 0.  0.
         23    2    4    4    0    0  0.72221997868E+02 -0.21226879565E+03 -0.50130232218E+03  0.55651357313E+03  0.90162521433E+02 0.  0.
         23    2    4    4    0    0  0.22440298582E+03  0.12988298794E+03  0.14234025048E+02  0.27538035264E+03  0.91681189746E+02 0.  0.
          4    1    3    3  502    0 -0.86195295145E+02  0.12321680433E+02 -0.51406421673E+02  0.10111415778E+03  0.00000000000E+00 0. -1.
         -4    1    3    3    0  502 -0.21042968854E+03  0.70064127276E+02 -0.32554927496E+03  0.39391873042E+03  0.00000000000E+00 0.  1.
         13    1    5    5    0    0  0.26689653515E+02 -0.38327954656E+02 -0.20223559086E+03  0.20755867585E+03  0.00000000000E+00 0.  1.
        -13    1    5    5    0    0  0.45532344353E+02 -0.17394084100E+03 -0.29906673132E+03  0.34895489727E+03  0.00000000000E+00 0. -1.
          4    1    6    6  503    0  0.16946180738E+03  0.50032644000E+02 -0.40751421223E+01  0.17674042098E+03  0.00000000000E+00 0. -1.
         -4    1    6    6    0  503  0.54941178439E+02  0.79850343944E+02  0.18309167170E+02  0.98639931664E+02  0.00000000000E+00 0.  1.
<mgrwt>
<rscale>  0 0.40449243E+03</rscale>
<asrwt>0</asrwt>
<pdfrwt beam="1">  1        1 0.35607910E-01 0.40449243E+03</pdfrwt>
<pdfrwt beam="2">  1       -1 0.16853468E+00 0.40449243E+03</pdfrwt>
<totfact> 0.33032227E+01</totfact>
</mgrwt>
</event>
<event>
12    1  0.1432447E-007  0.7586740E+03  0.7818608E-02  0.9621840E-01
          1   -1    0    0  501    0  0.00000000000E+00  0.00000000000E+00  0.14910906331E+04  0.14910906331E+04  0.00000000000E+00 0. -1.
         -1   -1    0    0    0  501 -0.00000000000E+00 -0.00000000000E+00 -0.65338411925E+03  0.65338411925E+03  0.00000000000E+00 0.  1.
         23    2    1    2    0    0 -0.52489801431E+03 -0.50481401891E+03 -0.18097355191E+03  0.75594097349E+03  0.91324749104E+02 0.  0.
    5000000    2    1    2    0    0  0.52489801431E+03  0.50481401891E+03  0.10186800658E+04  0.13885337789E+04  0.59996821546E+03 0.  0.
         23    2    4    4    0    0  0.42305516005E+03  0.22837090787E+03  0.22793587527E+03  0.53979357881E+03  0.91068131004E+02 0.  0.
         23    2    4    4    0    0  0.10184285426E+03  0.27644311104E+03  0.79074419048E+03  0.84874020005E+03  0.91053785192E+02 0.  0.
          3    1    3    3  502    0 -0.33933200238E+03 -0.37191778378E+03 -0.15176243982E+03  0.52583351346E+03  0.00000000000E+00 0. -1.
         -3    1    3    3    0  502 -0.18556601193E+03 -0.13289623512E+03 -0.29211112086E+02  0.23010746003E+03  0.00000000000E+00 0.  1.
         13    1    5    5    0    0  0.13958237552E+03  0.32276713099E+02  0.85472597279E+02  0.16682503005E+03  0.00000000000E+00 0. -1.
        -13    1    5    5    0    0  0.28347278453E+03  0.19609419477E+03  0.14246327799E+03  0.37296854876E+03  0.00000000000E+00 0.  1.
          4    1    6    6  503    0  0.39252475809E+02  0.16760099241E+03  0.34365986865E+03  0.38436044910E+03  0.00000000000E+00 0. -1.
         -4    1    6    6    0  503  0.62590378452E+02  0.10884211863E+03  0.44708432184E+03  0.46437975095E+03  0.00000000000E+00 0.  1.
<mgrwt>
<rscale>  0 0.75867397E+03</rscale>
<asrwt>0</asrwt>
<pdfrwt beam="1">  1        1 0.22939856E+00 0.75867397E+03</pdfrwt>
<pdfrwt beam="2">  1       -1 0.10052063E+00 0.75867397E+03</pdfrwt>
<totfact> 0.64935944E+00</totfact>
</mgrwt>
</event>
<event>
12    1  0.1432447E-007  0.1171233E+04  0.7818608E-02  0.9138416E-01
         -1   -1    0    0    0  501 -0.00000000000E+00  0.00000000000E+00  0.50265502949E+03  0.50265502949E+03  0.00000000000E+00 0.  1.
          1   -1    0    0  501    0  0.00000000000E+00 -0.00000000000E+00 -0.29012276922E+04  0.29012276922E+04  0.00000000000E+00 0. -1.
         23    2    1    2    0    0 -0.10198391562E+04  0.47966673567E+03 -0.98940887120E+03  0.15024423044E+04  0.90834364264E+02 0.  0.
    5000000    2    1    2    0    0  0.10198391562E+04 -0.47966673567E+03 -0.14091637915E+04  0.19014404173E+04  0.59965072106E+03 0.  0.
         23    2    4    4    0    0 -0.22515426896E+02  0.39337213059E+02 -0.69045695881E+02  0.12379071115E+03  0.92208845930E+02 0.  0.
         23    2    4    4    0    0  0.10423545831E+04 -0.51900394873E+03 -0.13401180956E+04  0.17776497061E+04  0.90850380836E+02 0.  0.
          2    1    3    3  502    0 -0.34683920009E+03  0.11619328690E+03 -0.32017227518E+03  0.48611582616E+03  0.00000000000E+00 0. -1.
         -2    1    3    3    0  502 -0.67299995615E+03  0.36347344877E+03 -0.66923659602E+03  0.10163264782E+04  0.00000000000E+00 0.  1.
         11    1    5    5    0    0 -0.13069478547E+02  0.15871571688E+02 -0.89143053393E+02  0.91483342886E+02  0.00000000000E+00 0. -1.
        -11    1    5    5    0    0 -0.94459483489E+01  0.23465641371E+02  0.20097357512E+02  0.32307368264E+02  0.00000000000E+00 0.  1.
          3    1    6    6  503    0  0.43898327448E+03 -0.18580492491E+03 -0.59957613825E+03  0.76597736974E+03  0.00000000000E+00 0. -1.
         -3    1    6    6    0  503  0.60337130867E+03 -0.33319902381E+03 -0.74054195736E+03  0.10116723364E+04  0.00000000000E+00 0.  1.
<mgrwt>
<rscale>  0 0.11712330E+04</rscale>
<asrwt>0</asrwt>
<pdfrwt beam="1">  1        1 0.44634273E+00 0.11712330E+04</pdfrwt>
<pdfrwt beam="2">  1       -1 0.77331541E-01 0.11712330E+04</pdfrwt>
<totfact> 0.11827766E+00</totfact>
</mgrwt>
</event>
<event>
12    1  0.1432447E-007  0.8320212E+03  0.7818608E-02  0.9514790E-01
          2   -1    0    0  501    0  0.00000000000E+00  0.00000000000E+00  0.15991652626E+04  0.15991652626E+04  0.00000000000E+00 0.  1.
         -2   -1    0    0    0  501 -0.00000000000E+00 -0.00000000000E+00 -0.50370666445E+03  0.50370666445E+03  0.00000000000E+00 0. -1.
         23    2    1    2    0    0  0.74479234891E+03 -0.21242983932E+03  0.69436100804E+03  0.10442147264E+04  0.91679363378E+02 0.  0.
    5000000    2    1    2    0    0 -0.74479234891E+03  0.21242983932E+03  0.40109759010E+03  0.10586572007E+04  0.60002809279E+03 0.  0.
         23    2    4    4    0    0 -0.61694879008E+03  0.31951126641E+03  0.10677841599E+03  0.70878408431E+03  0.90884482205E+02 0.  0.
         23    2    4    4    0    0 -0.12784355883E+03 -0.10708142709E+03  0.29431917411E+03  0.34987311637E+03  0.89314129600E+02 0.  0.
          3    1    3    3  502    0  0.67158729282E+03 -0.16657969608E+03  0.63717269831E+03  0.94062071767E+03  0.00000000000E+00 0. -1.
         -3    1    3    3    0  502  0.73205056085E+02 -0.45850143233E+02  0.57188309726E+02  0.10359400871E+03  0.00000000000E+00 0.  1.
         13    1    5    5    0    0 -0.15064644212E+03  0.52482332954E+02  0.55883603520E+02  0.16903172169E+03  0.00000000000E+00 0. -1.
        -13    1    5    5    0    0 -0.46630234795E+03  0.26702893345E+03  0.50894812471E+02  0.53975236261E+03  0.00000000000E+00 0.  1.
          2    1    6    6  503    0 -0.12142995632E+03 -0.49853151936E+02  0.21379954935E+03  0.25088008760E+03  0.00000000000E+00 0. -1.
         -2    1    6    6    0  503 -0.64136025135E+01 -0.57228275154E+02  0.80519624758E+02  0.98993028772E+02  0.00000000000E+00 0.  1.
<mgrwt>
<rscale>  0 0.83202117E+03</rscale>
<asrwt>0</asrwt>
<pdfrwt beam="1">  1        2 0.24602542E+00 0.83202117E+03</pdfrwt>
<pdfrwt beam="2">  1       -2 0.77493333E-01 0.83202117E+03</pdfrwt>
<totfact> 0.16836238E+01</totfact>
</mgrwt>
</event>
<event>
12    1  0.1432447E-007  0.7250745E+03  0.7818608E-02  0.9675287E-01
          2   -1    0    0  501    0  0.00000000000E+00  0.00000000000E+00  0.11878954798E+04  0.11878954798E+04  0.00000000000E+00 0. -1.
         -2   -1    0    0    0  501 -0.00000000000E+00 -0.00000000000E+00 -0.46996138408E+03  0.46996138408E+03  0.00000000000E+00 0.  1.
         23    2    1    2    0    0 -0.58460106355E+03 -0.19170395858E+03  0.19837210694E+03  0.65357392250E+03  0.96429083334E+02 0.  0.
    5000000    2    1    2    0    0  0.58460106355E+03  0.19170395858E+03  0.51956198876E+03  0.10042829414E+04  0.60010895253E+03 0.  0.
         23    2    4    4    0    0 -0.75203487103E+02  0.14676739364E+03  0.14843119926E+03  0.23997529602E+03  0.91433524907E+02 0.  0.
         23    2    4    4    0    0  0.65980455066E+03  0.44936564948E+02  0.37113078949E+03  0.76430764535E+03  0.95219608742E+02 0.  0.
          1    1    3    3  502    0 -0.24970884407E+03 -0.12158296748E+03  0.57901524519E+02  0.28370673472E+03  0.00000000000E+00 0.  1.
         -1    1    3    3    0  502 -0.33489221949E+03 -0.70120991106E+02  0.14047058242E+03  0.36986718777E+03  0.00000000000E+00 0. -1.
         13    1    5    5    0    0 -0.40178942699E+02  0.81716751608E+02  0.13803776284E+03  0.16536746627E+03  0.00000000000E+00 0. -1.
        -13    1    5    5    0    0 -0.35024544405E+02  0.65050642028E+02  0.10393436420E+02  0.74607829748E+02  0.00000000000E+00 0.  1.
          3    1    6    6  503    0  0.85877343296E+02  0.30747965935E+02  0.76324448311E+02  0.11893602024E+03  0.00000000000E+00 0. -1.
         -3    1    6    6    0  503  0.57392720736E+03  0.14188599013E+02  0.29480634118E+03  0.64537162510E+03  0.00000000000E+00 0.  1.
<mgrwt>
<rscale>  0 0.72507455E+03</rscale>
<asrwt>0</asrwt>
<pdfrwt beam="1">  1        2 0.18275315E+00 0.72507455E+03</pdfrwt>
<pdfrwt beam="2">  1       -2 0.72301752E-01 0.72507455E+03</pdfrwt>
<totfact> 0.34047601E+01</totfact>
</mgrwt>
</event>
<event>
12    1  0.1432447E-007  0.9626557E+03  0.7818608E-02  0.9350479E-01
         -1   -1    0    0    0  501 -0.00000000000E+00  0.00000000000E+00  0.56758152309E+03  0.56758152309E+03  0.00000000000E+00 0.  1.
          1   -1    0    0  501    0  0.00000000000E+00 -0.00000000000E+00 -0.25450429383E+04  0.25450429383E+04  0.00000000000E+00 0. -1.
         23    2    1    2    0    0  0.83547494611E+03  0.41343235573E+03 -0.17443459181E+04  0.19798499291E+04  0.90101950175E+02 0.  0.
    5000000    2    1    2    0    0 -0.83547494611E+03 -0.41343235573E+03 -0.23311549712E+03  0.11327745323E+04  0.59990883282E+03 0.  0.
         23    2    4    4    0    0 -0.19955634840E+03 -0.25836161063E+03 -0.31959900839E+03  0.46576138463E+03  0.90645922240E+02 0.  0.
         23    2    4    4    0    0 -0.63591859772E+03 -0.15507074510E+03  0.86483511262E+02  0.66701314768E+03  0.94803705338E+02 0.  0.
          1    1    3    3  502    0  0.41450853495E+03  0.18499868142E+03 -0.76170955476E+03  0.88670360521E+03  0.00000000000E+00 0. -1.
         -1    1    3    3    0  502  0.42096641116E+03  0.22843367432E+03 -0.98263636336E+03  0.10931463239E+04  0.00000000000E+00 0.  1.
         13    1    5    5    0    0 -0.96867397573E+02 -0.19234868985E+03 -0.18352997313E+03  0.28295682045E+03  0.00000000000E+00 0. -1.
        -13    1    5    5    0    0 -0.10268895082E+03 -0.66012920780E+02 -0.13606903526E+03  0.18280456419E+03  0.00000000000E+00 0.  1.
          1    1    6    6  503    0 -0.40802127448E+03 -0.87500121225E+02  0.10390901185E+02  0.41742736191E+03  0.00000000000E+00 0. -1.
         -1    1    6    6    0  503 -0.22789732324E+03 -0.67570623872E+02  0.76092610077E+02  0.24958578577E+03  0.00000000000E+00 0.  1.
<mgrwt>
<rscale>  0 0.96265572E+03</rscale>
<asrwt>0</asrwt>
<pdfrwt beam="1">  1        1 0.39154508E+00 0.96265572E+03</pdfrwt>
<pdfrwt beam="2">  1       -1 0.87320233E-01 0.96265572E+03</pdfrwt>
<totfact> 0.16687412E+00</totfact>
</mgrwt>
</event>
<event>
12    1  0.1432447E-007  0.7446682E+03  0.7818608E-02  0.9643752E-01
         -1   -1    0    0    0  501 -0.00000000000E+00  0.00000000000E+00  0.86466429027E+03  0.86466429027E+03  0.00000000000E+00 0.  1.
          1   -1    0    0  501    0  0.00000000000E+00 -0.00000000000E+00 -0.80227693555E+03  0.80227693555E+03  0.00000000000E+00 0. -1.
         23    2    1    2    0    0  0.41922974278E+03  0.58679528018E+03  0.14128095260E+02  0.72771329989E+03  0.96357489066E+02 0.  0.
    5000000    2    1    2    0    0 -0.41922974278E+03 -0.58679528018E+03  0.48259259453E+02  0.93922792593E+03  0.59978151243E+03 0.  0.
         23    2    4    4    0    0 -0.20503082114E+02 -0.15715509517E+03  0.24979265647E+03  0.31288510694E+03  0.10189513532E+03 0.  0.
         23    2    4    4    0    0 -0.39872666066E+03 -0.42964018501E+03 -0.20153339702E+03  0.62634281899E+03  0.90088724543E+02 0.  0.
          3    1    3    3  502    0  0.21941808890E+02  0.80353506346E+02 -0.78185491155E+01  0.83661572241E+02  0.00000000000E+00 0. -1.
         -3    1    3    3    0  502  0.39728793389E+03  0.50644177383E+03  0.21946644376E+02  0.64405172765E+03  0.00000000000E+00 0.  1.
         11    1    5    5    0    0  0.28701708072E+02 -0.41243900266E+02  0.12880160687E+03  0.13825592677E+03  0.00000000000E+00 0. -1.
        -11    1    5    5    0    0 -0.49204790186E+02 -0.11591119490E+03  0.12099104960E+03  0.17462918016E+03  0.00000000000E+00 0.  1.
          3    1    6    6  503    0 -0.18301675100E+03 -0.19211664051E+03 -0.44218036246E+02  0.26899659745E+03  0.00000000000E+00 0. -1.
         -3    1    6    6    0  503 -0.21570990966E+03 -0.23752354450E+03 -0.15731536077E+03  0.35734622155E+03  0.00000000000E+00 0.  1.
<mgrwt>
<rscale>  0 0.74466823E+03</rscale>
<asrwt>0</asrwt>
<pdfrwt beam="1">  1        1 0.12342722E+00 0.74466823E+03</pdfrwt>
<pdfrwt beam="2">  1       -1 0.13302528E+00 0.74466823E+03</pdfrwt>
<totfact> 0.10858634E+01</totfact>
</mgrwt>
</event>
<event>
12    1  0.1432447E-007  0.1480458E+04  0.7818608E-02  0.8897553E-01
          1   -1    0    0  501    0  0.00000000000E+00  0.00000000000E+00  0.63128668077E+03  0.63128668077E+03  0.00000000000E+00 0. -1.
         -1   -1    0    0    0  501 -0.00000000000E+00 -0.00000000000E+00 -0.43235180901E+04  0.43235180901E+04  0.00000000000E+00 0.  1.
         23    2    1    2    0    0  0.19744682187E+03 -0.14374783377E+04 -0.78887799264E+03  0.16540929745E+04  0.91465087344E+02 0.  0.
    5000000    2    1    2    0    0 -0.19744682187E+03  0.14374783377E+04 -0.29033534167E+04  0.33007117963E+04  0.59992339636E+03 0.  0.
         23    2    4    4    0    0  0.61082278888E+01  0.47768026231E+02 -0.43978689719E+02  0.11373248794E+03  0.93176493204E+02 0.  0.
         23    2    4    4    0    0 -0.20355504976E+03  0.13897103115E+04 -0.28593747270E+04  0.31869793084E+04  0.89910371346E+02 0.  0.
          2    1    3    3  502    0  0.15407471084E+03 -0.10558027399E+04 -0.62413795737E+03  0.12361256538E+04  0.00000000000E+00 0. -1.
         -2    1    3    3    0  502  0.43372111032E+02 -0.38167559782E+03 -0.16474003527E+03  0.41796732074E+03  0.00000000000E+00 0.  1.
         11    1    5    5    0    0 -0.38824244300E+02  0.45525853046E+02 -0.27074569508E+02  0.65673111355E+02  0.00000000000E+00 0. -1.
        -11    1    5    5    0    0  0.44932472189E+02  0.22421731850E+01 -0.16904120212E+02  0.48059376585E+02  0.00000000000E+00 0.  1.
          1    1    6    6  503    0 -0.50671630687E+02  0.45968857194E+03 -0.85479504232E+03  0.97188258638E+03  0.00000000000E+00 0. -1.
         -1    1    6    6    0  503 -0.15288341907E+03  0.93002173955E+03 -0.20045796846E+04  0.22150967220E+04  0.00000000000E+00 0.  1.
<mgrwt>
<rscale>  0 0.14804577E+04</rscale>
<asrwt>0</asrwt>
<pdfrwt beam="1">  1        1 0.97121025E-01 0.14804577E+04</pdfrwt>
<pdfrwt beam="2">  1       -1 0.66515665E+00 0.14804577E+04</pdfrwt>
<totfact> 0.77606473E-03</totfact>
</mgrwt>
</event>
<event>
12    1  0.1432447E-007  0.4490498E+03  0.7818608E-02  0.1028006E+00
         -2   -1    0    0    0  501 -0.00000000000E+00  0.00000000000E+00  0.25115691221E+03  0.25115691221E+03  0.00000000000E+00 0.  1.
          2   -1    0    0  501    0  0.00000000000E+00 -0.00000000000E+00 -0.10450047272E+04  0.10450047272E+04  0.00000000000E+00 0. -1.
         23    2    1    2    0    0 -0.10567759829E+03  0.30761876389E+03 -0.32755986192E+03  0.46944894092E+03  0.85380245439E+02 0.  0.
    5000000    2    1    2    0    0  0.10567759829E+03 -0.30761876389E+03 -0.46628795306E+03  0.82671269848E+03  0.60019361207E+03 0.  0.
         23    2    4    4    0    0 -0.15972089903E+03 -0.11078154270E+02 -0.36169462399E+03  0.40563988850E+03  0.89929011035E+02 0.  0.
         23    2    4    4    0    0  0.26539849733E+03 -0.29654060962E+03 -0.10459332907E+03  0.42107280998E+03  0.89385968010E+02 0.  0.
          1    1    3    3  502    0 -0.55200539674E+02  0.21797407060E+03 -0.17266505078E+03  0.28350134884E+03  0.00000000000E+00 0. -1.
         -1    1    3    3    0  502 -0.50477058618E+02  0.89644693295E+02 -0.15489481114E+03  0.18594759208E+03  0.00000000000E+00 0.  1.
         13    1    5    5    0    0 -0.11450734819E+03  0.69895757365E+01 -0.15237863579E+03  0.19073551217E+03  0.00000000000E+00 0. -1.
        -13    1    5    5    0    0 -0.45213550847E+02 -0.18067730006E+02 -0.20931598820E+03  0.21490437633E+03  0.00000000000E+00 0.  1.
          3    1    6    6  503    0  0.10357024625E+03 -0.17950462706E+03 -0.39124178573E+02  0.21090141866E+03  0.00000000000E+00 0. -1.
         -3    1    6    6    0  503  0.16182825108E+03 -0.11703598257E+03 -0.65469150497E+02  0.21017139132E+03  0.00000000000E+00 0.  1.
<mgrwt>
<rscale>  0 0.44904976E+03</rscale>
<asrwt>0</asrwt>
<pdfrwt beam="1">  1        2 0.16076996E+00 0.44904976E+03</pdfrwt>
<pdfrwt beam="2">  1       -2 0.38639524E-01 0.44904976E+03</pdfrwt>
<totfact> 0.15485248E+02</totfact>
</mgrwt>
</event>
<event>
12    1  0.1432447E-007  0.1008557E+04  0.7818608E-02  0.9299209E-01
         -2   -1    0    0    0  501 -0.00000000000E+00  0.00000000000E+00  0.28345552309E+03  0.28345552309E+03  0.00000000000E+00 0.  1.
          2   -1    0    0  501    0  0.00000000000E+00 -0.00000000000E+00 -0.37921911281E+04  0.37921911281E+04  0.00000000000E+00 0. -1.
         23    2    1    2    0    0  0.21313257228E+03  0.92152473333E+03 -0.14953134273E+04  0.17716526060E+04  0.90318231742E+02 0.  0.
    5000000    2    1    2    0    0 -0.21313257228E+03 -0.92152473333E+03 -0.20134221777E+04  0.23039940452E+04  0.59990529844E+03 0.  0.
         23    2    4    4    0    0 -0.23766867646E+03 -0.12646319250E+03 -0.30412875456E+03  0.41654233223E+03  0.92378982264E+02 0.  0.
         23    2    4    4    0    0  0.24536104180E+02 -0.79506154083E+03 -0.17092934232E+04  0.18874517130E+04  0.89805836262E+02 0.  0.
          4    1    3    3  502    0  0.20544680472E+03  0.72931710790E+03 -0.12022736037E+04  0.14211170436E+04  0.00000000000E+00 0. -1.
         -4    1    3    3    0  502  0.76857675632E+01  0.19220762542E+03 -0.29303982361E+03  0.35053556241E+03  0.00000000000E+00 0.  1.
         13    1    5    5    0    0 -0.54589411519E+02 -0.28146630331E+02 -0.20128380924E+02  0.64632719017E+02  0.00000000000E+00 0. -1.
        -13    1    5    5    0    0 -0.18307926494E+03 -0.98316562167E+02 -0.28400037364E+03  0.35190961322E+03  0.00000000000E+00 0.  1.
          1    1    6    6  503    0  0.43437422782E+02 -0.66252596391E+03 -0.14763866884E+04  0.16188097838E+04  0.00000000000E+00 0. -1.
         -1    1    6    6    0  503 -0.18901318601E+02 -0.13253557691E+03 -0.23290673476E+03  0.26864192913E+03  0.00000000000E+00 0.  1.
<mgrwt>
<rscale>  0 0.10085572E+04</rscale>
<asrwt>0</asrwt>
<pdfrwt beam="1">  1        2 0.58341399E+00 0.10085572E+04</pdfrwt>
<pdfrwt beam="2">  1       -2 0.43608544E-01 0.10085572E+04</pdfrwt>
<totfact> 0.25955620E+00</totfact>
</mgrwt>
</event>
<event>
12    1  0.1432447E-007  0.9931681E+03  0.7818608E-02  0.9316070E-01
         -2   -1    0    0    0  501 -0.00000000000E+00  0.00000000000E+00  0.37759460937E+03  0.37759460937E+03  0.00000000000E+00 0.  1.
          2   -1    0    0  501    0  0.00000000000E+00 -0.00000000000E+00 -0.29992314398E+04  0.29992314398E+04  0.00000000000E+00 0. -1.
         23    2    1    2    0    0  0.54881095141E+03  0.72151959925E+03 -0.17888404180E+04  0.20073947960E+04  0.88881007332E+02 0.  0.
    5000000    2    1    2    0    0 -0.54881095141E+03 -0.72151959925E+03 -0.83279641242E+03  0.13694312531E+04  0.60000675002E+03 0.  0.
         23    2    4    4    0    0  0.67461101939E+02 -0.32854441530E+03 -0.22407516897E+03  0.41352317008E+03  0.91100481580E+02 0.  0.
         23    2    4    4    0    0 -0.61627205335E+03 -0.39297518395E+03 -0.60872124345E+03  0.95590808307E+03  0.94857641262E+02 0.  0.
          1    1    3    3  502    0  0.18366020223E+03  0.28474240141E+03 -0.59368550971E+03  0.68357281213E+03  0.00000000000E+00 0. -1.
         -1    1    3    3    0  502  0.36515074918E+03  0.43677719785E+03 -0.11951549083E+04  0.13238219839E+04  0.00000000000E+00 0.  1.
         13    1    5    5    0    0  0.88247544629E+02 -0.28661033283E+03 -0.18346241679E+03  0.35155592783E+03  0.00000000000E+00 0.  1.
        -13    1    5    5    0    0 -0.20786442691E+02 -0.41934082468E+02 -0.40612752181E+02  0.61967242248E+02  0.00000000000E+00 0. -1.
          1    1    6    6  503    0 -0.13592150434E+03 -0.72366856807E+02 -0.17860338086E+03  0.23581939055E+03  0.00000000000E+00 0. -1.
         -1    1    6    6    0  503 -0.48035054901E+03 -0.32060832715E+03 -0.43011786259E+03  0.72008869252E+03  0.00000000000E+00 0.  1.
<mgrwt>
<rscale>  0 0.99316810E+03</rscale>
<asrwt>0</asrwt>
<pdfrwt beam="1">  1        2 0.46142021E+00 0.99316810E+03</pdfrwt>
<pdfrwt beam="2">  1       -2 0.58091480E-01 0.99316810E+03</pdfrwt>
<totfact> 0.49483759E+00</totfact>
</mgrwt>
</event>
<event>
12    1  0.1432447E-007  0.8769969E+03  0.7818608E-02  0.9454802E-01
         -1   -1    0    0    0  501 -0.00000000000E+00  0.00000000000E+00  0.13131147382E+04  0.13131147382E+04  0.00000000000E+00 0.  1.
          1   -1    0    0  501    0  0.00000000000E+00 -0.00000000000E+00 -0.12506105168E+04  0.12506105168E+04  0.00000000000E+00 0. -1.
         23    2    1    2    0    0 -0.74921504976E+03 -0.34488261414E+03 -0.85506045409E+03  0.11917337463E+04  0.93987943981E+02 0.  0.
    5000000    2    1    2    0    0  0.74921504976E+03  0.34488261414E+03  0.91756467547E+03  0.13719915088E+04  0.60014044869E+03 0.  0.
         23    2    4    4    0    0  0.46083733125E+03  0.41051253602E+03  0.85212166059E+03  0.10559453386E+04  0.89541306853E+02 0.  0.
         23    2    4    4    0    0  0.28837771852E+03 -0.65629921883E+02  0.65443014880E+02  0.31604617014E+03  0.90185355138E+02 0.  0.
          4    1    3    3  502    0 -0.31709641373E+03 -0.15421575869E+03 -0.43215302872E+03  0.55775341869E+03  0.00000000000E+00 0. -1.
         -4    1    3    3    0  502 -0.43211863603E+03 -0.19066685544E+03 -0.42290742537E+03  0.63398032762E+03  0.00000000000E+00 0.  1.
         13    1    5    5    0    0  0.31804026195E+03  0.33557037471E+03  0.63538161718E+03  0.78579061082E+03  0.00000000000E+00 0. -1.
        -13    1    5    5    0    0  0.14279706930E+03  0.74942161312E+02  0.21674004341E+03  0.27015472781E+03  0.00000000000E+00 0.  1.
          1    1    6    6  503    0  0.22561266620E+03 -0.82910116818E+02  0.71209391328E+02  0.25069092531E+03  0.00000000000E+00 0. -1.
         -1    1    6    6    0  503  0.62765052317E+02  0.17280194935E+02 -0.57663764484E+01  0.65355244829E+02  0.00000000000E+00 0.  1.
<mgrwt>
<rscale>  0 0.87699689E+03</rscale>
<asrwt>0</asrwt>
<pdfrwt beam="1">  1        1 0.19240162E+00 0.87699689E+03</pdfrwt>
<pdfrwt beam="2">  1       -1 0.20201765E+00 0.87699689E+03</pdfrwt>
<totfact> 0.14658396E+00</totfact>
</mgrwt>
</event>
<event>
12    1  0.1432447E-007  0.1561851E+04  0.7818608E-02  0.8844333E-01
          1   -1    0    0  501    0  0.00000000000E+00  0.00000000000E+00  0.19636717861E+04  0.19636717861E+04  0.00000000000E+00 0. -1.
         -1   -1    0    0    0  501 -0.00000000000E+00 -0.00000000000E+00 -0.13277815759E+04  0.13277815759E+04  0.00000000000E+00 0.  1.
         23    2    1    2    0    0 -0.13641721126E+04  0.71738840142E+03  0.53637906650E+03  0.16345081907E+04  0.91119982624E+02 0.  0.
    5000000    2    1    2    0    0  0.13641721126E+04 -0.71738840142E+03  0.99511143749E+02  0.16569451713E+04  0.59996096676E+03 0.  0.
         23    2    4    4    0    0  0.13506345005E+04 -0.64278352390E+03 -0.55729151825E+01  0.14985623719E+04  0.90961050070E+02 0.  0.
         23    2    4    4    0    0  0.13537612105E+02 -0.74604877523E+02  0.10508405893E+03  0.15838279937E+03  0.91067540880E+02 0.  0.
          1    1    3    3  502    0 -0.12914764367E+04  0.69875488194E+03  0.51958180961E+03  0.15576055433E+04  0.00000000000E+00 0. -1.
         -1    1    3    3    0  502 -0.72695675892E+02  0.18633519488E+02  0.16797256885E+02  0.76902647423E+02  0.00000000000E+00 0.  1.
         11    1    5    5    0    0  0.33070053597E+03 -0.15036041839E+03 -0.39869374301E+02  0.36545952843E+03  0.00000000000E+00 0. -1.
        -11    1    5    5    0    0  0.10199339645E+04 -0.49242310551E+03  0.34296459118E+02  0.11331028435E+04  0.00000000000E+00 0.  1.
          1    1    6    6  503    0 -0.12473461048E+02 -0.16004214536E+02 -0.12941964655E+02  0.24066918427E+02  0.00000000000E+00 0. -1.
         -1    1    6    6    0  503  0.26011073153E+02 -0.58600662987E+02  0.11802602359E+03  0.13431588094E+03  0.00000000000E+00 0.  1.
<mgrwt>
<rscale>  0 0.15618515E+04</rscale>
<asrwt>0</asrwt>
<pdfrwt beam="1">  1        1 0.30210335E+00 0.15618515E+04</pdfrwt>
<pdfrwt beam="2">  1       -1 0.20427409E+00 0.15618515E+04</pdfrwt>
<totfact> 0.41654254E-01</totfact>
</mgrwt>
</event>
<event>
12    1  0.1432447E-007  0.1025375E+04  0.7818608E-02  0.9281144E-01
          2   -1    0    0  501    0  0.00000000000E+00  0.00000000000E+00  0.16441178999E+04  0.16441178999E+04  0.00000000000E+00 0. -1.
         -2   -1    0    0    0  501 -0.00000000000E+00 -0.00000000000E+00 -0.64275746746E+03  0.64275746746E+03  0.00000000000E+00 0.  1.
         23    2    1    2    0    0  0.90383864862E+03 -0.25078558644E+03  0.46840699747E+03  0.10524238672E+04  0.91505016099E+02 0.  0.
    5000000    2    1    2    0    0 -0.90383864862E+03  0.25078558644E+03  0.53295343495E+03  0.12344515001E+04  0.60001119087E+03 0.  0.
         23    2    4    4    0    0 -0.87096163626E+03  0.37092308564E+03  0.47595326072E+03  0.10636368671E+04  0.92918089365E+02 0.  0.
         23    2    4    4    0    0 -0.32877012357E+02 -0.12013749921E+03  0.57000174227E+02  0.17081463301E+03  0.10205244892E+03 0.  0.
          3    1    3    3  502    0  0.28966864257E+03 -0.53045680297E+02  0.18448290016E+03  0.34749921891E+03  0.00000000000E+00 0. -1.
         -3    1    3    3    0  502  0.61417000604E+03 -0.19773990614E+03  0.28392409731E+03  0.70492464834E+03  0.00000000000E+00 0.  1.
         13    1    5    5    0    0 -0.28193183994E+03  0.16730339798E+03  0.15544150504E+03  0.36281958442E+03  0.00000000000E+00 0.  1.
        -13    1    5    5    0    0 -0.58902979632E+03  0.20361968767E+03  0.32051175567E+03  0.70081728267E+03  0.00000000000E+00 0. -1.
          2    1    6    6  503    0 -0.46563324870E+02 -0.13317322629E+03  0.43660342902E+02  0.14768032017E+03  0.00000000000E+00 0. -1.
         -2    1    6    6    0  503  0.13686312513E+02  0.13035727082E+02  0.13339831325E+02  0.23134312839E+02  0.00000000000E+00 0.  1.
<mgrwt>
<rscale>  0 0.10253748E+04</rscale>
<asrwt>0</asrwt>
<pdfrwt beam="1">  1        2 0.25294121E+00 0.10253748E+04</pdfrwt>
<pdfrwt beam="2">  1       -2 0.98885764E-01 0.10253748E+04</pdfrwt>
<totfact> 0.88834917E+00</totfact>
</mgrwt>
</event>
<event>
12    1  0.1432447E-007  0.4478753E+03  0.7818608E-02  0.1028358E+00
         -1   -1    0    0    0  501 -0.00000000000E+00  0.00000000000E+00  0.69976529272E+03  0.69976529272E+03  0.00000000000E+00 0.  1.
          1   -1    0    0  501    0  0.00000000000E+00 -0.00000000000E+00 -0.58275907262E+03  0.58275907262E+03  0.00000000000E+00 0. -1.
         23    2    1    2    0    0  0.39902212841E+03 -0.13320225760E+03 -0.20868720344E+03  0.48059780303E+03  0.10228586903E+03 0.  0.
    5000000    2    1    2    0    0 -0.39902212841E+03  0.13320225760E+03  0.32569342355E+03  0.80192656231E+03  0.60004041932E+03 0.  0.
         23    2    4    4    0    0 -0.32242752255E+03  0.83412845649E+02  0.48766811485E+03  0.59759903972E+03  0.91581722648E+02 0.  0.
         23    2    4    4    0    0 -0.76594605858E+02  0.49789411951E+02 -0.16197469130E+03  0.20432752259E+03  0.84665321571E+02 0.  0.
          4    1    3    3  502    0  0.26179192637E+03 -0.44113339860E+02 -0.15967682756E+03  0.30980266094E+03  0.00000000000E+00 0. -1.
         -4    1    3    3    0  502  0.13723020204E+03 -0.89088917741E+02 -0.49010375874E+02  0.17079514209E+03  0.00000000000E+00 0.  1.
         11    1    5    5    0    0 -0.25192741631E+03  0.26733164864E+02  0.38364703448E+03  0.45974681321E+03  0.00000000000E+00 0.  1.
        -11    1    5    5    0    0 -0.70500106240E+02  0.56679680785E+02  0.10402108037E+03  0.13785222651E+03  0.00000000000E+00 0. -1.
          4    1    6    6  503    0 -0.63564199054E+02 -0.75888914039E+01 -0.67499726260E+02  0.93028015777E+02  0.00000000000E+00 0. -1.
         -4    1    6    6    0  503 -0.13030406804E+02  0.57378303355E+02 -0.94474965041E+02  0.11129950681E+03  0.00000000000E+00 0.  1.
<mgrwt>
<rscale>  0 0.44787533E+03</rscale>
<asrwt>0</asrwt>
<pdfrwt beam="1">  1        1 0.89655242E-01 0.44787533E+03</pdfrwt>
<pdfrwt beam="2">  1       -1 0.10765620E+00 0.44787533E+03</pdfrwt>
<totfact> 0.30542283E+01</totfact>
</mgrwt>
</event>
<event>
12    1  0.1432447E-007  0.1045920E+04  0.7818608E-02  0.9259567E-01
          1   -1    0    0  501    0  0.00000000000E+00  0.00000000000E+00  0.26860201307E+04  0.26860201307E+04  0.00000000000E+00 0. -1.
         -1   -1    0    0    0  501 -0.00000000000E+00 -0.00000000000E+00 -0.68104369658E+03  0.68104369658E+03  0.00000000000E+00 0.  1.
         23    2    1    2    0    0 -0.31095979792E+03  0.96282506831E+03  0.19387863354E+04  0.21888148054E+04  0.91047733811E+02 0.  0.
    5000000    2    1    2    0    0  0.31095979792E+03 -0.96282506831E+03  0.66190098677E+02  0.11782490219E+04  0.60013458511E+03 0.  0.
         23    2    4    4    0    0  0.17152404278E+02 -0.63232199632E+03  0.25618091780E+03  0.68844924960E+03  0.90600191067E+02 0.  0.
         23    2    4    4    0    0  0.29380739364E+03 -0.33050307199E+03 -0.18999081913E+03  0.48979977225E+03  0.90841842775E+02 0.  0.
          2    1    3    3  502    0 -0.16282369099E+03  0.61798476285E+03  0.12780467067E+04  0.14289227082E+04  0.00000000000E+00 0. -1.
         -2    1    3    3    0  502 -0.14813610692E+03  0.34484030546E+03  0.66073962871E+03  0.75989209720E+03  0.00000000000E+00 0.  1.
         13    1    5    5    0    0  0.30816744533E+01 -0.52492450738E+03  0.17588043429E+03  0.55361463342E+03  0.00000000000E+00 0. -1.
        -13    1    5    5    0    0  0.14070729825E+02 -0.10739748894E+03  0.80300483513E+02  0.13483461618E+03  0.00000000000E+00 0.  1.
          3    1    6    6  503    0  0.20442812701E+03 -0.25762276448E+03 -0.17771418493E+03  0.37382172143E+03  0.00000000000E+00 0. -1.
         -3    1    6    6    0  503  0.89379266624E+02 -0.72880307506E+02 -0.12276634201E+02  0.11597805082E+03  0.00000000000E+00 0.  1.
<mgrwt>
<rscale>  0 0.10459198E+04</rscale>
<asrwt>0</asrwt>
<pdfrwt beam="1">  1        1 0.41323386E+00 0.10459198E+04</pdfrwt>
<pdfrwt beam="2">  1       -1 0.10477595E+00 0.10459198E+04</pdfrwt>
<totfact> 0.87119021E-01</totfact>
</mgrwt>
</event>
<event>
12    1  0.1432447E-007  0.5677119E+03  0.7818608E-02  0.9974755E-01
          1   -1    0    0  501    0  0.00000000000E+00  0.00000000000E+00  0.12461424316E+04  0.12461424316E+04  0.00000000000E+00 0. -1.
         -1   -1    0    0    0  501 -0.00000000000E+00 -0.00000000000E+00 -0.31159615697E+03  0.31159615697E+03  0.00000000000E+00 0.  1.
         23    2    1    2    0    0  0.40044820263E+03 -0.13049613728E+03  0.91033999109E+02  0.44021951559E+03  0.90100100330E+02 0.  0.
    5000000    2    1    2    0    0 -0.40044820263E+03  0.13049613728E+03  0.84351227548E+03  0.11175190730E+04  0.59995659401E+03 0.  0.
         23    2    4    4    0    0 -0.46527284628E+03  0.27755465077E+03  0.60896764629E+03  0.81889175573E+03  0.78909490679E+02 0.  0.
         23    2    4    4    0    0  0.64824643650E+02 -0.14705851349E+03  0.23454462919E+03  0.29862731723E+03  0.91316212679E+02 0.  0.
          1    1    3    3  502    0  0.22969652331E+03 -0.28555135953E+02  0.39834009857E+02  0.23486727518E+03  0.00000000000E+00 0. -1.
         -1    1    3    3    0  502  0.17075167931E+03 -0.10194100132E+03  0.51199989251E+02  0.20535224040E+03  0.00000000000E+00 0.  1.
         11    1    5    5    0    0 -0.12979372219E+03  0.10470225655E+03  0.22971011873E+03  0.28385861180E+03  0.00000000000E+00 0.  1.
        -11    1    5    5    0    0 -0.33547912409E+03  0.17285239421E+03  0.37925752757E+03  0.53503314393E+03  0.00000000000E+00 0. -1.
          1    1    6    6  503    0  0.44235749385E+02 -0.10972125481E+03  0.92065986926E+02  0.14990564109E+03  0.00000000000E+00 0. -1.
         -1    1    6    6    0  503  0.20588894265E+02 -0.37337258680E+02  0.14247864226E+03  0.14872167614E+03  0.00000000000E+00 0.  1.
<mgrwt>
<rscale>  0 0.56771187E+03</rscale>
<asrwt>0</asrwt>
<pdfrwt beam="1">  1        1 0.19171422E+00 0.56771187E+03</pdfrwt>
<pdfrwt beam="2">  1       -1 0.47937871E-01 0.56771187E+03</pdfrwt>
<totfact> 0.45154762E+01</totfact>
</mgrwt>
</event>
<event>
12    1  0.1432447E-007  0.1302576E+04  0.7818608E-02  0.9027525E-01
          1   -1    0    0  501    0  0.00000000000E+00  0.00000000000E+00  0.13930151472E+04  0.13930151472E+04  0.00000000000E+00 0. -1.
         -1   -1    0    0    0  501 -0.00000000000E+00 -0.00000000000E+00 -0.13639762461E+04  0.13639762461E+04  0.00000000000E+00 0.  1.
         23    2    1    2    0    0  0.76143282294E+03 -0.97771002452E+03 -0.41541739424E+03  0.13102067558E+04  0.91505712906E+02 0.  0.
    5000000    2    1    2    0    0 -0.76143282294E+03  0.97771002452E+03  0.44445629539E+03  0.14467846376E+04  0.59995629262E+03 0.  0.
         23    2    4    4    0    0  0.58127434857E+02  0.26203047827E+03  0.64948657085E+02  0.29070883119E+03  0.90854423406E+02 0.  0.
         23    2    4    4    0    0 -0.81956025780E+03  0.71567954625E+03  0.37950763830E+03  0.11560758064E+04  0.92784661668E+02 0.  0.
          3    1    3    3  502    0  0.34269901189E+03 -0.48479627652E+03 -0.16035329210E+03  0.61496603221E+03  0.00000000000E+00 0. -1.
         -3    1    3    3    0  502  0.41873381105E+03 -0.49291374799E+03 -0.25506410214E+03  0.69524072355E+03  0.00000000000E+00 0.  1.
         13    1    5    5    0    0  0.57034679167E+02  0.26556910220E+03  0.73497218192E+02  0.28139250835E+03  0.00000000000E+00 0. -1.
        -13    1    5    5    0    0  0.10927556904E+01 -0.35386239346E+01 -0.85485611078E+01  0.93163228456E+01  0.00000000000E+00 0.  1.
          3    1    6    6  503    0 -0.37298553617E+03  0.36109842091E+03  0.22103033900E+03  0.56423815054E+03  0.00000000000E+00 0. -1.
         -3    1    6    6    0  503 -0.44657472163E+03  0.35458112535E+03  0.15847729931E+03  0.59183765582E+03  0.00000000000E+00 0.  1.
<mgrwt>
<rscale>  0 0.13025758E+04</rscale>
<asrwt>0</asrwt>
<pdfrwt beam="1">  1        1 0.21431002E+00 0.13025758E+04</pdfrwt>
<pdfrwt beam="2">  1       -1 0.20984250E+00 0.13025758E+04</pdfrwt>
<totfact> 0.96938820E-01</totfact>
</mgrwt>
</event>
<event>
12    1  0.1432447E-007  0.1165630E+04  0.7818608E-02  0.9143484E-01
          1   -1    0    0  501    0  0.00000000000E+00  0.00000000000E+00  0.25383707628E+04  0.25383707628E+04  0.00000000000E+00 0. -1.
         -1   -1    0    0    0  501 -0.00000000000E+00 -0.00000000000E+00 -0.79174480838E+03  0.79174480838E+03  0.00000000000E+00 0.  1.
         23    2    1    2    0    0  0.41779417885E+03 -0.10099254258E+04 -0.10056871202E+03  0.11015255106E+04  0.93504241221E+02 0.  0.
    5000000    2    1    2    0    0 -0.41779417885E+03  0.10099254258E+04  0.18471946664E+04  0.22285900605E+04  0.59998681699E+03 0.  0.
         23    2    4    4    0    0 -0.51857946063E+03  0.53668289172E+03  0.11607805479E+04  0.13833292940E+04  0.96100323035E+02 0.  0.
         23    2    4    4    0    0  0.10078528178E+03  0.47324253411E+03  0.68641411851E+03  0.84526076648E+03  0.95839721112E+02 0.  0.
          3    1    3    3  502    0  0.30509929495E+03 -0.73369140701E+03 -0.31107793071E+02  0.79520837225E+03  0.00000000000E+00 0. -1.
         -3    1    3    3    0  502  0.11269488389E+03 -0.27623401882E+03 -0.69460918949E+02  0.30631713839E+03  0.00000000000E+00 0.  1.
         11    1    5    5    0    0 -0.36059384804E+03  0.41285796006E+03  0.90676279037E+03  0.10595746205E+04  0.00000000000E+00 0. -1.
        -11    1    5    5    0    0 -0.15798561258E+03  0.12382493166E+03  0.25401775752E+03  0.32375467350E+03  0.00000000000E+00 0.  1.
          2    1    6    6  503    0  0.70204496081E+02  0.16027785136E+03  0.19654652426E+03  0.26315052176E+03  0.00000000000E+00 0. -1.
         -2    1    6    6    0  503  0.30580785699E+02  0.31296468275E+03  0.48986759426E+03  0.58211024472E+03  0.00000000000E+00 0.  1.
<mgrwt>
<rscale>  0 0.11656303E+04</rscale>
<asrwt>0</asrwt>
<pdfrwt beam="1">  1        1 0.39051858E+00 0.11656303E+04</pdfrwt>
<pdfrwt beam="2">  1       -1 0.12180689E+00 0.11656303E+04</pdfrwt>
<totfact> 0.75539777E-01</totfact>
</mgrwt>
</event>
<event>
12    1  0.1432447E-007  0.9701802E+03  0.7818608E-02  0.9341869E-01
         -1   -1    0    0    0  501 -0.00000000000E+00  0.00000000000E+00  0.11457529773E+04  0.11457529773E+04  0.00000000000E+00 0.  1.
          1   -1    0    0  501    0  0.00000000000E+00 -0.00000000000E+00 -0.87073686051E+03  0.87073686051E+03  0.00000000000E+00 0. -1.
         23    2    1    2    0    0  0.18690707394E+03  0.86937478155E+03  0.29084748087E+03  0.94370524822E+03  0.12345271690E+03 0.  0.
    5000000    2    1    2    0    0 -0.18690707394E+03 -0.86937478155E+03 -0.15831364033E+02  0.10727845896E+04  0.59989113895E+03 0.  0.
         23    2    4    4    0    0 -0.33466847719E+03 -0.81879031248E+03  0.78400620904E+01  0.88929451190E+03  0.91447782324E+02 0.  0.
         23    2    4    4    0    0  0.14776140325E+03 -0.50584469070E+02 -0.23671426124E+02  0.18349007773E+03  0.93359795467E+02 0.  0.
          4    1    3    3  502    0  0.12219943530E+03  0.73692825243E+03  0.21178752739E+03  0.77643409763E+03  0.00000000000E+00 0. -1.
         -4    1    3    3    0  502  0.64707638633E+02  0.13244652913E+03  0.79059953478E+02  0.16727115059E+03  0.00000000000E+00 0.  1.
         11    1    5    5    0    0 -0.17067064459E+03 -0.52161079946E+03  0.25431709787E+02  0.54941156423E+03  0.00000000000E+00 0. -1.
        -11    1    5    5    0    0 -0.16399783259E+03 -0.29717951302E+03 -0.17591647697E+02  0.33988294768E+03  0.00000000000E+00 0.  1.
          2    1    6    6  503    0  0.12701445253E+03 -0.34957421197E+02  0.19434999474E+02  0.13316310169E+03  0.00000000000E+00 0. -1.
         -2    1    6    6    0  503  0.20746950724E+02 -0.15627047873E+02 -0.43106425598E+02  0.50326976041E+02  0.00000000000E+00 0.  1.
<mgrwt>
<rscale>  0 0.97018025E+03</rscale>
<asrwt>0</asrwt>
<pdfrwt beam="1">  1        1 0.13395952E+00 0.97018025E+03</pdfrwt>
<pdfrwt beam="2">  1       -1 0.17626969E+00 0.97018025E+03</pdfrwt>
<totfact> 0.42881482E+00</totfact>
</mgrwt>
</event>
<event>
12    1  0.1432447E-007  0.7252671E+03  0.7818608E-02  0.9674972E-01
          2   -1    0    0  501    0  0.00000000000E+00  0.00000000000E+00  0.61406949865E+03  0.61406949865E+03  0.00000000000E+00 0. -1.
         -2   -1    0    0    0  501 -0.00000000000E+00 -0.00000000000E+00 -0.14373591824E+04  0.14373591824E+04  0.00000000000E+00 0.  1.
         23    2    1    2    0    0  0.26333916669E+03  0.56759769681E+03 -0.98451252973E+03  0.11699469806E+04  0.89422335875E+02 0.  0.
    5000000    2    1    2    0    0 -0.26333916669E+03 -0.56759769681E+03  0.16122284603E+03  0.88148170037E+03  0.59958528990E+03 0.  0.
         23    2    4    4    0    0 -0.31438434326E+03 -0.92401707630E+02  0.19622256055E+03  0.39256636990E+03  0.90716429869E+02 0.  0.
         23    2    4    4    0    0  0.51045176566E+02 -0.47519598918E+03 -0.34999714520E+02  0.48891533047E+03  0.96934937807E+02 0.  0.
          3    1    3    3  502    0  0.14162348450E+03  0.40406423737E+03 -0.66030316405E+03  0.78697229159E+03  0.00000000000E+00 0. -1.
         -3    1    3    3    0  502  0.12171568219E+03  0.16353345944E+03 -0.32420936569E+03  0.38297468904E+03  0.00000000000E+00 0.  1.
         13    1    5    5    0    0 -0.28479244024E+03 -0.97229340983E+02  0.14696609728E+03  0.33490194463E+03  0.00000000000E+00 0.  1.
        -13    1    5    5    0    0 -0.29591903020E+02  0.48276333524E+01  0.49256463272E+02  0.57664425274E+02  0.00000000000E+00 0. -1.
          1    1    6    6  503    0  0.70197676286E+02 -0.20429048607E+03 -0.11551091660E+02  0.21632324003E+03  0.00000000000E+00 0. -1.
         -1    1    6    6    0  503 -0.19152499720E+02 -0.27090550311E+03 -0.23448622859E+02  0.27259209045E+03  0.00000000000E+00 0.  1.
<mgrwt>
<rscale>  0 0.72526707E+03</rscale>
<asrwt>0</asrwt>
<pdfrwt beam="1">  1        2 0.94472231E-01 0.72526707E+03</pdfrwt>
<pdfrwt beam="2">  1       -2 0.22113218E+00 0.72526707E+03</pdfrwt>
<totfact> 0.48155435E+00</totfact>
</mgrwt>
</event>
<event>
12    1  0.1432447E-007  0.9439315E+03  0.7818608E-02  0.9372272E-01
         -3   -1    0    0    0  501 -0.00000000000E+00  0.00000000000E+00  0.10204842834E+04  0.10204842834E+04  0.00000000000E+00 0.  1.
          3   -1    0    0  501    0  0.00000000000E+00 -0.00000000000E+00 -0.28666194759E+04  0.28666194759E+04  0.00000000000E+00 0. -1.
         23    2    1    2    0    0 -0.68008469486E+03  0.53236503112E+03 -0.25015631121E+04  0.26478886105E+04  0.86996385672E+02 0.  0.
    5000000    2    1    2    0    0  0.68008469486E+03 -0.53236503112E+03  0.65542791956E+03  0.12392151488E+04  0.60011724591E+03 0.  0.
         23    2    4    4    0    0  0.58735051075E+03 -0.64634462937E+03  0.53987856497E+03  0.10318222783E+04  0.10220737135E+03 0.  0.
         23    2    4    4    0    0  0.92734184109E+02  0.11397959825E+03  0.11554935459E+03  0.20739287051E+03  0.89828568233E+02 0.  0.
          4    1    3    3  502    0 -0.29367980977E+03  0.25089840961E+03 -0.99717708622E+03  0.10693736409E+04  0.00000000000E+00 0. -1.
         -4    1    3    3    0  502 -0.38640488509E+03  0.28146662151E+03 -0.15043860259E+04  0.15785149696E+04  0.00000000000E+00 0.  1.
         11    1    5    5    0    0  0.25311215219E+03 -0.31310796371E+03  0.19557104206E+03  0.44760517314E+03  0.00000000000E+00 0. -1.
        -11    1    5    5    0    0  0.33423835856E+03 -0.33323666566E+03  0.34430752291E+03  0.58421710520E+03  0.00000000000E+00 0.  1.
          1    1    6    6  503    0  0.17618012335E+02  0.87640493155E+01 -0.14174187639E+02  0.24250989965E+02  0.00000000000E+00 0. -1.
         -1    1    6    6    0  503  0.75116171774E+02  0.10521554893E+03  0.12972354223E+03  0.18314188054E+03  0.00000000000E+00 0.  1.
<mgrwt>
<rscale>  0 0.94393154E+03</rscale>
<asrwt>0</asrwt>
<pdfrwt beam="1">  1        3 0.44101838E+00 0.94393154E+03</pdfrwt>
<pdfrwt beam="2">  1       -3 0.15699758E+00 0.94393154E+03</pdfrwt>
<totfact> 0.50184252E-03</totfact>
</mgrwt>
</event>
<event>
12    1  0.1432447E-007  0.4570170E+03  0.7818608E-02  0.1025650E+00
          2   -1    0    0  501    0  0.00000000000E+00  0.00000000000E+00  0.32569728401E+03  0.32569728401E+03  0.00000000000E+00 0. -1.
         -2   -1    0    0    0  501 -0.00000000000E+00 -0.00000000000E+00 -0.83819662283E+03  0.83819662283E+03  0.00000000000E+00 0.  1.
         23    2    1    2    0    0 -0.27869218531E+03  0.16592873037E+03 -0.55780036604E+02  0.34308776804E+03  0.96933618416E+02 0.  0.
    5000000    2    1    2    0    0  0.27869218531E+03 -0.16592873037E+03 -0.45671930222E+03  0.82080613881E+03  0.59994042935E+03 0.  0.
         23    2    4    4    0    0  0.29734315840E+03  0.92196596167E+02 -0.43859630186E+03  0.54567850135E+03  0.92114844823E+02 0.  0.
         23    2    4    4    0    0 -0.18650973097E+02 -0.25812532653E+03 -0.18123000362E+02  0.27512763746E+03  0.91598202800E+02 0.  0.
          1    1    3    3  502    0 -0.22657994502E+03  0.17410972945E+03 -0.48540872317E+02  0.28984286374E+03  0.00000000000E+00 0. -1.
         -1    1    3    3    0  502 -0.52112240289E+02 -0.81809990864E+01 -0.72391642869E+01  0.53244904296E+02  0.00000000000E+00 0.  1.
         13    1    5    5    0    0  0.18308574710E+03  0.86087551968E+02 -0.33486608584E+03  0.39123746350E+03  0.00000000000E+00 0.  1.
        -13    1    5    5    0    0  0.11425741130E+03  0.61090441982E+01 -0.10373021601E+03  0.15444103785E+03  0.00000000000E+00 0. -1.
          3    1    6    6  503    0 -0.59061522102E+01 -0.83321300656E+02 -0.49467169734E+02  0.97078950646E+02  0.00000000000E+00 0. -1.
         -3    1    6    6    0  503 -0.12744820887E+02 -0.17480402588E+03  0.31344169373E+02  0.17804868681E+03  0.00000000000E+00 0.  1.
<mgrwt>
<rscale>  0 0.45701702E+03</rscale>
<asrwt>0</asrwt>
<pdfrwt beam="1">  1        2 0.50107275E-01 0.45701702E+03</pdfrwt>
<pdfrwt beam="2">  1       -2 0.12895332E+00 0.45701702E+03</pdfrwt>
<totfact> 0.45914081E+01</totfact>
</mgrwt>
</event>
<event>
12    1  0.1432447E-007  0.7604623E+03  0.7818608E-02  0.9619078E-01
          1   -1    0    0  501    0  0.00000000000E+00  0.00000000000E+00  0.39701010730E+04  0.39701010730E+04  0.00000000000E+00 0. -1.
         -1   -1    0    0    0  501 -0.00000000000E+00 -0.00000000000E+00 -0.18969047255E+03  0.18969047255E+03  0.00000000000E+00 0.  1.
         23    2    1    2    0    0  0.72327086888E+03 -0.14414279612E+03  0.12324449655E+04  0.14402212020E+04  0.10685795413E+03 0.  0.
    5000000    2    1    2    0    0 -0.72327086888E+03  0.14414279612E+03  0.25479656350E+04  0.27195703436E+04  0.60003006673E+03 0.  0.
         23    2    4    4    0    0 -0.12371936254E+03  0.82394150149E+02  0.14824897655E+04  0.14926700410E+04  0.90513368222E+02 0.  0.
         23    2    4    4    0    0 -0.59955150634E+03  0.61748645972E+02  0.10654758695E+04  0.12269003026E+04  0.82283776779E+02 0.  0.
          1    1    3    3  502    0  0.54871922347E+03 -0.62080926778E+02  0.92347986872E+03  0.10759934459E+04  0.00000000000E+00 0. -1.
         -1    1    3    3    0  502  0.17455164541E+03 -0.82061869343E+02  0.30896509677E+03  0.36422775613E+03  0.00000000000E+00 0.  1.
         11    1    5    5    0    0 -0.13033275276E+03  0.58144753553E+02  0.13696258993E+04  0.13770412277E+04  0.00000000000E+00 0.  1.
        -11    1    5    5    0    0  0.66133902243E+01  0.24249396596E+02  0.11286386615E+03  0.11562881323E+03  0.00000000000E+00 0. -1.
          1    1    6    6  503    0 -0.40646276442E+03  0.79175191452E+02  0.70644247308E+03  0.81886608037E+03  0.00000000000E+00 0. -1.
         -1    1    6    6    0  503 -0.19308874192E+03 -0.17426545480E+02  0.35903339645E+03  0.40803422223E+03  0.00000000000E+00 0.  1.
<mgrwt>
<rscale>  0 0.76046230E+03</rscale>
<asrwt>0</asrwt>
<pdfrwt beam="1">  1        1 0.61078472E+00 0.76046230E+03</pdfrwt>
<pdfrwt beam="2">  1       -1 0.29183153E-01 0.76046230E+03</pdfrwt>
<totfact> 0.12009733E+00</totfact>
</mgrwt>
</event>
<event>
12    1  0.1432447E-007  0.1322798E+04  0.7818608E-02  0.9011679E-01
          1   -1    0    0  501    0  0.00000000000E+00  0.00000000000E+00  0.24604952051E+04  0.24604952051E+04  0.00000000000E+00 0. -1.
         -1   -1    0    0    0  501 -0.00000000000E+00 -0.00000000000E+00 -0.73589509442E+03  0.73589509442E+03  0.00000000000E+00 0.  1.
         23    2    1    2    0    0 -0.12745408026E+04 -0.37438039070E+02  0.90299194451E+03  0.15651795734E+04  0.92394701097E+02 0.  0.
    5000000    2    1    2    0    0  0.12745408026E+04  0.37438039070E+02  0.82160816613E+03  0.16312107261E+04  0.59996049036E+03 0.  0.
         23    2    4    4    0    0  0.10538781520E+04  0.21917528036E+03  0.49702213172E+03  0.11892264647E+04  0.92366779926E+02 0.  0.
         23    2    4    4    0    0  0.22066265059E+03 -0.18173724129E+03  0.32458603440E+03  0.44198426143E+03  0.90959130272E+02 0.  0.
          4    1    3    3  502    0 -0.10703312989E+04 -0.81878059712E+01  0.78663232365E+03  0.13283322409E+04  0.00000000000E+00 0. -1.
         -4    1    3    3    0  502 -0.20420950373E+03 -0.29250233099E+02  0.11635962086E+03  0.23684733251E+03  0.00000000000E+00 0.  1.
         11    1    5    5    0    0  0.96685426882E+03  0.18620739790E+03  0.42933818141E+03  0.10741562485E+04  0.00000000000E+00 0. -1.
        -11    1    5    5    0    0  0.87023883194E+02  0.32967882453E+02  0.67683950316E+02  0.11507021617E+03  0.00000000000E+00 0.  1.
          1    1    6    6  503    0  0.18457263136E+03 -0.17539093744E+03  0.24041804627E+03  0.35018548535E+03  0.00000000000E+00 0. -1.
         -1    1    6    6    0  503  0.36090019237E+02 -0.63463038473E+01  0.84167988140E+02  0.91798776073E+02  0.00000000000E+00 0.  1.
<mgrwt>
<rscale>  0 0.13227984E+04</rscale>
<asrwt>0</asrwt>
<pdfrwt beam="1">  1        1 0.37853772E+00 0.13227984E+04</pdfrwt>
<pdfrwt beam="2">  1       -1 0.11321463E+00 0.13227984E+04</pdfrwt>
<totfact> 0.10012297E+00</totfact>
</mgrwt>
</event>
<event>
12    1  0.1432447E-007  0.5913656E+03  0.7818608E-02  0.9923483E-01
         -2   -1    0    0    0  501 -0.00000000000E+00  0.00000000000E+00  0.87968278329E+03  0.87968278329E+03  0.00000000000E+00 0.  1.
          2   -1    0    0  501    0  0.00000000000E+00 -0.00000000000E+00 -0.67846672899E+03  0.67846672899E+03  0.00000000000E+00 0. -1.
         23    2    1    2    0    0  0.40466801400E+03 -0.19313001636E+03 -0.39207594536E+03  0.60269771366E+03  0.92008599296E+02 0.  0.
    5000000    2    1    2    0    0 -0.40466801400E+03  0.19313001636E+03  0.59329199966E+03  0.95545179862E+03  0.59986443289E+03 0.  0.
         23    2    4    4    0    0 -0.44318509117E+03 -0.78946615641E+02  0.37010055664E+03  0.58975490291E+03  0.90503206203E+02 0.  0.
         23    2    4    4    0    0  0.38517077165E+02  0.27207663200E+03  0.22319144302E+03  0.36569689571E+03  0.91708998352E+02 0.  0.
          4    1    3    3  502    0  0.12465508162E+03 -0.86332992193E+02 -0.18108828893E+03  0.23618899911E+03  0.00000000000E+00 0. -1.
         -4    1    3    3    0  502  0.28001293238E+03 -0.10679702416E+03 -0.21098765643E+03  0.36650871455E+03  0.00000000000E+00 0.  1.
         13    1    5    5    0    0 -0.17116733661E+03 -0.31212755744E+02  0.20133263241E+03  0.26609645266E+03  0.00000000000E+00 0. -1.
        -13    1    5    5    0    0 -0.27201775456E+03 -0.47733859896E+02  0.16876792423E+03  0.32365845026E+03  0.00000000000E+00 0.  1.
          3    1    6    6  503    0 -0.10608523916E+02  0.13880324296E+03  0.66718813690E+02  0.15437059674E+03  0.00000000000E+00 0. -1.
         -3    1    6    6    0  503  0.49125601081E+02  0.13327338904E+03  0.15647262933E+03  0.21132629897E+03  0.00000000000E+00 0.  1.
<mgrwt>
<rscale>  0 0.59136563E+03</rscale>
<asrwt>0</asrwt>
<pdfrwt beam="1">  1        2 0.10437950E+00 0.59136563E+03</pdfrwt>
<pdfrwt beam="2">  1       -2 0.13533581E+00 0.59136563E+03</pdfrwt>
<totfact> 0.17239481E+01</totfact>
</mgrwt>
</event>
<event>
12    1  0.1432447E-007  0.8779625E+03  0.7818608E-02  0.9453556E-01
          2   -1    0    0  501    0  0.00000000000E+00  0.00000000000E+00  0.19392593622E+04  0.19392593622E+04  0.00000000000E+00 0. -1.
         -2   -1    0    0    0  501 -0.00000000000E+00 -0.00000000000E+00 -0.44788052166E+03  0.44788052166E+03  0.00000000000E+00 0.  1.
         23    2    1    2    0    0 -0.81883206684E+03 -0.12281350731E+03  0.55689929541E+03  0.10019107162E+04  0.90106307798E+02 0.  0.
    5000000    2    1    2    0    0  0.81883206684E+03  0.12281350731E+03  0.93447954516E+03  0.13852291677E+04  0.60003226204E+03 0.  0.
         23    2    4    4    0    0  0.12114570010E+03  0.17083531394E+03  0.51908339573E+03  0.56703325335E+03  0.90654032091E+02 0.  0.
         23    2    4    4    0    0  0.69768636674E+03 -0.48021806631E+02  0.41539614943E+03  0.81819591436E+03  0.88420772864E+02 0.  0.
          3    1    3    3  502    0 -0.58715110650E+03 -0.10019679989E+03  0.35251852680E+03  0.69213808760E+03  0.00000000000E+00 0. -1.
         -3    1    3    3    0  502 -0.23168096034E+03 -0.22616707416E+02  0.20438076861E+03  0.30977262858E+03  0.00000000000E+00 0.  1.
         13    1    5    5    0    0  0.75524377845E+02  0.32226725698E+02  0.19760425525E+03  0.21398582942E+03  0.00000000000E+00 0. -1.
        -13    1    5    5    0    0  0.45621322258E+02  0.13860858824E+03  0.32147914048E+03  0.35304742393E+03  0.00000000000E+00 0.  1.
          4    1    6    6  503    0  0.51692847491E+03 -0.41511505376E+02  0.35095183395E+03  0.62618323437E+03  0.00000000000E+00 0. -1.
         -4    1    6    6    0  503  0.18075789183E+03 -0.65103012549E+01  0.64444315479E+02  0.19201268000E+03  0.00000000000E+00 0.  1.
<mgrwt>
<rscale>  0 0.87796252E+03</rscale>
<asrwt>0</asrwt>
<pdfrwt beam="1">  1        2 0.29834759E+00 0.87796252E+03</pdfrwt>
<pdfrwt beam="2">  1       -2 0.68904697E-01 0.87796252E+03</pdfrwt>
<totfact> 0.14119243E+01</totfact>
</mgrwt>
</event>
<event>
12    1  0.1432447E-007  0.1252850E+04  0.7818608E-02  0.9067815E-01
         -4   -1    0    0    0  501 -0.00000000000E+00  0.00000000000E+00  0.99954325594E+03  0.99954325594E+03  0.00000000000E+00 0.  1.
          4   -1    0    0  501    0  0.00000000000E+00 -0.00000000000E+00 -0.21729586997E+04  0.21729586997E+04  0.00000000000E+00 0. -1.
         23    2    1    2    0    0  0.22443923896E+03 -0.11999705877E+04 -0.13248821199E+04  0.18038572852E+04  0.91027965739E+02 0.  0.
    5000000    2    1    2    0    0 -0.22443923896E+03  0.11999705877E+04  0.15146667613E+03  0.13686446704E+04  0.59995307847E+03 0.  0.
         23    2    4    4    0    0 -0.76181788130E+02  0.13729712367E+02 -0.82470021958E+02  0.14669978068E+03  0.93420293754E+02 0.  0.
         23    2    4    4    0    0 -0.14825745083E+03  0.11862408754E+04  0.23393669809E+03  0.12219448897E+04  0.96308092235E+02 0.  0.
          2    1    3    3  502    0  0.19512673557E+03 -0.86558768433E+03 -0.99622662589E+03  0.13340854442E+04  0.00000000000E+00 0. -1.
         -2    1    3    3    0  502  0.29312503388E+02 -0.33438290340E+03 -0.32865549398E+03  0.46977184108E+03  0.00000000000E+00 0.  1.
         13    1    5    5    0    0 -0.52548684575E+01 -0.88791309502E+01 -0.70559439285E+02  0.71309796530E+02  0.00000000000E+00 0.  1.
        -13    1    5    5    0    0 -0.70926919673E+02  0.22608843318E+02 -0.11910582673E+02  0.75389984149E+02  0.00000000000E+00 0. -1.
          3    1    6    6  503    0 -0.12530857277E+03  0.69619197174E+03  0.16687865738E+03  0.72679707362E+03  0.00000000000E+00 0. -1.
         -3    1    6    6    0  503 -0.22948878063E+02  0.49004890362E+03  0.67058040709E+02  0.49514781608E+03  0.00000000000E+00 0.  1.
<mgrwt>
<rscale>  0 0.12528499E+04</rscale>
<asrwt>0</asrwt>
<pdfrwt beam="1">  1        4 0.33430133E+00 0.12528499E+04</pdfrwt>
<pdfrwt beam="2">  1       -4 0.15377589E+00 0.12528499E+04</pdfrwt>
<totfact> 0.98790414E-03</totfact>
</mgrwt>
</event>
<event>
12    1  0.1432447E-007  0.8896689E+03  0.7818608E-02  0.9438589E-01
          1   -1    0    0  501    0  0.00000000000E+00  0.00000000000E+00  0.15564675325E+04  0.15564675325E+04  0.00000000000E+00 0. -1.
         -1   -1    0    0    0  501 -0.00000000000E+00 -0.00000000000E+00 -0.58207275131E+03  0.58207275131E+03  0.00000000000E+00 0.  1.
         23    2    1    2    0    0 -0.59949910491E+03 -0.59714600975E+03  0.57529487572E+03  0.10271119512E+04  0.89511074974E+02 0.  0.
    5000000    2    1    2    0    0  0.59949910491E+03  0.59714600975E+03  0.39909990542E+03  0.11114283325E+04  0.60000805838E+03 0.  0.
         23    2    4    4    0    0  0.26356401694E+03  0.51734533678E+03  0.46380738436E+03  0.74840220221E+03  0.88748960415E+02 0.  0.
         23    2    4    4    0    0  0.33593508798E+03  0.79800672975E+02 -0.64707478935E+02  0.36302613034E+03  0.91544430388E+02 0.  0.
          3    1    3    3  502    0 -0.44456298577E+03 -0.42697537741E+03  0.46374486076E+03  0.77136471083E+03  0.00000000000E+00 0. -1.
         -3    1    3    3    0  502 -0.15493611915E+03 -0.17017063235E+03  0.11155001496E+03  0.25574724039E+03  0.00000000000E+00 0.  1.
         13    1    5    5    0    0  0.13384253404E+03  0.33396363224E+03  0.32143157962E+03  0.48245600002E+03  0.00000000000E+00 0.  1.
        -13    1    5    5    0    0  0.12972148289E+03  0.18338170453E+03  0.14237580473E+03  0.26594620218E+03  0.00000000000E+00 0. -1.
          2    1    6    6  503    0  0.17239906656E+03  0.64783808629E+02  0.59064017174E+01  0.18426411911E+03  0.00000000000E+00 0. -1.
         -2    1    6    6    0  503  0.16353602142E+03  0.15016864346E+02 -0.70613880653E+02  0.17876201123E+03  0.00000000000E+00 0.  1.
<mgrwt>
<rscale>  0 0.88966887E+03</rscale>
<asrwt>0</asrwt>
<pdfrwt beam="1">  1        1 0.23945654E+00 0.88966887E+03</pdfrwt>
<pdfrwt beam="2">  1       -1 0.89549655E-01 0.88966887E+03</pdfrwt>
<totfact> 0.74486758E+00</totfact>
</mgrwt>
</event>
<event>
12    1  0.1432447E-007  0.6309381E+03  0.7818608E-02  0.9843220E-01
          3   -1    0    0  501    0  0.00000000000E+00  0.00000000000E+00  0.26409452765E+03  0.26409452765E+03  0.00000000000E+00 0. -1.
         -3   -1    0    0    0  501 -0.00000000000E+00 -0.00000000000E+00 -0.31341242866E+04  0.31341242866E+04  0.00000000000E+00 0.  1.
         23    2    1    2    0    0 -0.25926481461E+03 -0.56008337575E+03 -0.30879299286E+03  0.69627239383E+03  0.92360717179E+02 0.  0.
    5000000    2    1    2    0    0  0.25926481461E+03  0.56008337575E+03 -0.25612367660E+04  0.27019464204E+04  0.59972414907E+03 0.  0.
         23    2    4    4    0    0  0.81269624044E+02  0.57482386326E+02 -0.15453183448E+04  0.15511112948E+04  0.89601817112E+02 0.  0.
         23    2    4    4    0    0  0.17799519057E+03  0.50260098943E+03 -0.10159184212E+04  0.11508351255E+04  0.89672767021E+02 0.  0.
          3    1    3    3  502    0 -0.13212720966E+03 -0.20527170922E+03 -0.88214367634E+02  0.25956858207E+03  0.00000000000E+00 0. -1.
         -3    1    3    3    0  502 -0.12713760495E+03 -0.35481166653E+03 -0.22057862523E+03  0.43670381176E+03  0.00000000000E+00 0.  1.
         13    1    5    5    0    0  0.41315337924E+02  0.22086727379E+02 -0.12582925229E+04  0.12591643474E+04  0.00000000000E+00 0. -1.
        -13    1    5    5    0    0  0.39954286120E+02  0.35395658947E+02 -0.28702582194E+03  0.29194694743E+03  0.00000000000E+00 0.  1.
          3    1    6    6  503    0  0.14612963831E+03  0.28077623054E+03 -0.60234537465E+03  0.68044772995E+03  0.00000000000E+00 0. -1.
         -3    1    6    6    0  503  0.31865552264E+02  0.22182475888E+03 -0.41357304659E+03  0.47038739560E+03  0.00000000000E+00 0.  1.
<mgrwt>
<rscale>  0 0.63093806E+03</rscale>
<asrwt>0</asrwt>
<pdfrwt beam="1">  1        3 0.40629927E-01 0.63093806E+03</pdfrwt>
<pdfrwt beam="2">  1       -3 0.48217297E+00 0.63093806E+03</pdfrwt>
<totfact> 0.63397759E-02</totfact>
</mgrwt>
</event>
<event>
12    1  0.1432447E-007  0.6447653E+03  0.7818608E-02  0.9816652E-01
         -1   -1    0    0    0  501 -0.00000000000E+00  0.00000000000E+00  0.31263262157E+03  0.31263262157E+03  0.00000000000E+00 0.  1.
          1   -1    0    0  501    0  0.00000000000E+00 -0.00000000000E+00 -0.30663944547E+04  0.30663944547E+04  0.00000000000E+00 0. -1.
         23    2    1    2    0    0  0.55299565426E+03  0.28552287511E+03 -0.23354879481E+04  0.24186922984E+04  0.90779804093E+02 0.  0.
    5000000    2    1    2    0    0 -0.55299565426E+03 -0.28552287511E+03 -0.41827388504E+03  0.96033477786E+03  0.59996861320E+03 0.  0.
         23    2    4    4    0    0 -0.24303849366E+03 -0.24721884868E+03  0.77197761027E+02  0.36721893578E+03  0.93302647031E+02 0.  0.
         23    2    4    4    0    0 -0.30995716060E+03 -0.38304026431E+02 -0.49547164607E+03  0.59311584208E+03  0.93560730147E+02 0.  0.
          1    1    3    3  502    0  0.16759748461E+03  0.89467726600E+02 -0.88310152636E+03  0.90330598183E+03  0.00000000000E+00 0. -1.
         -1    1    3    3    0  502  0.38539816965E+03  0.19605514851E+03 -0.14523864217E+04  0.15153863166E+04  0.00000000000E+00 0.  1.
         11    1    5    5    0    0 -0.21174906098E+03 -0.17057265372E+03  0.34547800065E+02  0.27409167355E+03  0.00000000000E+00 0.  1.
        -11    1    5    5    0    0 -0.31289432683E+02 -0.76646194960E+02  0.42649960962E+02  0.93127262225E+02  0.00000000000E+00 0. -1.
          2    1    6    6  503    0 -0.12326342881E+03 -0.10609171287E+02 -0.11741435419E+03  0.17056540671E+03  0.00000000000E+00 0. -1.
         -2    1    6    6    0  503 -0.18669373179E+03 -0.27694855144E+02 -0.37805729187E+03  0.42255043537E+03  0.00000000000E+00 0.  1.
<mgrwt>
<rscale>  0 0.64476530E+03</rscale>
<asrwt>0</asrwt>
<pdfrwt beam="1">  1        1 0.47175300E+00 0.64476530E+03</pdfrwt>
<pdfrwt beam="2">  1       -1 0.48097325E-01 0.64476530E+03</pdfrwt>
<totfact> 0.25392220E+00</totfact>
</mgrwt>
</event>
<event>
12    1  0.1432447E-007  0.5889414E+03  0.7818608E-02  0.9928619E-01
          1   -1    0    0  501    0  0.00000000000E+00  0.00000000000E+00  0.55239052809E+03  0.55239052809E+03  0.00000000000E+00 0. -1.
         -1   -1    0    0    0  501 -0.00000000000E+00 -0.00000000000E+00 -0.67640305859E+03  0.67640305859E+03  0.00000000000E+00 0.  1.
         23    2    1    2    0    0  0.36214581792E+03 -0.25697517084E+03 -0.15652132618E+03  0.48167538951E+03  0.10161901125E+03 0.  0.
    5000000    2    1    2    0    0 -0.36214581792E+03  0.25697517084E+03  0.32508795681E+02  0.74711819717E+03  0.59995245385E+03 0.  0.
         23    2    4    4    0    0 -0.24401012911E+03 -0.14650478804E+03  0.90000421130E+02  0.31283931946E+03  0.93614998625E+02 0.  0.
         23    2    4    4    0    0 -0.11813568881E+03  0.40347995889E+03 -0.57491625449E+02  0.43427887771E+03  0.92416115670E+02 0.  0.
          3    1    3    3  502    0  0.10278041540E+03 -0.28284697920E+02 -0.61496600256E+02  0.12306774463E+03  0.00000000000E+00 0. -1.
         -3    1    3    3    0  502  0.25936540252E+03 -0.22869047292E+03 -0.95024725928E+02  0.35860764488E+03  0.00000000000E+00 0.  1.
         11    1    5    5    0    0 -0.13127808194E+03 -0.13117860144E+03  0.49455882158E+02  0.19206156449E+03  0.00000000000E+00 0. -1.
        -11    1    5    5    0    0 -0.11273204716E+03 -0.15326186600E+02  0.40544538972E+02  0.12077775496E+03  0.00000000000E+00 0.  1.
          3    1    6    6  503    0 -0.10086158974E+03  0.22199498327E+03 -0.63176323916E+02  0.25188505471E+03  0.00000000000E+00 0. -1.
         -3    1    6    6    0  503 -0.17274099074E+02  0.18148497562E+03  0.56846984669E+01  0.18239382300E+03  0.00000000000E+00 0.  1.
<mgrwt>
<rscale>  0 0.58894136E+03</rscale>
<asrwt>0</asrwt>
<pdfrwt beam="1">  1        1 0.84983158E-01 0.58894136E+03</pdfrwt>
<pdfrwt beam="2">  1       -1 0.10406201E+00 0.58894136E+03</pdfrwt>
<totfact> 0.34898472E+01</totfact>
</mgrwt>
</event>
<event>
12    1  0.1432447E-007  0.1577075E+04  0.7818608E-02  0.8834757E-01
         -2   -1    0    0    0  501 -0.00000000000E+00  0.00000000000E+00  0.17488632585E+04  0.17488632585E+04  0.00000000000E+00 0.  1.
          2   -1    0    0  501    0  0.00000000000E+00 -0.00000000000E+00 -0.24953648759E+04  0.24953648759E+04  0.00000000000E+00 0. -1.
         23    2    1    2    0    0 -0.15024469698E+04 -0.24078766858E+03  0.10219638099E+04  0.18352798514E+04  0.92284916730E+02 0.  0.
    5000000    2    1    2    0    0  0.15024469698E+04  0.24078766858E+03 -0.17684654273E+04  0.24089482830E+04  0.60019685462E+03 0.  0.
         23    2    4    4    0    0  0.11428435575E+04 -0.71206540672E+02 -0.11911745067E+04  0.16548583618E+04  0.92183100623E+02 0.  0.
         23    2    4    4    0    0  0.35960341228E+03  0.31199420925E+03 -0.57729092066E+03  0.75408992119E+03  0.93444108623E+02 0.  0.
          2    1    3    3  502    0 -0.73209826095E+03 -0.16006615236E+03  0.48009382099E+03  0.88998826608E+03  0.00000000000E+00 0. -1.
         -2    1    3    3    0  502 -0.77034870885E+03 -0.80721516218E+02  0.54186998895E+03  0.94529158534E+03  0.00000000000E+00 0.  1.
         13    1    5    5    0    0  0.36600296080E+03 -0.28601997493E+02 -0.32179112532E+03  0.48818620413E+03  0.00000000000E+00 0. -1.
        -13    1    5    5    0    0  0.77684059672E+03 -0.42604543179E+02 -0.86938338135E+03  0.11666721577E+04  0.00000000000E+00 0.  1.
          1    1    6    6  503    0  0.25385760604E+03  0.27186713842E+03 -0.44915341967E+03  0.58317597644E+03  0.00000000000E+00 0. -1.
         -1    1    6    6    0  503  0.10574580623E+03  0.40127070836E+02 -0.12813750099E+03  0.17091394475E+03  0.00000000000E+00 0.  1.
<mgrwt>
<rscale>  0 0.15770753E+04</rscale>
<asrwt>0</asrwt>
<pdfrwt beam="1">  1        2 0.38390229E+00 0.15770753E+04</pdfrwt>
<pdfrwt beam="2">  1       -2 0.26905589E+00 0.15770753E+04</pdfrwt>
<totfact> 0.15981453E-01</totfact>
</mgrwt>
</event>
<event>
12    1  0.1432447E-007  0.4496229E+03  0.7818608E-02  0.1027835E+00
         -1   -1    0    0    0  501 -0.00000000000E+00  0.00000000000E+00  0.21941109954E+03  0.21941109954E+03  0.00000000000E+00 0.  1.
          1   -1    0    0  501    0  0.00000000000E+00 -0.00000000000E+00 -0.10391624654E+04  0.10391624654E+04  0.00000000000E+00 0. -1.
         23    2    1    2    0    0 -0.21087370134E+03  0.16104571168E+03 -0.13667158826E+03  0.31145975273E+03  0.89020308714E+02 0.  0.
    5000000    2    1    2    0    0  0.21087370134E+03 -0.16104571168E+03 -0.68307977765E+03  0.94711381227E+03  0.60001929268E+03 0.  0.
         23    2    4    4    0    0 -0.18682740200E+03 -0.10472977656E+03 -0.15680262288E+03  0.27839920580E+03  0.83941950236E+02 0.  0.
         23    2    4    4    0    0  0.39770110334E+03 -0.56315935125E+02 -0.52627715477E+03  0.66871460647E+03  0.94201534659E+02 0.  0.
          2    1    3    3  502    0 -0.12200776163E+03  0.38533777362E+02 -0.52692240645E+02  0.13837347333E+03  0.00000000000E+00 0. -1.
         -2    1    3    3    0  502 -0.88865939706E+02  0.12251193432E+03 -0.83979347614E+02  0.17308627940E+03  0.00000000000E+00 0.  1.
         11    1    5    5    0    0 -0.14500004905E+03 -0.74626719660E+02 -0.70030802947E+02  0.17747809689E+03  0.00000000000E+00 0. -1.
        -11    1    5    5    0    0 -0.41827352947E+02 -0.30103056898E+02 -0.86771819933E+02  0.10092110891E+03  0.00000000000E+00 0.  1.
          1    1    6    6  503    0  0.39709144981E+03 -0.60004779943E+02 -0.49596149243E+03  0.63816925271E+03  0.00000000000E+00 0. -1.
         -1    1    6    6    0  503  0.60965352617E+00  0.36888448183E+01 -0.30315662335E+02  0.30545353760E+02  0.00000000000E+00 0.  1.
<mgrwt>
<rscale>  0 0.44962294E+03</rscale>
<asrwt>0</asrwt>
<pdfrwt beam="1">  1        1 0.15987115E+00 0.44962294E+03</pdfrwt>
<pdfrwt beam="2">  1       -1 0.33755554E-01 0.44962294E+03</pdfrwt>
<totfact> 0.12245436E+02</totfact>
</mgrwt>
</event>
<event>
12    1  0.1432447E-007  0.1550424E+04  0.7818608E-02  0.8851597E-01
         -1   -1    0    0    0  501 -0.00000000000E+00  0.00000000000E+00  0.94359204627E+03  0.94359204627E+03  0.00000000000E+00 0.  1.
          1   -1    0    0  501    0  0.00000000000E+00 -0.00000000000E+00 -0.25768185034E+04  0.25768185034E+04  0.00000000000E+00 0. -1.
         23    2    1    2    0    0  0.70608704980E+03 -0.13237829827E+04 -0.81848470046E+03  0.17109663184E+04  0.80797466781E+02 0.  0.
    5000000    2    1    2    0    0 -0.70608704980E+03  0.13237829827E+04 -0.81474175668E+03  0.18094442313E+04  0.59943639273E+03 0.  0.
         23    2    4    4    0    0 -0.61744794196E+03  0.13428703338E+04 -0.79446942981E+03  0.16804443570E+04  0.90381788234E+02 0.  0.
         23    2    4    4    0    0 -0.88639107844E+02 -0.19087351094E+02 -0.20272326865E+02  0.12899987431E+03  0.89491798078E+02 0.  0.
          2    1    3    3  502    0  0.89035205871E+02 -0.17381059138E+03 -0.76607000510E+02  0.20977612373E+03  0.00000000000E+00 0. -1.
         -2    1    3    3    0  502  0.61705184393E+03 -0.11499723913E+04 -0.74187769995E+03  0.15011901947E+04  0.00000000000E+00 0.  1.
         13    1    5    5    0    0 -0.42572260242E+03  0.86828424253E+03 -0.55962637236E+03  0.11172908917E+04  0.00000000000E+00 0. -1.
        -13    1    5    5    0    0 -0.19172533954E+03  0.47458609124E+03 -0.23484305745E+03  0.56315346527E+03  0.00000000000E+00 0.  1.
          1    1    6    6  503    0 -0.66500351390E+02  0.25984227061E+02 -0.30693517738E+02  0.77714662851E+02  0.00000000000E+00 0. -1.
         -1    1    6    6    0  503 -0.22138756453E+02 -0.45071578155E+02  0.10421190872E+02  0.51285211454E+02  0.00000000000E+00 0.  1.
<mgrwt>
<rscale>  0 0.15504241E+04</rscale>
<asrwt>0</asrwt>
<pdfrwt beam="1">  1        1 0.39643361E+00 0.15504241E+04</pdfrwt>
<pdfrwt beam="2">  1       -1 0.14516801E+00 0.15504241E+04</pdfrwt>
<totfact> 0.43128836E-01</totfact>
</mgrwt>
</event>
<event>
12    1  0.1432447E-007  0.3968595E+03  0.7818608E-02  0.1044873E+00
         -2   -1    0    0    0  501 -0.00000000000E+00  0.00000000000E+00  0.10177311649E+03  0.10177311649E+03  0.00000000000E+00 0.  1.
          2   -1    0    0  501    0  0.00000000000E+00 -0.00000000000E+00 -0.26849236731E+04  0.26849236731E+04  0.00000000000E+00 0. -1.
         23    2    1    2    0    0  0.26201952760E+03 -0.21965251296E+03 -0.93084360730E+03  0.99574467559E+03  0.90200767288E+02 0.  0.
    5000000    2    1    2    0    0 -0.26201952760E+03  0.21965251296E+03 -0.16523069493E+04  0.17909521140E+04  0.60040799510E+03 0.  0.
         23    2    4    4    0    0 -0.22042327925E+03  0.26907125236E+03 -0.41678582365E+03  0.55040712980E+03  0.90839555546E+02 0.  0.
         23    2    4    4    0    0 -0.41596248359E+02 -0.49418739405E+02 -0.12355211256E+04  0.12405449842E+04  0.90922748492E+02 0.  0.
          1    1    3    3  502    0  0.85430237802E+02 -0.12657323698E+03 -0.44588441413E+03  0.47130883782E+03  0.00000000000E+00 0. -1.
         -1    1    3    3    0  502  0.17658928980E+03 -0.93079275983E+02 -0.48495919317E+03  0.52443583776E+03  0.00000000000E+00 0.  1.
         13    1    5    5    0    0 -0.15854397741E+03  0.21758472032E+03 -0.36907560642E+03  0.45683268988E+03  0.00000000000E+00 0. -1.
        -13    1    5    5    0    0 -0.61879301831E+02  0.51486532046E+02 -0.47710217234E+02  0.93574439917E+02  0.00000000000E+00 0.  1.
          2    1    6    6  503    0 -0.49382598796E+02 -0.86046521647E+01 -0.10090195849E+04  0.10102639278E+04  0.00000000000E+00 0. -1.
         -2    1    6    6    0  503  0.77863504369E+01 -0.40814087241E+02 -0.22650154072E+03  0.23028105637E+03  0.00000000000E+00 0.  1.
<mgrwt>
<rscale>  0 0.39685947E+03</rscale>
<asrwt>0</asrwt>
<pdfrwt beam="1">  1        2 0.41306522E+00 0.39685947E+03</pdfrwt>
<pdfrwt beam="2">  1       -2 0.15657401E-01 0.39685947E+03</pdfrwt>
<totfact> 0.97838686E+01</totfact>
</mgrwt>
</event>
<event>
12    1  0.1432447E-007  0.5248694E+03  0.7818608E-02  0.1007484E+00
          2   -1    0    0  501    0  0.00000000000E+00  0.00000000000E+00  0.13017913931E+04  0.13017913931E+04  0.00000000000E+00 0.  1.
         -2   -1    0    0    0  501 -0.00000000000E+00 -0.00000000000E+00 -0.32779623973E+03  0.32779623973E+03  0.00000000000E+00 0. -1.
         23    2    1    2    0    0  0.27104782907E+03 -0.41204096761E+03  0.55278241360E+03  0.74605028333E+03  0.88192651828E+02 0.  0.
    5000000    2    1    2    0    0 -0.27104782907E+03  0.41204096761E+03  0.42121273973E+03  0.88353734947E+03  0.59997782556E+03 0.  0.
         23    2    4    4    0    0 -0.34939075684E+00  0.20089476071E+03 -0.10834000318E+03  0.24577573167E+03  0.91155510194E+02 0.  0.
         23    2    4    4    0    0 -0.27069843832E+03  0.21114620690E+03  0.52955274291E+03  0.63776161780E+03  0.91942419028E+02 0.  0.
          4    1    3    3  502    0  0.22055899731E+03 -0.28657989044E+03  0.44301274649E+03  0.57186938933E+03  0.00000000000E+00 0.  1.
         -4    1    3    3    0  502  0.50488831766E+02 -0.12546107717E+03  0.10976966711E+03  0.17418089400E+03  0.00000000000E+00 0. -1.
         13    1    5    5    0    0 -0.59793540340E+01  0.13531410607E+03 -0.22021985404E+02  0.13722473471E+03  0.00000000000E+00 0. -1.
        -13    1    5    5    0    0  0.56299632772E+01  0.65580654636E+02 -0.86318017772E+02  0.10855099696E+03  0.00000000000E+00 0.  1.
          1    1    6    6  503    0 -0.20453366574E+03  0.19693213777E+03  0.38724658326E+03  0.48018351029E+03  0.00000000000E+00 0. -1.
         -1    1    6    6    0  503 -0.66164772580E+02  0.14214069131E+02  0.14230615965E+03  0.15757810751E+03  0.00000000000E+00 0.  1.
<mgrwt>
<rscale>  0 0.52486940E+03</rscale>
<asrwt>0</asrwt>
<pdfrwt beam="1">  1        2 0.20027560E+00 0.52486940E+03</pdfrwt>
<pdfrwt beam="2">  1       -2 0.50430191E-01 0.52486940E+03</pdfrwt>
<totfact> 0.64026282E+01</totfact>
</mgrwt>
</event>
<event>
12    1  0.1432447E-007  0.1560910E+04  0.7818608E-02  0.8844929E-01
          1   -1    0    0  501    0  0.00000000000E+00  0.00000000000E+00  0.19336875809E+04  0.19336875809E+04  0.00000000000E+00 0. -1.
         -1   -1    0    0    0  501 -0.00000000000E+00 -0.00000000000E+00 -0.13241121028E+04  0.13241121028E+04  0.00000000000E+00 0.  1.
         23    2    1    2    0    0  0.61838303619E+03  0.14108380374E+04  0.37646500098E+03  0.15882125571E+04  0.88496793278E+02 0.  0.
    5000000    2    1    2    0    0 -0.61838303619E+03 -0.14108380374E+04  0.23311047714E+03  0.16695871266E+04  0.60026588404E+03 0.  0.
         23    2    4    4    0    0 -0.13187652141E+03 -0.68362657526E+03  0.34555473407E+03  0.78267765226E+03  0.91866869993E+02 0.  0.
         23    2    4    4    0    0 -0.48650651479E+03 -0.72721146216E+03 -0.11244425693E+03  0.88690947436E+03  0.91867323761E+02 0.  0.
          4    1    3    3  502    0  0.36400929151E+03  0.93550716294E+03  0.24647408794E+03  0.10336468895E+04  0.00000000000E+00 0. -1.
         -4    1    3    3    0  502  0.25437374468E+03  0.47533087449E+03  0.12999091304E+03  0.55456566761E+03  0.00000000000E+00 0.  1.
         13    1    5    5    0    0 -0.65297279650E+01 -0.23614905411E+03  0.13938539529E+03  0.27429418791E+03  0.00000000000E+00 0. -1.
        -13    1    5    5    0    0 -0.12534679344E+03 -0.44747752116E+03  0.20616933878E+03  0.50838346435E+03  0.00000000000E+00 0.  1.
          1    1    6    6  503    0 -0.38235615312E+02 -0.99473323726E+02 -0.32498819419E+02  0.11141399228E+03  0.00000000000E+00 0. -1.
         -1    1    6    6    0  503 -0.44827089947E+03 -0.62773813843E+03 -0.79945437506E+02  0.77549548209E+03  0.00000000000E+00 0.  1.
<mgrwt>
<rscale>  0 0.15609100E+04</rscale>
<asrwt>0</asrwt>
<pdfrwt beam="1">  1        1 0.29749040E+00 0.15609100E+04</pdfrwt>
<pdfrwt beam="2">  1       -1 0.20370955E+00 0.15609100E+04</pdfrwt>
<totfact> 0.44054982E-01</totfact>
</mgrwt>
</event>
<event>
12    1  0.1432447E-007  0.9170201E+03  0.7818608E-02  0.9404552E-01
         -1   -1    0    0    0  501 -0.00000000000E+00  0.00000000000E+00  0.42117771471E+03  0.42117771471E+03  0.00000000000E+00 0.  1.
          1   -1    0    0  501    0  0.00000000000E+00 -0.00000000000E+00 -0.24017348918E+04  0.24017348918E+04  0.00000000000E+00 0. -1.
         23    2    1    2    0    0  0.72703920059E+03  0.52896714340E+03 -0.67563114117E+03  0.11284293059E+04  0.92103319775E+02 0.  0.
    5000000    2    1    2    0    0 -0.72703920059E+03 -0.52896714340E+03 -0.13049260359E+04  0.16944833006E+04  0.60004121425E+03 0.  0.
         23    2    4    4    0    0 -0.44740511257E+03 -0.21435920348E+03 -0.11140720889E+04  0.12230878546E+04  0.93091770693E+02 0.  0.
         23    2    4    4    0    0 -0.27963408802E+03 -0.31460793992E+03 -0.19085394699E+03  0.47139544604E+03  0.92817339014E+02 0.  0.
          1    1    3    3  502    0  0.11744570884E+03  0.12446655152E+03 -0.15032837975E+03  0.22778068121E+03  0.00000000000E+00 0. -1.
         -1    1    3    3    0  502  0.60959349175E+03  0.40450059188E+03 -0.52530276142E+03  0.90064862470E+03  0.00000000000E+00 0.  1.
         13    1    5    5    0    0 -0.30299796147E+03 -0.97802523169E+02 -0.73649371907E+03  0.80236905251E+03  0.00000000000E+00 0. -1.
        -13    1    5    5    0    0 -0.14440715110E+03 -0.11655668031E+03 -0.37757836984E+03  0.42071880204E+03  0.00000000000E+00 0.  1.
          4    1    6    6  503    0 -0.14732747293E+03 -0.11070798465E+03 -0.11297455720E+03  0.21615941506E+03  0.00000000000E+00 0. -1.
         -4    1    6    6    0  503 -0.13230661509E+03 -0.20389995527E+03 -0.77879389791E+02  0.25523603098E+03  0.00000000000E+00 0.  1.
<mgrwt>
<rscale>  0 0.91702011E+03</rscale>
<asrwt>0</asrwt>
<pdfrwt beam="1">  1        1 0.36949768E+00 0.91702011E+03</pdfrwt>
<pdfrwt beam="2">  1       -1 0.64796571E-01 0.91702011E+03</pdfrwt>
<totfact> 0.39382969E+00</totfact>
</mgrwt>
</event>
<event>
12    1  0.1432447E-007  0.7806175E+03  0.7818608E-02  0.9588504E-01
         -2   -1    0    0    0  501 -0.00000000000E+00  0.00000000000E+00  0.57595036536E+03  0.57595036536E+03  0.00000000000E+00 0.  1.
          2   -1    0    0  501    0  0.00000000000E+00 -0.00000000000E+00 -0.12310500229E+04  0.12310500229E+04  0.00000000000E+00 0. -1.
         23    2    1    2    0    0  0.50567157511E+03  0.52715255640E+03 -0.33779988001E+03  0.80991134191E+03  0.90851875177E+02 0.  0.
    5000000    2    1    2    0    0 -0.50567157511E+03 -0.52715255640E+03 -0.31729977751E+03  0.99708904633E+03  0.59992821062E+03 0.  0.
         23    2    4    4    0    0 -0.32063540844E+03 -0.53221545498E+03 -0.10695553340E+02  0.62834044612E+03  0.92935276953E+02 0.  0.
         23    2    4    4    0    0 -0.18503616667E+03  0.50628985758E+01 -0.30660422417E+03  0.36874860021E+03  0.87780202544E+02 0.  0.
          3    1    3    3  502    0  0.11265602093E+03  0.16156931497E+03 -0.62351873298E+02  0.20660052927E+03  0.00000000000E+00 0. -1.
         -3    1    3    3    0  502  0.39301555418E+03  0.36558324143E+03 -0.27544800671E+03  0.60331081264E+03  0.00000000000E+00 0.  1.
         13    1    5    5    0    0 -0.11832028115E+03 -0.28551803664E+03 -0.11867156356E+02  0.30929123424E+03  0.00000000000E+00 0.  1.
        -13    1    5    5    0    0 -0.20231512729E+03 -0.24669741834E+03  0.11716030165E+01  0.31904921188E+03  0.00000000000E+00 0. -1.
          3    1    6    6  503    0 -0.45544429908E+02 -0.31275640260E+02 -0.12667612030E+03  0.13820021789E+03  0.00000000000E+00 0. -1.
         -3    1    6    6    0  503 -0.13949173676E+03  0.36338538835E+02 -0.17992810387E+03  0.23054838232E+03  0.00000000000E+00 0.  1.
<mgrwt>
<rscale>  0 0.78061746E+03</rscale>
<asrwt>0</asrwt>
<pdfrwt beam="1">  1        2 0.18939231E+00 0.78061746E+03</pdfrwt>
<pdfrwt beam="2">  1       -2 0.88607750E-01 0.78061746E+03</pdfrwt>
<totfact> 0.20204242E+01</totfact>
</mgrwt>
</event>
<event>
12    1  0.1432447E-007  0.4627275E+03  0.7818608E-02  0.1023993E+00
         -1   -1    0    0    0  501 -0.00000000000E+00  0.00000000000E+00  0.56095028212E+03  0.56095028212E+03  0.00000000000E+00 0.  1.
          1   -1    0    0  501    0  0.00000000000E+00 -0.00000000000E+00 -0.59615521171E+03  0.59615521171E+03  0.00000000000E+00 0. -1.
         23    2    1    2    0    0  0.33094796328E+03  0.68162510167E+01 -0.26585975967E+03  0.43505552865E+03  0.94967813054E+02 0.  0.
    5000000    2    1    2    0    0 -0.33094796328E+03 -0.68162510167E+01  0.23065483008E+03  0.72204996518E+03  0.59881673816E+03 0.  0.
         23    2    4    4    0    0 -0.37696833042E+03  0.15840059090E+03  0.30077559647E+03  0.51530673865E+03  0.88764892442E+02 0.  0.
         23    2    4    4    0    0  0.46020367137E+02 -0.16521684192E+03 -0.70120766392E+02  0.20674322653E+03  0.91713471157E+02 0.  0.
          1    1    3    3  502    0  0.21546730339E+03  0.66695387547E+01 -0.11274228458E+03  0.24327240762E+03  0.00000000000E+00 0. -1.
         -1    1    3    3    0  502  0.11548065989E+03  0.14671226194E+00 -0.15311747508E+03  0.19178312102E+03  0.00000000000E+00 0.  1.
         11    1    5    5    0    0 -0.26690852162E+03  0.14963366490E+03  0.24270126754E+03  0.39055639522E+03  0.00000000000E+00 0.  1.
        -11    1    5    5    0    0 -0.11005980880E+03  0.87669260001E+01  0.58074328936E+02  0.12475034343E+03  0.00000000000E+00 0. -1.
          1    1    6    6  503    0  0.43109951596E+00 -0.90337979447E+02 -0.77146177700E+02  0.11879675547E+03  0.00000000000E+00 0. -1.
         -1    1    6    6    0  503  0.45589267621E+02 -0.74878862472E+02  0.70254113074E+01  0.87946471057E+02  0.00000000000E+00 0.  1.
<mgrwt>
<rscale>  0 0.46272747E+03</rscale>
<asrwt>0</asrwt>
<pdfrwt beam="1">  1        1 0.91716186E-01 0.46272747E+03</pdfrwt>
<pdfrwt beam="2">  1       -1 0.86300044E-01 0.46272747E+03</pdfrwt>
<totfact> 0.48330525E+01</totfact>
</mgrwt>
</event>
<event>
12    1  0.1432447E-007  0.3984142E+03  0.7818608E-02  0.1044330E+00
          2   -1    0    0  501    0  0.00000000000E+00  0.00000000000E+00  0.15532624299E+04  0.15532624299E+04  0.00000000000E+00 0. -1.
         -2   -1    0    0    0  501 -0.00000000000E+00 -0.00000000000E+00 -0.14621203066E+03  0.14621203066E+03  0.00000000000E+00 0.  1.
         23    2    1    2    0    0 -0.27219971686E+03  0.41522495784E+02  0.49604093048E+03  0.57440605974E+03  0.89827129781E+02 0.  0.
    5000000    2    1    2    0    0  0.27219971686E+03 -0.41522495784E+02  0.91100946880E+03  0.11250684009E+04  0.60001987538E+03 0.  0.
         23    2    4    4    0    0  0.11927363698E+03 -0.22528269512E+03  0.12522662904E+03  0.29865276539E+03  0.92375713558E+02 0.  0.
         23    2    4    4    0    0  0.15292607988E+03  0.18376019934E+03  0.78578283976E+03  0.82641563547E+03  0.91399860603E+02 0.  0.
          1    1    3    3  502    0 -0.10479037173E+03  0.22339111280E+02  0.28416418761E+03  0.30369284387E+03  0.00000000000E+00 0. -1.
         -1    1    3    3    0  502 -0.16740934513E+03  0.19183384504E+02  0.21187674287E+03  0.27071321587E+03  0.00000000000E+00 0.  1.
         13    1    5    5    0    0 -0.95983775425E+01 -0.37589490027E+02  0.39516270146E+02  0.55377199444E+02  0.00000000000E+00 0.  1.
        -13    1    5    5    0    0  0.12887201452E+03 -0.18769320510E+03  0.85710358895E+02  0.24327556595E+03  0.00000000000E+00 0. -1.
          1    1    6    6  503    0  0.27502623877E+02 -0.51202528481E+01  0.63676362202E+02  0.69550632007E+02  0.00000000000E+00 0.  1.
         -1    1    6    6    0  503  0.12542345600E+03  0.18888045219E+03  0.72210647756E+03  0.75686500346E+03  0.00000000000E+00 0. -1.
<mgrwt>
<rscale>  0 0.39841417E+03</rscale>
<asrwt>0</asrwt>
<pdfrwt beam="1">  1        2 0.23896344E+00 0.39841417E+03</pdfrwt>
<pdfrwt beam="2">  1       -2 0.22494160E-01 0.39841417E+03</pdfrwt>
<totfact> 0.21603729E+02</totfact>
</mgrwt>
</event>
<event>
12    1  0.1432447E-007  0.9254205E+03  0.7818608E-02  0.9394351E-01
         -1   -1    0    0    0  501 -0.00000000000E+00  0.00000000000E+00  0.64675520293E+03  0.64675520293E+03  0.00000000000E+00 0.  1.
          1   -1    0    0  501    0  0.00000000000E+00 -0.00000000000E+00 -0.17993022050E+04  0.17993022050E+04  0.00000000000E+00 0. -1.
         23    2    1    2    0    0  0.81437789706E+03  0.38888930661E+03 -0.10031592126E+04  0.13520994906E+04  0.86013804406E+02 0.  0.
    5000000    2    1    2    0    0 -0.81437789706E+03 -0.38888930661E+03 -0.14938778949E+03  0.10939579174E+04  0.59998413423E+03 0.  0.
         23    2    4    4    0    0 -0.38766112912E+03 -0.67476251860E+02 -0.33124983216E+03  0.52231808992E+03  0.90860003056E+02 0.  0.
         23    2    4    4    0    0 -0.42671676793E+03 -0.32141305476E+03  0.18186204267E+03  0.57163982745E+03  0.91130335040E+02 0.  0.
          2    1    3    3  502    0  0.64674459716E+03  0.27512132631E+03 -0.74982717426E+03  0.10277213189E+04  0.00000000000E+00 0. -1.
         -2    1    3    3    0  502  0.16763329989E+03  0.11376798031E+03 -0.25333203833E+03  0.32437817161E+03  0.00000000000E+00 0.  1.
         11    1    5    5    0    0 -0.31855433348E+03 -0.19098819074E+02 -0.27079607012E+03  0.41853570918E+03  0.00000000000E+00 0. -1.
        -11    1    5    5    0    0 -0.69106795641E+02 -0.48377432785E+02 -0.60453762042E+02  0.10378238074E+03  0.00000000000E+00 0.  1.
          3    1    6    6  503    0 -0.16930557902E+03 -0.18437843666E+03  0.82715366414E+02  0.26363159680E+03  0.00000000000E+00 0. -1.
         -3    1    6    6    0  503 -0.25741118892E+03 -0.13703461809E+03  0.99146676255E+02  0.30800823065E+03  0.00000000000E+00 0.  1.
<mgrwt>
<rscale>  0 0.92542047E+03</rscale>
<asrwt>0</asrwt>
<pdfrwt beam="1">  1        1 0.27681573E+00 0.92542047E+03</pdfrwt>
<pdfrwt beam="2">  1       -1 0.99500799E-01 0.92542047E+03</pdfrwt>
<totfact> 0.40064783E+00</totfact>
</mgrwt>
</event>
<event>
12    1  0.1432447E-007  0.9514889E+03  0.7818608E-02  0.9363412E-01
         -2   -1    0    0    0  501 -0.00000000000E+00  0.00000000000E+00  0.80156928409E+03  0.80156928409E+03  0.00000000000E+00 0. -1.
          2   -1    0    0  501    0  0.00000000000E+00 -0.00000000000E+00 -0.11969223962E+04  0.11969223962E+04  0.00000000000E+00 0.  1.
         23    2    1    2    0    0  0.46044471608E+03  0.75566316210E+03 -0.16021173911E+03  0.90374795167E+03  0.89757493722E+02 0.  0.
    5000000    2    1    2    0    0 -0.46044471608E+03 -0.75566316210E+03 -0.23514137303E+03  0.10947437286E+04  0.60011350174E+03 0.  0.
         23    2    4    4    0    0 -0.16424668414E+03  0.26062047475E+02 -0.16391202574E+03  0.25146896424E+03  0.93344974292E+02 0.  0.
         23    2    4    4    0    0 -0.29619803194E+03 -0.78172520957E+03 -0.71229347288E+02  0.84327476440E+03  0.84918378162E+02 0.  0.
          1    1    3    3  502    0  0.33337177894E+03  0.58839298563E+03 -0.89854466078E+02  0.68221468293E+03  0.00000000000E+00 0. -1.
         -1    1    3    3    0  502  0.12707293714E+03  0.16727017647E+03 -0.70357273033E+02  0.22153326874E+03  0.00000000000E+00 0.  1.
         11    1    5    5    0    0 -0.16159314908E+03  0.11883303765E+02 -0.11044669015E+03  0.19609189199E+03  0.00000000000E+00 0. -1.
        -11    1    5    5    0    0 -0.26535350549E+01  0.14178743710E+02 -0.53465335589E+02  0.55377072252E+02  0.00000000000E+00 0.  1.
          4    1    6    6  503    0 -0.29260306795E+03 -0.70408508181E+03 -0.61411192603E+02  0.76493378301E+03  0.00000000000E+00 0. -1.
         -4    1    6    6    0  503 -0.35949639970E+01 -0.77640127759E+02 -0.98181546850E+01  0.78340981396E+02  0.00000000000E+00 0.  1.
<mgrwt>
<rscale>  0 0.95148886E+03</rscale>
<asrwt>0</asrwt>
<pdfrwt beam="1">  1        2 0.18414191E+00 0.95148886E+03</pdfrwt>
<pdfrwt beam="2">  1       -2 0.12331835E+00 0.95148886E+03</pdfrwt>
<totfact> 0.94086777E+00</totfact>
</mgrwt>
</event>
<event>
12    1  0.1432447E-007  0.2581906E+03  0.7818608E-02  0.1108235E+00
         -2   -1    0    0    0  501 -0.00000000000E+00  0.00000000000E+00  0.70210390937E+03  0.70210390937E+03  0.00000000000E+00 0.  1.
          2   -1    0    0  501    0  0.00000000000E+00 -0.00000000000E+00 -0.26739166840E+03  0.26739166840E+03  0.00000000000E+00 0. -1.
         23    2    1    2    0    0 -0.15466350211E+03  0.12753479165E+03  0.40701963415E+02  0.22429220600E+03  0.92002292797E+02 0.  0.
    5000000    2    1    2    0    0  0.15466350211E+03 -0.12753479165E+03  0.39401027755E+03  0.74520337178E+03  0.59991503109E+03 0.  0.
         23    2    4    4    0    0  0.11771341106E+03 -0.18621568850E+03 -0.84580656190E+02  0.25260380396E+03  0.90122497683E+02 0.  0.
         23    2    4    4    0    0  0.36950091054E+02  0.58680896853E+02  0.47859093374E+03  0.49259956781E+03  0.93788567887E+02 0.  0.
          3    1    3    3  502    0 -0.11503289704E+03  0.64363532738E+02 -0.12912557198E+02  0.13244608669E+03  0.00000000000E+00 0. -1.
         -3    1    3    3    0  502 -0.39630605076E+02  0.63171258908E+02  0.53614520613E+02  0.91846119304E+02  0.00000000000E+00 0.  1.
         13    1    5    5    0    0  0.11608117615E+03 -0.14825282635E+03 -0.37306924294E+02  0.19195193820E+03  0.00000000000E+00 0. -1.
        -13    1    5    5    0    0  0.16322349065E+01 -0.37962862145E+02 -0.47273731895E+02  0.60651865761E+02  0.00000000000E+00 0.  1.
          2    1    6    6  503    0  0.48269007478E+02  0.49382415056E+02  0.16766325761E+03  0.18132701937E+03  0.00000000000E+00 0. -1.
         -2    1    6    6    0  503 -0.11318916424E+02  0.92984817969E+01  0.31092767613E+03  0.31127254845E+03  0.00000000000E+00 0.  1.
<mgrwt>
<rscale>  0 0.25819056E+03</rscale>
<asrwt>0</asrwt>
<pdfrwt beam="1">  1        2 0.41137180E-01 0.25819056E+03</pdfrwt>
<pdfrwt beam="2">  1       -2 0.10801598E+00 0.25819056E+03</pdfrwt>
<totfact> 0.89484355E+01</totfact>
</mgrwt>
</event>
<event>
12    1  0.1432447E-007  0.4529705E+03  0.7818608E-02  0.1026840E+00
          2   -1    0    0  501    0  0.00000000000E+00  0.00000000000E+00  0.12484165207E+04  0.12484165207E+04  0.00000000000E+00 0. -1.
         -2   -1    0    0    0  501 -0.00000000000E+00 -0.00000000000E+00 -0.24298110256E+03  0.24298110256E+03  0.00000000000E+00 0.  1.
         23    2    1    2    0    0 -0.16294451423E+03 -0.31992800404E+03  0.18544482222E+03  0.41376655501E+03  0.88927709204E+02 0.  0.
    5000000    2    1    2    0    0  0.16294451423E+03  0.31992800404E+03  0.81999059595E+03  0.10776310683E+04  0.59999941619E+03 0.  0.
         23    2    4    4    0    0 -0.12652108085E+03  0.16106264271E+03  0.66438469772E+03  0.70102605480E+03  0.89898521513E+02 0.  0.
         23    2    4    4    0    0  0.28946559507E+03  0.15886536133E+03  0.15560589824E+03  0.37660501350E+03  0.92680131987E+02 0.  0.
          3    1    3    3  502    0 -0.11325470802E+02 -0.98822498081E+02  0.71288995557E+02  0.12237758497E+03  0.00000000000E+00 0. -1.
         -3    1    3    3    0  502 -0.15161904343E+03 -0.22110550596E+03  0.11415582667E+03  0.29138897003E+03  0.00000000000E+00 0.  1.
         11    1    5    5    0    0 -0.65111055480E+02  0.10784025321E+03  0.26448055392E+03  0.29294868691E+03  0.00000000000E+00 0. -1.
        -11    1    5    5    0    0 -0.61410025367E+02  0.53222389499E+02  0.39990414379E+03  0.40807736789E+03  0.00000000000E+00 0.  1.
          3    1    6    6  503    0  0.18563558411E+03  0.11537861219E+03  0.54418782880E+02  0.22524253188E+03  0.00000000000E+00 0. -1.
         -3    1    6    6    0  503  0.10383001097E+03  0.43486749144E+02  0.10118711536E+03  0.15136248162E+03  0.00000000000E+00 0.  1.
<mgrwt>
<rscale>  0 0.45297055E+03</rscale>
<asrwt>0</asrwt>
<pdfrwt beam="1">  1        2 0.19206408E+00 0.45297055E+03</pdfrwt>
<pdfrwt beam="2">  1       -2 0.37381709E-01 0.45297055E+03</pdfrwt>
<totfact> 0.12497676E+02</totfact>
</mgrwt>
</event>
<event>
12    1  0.1432447E-007  0.8727845E+03  0.7818608E-02  0.9460257E-01
          2   -1    0    0  501    0  0.00000000000E+00  0.00000000000E+00  0.11741328815E+04  0.11741328815E+04  0.00000000000E+00 0. -1.
         -2   -1    0    0    0  501 -0.00000000000E+00 -0.00000000000E+00 -0.65724045783E+03  0.65724045783E+03  0.00000000000E+00 0.  1.
         23    2    1    2    0    0 -0.68774943476E+03 -0.34619067286E+03  0.15372956780E+03  0.78987690810E+03  0.86171242008E+02 0.  0.
    5000000    2    1    2    0    0  0.68774943476E+03  0.34619067286E+03  0.36316285586E+03  0.10414964312E+04  0.59998357426E+03 0.  0.
         23    2    4    4    0    0  0.14970000747E+03  0.38963061880E+03  0.18150915515E+03  0.46444912320E+03  0.92440809634E+02 0.  0.
         23    2    4    4    0    0  0.53804942728E+03 -0.43439945946E+02  0.18165370072E+03  0.57704730803E+03  0.92743267213E+02 0.  0.
          2    1    3    3  502    0 -0.46574033288E+03 -0.27421352826E+03  0.89649120991E+02  0.54785406967E+03  0.00000000000E+00 0. -1.
         -2    1    3    3    0  502 -0.22200910188E+03 -0.71977144594E+02  0.64080446813E+02  0.24202283843E+03  0.00000000000E+00 0.  1.
         11    1    5    5    0    0  0.20424968868E+02  0.17865711045E+03  0.84432670911E+02  0.19865653371E+03  0.00000000000E+00 0.  1.
        -11    1    5    5    0    0  0.12927503861E+03  0.21097350835E+03  0.97076484238E+02  0.26579258948E+03  0.00000000000E+00 0. -1.
          3    1    6    6  503    0  0.41666818875E+03 -0.63359384676E+02  0.11372402909E+03  0.43653172386E+03  0.00000000000E+00 0. -1.
         -3    1    6    6    0  503  0.12138123854E+03  0.19919438729E+02  0.67929671622E+02  0.14051558417E+03  0.00000000000E+00 0.  1.
<mgrwt>
<rscale>  0 0.87278445E+03</rscale>
<asrwt>0</asrwt>
<pdfrwt beam="1">  1        2 0.18063583E+00 0.87278445E+03</pdfrwt>
<pdfrwt beam="2">  1       -2 0.10111392E+00 0.87278445E+03</pdfrwt>
<totfact> 0.15883167E+01</totfact>
</mgrwt>
</event>
<event>
12    1  0.1432447E-007  0.4831530E+03  0.7818608E-02  0.1018272E+00
          2   -1    0    0  501    0  0.00000000000E+00  0.00000000000E+00  0.12221121782E+04  0.12221121782E+04  0.00000000000E+00 0. -1.
         -2   -1    0    0    0  501 -0.00000000000E+00 -0.00000000000E+00 -0.33552884920E+03  0.33552884920E+03  0.00000000000E+00 0.  1.
         23    2    1    2    0    0  0.36021413142E+03 -0.27814722345E+03  0.11207723334E+03  0.47731306553E+03  0.90257176480E+02 0.  0.
    5000000    2    1    2    0    0 -0.36021413142E+03  0.27814722345E+03  0.77450609567E+03  0.10803279619E+04  0.60010725258E+03 0.  0.
         23    2    4    4    0    0 -0.16843204528E+03  0.28319427233E+02  0.72249484918E+03  0.74799319449E+03  0.91234138717E+02 0.  0.
         23    2    4    4    0    0 -0.19178208614E+03  0.24982779622E+03  0.52011246487E+02  0.33233476739E+03  0.92449616170E+02 0.  0.
          1    1    3    3  502    0  0.25481358055E+03 -0.15251578641E+03  0.97993713541E+02  0.31271999270E+03  0.00000000000E+00 0. -1.
         -1    1    3    3    0  502  0.10540055087E+03 -0.12563143704E+03  0.14083519800E+02  0.16459307284E+03  0.00000000000E+00 0.  1.
         11    1    5    5    0    0 -0.16855960263E+03  0.20069523247E+02  0.71944012925E+03  0.73919498441E+03  0.00000000000E+00 0.  1.
        -11    1    5    5    0    0  0.12755735538E+00  0.82499039862E+01  0.30547199321E+01  0.87982100750E+01  0.00000000000E+00 0. -1.
          2    1    6    6  503    0 -0.11702721765E+02 -0.70291648226E+01  0.72679826941E+01  0.15465653146E+02  0.00000000000E+00 0. -1.
         -2    1    6    6    0  503 -0.18007936438E+03  0.25685696104E+03  0.44743263793E+02  0.31686911425E+03  0.00000000000E+00 0.  1.
<mgrwt>
<rscale>  0 0.48315298E+03</rscale>
<asrwt>0</asrwt>
<pdfrwt beam="1">  1        2 0.18801726E+00 0.48315298E+03</pdfrwt>
<pdfrwt beam="2">  1       -2 0.51619823E-01 0.48315298E+03</pdfrwt>
<totfact> 0.68231907E+01</totfact>
</mgrwt>
</event>
<event>
12    1  0.1432447E-007  0.7891430E+03  0.7818608E-02  0.9575866E-01
          2   -1    0    0  501    0  0.00000000000E+00  0.00000000000E+00  0.17679297581E+04  0.17679297581E+04  0.00000000000E+00 0. -1.
         -2   -1    0    0    0  501 -0.00000000000E+00 -0.00000000000E+00 -0.43125789719E+03  0.43125789719E+03  0.00000000000E+00 0.  1.
         23    2    1    2    0    0  0.73135922333E+03 -0.22174601406E+03  0.68053773920E+03  0.10274766422E+04  0.92298577552E+02 0.  0.
    5000000    2    1    2    0    0 -0.73135922333E+03  0.22174601406E+03  0.65613412167E+03  0.11717110131E+04  0.59861264962E+03 0.  0.
         23    2    4    4    0    0 -0.46791588059E+03  0.16688779323E+02  0.67407692449E+03  0.82560224912E+03  0.89529810440E+02 0.  0.
         23    2    4    4    0    0 -0.26344334274E+03  0.20505723473E+03 -0.17942802822E+02  0.34610876397E+03  0.89545898700E+02 0.  0.
          3    1    3    3  502    0  0.21217684928E+03 -0.60127573682E+02  0.25406113817E+03  0.33642443790E+03  0.00000000000E+00 0. -1.
         -3    1    3    3    0  502  0.51918237405E+03 -0.16161844037E+03  0.42647660102E+03  0.69105220426E+03  0.00000000000E+00 0.  1.
         11    1    5    5    0    0 -0.15667807821E+03 -0.12439320155E+01  0.15694985738E+03  0.22177201196E+03  0.00000000000E+00 0.  1.
        -11    1    5    5    0    0 -0.31123780238E+03  0.17932711339E+02  0.51712706712E+03  0.60383023716E+03  0.00000000000E+00 0. -1.
          3    1    6    6  503    0 -0.38975028648E+02 -0.35351164530E+01  0.36180812878E+00  0.39136693927E+02  0.00000000000E+00 0. -1.
         -3    1    6    6    0  503 -0.22446831409E+03  0.20859235119E+03 -0.18304610951E+02  0.30697207004E+03  0.00000000000E+00 0.  1.
<mgrwt>
<rscale>  0 0.78914303E+03</rscale>
<asrwt>0</asrwt>
<pdfrwt beam="1">  1        2 0.27198919E+00 0.78914303E+03</pdfrwt>
<pdfrwt beam="2">  1       -2 0.66347370E-01 0.78914303E+03</pdfrwt>
<totfact> 0.19228149E+01</totfact>
</mgrwt>
</event>
<event>
12    1  0.1467439E-007  0.1315966E+04  0.7818608E-02  0.9016999E-01
          2   -1    0    0  501    0  0.00000000000E+00  0.00000000000E+00  0.24968344896E+04  0.24968344896E+04  0.00000000000E+00 0. -1.
         -2   -1    0    0    0  501 -0.00000000000E+00 -0.00000000000E+00 -0.13941825334E+04  0.13941825334E+04  0.00000000000E+00 0.  1.
         23    2    1    2    0    0 -0.96848766929E+03  0.85357031028E+03  0.18697239253E+04  0.22739138189E+04  0.90916767001E+02 0.  0.
    5000000    2    1    2    0    0  0.96848766929E+03 -0.85357031028E+03 -0.76707196921E+03  0.16171032041E+04  0.60006060256E+03 0.  0.
         23    2    4    4    0    0  0.34261186718E+03 -0.52389449025E+03 -0.62467522352E+03  0.88976368844E+03  0.98040593307E+02 0.  0.
         23    2    4    4    0    0  0.62587580211E+03 -0.32967582003E+03 -0.14239674570E+03  0.72733951571E+03  0.91319614259E+02 0.  0.
          1    1    3    3  502    0 -0.36833524825E+03  0.26792398716E+03  0.67335447091E+03  0.81293318390E+03  0.00000000000E+00 0. -1.
         -1    1    3    3    0  502 -0.60015242104E+03  0.58564632312E+03  0.11963694544E+04  0.14609806350E+04  0.00000000000E+00 0.  1.
         13    1    5    5    0    0  0.16864429234E+03 -0.32246214780E+03 -0.31376964599E+03  0.48049362622E+03  0.00000000000E+00 0. -1.
        -13    1    5    5    0    0  0.17396757484E+03 -0.20143234245E+03 -0.31090557753E+03  0.40927006221E+03  0.00000000000E+00 0.  1.
          2    1    6    6  503    0  0.38216534849E+03 -0.21531790106E+03 -0.13140640929E+03  0.45790806556E+03  0.00000000000E+00 0. -1.
         -2    1    6    6    0  503  0.24371045362E+03 -0.11435791897E+03 -0.10990336405E+02  0.26943145014E+03  0.00000000000E+00 0.  1.
<mgrwt>
<rscale>  0 0.13159662E+04</rscale>
<asrwt>0</asrwt>
<pdfrwt beam="1">  1        2 0.38412838E+00 0.13159662E+04</pdfrwt>
<pdfrwt beam="2">  1       -2 0.21448962E+00 0.13159662E+04</pdfrwt>
<totfact> 0.35973124E-01</totfact>
</mgrwt>
</event>
<event>
12    1  0.1432447E-007  0.4886126E+03  0.7818608E-02  0.1016795E+00
          2   -1    0    0  501    0  0.00000000000E+00  0.00000000000E+00  0.37769204573E+04  0.37769204573E+04  0.00000000000E+00 0. -1.
         -2   -1    0    0    0  501 -0.00000000000E+00 -0.00000000000E+00 -0.96765985480E+02  0.96765985480E+02  0.00000000000E+00 0.  1.
         23    2    1    2    0    0  0.34516356397E+03 -0.27434736603E+03  0.16877559887E+04  0.17467063335E+04  0.89768452864E+02 0.  0.
    5000000    2    1    2    0    0 -0.34516356397E+03  0.27434736603E+03  0.19923984832E+04  0.21269801093E+04  0.59999025525E+03 0.  0.
         23    2    4    4    0    0 -0.30739606875E+03  0.31434186225E+03  0.19677382851E+04  0.20182494144E+04  0.89630300003E+02 0.  0.
         23    2    4    4    0    0 -0.37767495224E+02 -0.39994496220E+02  0.24660198051E+02  0.10873069485E+03  0.90489199419E+02 0.  0.
          1    1    3    3  502    0  0.23445333681E+03 -0.13057530865E+03  0.10280304244E+04  0.10624805090E+04  0.00000000000E+00 0. -1.
         -1    1    3    3    0  502  0.11071022716E+03 -0.14377205738E+03  0.65972556423E+03  0.68422582455E+03  0.00000000000E+00 0.  1.
         13    1    5    5    0    0 -0.27982420044E+03  0.29601458825E+03  0.16830193677E+04  0.17316120846E+04  0.00000000000E+00 0.  1.
        -13    1    5    5    0    0 -0.27571868311E+02  0.18327273999E+02  0.28471891743E+03  0.28663732981E+03  0.00000000000E+00 0. -1.
          1    1    6    6  503    0 -0.51543975798E+02 -0.80506345790E+01  0.44598615331E+02  0.68634034178E+02  0.00000000000E+00 0. -1.
         -1    1    6    6    0  503  0.13776480574E+02 -0.31943861641E+02 -0.19938417279E+02  0.40096660673E+02  0.00000000000E+00 0.  1.
<mgrwt>
<rscale>  0 0.48861263E+03</rscale>
<asrwt>0</asrwt>
<pdfrwt beam="1">  1        2 0.58106457E+00 0.48861263E+03</pdfrwt>
<pdfrwt beam="2">  1       -2 0.14887078E-01 0.48861263E+03</pdfrwt>
<totfact> 0.20967020E+01</totfact>
</mgrwt>
</event>
<event>
12    1  0.1432447E-007  0.8637103E+03  0.7818608E-02  0.9472118E-01
         -2   -1    0    0    0  501 -0.00000000000E+00  0.00000000000E+00  0.57827365304E+03  0.57827365304E+03  0.00000000000E+00 0.  1.
          2   -1    0    0  501    0  0.00000000000E+00 -0.00000000000E+00 -0.19548225191E+04  0.19548225191E+04  0.00000000000E+00 0. -1.
         23    2    1    2    0    0  0.75425178756E+03 -0.14793405944E+03  0.81993922253E+02  0.77864102028E+03  0.93694131106E+02 0.  0.
    5000000    2    1    2    0    0 -0.75425178756E+03  0.14793405944E+03 -0.14585427883E+04  0.17544551519E+04  0.59998797454E+03 0.  0.
         23    2    4    4    0    0 -0.49267968685E+03 -0.18775398187E+03 -0.89503216735E+03  0.10424465665E+04  0.87335169440E+02 0.  0.
         23    2    4    4    0    0 -0.26157210071E+03  0.33568804131E+03 -0.56351062099E+03  0.71200858541E+03  0.91134959198E+02 0.  0.
          4    1    3    3  502    0  0.37879798562E+03 -0.90079356197E+02 -0.29603738878E+01  0.38937253131E+03  0.00000000000E+00 0. -1.
         -4    1    3    3    0  502  0.37545380193E+03 -0.57854703246E+02  0.84954296140E+02  0.38926848897E+03  0.00000000000E+00 0.  1.
         13    1    5    5    0    0 -0.23430816166E+03 -0.12779096836E+03 -0.40061491485E+03  0.48137631455E+03  0.00000000000E+00 0.  1.
        -13    1    5    5    0    0 -0.25837152519E+03 -0.59963013506E+02 -0.49441725250E+03  0.56107025192E+03  0.00000000000E+00 0. -1.
          3    1    6    6  503    0 -0.17745395641E+03  0.21205870394E+03 -0.29269594102E+03  0.40265334278E+03  0.00000000000E+00 0. -1.
         -3    1    6    6    0  503 -0.84118144300E+02  0.12362933737E+03 -0.27081467996E+03  0.30935524263E+03  0.00000000000E+00 0.  1.
<mgrwt>
<rscale>  0 0.86371030E+03</rscale>
<asrwt>0</asrwt>
<pdfrwt beam="1">  1        2 0.30074192E+00 0.86371030E+03</pdfrwt>
<pdfrwt beam="2">  1       -2 0.88965179E-01 0.86371030E+03</pdfrwt>
<totfact> 0.78201253E+00</totfact>
</mgrwt>
</event>
<event>
12    1  0.1432447E-007  0.6377845E+03  0.7818608E-02  0.9829975E-01
          2   -1    0    0  501    0  0.00000000000E+00  0.00000000000E+00  0.26060257877E+03  0.26060257877E+03  0.00000000000E+00 0. -1.
         -2   -1    0    0    0  501 -0.00000000000E+00 -0.00000000000E+00 -0.17091518466E+04  0.17091518466E+04  0.00000000000E+00 0.  1.
         23    2    1    2    0    0  0.24358797507E+03  0.44346364453E+03 -0.80259310262E+03  0.95303652786E+03  0.90154475456E+02 0.  0.
    5000000    2    1    2    0    0 -0.24358797507E+03 -0.44346364453E+03 -0.64595616522E+03  0.10167178975E+04  0.60038388564E+03 0.  0.
         23    2    4    4    0    0 -0.10999915655E+03  0.12624103520E+03 -0.13159326129E+03  0.23231552338E+03  0.92828350052E+02 0.  0.
         23    2    4    4    0    0 -0.13358881852E+03 -0.56970467973E+03 -0.51436290392E+03  0.78440237415E+03  0.91150935771E+02 0.  0.
          4    1    3    3  502    0  0.13549550548E+03  0.26782842576E+03 -0.39357356685E+03  0.49496590809E+03  0.00000000000E+00 0.  1.
         -4    1    3    3    0  502  0.10809246960E+03  0.17563521877E+03 -0.40901953577E+03  0.45807061977E+03  0.00000000000E+00 0. -1.
         11    1    5    5    0    0 -0.59721135042E+02  0.17067461786E+02 -0.12989480166E+02  0.63455802079E+02  0.00000000000E+00 0. -1.
        -11    1    5    5    0    0 -0.50278021508E+02  0.10917357341E+03 -0.11860378113E+03  0.16885972130E+03  0.00000000000E+00 0.  1.
          3    1    6    6  503    0 -0.30396558294E+02 -0.22545285573E+03 -0.14920850172E+03  0.27205903385E+03  0.00000000000E+00 0. -1.
         -3    1    6    6    0  503 -0.10319226023E+03 -0.34425182400E+03 -0.36515440220E+03  0.51234334029E+03  0.00000000000E+00 0.  1.
<mgrwt>
<rscale>  0 0.63778448E+03</rscale>
<asrwt>0</asrwt>
<pdfrwt beam="1">  1        2 0.40092706E-01 0.63778448E+03</pdfrwt>
<pdfrwt beam="2">  1       -2 0.26294643E+00 0.63778448E+03</pdfrwt>
<totfact> 0.71803465E+00</totfact>
</mgrwt>
</event>
<event>
12    1  0.1432447E-007  0.3556351E+03  0.7818608E-02  0.1060326E+00
          2   -1    0    0  501    0  0.00000000000E+00  0.00000000000E+00  0.15308297204E+04  0.15308297204E+04  0.00000000000E+00 0. -1.
         -2   -1    0    0    0  501 -0.00000000000E+00 -0.00000000000E+00 -0.17349788120E+03  0.17349788120E+03  0.00000000000E+00 0.  1.
         23    2    1    2    0    0 -0.14556896210E+03  0.15523958162E+03  0.32950905777E+02  0.23498401551E+03  0.94032307882E+02 0.  0.
    5000000    2    1    2    0    0  0.14556896210E+03 -0.15523958162E+03  0.13243809334E+04  0.14693435861E+04  0.59974666880E+03 0.  0.
         23    2    4    4    0    0 -0.11092243148E+03 -0.20077698294E+03  0.22013341380E+03  0.33084166531E+03  0.91554928584E+02 0.  0.
         23    2    4    4    0    0  0.25649139358E+03  0.45537401318E+02  0.11042475196E+04  0.11385019208E+04  0.94670740656E+02 0.  0.
          4    1    3    3  502    0 -0.42433971315E+02  0.28163177638E+02 -0.30601464817E+02  0.59415958674E+02  0.00000000000E+00 0.  1.
         -4    1    3    3    0  502 -0.10313499079E+03  0.12707640398E+03  0.63552370594E+02  0.17556805684E+03  0.00000000000E+00 0. -1.
         11    1    5    5    0    0 -0.99911741412E+02 -0.20162534480E+03  0.22549625448E+03  0.31856505854E+03  0.00000000000E+00 0. -1.
        -11    1    5    5    0    0 -0.11010690067E+02  0.84836186698E+00 -0.53628406743E+01  0.12276606767E+02  0.00000000000E+00 0.  1.
          2    1    6    6  503    0  0.19770006323E+03  0.31847347589E+02  0.64681165268E+03  0.67710034898E+03  0.00000000000E+00 0. -1.
         -2    1    6    6    0  503  0.58791330353E+02  0.13690053730E+02  0.45743586694E+03  0.46140157180E+03  0.00000000000E+00 0.  1.
<mgrwt>
<rscale>  0 0.35563511E+03</rscale>
<asrwt>0</asrwt>
<pdfrwt beam="1">  1        2 0.23551226E+00 0.35563511E+03</pdfrwt>
<pdfrwt beam="2">  1       -2 0.26691983E-01 0.35563511E+03</pdfrwt>
<totfact> 0.16497494E+02</totfact>
</mgrwt>
</event>
<event>
12    1  0.1432447E-007  0.1403082E+04  0.7818608E-02  0.8951590E-01
         -2   -1    0    0    0  501 -0.00000000000E+00  0.00000000000E+00  0.17593748421E+04  0.17593748421E+04  0.00000000000E+00 0.  1.
          2   -1    0    0  501    0  0.00000000000E+00 -0.00000000000E+00 -0.21124136423E+04  0.21124136423E+04  0.00000000000E+00 0. -1.
         23    2    1    2    0    0  0.88754446589E+03 -0.10766017399E+04  0.10928651142E+04  0.17747706690E+04  0.93006905171E+02 0.  0.
    5000000    2    1    2    0    0 -0.88754446589E+03  0.10766017399E+04 -0.14459039145E+04  0.20970178154E+04  0.60003258487E+03 0.  0.
         23    2    4    4    0    0 -0.37687720183E+03  0.58179335280E+03 -0.33568121561E+03  0.77557133741E+03  0.91154211573E+02 0.  0.
         23    2    4    4    0    0 -0.51066726406E+03  0.49480838707E+03 -0.11102226989E+04  0.13214464780E+04  0.89498371674E+02 0.  0.
          1    1    3    3  502    0  0.81654385511E+03 -0.98336259968E+03  0.96674005776E+03  0.16026017001E+04  0.00000000000E+00 0. -1.
         -1    1    3    3    0  502  0.71000610774E+02 -0.93239140187E+02  0.12612505646E+03  0.17216896892E+03  0.00000000000E+00 0.  1.
         13    1    5    5    0    0 -0.35881979751E+03  0.53678869534E+03 -0.33424459570E+03  0.72705790711E+03  0.00000000000E+00 0.  1.
        -13    1    5    5    0    0 -0.18057404311E+02  0.45004657460E+02 -0.14366199144E+01  0.48513430309E+02  0.00000000000E+00 0. -1.
          3    1    6    6  503    0 -0.46699245433E+03  0.41089956793E+03 -0.96906348990E+03  0.11515226679E+04  0.00000000000E+00 0. -1.
         -3    1    6    6    0  503 -0.43674809729E+02  0.83908819144E+02 -0.14115920901E+03  0.16992381005E+03  0.00000000000E+00 0.  1.
<mgrwt>
<rscale>  0 0.14030824E+04</rscale>
<asrwt>0</asrwt>
<pdfrwt beam="1">  1        2 0.32498672E+00 0.14030824E+04</pdfrwt>
<pdfrwt beam="2">  1       -2 0.27067305E+00 0.14030824E+04</pdfrwt>
<totfact> 0.26333045E-01</totfact>
</mgrwt>
</event>
<event>
12    1  0.1432447E-007  0.1641555E+04  0.7818608E-02  0.8795418E-01
          2   -1    0    0  501    0  0.00000000000E+00  0.00000000000E+00  0.23693612295E+04  0.23693612295E+04  0.00000000000E+00 0. -1.
         -2   -1    0    0    0  501 -0.00000000000E+00 -0.00000000000E+00 -0.13173529274E+04  0.13173529274E+04  0.00000000000E+00 0.  1.
         23    2    1    2    0    0  0.80669135848E+03  0.13857932361E+04  0.11441620561E+04  0.19721535523E+04  0.95440987901E+02 0.  0.
    5000000    2    1    2    0    0 -0.80669135848E+03 -0.13857932361E+04 -0.92153753975E+02  0.17145606046E+04  0.60004325811E+03 0.  0.
         23    2    4    4    0    0 -0.25766647580E+03 -0.10343589620E+03 -0.12200628915E+03  0.31629492843E+03  0.89810632929E+02 0.  0.
         23    2    4    4    0    0 -0.54902488268E+03 -0.12823573399E+04  0.29852535170E+02  0.13982656762E+04  0.91580884836E+02 0.  0.
          2    1    3    3  502    0  0.63592099712E+03  0.10239446679E+04  0.88660398283E+03  0.14963037191E+04  0.00000000000E+00 0. -1.
         -2    1    3    3    0  502  0.17077036136E+03  0.36184856819E+03  0.25755807326E+03  0.47584983317E+03  0.00000000000E+00 0.  1.
         11    1    5    5    0    0 -0.13808888518E+03 -0.81008334207E+02 -0.10956375676E+03  0.19399769900E+03  0.00000000000E+00 0. -1.
        -11    1    5    5    0    0 -0.11957759061E+03 -0.22427561994E+02 -0.12442532385E+02  0.12229722943E+03  0.00000000000E+00 0.  1.
          4    1    6    6  503    0 -0.48056915027E+03 -0.11613820940E+04  0.40455561811E+01  0.12568895906E+04  0.00000000000E+00 0. -1.
         -4    1    6    6    0  503 -0.68455732414E+02 -0.12097524588E+03  0.25806978989E+02  0.14137608560E+03  0.00000000000E+00 0.  1.
<mgrwt>
<rscale>  0 0.16415549E+04</rscale>
<asrwt>0</asrwt>
<pdfrwt beam="1">  1        2 0.36451711E+00 0.16415549E+04</pdfrwt>
<pdfrwt beam="2">  1       -2 0.20266968E+00 0.16415549E+04</pdfrwt>
<totfact> 0.48940053E-01</totfact>
</mgrwt>
</event>
<event>
12    1  0.1432447E-007  0.1569380E+04  0.7818608E-02  0.8839583E-01
         -2   -1    0    0    0  501 -0.00000000000E+00  0.00000000000E+00  0.21197644791E+04  0.21197644791E+04  0.00000000000E+00 0.  1.
          2   -1    0    0  501    0  0.00000000000E+00 -0.00000000000E+00 -0.13223585176E+04  0.13223585176E+04  0.00000000000E+00 0. -1.
         23    2    1    2    0    0  0.56875291206E+03 -0.14069379100E+04 -0.19416433737E+03  0.15326702186E+04  0.91782631243E+02 0.  0.
    5000000    2    1    2    0    0 -0.56875291206E+03  0.14069379100E+04  0.99157029895E+03  0.19094527781E+04  0.59987006625E+03 0.  0.
         23    2    4    4    0    0  0.20224477571E+02  0.70030990421E+03  0.40159635080E+03  0.81264346313E+03  0.90921822264E+02 0.  0.
         23    2    4    4    0    0 -0.58897738964E+03  0.70662800583E+03  0.58997394815E+03  0.10968093150E+04  0.93294746938E+02 0.  0.
          1    1    3    3  502    0  0.15438436796E+03 -0.39812806372E+03 -0.95954185483E+02  0.43766162033E+03  0.00000000000E+00 0. -1.
         -1    1    3    3    0  502  0.41436854410E+03 -0.10088098463E+04 -0.98210151891E+02  0.10950085983E+04  0.00000000000E+00 0.  1.
         11    1    5    5    0    0 -0.33598116728E+00  0.43912635596E+03  0.20240616365E+03  0.48352903167E+03  0.00000000000E+00 0. -1.
        -11    1    5    5    0    0  0.20560458739E+02  0.26118354825E+03  0.19919018714E+03  0.32911443146E+03  0.00000000000E+00 0.  1.
          3    1    6    6  503    0 -0.16167220394E+03  0.20493277284E+03  0.11940222812E+03  0.28704047623E+03  0.00000000000E+00 0. -1.
         -3    1    6    6    0  503 -0.42730518569E+03  0.50169523299E+03  0.47057172003E+03  0.80976883876E+03  0.00000000000E+00 0.  1.
<mgrwt>
<rscale>  0 0.15693798E+04</rscale>
<asrwt>0</asrwt>
<pdfrwt beam="1">  1        2 0.20343977E+00 0.15693798E+04</pdfrwt>
<pdfrwt beam="2">  1       -2 0.32611761E+00 0.15693798E+04</pdfrwt>
<totfact> 0.32975987E-01</totfact>
</mgrwt>
</event>
<event>
12    1  0.1432447E-007  0.4589736E+03  0.7818608E-02  0.1025079E+00
          2   -1    0    0  501    0  0.00000000000E+00  0.00000000000E+00  0.25099966169E+04  0.25099966169E+04  0.00000000000E+00 0. -1.
         -2   -1    0    0    0  501 -0.00000000000E+00 -0.00000000000E+00 -0.15255406655E+03  0.15255406655E+03  0.00000000000E+00 0.  1.
         23    2    1    2    0    0  0.31414212450E+03 -0.21169513668E+03  0.14988421931E+04  0.15486919673E+04  0.91753934655E+02 0.  0.
    5000000    2    1    2    0    0 -0.31414212450E+03  0.21169513668E+03  0.85860035730E+03  0.11138587162E+04  0.59998880056E+03 0.  0.
         23    2    4    4    0    0 -0.33261024614E+03  0.47904349292E+02  0.85686051117E+03  0.92470473992E+03  0.89132025076E+02 0.  0.
         23    2    4    4    0    0  0.18468121646E+02  0.16379078739E+03  0.17398461295E+01  0.18915397628E+03  0.92777724302E+02 0.  0.
          3    1    3    3  502    0  0.11460654982E+03 -0.12515246835E+03  0.74629632001E+03  0.76534697939E+03  0.00000000000E+00 0. -1.
         -3    1    3    3    0  502  0.19953557468E+03 -0.86542668329E+02  0.75254587308E+03  0.78334498792E+03  0.00000000000E+00 0.  1.
         11    1    5    5    0    0 -0.22637166564E+03 -0.62280627185E+01  0.60656680768E+03  0.64746135942E+03  0.00000000000E+00 0.  1.
        -11    1    5    5    0    0 -0.10623858051E+03  0.54132412010E+02  0.25029370350E+03  0.27724338050E+03  0.00000000000E+00 0. -1.
          2    1    6    6  503    0  0.40166410931E+02  0.31615455088E+02  0.18073099628E+02  0.54217289656E+02  0.00000000000E+00 0. -1.
         -2    1    6    6    0  503 -0.21698289285E+02  0.13217533230E+03 -0.16333253498E+02  0.13493668662E+03  0.00000000000E+00 0.  1.
<mgrwt>
<rscale>  0 0.45897359E+03</rscale>
<asrwt>0</asrwt>
<pdfrwt beam="1">  1        2 0.38615330E+00 0.45897359E+03</pdfrwt>
<pdfrwt beam="2">  1       -2 0.23469858E-01 0.45897359E+03</pdfrwt>
<totfact> 0.60251698E+01</totfact>
</mgrwt>
</event>
<event>
12    1  0.1432447E-007  0.7580670E+03  0.7818608E-02  0.9622779E-01
         -1   -1    0    0    0  501 -0.00000000000E+00  0.00000000000E+00  0.39768378407E+03  0.39768378407E+03  0.00000000000E+00 0.  1.
          1   -1    0    0  501    0  0.00000000000E+00 -0.00000000000E+00 -0.17116111851E+04  0.17116111851E+04  0.00000000000E+00 0. -1.
         23    2    1    2    0    0 -0.66705350196E+03  0.21574105826E+03 -0.40758855991E+03  0.81589200321E+03  0.89703667827E+02 0.  0.
    5000000    2    1    2    0    0  0.66705350196E+03 -0.21574105826E+03 -0.90633884117E+03  0.12934029660E+04  0.59994712998E+03 0.  0.
         23    2    4    4    0    0  0.44605385687E+03  0.68348763743E+02 -0.77140940646E+03  0.89843044762E+03  0.92028257128E+02 0.  0.
         23    2    4    4    0    0  0.22099964510E+03 -0.28408982201E+03 -0.13492943471E+03  0.39497251839E+03  0.90826581073E+02 0.  0.
          2    1    3    3  502    0 -0.25526204931E+03  0.73960993655E+02 -0.10586540901E+03  0.28607066823E+03  0.00000000000E+00 0. -1.
         -2    1    3    3    0  502 -0.41179145266E+03  0.14178006461E+03 -0.30172315090E+03  0.52982133497E+03  0.00000000000E+00 0.  1.
         11    1    5    5    0    0  0.31033212864E+03  0.31917372661E+02 -0.44914916337E+03  0.54686352932E+03  0.00000000000E+00 0. -1.
        -11    1    5    5    0    0  0.13572172823E+03  0.36431391082E+02 -0.32226024308E+03  0.35156691830E+03  0.00000000000E+00 0.  1.
          2    1    6    6  503    0  0.89480384224E+02 -0.82784686196E+02 -0.87048967271E+02  0.14979174254E+03  0.00000000000E+00 0. -1.
         -2    1    6    6    0  503  0.13151926087E+03 -0.20130513581E+03 -0.47880467440E+02  0.24518077585E+03  0.00000000000E+00 0.  1.
<mgrwt>
<rscale>  0 0.75806697E+03</rscale>
<asrwt>0</asrwt>
<pdfrwt beam="1">  1        1 0.26332479E+00 0.75806697E+03</pdfrwt>
<pdfrwt beam="2">  1       -1 0.61182122E-01 0.75806697E+03</pdfrwt>
<totfact> 0.13170152E+01</totfact>
</mgrwt>
</event>
<event>
12    1  0.1514357E-007  0.8211044E+03  0.7818608E-02  0.9529962E-01
         -1   -1    0    0    0  501 -0.00000000000E+00  0.00000000000E+00  0.93556102482E+03  0.93556102482E+03  0.00000000000E+00 0.  1.
          1   -1    0    0  501    0  0.00000000000E+00 -0.00000000000E+00 -0.90565942269E+03  0.90565942269E+03  0.00000000000E+00 0. -1.
         23    2    1    2    0    0  0.46151836351E+03  0.55668386913E+03 -0.37362109787E+03  0.81857415164E+03  0.87033251986E+02 0.  0.
    5000000    2    1    2    0    0 -0.46151836351E+03 -0.55668386913E+03  0.40352270000E+03  0.10226462959E+04  0.60006561892E+03 0.  0.
         23    2    4    4    0    0  0.12417892670E+03 -0.12447259444E+03  0.38422466065E+02  0.20237001680E+03  0.92539208970E+02 0.  0.
         23    2    4    4    0    0 -0.58569729021E+03 -0.43221127469E+03  0.36510023394E+03  0.82027627907E+03  0.98524572784E+02 0.  0.
          3    1    3    3  502    0  0.10587187643E+03  0.15658082504E+03 -0.13616176739E+03  0.23295157412E+03  0.00000000000E+00 0. -1.
         -3    1    3    3    0  502  0.35564648708E+03  0.40010304409E+03 -0.23745933049E+03  0.58562257752E+03  0.00000000000E+00 0.  1.
         11    1    5    5    0    0  0.98478874226E+02 -0.12990311304E+03  0.94837365751E+01  0.16328762570E+03  0.00000000000E+00 0.  1.
        -11    1    5    5    0    0  0.25700052476E+02  0.54305186025E+01  0.28938729490E+02  0.39082391099E+02  0.00000000000E+00 0. -1.
          1    1    6    6  503    0 -0.26976833698E+03 -0.17950877288E+03  0.21447619565E+03  0.38858511767E+03  0.00000000000E+00 0. -1.
         -1    1    6    6    0  503 -0.31592895323E+03 -0.25270250182E+03  0.15062403829E+03  0.43169116139E+03  0.00000000000E+00 0.  1.
<mgrwt>
<rscale>  0 0.82110440E+03</rscale>
<asrwt>0</asrwt>
<pdfrwt beam="1">  1        1 0.13933222E+00 0.82110440E+03</pdfrwt>
<pdfrwt beam="2">  1       -1 0.14393247E+00 0.82110440E+03</pdfrwt>
<totfact> 0.71809138E+00</totfact>
</mgrwt>
</event>
<event>
12    1  0.1432447E-007  0.1940170E+04  0.7818608E-02  0.8635115E-01
          2   -1    0    0  501    0  0.00000000000E+00  0.00000000000E+00  0.24656386910E+04  0.24656386910E+04  0.00000000000E+00 0. -1.
         -2   -1    0    0    0  501 -0.00000000000E+00 -0.00000000000E+00 -0.15967645301E+04  0.15967645301E+04  0.00000000000E+00 0.  1.
         23    2    1    2    0    0 -0.71796624021E+03 -0.17996042563E+04  0.45421316875E+03  0.19921448288E+04  0.90996785921E+02 0.  0.
    5000000    2    1    2    0    0  0.71796624021E+03  0.17996042563E+04  0.41466099215E+03  0.20702583923E+04  0.59997922554E+03 0.  0.
         23    2    4    4    0    0  0.47892152618E+03  0.11280651607E+04  0.53764953990E+03  0.13414066277E+04  0.91694482792E+02 0.  0.
         23    2    4    4    0    0  0.23904471403E+03  0.67153909565E+03 -0.12298854775E+03  0.72885176459E+03  0.89395635133E+02 0.  0.
          1    1    3    3  502    0 -0.58490575645E+03 -0.15516622100E+04  0.39280831848E+03  0.17041328390E+04  0.00000000000E+00 0. -1.
         -1    1    3    3    0  502 -0.13306048376E+03 -0.24794204635E+03  0.61404850275E+02  0.28801198990E+03  0.00000000000E+00 0.  1.
         13    1    5    5    0    0  0.18641227494E+03  0.43377241547E+03  0.25613290536E+03  0.53713323289E+03  0.00000000000E+00 0. -1.
        -13    1    5    5    0    0  0.29250925124E+03  0.69429274518E+03  0.28151663453E+03  0.80427339481E+03  0.00000000000E+00 0.  1.
          1    1    6    6  503    0  0.13812700876E+02  0.98558284944E+02 -0.41481734512E+02  0.10782050146E+03  0.00000000000E+00 0. -1.
         -1    1    6    6    0  503  0.22523201315E+03  0.57298081071E+03 -0.81506813236E+02  0.62103126313E+03  0.00000000000E+00 0.  1.
<mgrwt>
<rscale>  0 0.19401702E+04</rscale>
<asrwt>0</asrwt>
<pdfrwt beam="1">  1        2 0.37932903E+00 0.19401702E+04</pdfrwt>
<pdfrwt beam="2">  1       -2 0.24565608E+00 0.19401702E+04</pdfrwt>
<totfact> 0.22305393E-01</totfact>
</mgrwt>
</event>
<event>
12    1  0.1432447E-007  0.1788677E+04  0.7818608E-02  0.8712344E-01
          1   -1    0    0  501    0  0.00000000000E+00  0.00000000000E+00  0.31973700189E+04  0.31973700189E+04  0.00000000000E+00 0. -1.
         -1   -1    0    0    0  501 -0.00000000000E+00 -0.00000000000E+00 -0.11358710786E+04  0.11358710786E+04  0.00000000000E+00 0.  1.
         23    2    1    2    0    0 -0.17360792329E+04 -0.33949253491E+03  0.16491145625E+04  0.24201911162E+04  0.92303381819E+02 0.  0.
    5000000    2    1    2    0    0  0.17360792329E+04  0.33949253491E+03  0.41238437780E+03  0.19130499813E+04  0.60039409674E+03 0.  0.
         23    2    4    4    0    0  0.15396659619E+04  0.39364696535E+03  0.19884698501E+03  0.16041297239E+04  0.90348436644E+02 0.  0.
         23    2    4    4    0    0  0.19641327106E+03 -0.54154430442E+02  0.21353739278E+03  0.30892025739E+03  0.91228460061E+02 0.  0.
          1    1    3    3  502    0 -0.12666562512E+04 -0.23901405354E+03  0.12555034169E+04  0.17993984012E+04  0.00000000000E+00 0. -1.
         -1    1    3    3    0  502 -0.46942298174E+03 -0.10047848137E+03  0.39361114564E+03  0.62079271498E+03  0.00000000000E+00 0.  1.
         13    1    5    5    0    0  0.10485329963E+04  0.29800876794E+03  0.10566963405E+03  0.10951697318E+04  0.00000000000E+00 0.  1.
        -13    1    5    5    0    0  0.49113296563E+03  0.95638197415E+02  0.93177350959E+02  0.50895999201E+03  0.00000000000E+00 0. -1.
          3    1    6    6  503    0  0.18359001660E+03 -0.70876854193E+02  0.16803547736E+03  0.25877547083E+03  0.00000000000E+00 0. -1.
         -3    1    6    6    0  503  0.12823254455E+02  0.16722423751E+02  0.45501915429E+02  0.50144786555E+02  0.00000000000E+00 0.  1.
<mgrwt>
<rscale>  0 0.17886766E+04</rscale>
<asrwt>0</asrwt>
<pdfrwt beam="1">  1        1 0.49190308E+00 0.17886766E+04</pdfrwt>
<pdfrwt beam="2">  1       -1 0.17474940E+00 0.17886766E+04</pdfrwt>
<totfact> 0.89057846E-02</totfact>
</mgrwt>
</event>
<event>
12    1  0.1432447E-007  0.1826862E+04  0.7818608E-02  0.8692144E-01
          2   -1    0    0  501    0  0.00000000000E+00  0.00000000000E+00  0.18638440392E+04  0.18638440392E+04  0.00000000000E+00 0. -1.
         -2   -1    0    0    0  501 -0.00000000000E+00 -0.00000000000E+00 -0.23854610206E+04  0.23854610206E+04  0.00000000000E+00 0.  1.
         23    2    1    2    0    0 -0.17630309257E+04 -0.24098741986E+03 -0.13114643968E+04  0.22124193014E+04  0.92235131452E+02 0.  0.
    5000000    2    1    2    0    0  0.17630309257E+04  0.24098741986E+03  0.78984741546E+03  0.20368857583E+04  0.59890873364E+03 0.  0.
         23    2    4    4    0    0  0.13464999287E+04 -0.66407181864E+02  0.54434551931E+03  0.14567434137E+04  0.91199547091E+02 0.  0.
         23    2    4    4    0    0  0.41653099703E+03  0.30739460172E+03  0.24550189615E+03  0.58014234457E+03  0.91128734757E+02 0.  0.
          1    1    3    3  502    0 -0.10539244542E+04 -0.11567030239E+03 -0.82485259722E+03  0.13433235578E+04  0.00000000000E+00 0. -1.
         -1    1    3    3    0  502 -0.70910647154E+03 -0.12531711747E+03 -0.48661179963E+03  0.86909574355E+03  0.00000000000E+00 0.  1.
         13    1    5    5    0    0  0.26194310800E+03 -0.27238288815E+02  0.14277170740E+03  0.29956614736E+03  0.00000000000E+00 0. -1.
        -13    1    5    5    0    0  0.10845568207E+04 -0.39168893049E+02  0.40157381190E+03  0.11571772664E+04  0.00000000000E+00 0.  1.
          4    1    6    6  503    0  0.68720795350E+02  0.94907672302E+02  0.69032251780E+02  0.13599803587E+03  0.00000000000E+00 0. -1.
         -4    1    6    6    0  503  0.34781020168E+03  0.21248692942E+03  0.17646964437E+03  0.44414430870E+03  0.00000000000E+00 0.  1.
<mgrwt>
<rscale>  0 0.18268618E+04</rscale>
<asrwt>0</asrwt>
<pdfrwt beam="1">  1        2 0.28674524E+00 0.18268618E+04</pdfrwt>
<pdfrwt beam="2">  1       -2 0.36699400E+00 0.18268618E+04</pdfrwt>
<totfact> 0.87341084E-02</totfact>
</mgrwt>
</event>
<event>
12    1  0.1432447E-007  0.5177554E+03  0.7818608E-02  0.1009246E+00
          2   -1    0    0  501    0  0.00000000000E+00  0.00000000000E+00  0.21759765477E+04  0.21759765477E+04  0.00000000000E+00 0. -1.
         -2   -1    0    0    0  501 -0.00000000000E+00 -0.00000000000E+00 -0.21657317151E+03  0.21657317151E+03  0.00000000000E+00 0.  1.
         23    2    1    2    0    0 -0.75990553423E+02  0.49460883236E+03  0.12005417974E+04  0.13033879251E+04  0.84303112655E+02 0.  0.
    5000000    2    1    2    0    0  0.75990553423E+02 -0.49460883236E+03  0.75886157878E+03  0.10891617941E+04  0.59999171384E+03 0.  0.
         23    2    4    4    0    0  0.20284387150E+02 -0.11157040713E+03 -0.76176469313E+02  0.16429821979E+03  0.91277809128E+02 0.  0.
         23    2    4    4    0    0  0.55706166274E+02 -0.38303842523E+03  0.83503804809E+03  0.92486357429E+03  0.90898168994E+02 0.  0.
          1    1    3    3  502    0 -0.63440880069E+02  0.18123050668E+03  0.40338310698E+03  0.44675180225E+03  0.00000000000E+00 0. -1.
         -1    1    3    3    0  502 -0.12549673355E+02  0.31337832568E+03  0.79715869042E+03  0.85663612288E+03  0.00000000000E+00 0.  1.
         13    1    5    5    0    0  0.54087674885E+02 -0.65785648181E+02 -0.62854084400E+02  0.10584830658E+03  0.00000000000E+00 0. -1.
        -13    1    5    5    0    0 -0.33803287735E+02 -0.45784758950E+02 -0.13322384913E+02  0.58449913204E+02  0.00000000000E+00 0.  1.
          3    1    6    6  503    0  0.17822105952E+02 -0.20459496385E+03  0.33911701196E+03  0.39645564001E+03  0.00000000000E+00 0.  1.
         -3    1    6    6    0  503  0.37884060322E+02 -0.17844346138E+03  0.49592103613E+03  0.52840793428E+03  0.00000000000E+00 0. -1.
<mgrwt>
<rscale>  0 0.51775538E+03</rscale>
<asrwt>0</asrwt>
<pdfrwt beam="1">  1        2 0.33476561E+00 0.51775538E+03</pdfrwt>
<pdfrwt beam="2">  1       -2 0.33318951E-01 0.51775538E+03</pdfrwt>
<totfact> 0.48001825E+01</totfact>
</mgrwt>
</event>
<event>
12    1  0.1432447E-007  0.5223873E+03  0.7818608E-02  0.1008095E+00
         -2   -1    0    0    0  501 -0.00000000000E+00  0.00000000000E+00  0.33452879721E+03  0.33452879721E+03  0.00000000000E+00 0.  1.
          2   -1    0    0  501    0  0.00000000000E+00 -0.00000000000E+00 -0.12287943931E+04  0.12287943931E+04  0.00000000000E+00 0. -1.
         23    2    1    2    0    0 -0.34709090132E+03 -0.11546502807E+03 -0.75863080901E+03  0.84756599310E+03  0.95095435189E+02 0.  0.
    5000000    2    1    2    0    0  0.34709090132E+03  0.11546502807E+03 -0.13563478688E+03  0.71575719721E+03  0.60008941289E+03 0.  0.
         23    2    4    4    0    0  0.18392795419E+03 -0.21172359763E+03  0.42412961631E+02  0.29826056685E+03  0.92217852374E+02 0.  0.
         23    2    4    4    0    0  0.16316294712E+03  0.32718862569E+03 -0.17804774851E+03  0.41749663036E+03  0.94487520424E+02 0.  0.
          1    1    3    3  502    0 -0.19047460014E+03 -0.16967467875E+02 -0.34528516366E+03  0.39470281543E+03  0.00000000000E+00 0. -1.
         -1    1    3    3    0  502 -0.15661630118E+03 -0.98497560191E+02 -0.41334564536E+03  0.45286317768E+03  0.00000000000E+00 0.  1.
         11    1    5    5    0    0  0.45647436656E+02 -0.11643648932E+03  0.36264148832E+02  0.13021610119E+03  0.00000000000E+00 0.  1.
        -11    1    5    5    0    0  0.13828051754E+03 -0.95287108308E+02  0.61488127994E+01  0.16804446566E+03  0.00000000000E+00 0. -1.
          1    1    6    6  503    0  0.81906789454E+02  0.76760709204E+02 -0.73732651479E+02  0.13430350900E+03  0.00000000000E+00 0. -1.
         -1    1    6    6    0  503  0.81256157670E+02  0.25042791649E+03 -0.10431509703E+03  0.28319312136E+03  0.00000000000E+00 0.  1.
<mgrwt>
<rscale>  0 0.52238727E+03</rscale>
<asrwt>0</asrwt>
<pdfrwt beam="1">  1        2 0.18904529E+00 0.52238727E+03</pdfrwt>
<pdfrwt beam="2">  1       -2 0.51465968E-01 0.52238727E+03</pdfrwt>
<totfact> 0.67682765E+01</totfact>
</mgrwt>
</event>
<event>
12    1  0.1432447E-007  0.9068083E+03  0.7818608E-02  0.9417111E-01
          2   -1    0    0  501    0  0.00000000000E+00  0.00000000000E+00  0.77772318237E+03  0.77772318237E+03  0.00000000000E+00 0. -1.
         -2   -1    0    0    0  501 -0.00000000000E+00 -0.00000000000E+00 -0.12522002335E+04  0.12522002335E+04  0.00000000000E+00 0.  1.
         23    2    1    2    0    0 -0.13642744672E+03 -0.88080765108E+03 -0.27203009969E+03  0.93646725012E+03  0.92390307878E+02 0.  0.
    5000000    2    1    2    0    0  0.13642744672E+03  0.88080765108E+03 -0.20244695146E+03  0.10934561658E+04  0.60018918007E+03 0.  0.
         23    2    4    4    0    0  0.71790347860E+02  0.82728712114E+03 -0.34509563512E+03  0.90444587381E+03  0.96816870588E+02 0.  0.
         23    2    4    4    0    0  0.64637098856E+02  0.53520529944E+02  0.14264868366E+03  0.18901029196E+03  0.91289878088E+02 0.  0.
          2    1    3    3  502    0 -0.92988517646E+02 -0.31771456847E+03 -0.11179239200E+03  0.34940943081E+03  0.00000000000E+00 0. -1.
         -2    1    3    3    0  502 -0.43438929071E+02 -0.56309308262E+03 -0.16023770768E+03  0.58705781931E+03  0.00000000000E+00 0.  1.
         13    1    5    5    0    0  0.85599094408E+02  0.58779843918E+03 -0.21618078056E+03  0.63211418268E+03  0.00000000000E+00 0.  1.
        -13    1    5    5    0    0 -0.13808746548E+02  0.23948868196E+03 -0.12891485456E+03  0.27233169113E+03  0.00000000000E+00 0. -1.
          1    1    6    6  503    0  0.48118346313E+02  0.39405884081E+02  0.15284098456E+03  0.16501080423E+03  0.00000000000E+00 0. -1.
         -1    1    6    6    0  503  0.16518752544E+02  0.14114645863E+02 -0.10192300899E+02  0.23999487725E+02  0.00000000000E+00 0.  1.
<mgrwt>
<rscale>  0 0.90680825E+03</rscale>
<asrwt>0</asrwt>
<pdfrwt beam="1">  1        2 0.11964972E+00 0.90680825E+03</pdfrwt>
<pdfrwt beam="2">  1       -2 0.19264619E+00 0.90680825E+03</pdfrwt>
<totfact> 0.53317826E+00</totfact>
</mgrwt>
</event>
<event>
12    1  0.1432447E-007  0.8344576E+03  0.7818608E-02  0.9511438E-01
         -1   -1    0    0    0  501 -0.00000000000E+00  0.00000000000E+00  0.16261920091E+04  0.16261920091E+04  0.00000000000E+00 0.  1.
          1   -1    0    0  501    0  0.00000000000E+00 -0.00000000000E+00 -0.57654553483E+03  0.57654553483E+03  0.00000000000E+00 0. -1.
         23    2    1    2    0    0  0.77487559311E+03  0.17065926443E+02  0.19376696623E+02  0.78071690035E+03  0.91760511549E+02 0.  0.
    5000000    2    1    2    0    0 -0.77487559311E+03 -0.17065926443E+02  0.10302697777E+04  0.14220206436E+04  0.59996955374E+03 0.  0.
         23    2    4    4    0    0  0.23294214818E+02  0.25562610344E+02 -0.18399526270E+02  0.10044957237E+03  0.92495981157E+02 0.  0.
         23    2    4    4    0    0 -0.79816980793E+03 -0.42628536787E+02  0.10486693040E+04  0.13215710713E+04  0.89165872771E+02 0.  0.
          1    1    3    3  502    0  0.74079731252E+03 -0.22246429155E+01  0.24610457583E+02  0.74120933743E+03  0.00000000000E+00 0. -1.
         -1    1    3    3    0  502  0.34078280593E+02  0.19290569359E+02 -0.52337609604E+01  0.39507562924E+02  0.00000000000E+00 0.  1.
         13    1    5    5    0    0  0.45998927234E+02 -0.61427256900E+01  0.15346549417E+02  0.48878941934E+02  0.00000000000E+00 0. -1.
        -13    1    5    5    0    0 -0.22704712416E+02  0.31705336034E+02 -0.33746075687E+02  0.51570630433E+02  0.00000000000E+00 0.  1.
          3    1    6    6  503    0 -0.71264558723E+03 -0.12120688337E+02  0.91179704706E+03  0.11573178038E+04  0.00000000000E+00 0. -1.
         -3    1    6    6    0  503 -0.85524220701E+02 -0.30507848451E+02  0.13687225690E+03  0.16425326740E+03  0.00000000000E+00 0.  1.
<mgrwt>
<rscale>  0 0.83445757E+03</rscale>
<asrwt>0</asrwt>
<pdfrwt beam="1">  1        1 0.88699314E-01 0.83445757E+03</pdfrwt>
<pdfrwt beam="2">  1       -1 0.25018338E+00 0.83445757E+03</pdfrwt>
<totfact> 0.25991534E+00</totfact>
</mgrwt>
</event>
<event>
12    1  0.1432447E-007  0.6112753E+03  0.7818608E-02  0.9882286E-01
          3   -1    0    0  501    0  0.00000000000E+00  0.00000000000E+00  0.73705037830E+03  0.73705037830E+03  0.00000000000E+00 0. -1.
         -3   -1    0    0    0  501 -0.00000000000E+00 -0.00000000000E+00 -0.55801107417E+03  0.55801107417E+03  0.00000000000E+00 0.  1.
         23    2    1    2    0    0  0.63030531106E+02 -0.49148536218E+03  0.94498946693E+02  0.51236012188E+03  0.89733686390E+02 0.  0.
    5000000    2    1    2    0    0 -0.63030531106E+02  0.49148536218E+03  0.84540357437E+02  0.78270133059E+03  0.59995299131E+03 0.  0.
         23    2    4    4    0    0  0.70739425834E+02  0.55455736457E+03  0.16704113583E+03  0.59014554032E+03  0.88493393693E+02 0.  0.
         23    2    4    4    0    0 -0.13376995694E+03 -0.63072002392E+02 -0.82500778392E+02  0.19255579027E+03  0.91645376675E+02 0.  0.
          4    1    3    3  502    0  0.11304396356E+02 -0.20266944593E+03  0.81274317700E+02  0.21865088247E+03  0.00000000000E+00 0. -1.
         -4    1    3    3    0  502  0.51726134749E+02 -0.28881591625E+03  0.13224628993E+02  0.29370923940E+03  0.00000000000E+00 0.  1.
         11    1    5    5    0    0  0.22563469886E+02  0.73994250621E+02  0.53356025825E+02  0.93974064455E+02  0.00000000000E+00 0. -1.
        -11    1    5    5    0    0  0.48175955948E+02  0.48056311395E+03  0.11368511000E+03  0.49617147586E+03  0.00000000000E+00 0.  1.
          3    1    6    6  503    0 -0.38727208774E+02 -0.59151426447E+02 -0.68782930571E+01  0.71035194555E+02  0.00000000000E+00 0. -1.
         -3    1    6    6    0  503 -0.95042748166E+02 -0.39205759449E+01 -0.75622485335E+02  0.12152059571E+03  0.00000000000E+00 0.  1.
<mgrwt>
<rscale>  0 0.61127534E+03</rscale>
<asrwt>0</asrwt>
<pdfrwt beam="1">  1        3 0.11339237E+00 0.61127534E+03</pdfrwt>
<pdfrwt beam="2">  1       -3 0.85847857E-01 0.61127534E+03</pdfrwt>
<totfact> 0.21043368E+00</totfact>
</mgrwt>
</event>
<event>
12    1  0.1432447E-007  0.5299756E+03  0.7818608E-02  0.1006238E+00
         -2   -1    0    0    0  501 -0.00000000000E+00  0.00000000000E+00  0.61760497706E+03  0.61760497706E+03  0.00000000000E+00 0.  1.
          2   -1    0    0  501    0  0.00000000000E+00 -0.00000000000E+00 -0.63051639870E+03  0.63051639870E+03  0.00000000000E+00 0. -1.
         23    2    1    2    0    0  0.21369813599E+03 -0.42315670991E+03  0.13725904637E+02  0.48286525984E+03  0.90785264388E+02 0.  0.
    5000000    2    1    2    0    0 -0.21369813599E+03  0.42315670991E+03 -0.26637326285E+02  0.76525611592E+03  0.60014904927E+03 0.  0.
         23    2    4    4    0    0 -0.28236031054E+03  0.38693994581E+03  0.18644648750E+03  0.52239962255E+03  0.93215912353E+02 0.  0.
         23    2    4    4    0    0  0.68662174546E+02  0.36216764105E+02 -0.21308381378E+03  0.24285649337E+03  0.86881623264E+02 0.  0.
          3    1    3    3  502    0  0.15716354088E+03 -0.21291077302E+03  0.16297399560E+02  0.26513577858E+03  0.00000000000E+00 0. -1.
         -3    1    3    3    0  502  0.56534595117E+02 -0.21024593689E+03 -0.25714949221E+01  0.21772948126E+03  0.00000000000E+00 0.  1.
         11    1    5    5    0    0 -0.54238835369E+02  0.32183874914E+02  0.50375947011E+01  0.63269506297E+02  0.00000000000E+00 0.  1.
        -11    1    5    5    0    0 -0.22812147517E+03  0.35475607089E+03  0.18140889280E+03  0.45913011626E+03  0.00000000000E+00 0. -1.
          1    1    6    6  503    0  0.51525939890E+02  0.49215474895E+02 -0.76320418801E+02  0.10441212466E+03  0.00000000000E+00 0. -1.
         -1    1    6    6    0  503  0.17136234657E+02 -0.12998710790E+02 -0.13676339498E+03  0.13844436871E+03  0.00000000000E+00 0.  1.
<mgrwt>
<rscale>  0 0.52997557E+03</rscale>
<asrwt>0</asrwt>
<pdfrwt beam="1">  1        2 0.97002522E-01 0.52997557E+03</pdfrwt>
<pdfrwt beam="2">  1       -2 0.95016151E-01 0.52997557E+03</pdfrwt>
<totfact> 0.44900897E+01</totfact>
</mgrwt>
</event>
<event>
12    1  0.1432447E-007  0.1243686E+04  0.7818608E-02  0.9075455E-01
          2   -1    0    0  501    0  0.00000000000E+00  0.00000000000E+00  0.71012635796E+03  0.71012635796E+03  0.00000000000E+00 0. -1.
         -2   -1    0    0    0  501 -0.00000000000E+00 -0.00000000000E+00 -0.23786840655E+04  0.23786840655E+04  0.00000000000E+00 0.  1.
         23    2    1    2    0    0 -0.94139549983E+03 -0.75741311028E+03 -0.10572086097E+04  0.16076689839E+04  0.83722222848E+02 0.  0.
    5000000    2    1    2    0    0  0.94139549983E+03  0.75741311028E+03 -0.61134909785E+03  0.14811414396E+04  0.60011010481E+03 0.  0.
         23    2    4    4    0    0  0.28969129406E+02  0.16332421971E+03  0.60563984246E+02  0.19872610092E+03  0.91159507427E+02 0.  0.
         23    2    4    4    0    0  0.91242637043E+03  0.59408889057E+03 -0.67191308209E+03  0.12824153387E+04  0.87512396951E+02 0.  0.
          4    1    3    3  502    0 -0.61966218825E+03 -0.50793803253E+03 -0.64857804985E+03  0.10308422572E+04  0.00000000000E+00 0. -1.
         -4    1    3    3    0  502 -0.32173331159E+03 -0.24947507775E+03 -0.40863055988E+03  0.57682672673E+03  0.00000000000E+00 0.  1.
         11    1    5    5    0    0 -0.31863241543E+02  0.69011986440E+02  0.14354991079E+02  0.77356229244E+02  0.00000000000E+00 0. -1.
        -11    1    5    5    0    0  0.60832370949E+02  0.94312233273E+02  0.46208993167E+02  0.12136987167E+03  0.00000000000E+00 0.  1.
          2    1    6    6  503    0  0.65070949348E+01  0.12890630574E+02 -0.17772352013E+02  0.22899064110E+02  0.00000000000E+00 0. -1.
         -2    1    6    6    0  503  0.90591927549E+03  0.58119826000E+03 -0.65414073008E+03  0.12595162746E+04  0.00000000000E+00 0.  1.
<mgrwt>
<rscale>  0 0.12436857E+04</rscale>
<asrwt>0</asrwt>
<pdfrwt beam="1">  1        2 0.10925021E+00 0.12436857E+04</pdfrwt>
<pdfrwt beam="2">  1       -2 0.36595139E+00 0.12436857E+04</pdfrwt>
<totfact> 0.48720224E-01</totfact>
</mgrwt>
</event>
<event>
12    1  0.1432447E-007  0.9227978E+03  0.7818608E-02  0.9397523E-01
          2   -1    0    0  501    0  0.00000000000E+00  0.00000000000E+00  0.68406353072E+03  0.68406353072E+03  0.00000000000E+00 0. -1.
         -2   -1    0    0    0  501 -0.00000000000E+00 -0.00000000000E+00 -0.16978565694E+04  0.16978565694E+04  0.00000000000E+00 0.  1.
         23    2    1    2    0    0 -0.38457880444E+03  0.75982610394E+03 -0.10305742597E+04  0.13400317128E+04  0.91461037399E+02 0.  0.
    5000000    2    1    2    0    0  0.38457880444E+03 -0.75982610394E+03  0.16781221046E+02  0.10418883873E+04  0.60001103094E+03 0.  0.
         23    2    4    4    0    0 -0.80429167270E+02  0.13367184772E+02  0.54742203106E+02  0.13425698301E+03  0.91546141973E+02 0.  0.
         23    2    4    4    0    0  0.46500797171E+03 -0.77319328872E+03 -0.37960982060E+02  0.90763140433E+03  0.91068405616E+02 0.  0.
          3    1    3    3  502    0 -0.10858054219E+03  0.13856692486E+03 -0.19122750018E+03  0.25992014857E+03  0.00000000000E+00 0. -1.
         -3    1    3    3    0  502 -0.27599826226E+03  0.62125917909E+03 -0.83934675955E+03  0.10801115642E+04  0.00000000000E+00 0.  1.
         13    1    5    5    0    0 -0.33647792305E+02  0.20916816557E+02  0.73335295789E+02  0.83353180805E+02  0.00000000000E+00 0. -1.
        -13    1    5    5    0    0 -0.46781374965E+02 -0.75496317846E+01 -0.18593092683E+02  0.50903802207E+02  0.00000000000E+00 0.  1.
          2    1    6    6  503    0  0.23570971758E+03 -0.42065826598E+03  0.22720273438E+02  0.48273042013E+03  0.00000000000E+00 0. -1.
         -2    1    6    6    0  503  0.22929825413E+03 -0.35253502274E+03 -0.60681255498E+02  0.42490098420E+03  0.00000000000E+00 0.  1.
<mgrwt>
<rscale>  0 0.92279780E+03</rscale>
<asrwt>0</asrwt>
<pdfrwt beam="1">  1        2 0.10524054E+00 0.92279780E+03</pdfrwt>
<pdfrwt beam="2">  1       -2 0.26120870E+00 0.92279780E+03</pdfrwt>
<totfact> 0.23344539E+00</totfact>
</mgrwt>
</event>
<event>
12    1  0.1432447E-007  0.1747680E+04  0.7818608E-02  0.8734628E-01
          1   -1    0    0  501    0  0.00000000000E+00  0.00000000000E+00  0.24382468011E+04  0.24382468011E+04  0.00000000000E+00 0. -1.
         -1   -1    0    0    0  501 -0.00000000000E+00 -0.00000000000E+00 -0.12801637745E+04  0.12801637745E+04  0.00000000000E+00 0.  1.
         23    2    1    2    0    0 -0.12794852650E+04 -0.11135707590E+04  0.29969195260E+03  0.17249312077E+04  0.91924023031E+02 0.  0.
    5000000    2    1    2    0    0  0.12794852650E+04  0.11135707590E+04  0.85839107401E+03  0.19934793680E+04  0.60000197990E+03 0.  0.
         23    2    4    4    0    0  0.13125275077E+04  0.10454774973E+04  0.80352360117E+03  0.18627457236E+04  0.91759453745E+02 0.  0.
         23    2    4    4    0    0 -0.33042242691E+02  0.68093261719E+02  0.54867472836E+02  0.13073364437E+03  0.91391269277E+02 0.  0.
          2    1    3    3  502    0 -0.11071358060E+04 -0.91992846858E+03  0.25645477228E+03  0.14621173450E+04  0.00000000000E+00 0. -1.
         -2    1    3    3    0  502 -0.17234945903E+03 -0.19364229040E+03  0.43237180322E+02  0.26281386269E+03  0.00000000000E+00 0.  1.
         13    1    5    5    0    0  0.25421773882E+03  0.24878396480E+03  0.15948972606E+03  0.38981674232E+03  0.00000000000E+00 0. -1.
        -13    1    5    5    0    0  0.10583097689E+04  0.79669353246E+03  0.64403387511E+03  0.14729289813E+04  0.00000000000E+00 0.  1.
          4    1    6    6  503    0 -0.27484597968E+02 -0.16155883140E+02  0.27129024103E+02  0.41861672617E+02  0.00000000000E+00 0.  1.
         -4    1    6    6    0  503 -0.55576447228E+01  0.84249144859E+02  0.27738448733E+02  0.88871971749E+02  0.00000000000E+00 0. -1.
<mgrwt>
<rscale>  0 0.17476799E+04</rscale>
<asrwt>0</asrwt>
<pdfrwt beam="1">  1        1 0.37511489E+00 0.17476799E+04</pdfrwt>
<pdfrwt beam="2">  1       -1 0.19694827E+00 0.17476799E+04</pdfrwt>
<totfact> 0.21730945E-01</totfact>
</mgrwt>
</event>
<event>
12    1  0.1432447E-007  0.1038552E+04  0.7818608E-02  0.9267244E-01
          1   -1    0    0  501    0  0.00000000000E+00  0.00000000000E+00  0.12249388165E+04  0.12249388165E+04  0.00000000000E+00 0. -1.
         -1   -1    0    0    0  501 -0.00000000000E+00 -0.00000000000E+00 -0.11793373701E+04  0.11793373701E+04  0.00000000000E+00 0.  1.
         23    2    1    2    0    0 -0.89660645752E+03  0.51937864694E+03  0.45630369957E+03  0.11384422040E+04  0.11908092661E+03 0.  0.
    5000000    2    1    2    0    0  0.89660645752E+03 -0.51937864694E+03 -0.41070225312E+03  0.12658339826E+04  0.60000167684E+03 0.  0.
         23    2    4    4    0    0  0.51590923135E+03 -0.33612525228E+03  0.62392073096E+02  0.62574942825E+03  0.92342059536E+02 0.  0.
         23    2    4    4    0    0  0.38069722617E+03 -0.18325339466E+03 -0.47309432622E+03  0.64008455434E+03  0.85894182252E+02 0.  0.
          3    1    3    3  502    0 -0.49364953044E+03  0.31091833620E+03  0.31638628625E+03  0.66367187134E+03  0.00000000000E+00 0. -1.
         -3    1    3    3    0  502 -0.40295692707E+03  0.20846031074E+03  0.13991741333E+03  0.47477033267E+03  0.00000000000E+00 0.  1.
         11    1    5    5    0    0  0.10736565691E+03 -0.64165783929E+02  0.50305577825E+02  0.13481573822E+03  0.00000000000E+00 0. -1.
        -11    1    5    5    0    0  0.40854357444E+03 -0.27195946835E+03  0.12086495271E+02  0.49093369003E+03  0.00000000000E+00 0.  1.
          3    1    6    6  503    0  0.11791683949E+03 -0.37943428265E+02 -0.19373204224E+03  0.22994823107E+03  0.00000000000E+00 0. -1.
         -3    1    6    6    0  503  0.26278038668E+03 -0.14530996640E+03 -0.27936228398E+03  0.41013632327E+03  0.00000000000E+00 0.  1.
<mgrwt>
<rscale>  0 0.10385521E+04</rscale>
<asrwt>0</asrwt>
<pdfrwt beam="1">  1        1 0.18845213E+00 0.10385521E+04</pdfrwt>
<pdfrwt beam="2">  1       -1 0.18143652E+00 0.10385521E+04</pdfrwt>
<totfact> 0.20808987E+00</totfact>
</mgrwt>
</event>
<event>
12    1  0.1432447E-007  0.6432323E+03  0.7818608E-02  0.9819562E-01
         -2   -1    0    0    0  501 -0.00000000000E+00  0.00000000000E+00  0.96788931244E+03  0.96788931244E+03  0.00000000000E+00 0.  1.
          2   -1    0    0  501    0  0.00000000000E+00 -0.00000000000E+00 -0.11399858344E+04  0.11399858344E+04  0.00000000000E+00 0. -1.
         23    2    1    2    0    0  0.54271380810E+03  0.25557071076E+03  0.67492201710E+03  0.90903605143E+03  0.10474802117E+03 0.  0.
    5000000    2    1    2    0    0 -0.54271380810E+03 -0.25557071076E+03 -0.84701853908E+03  0.11988390954E+04  0.59993341755E+03 0.  0.
         23    2    4    4    0    0 -0.41815526768E+02 -0.11148735253E+03  0.48054511145E+02  0.15908665737E+03  0.93922097817E+02 0.  0.
         23    2    4    4    0    0 -0.50089828133E+03 -0.14408335823E+03 -0.89507305023E+03  0.10397524381E+04  0.90940996629E+02 0.  0.
          3    1    3    3  502    0  0.37928017801E+03  0.12747151234E+03  0.41715396078E+03  0.57803102589E+03  0.00000000000E+00 0. -1.
         -3    1    3    3    0  502  0.16343363009E+03  0.12809919842E+03  0.25776805632E+03  0.33100502555E+03  0.00000000000E+00 0.  1.
         13    1    5    5    0    0  0.18905881668E+01  0.16066889130E+02  0.75040485023E+00  0.16195133756E+02  0.00000000000E+00 0. -1.
        -13    1    5    5    0    0 -0.43706114935E+02 -0.12755424166E+03  0.47304106295E+02  0.14289152361E+03  0.00000000000E+00 0.  1.
          1    1    6    6  503    0 -0.25181770380E+03 -0.29636542545E+02 -0.46812646482E+03  0.53238413543E+03  0.00000000000E+00 0. -1.
         -1    1    6    6    0  503 -0.24908057753E+03 -0.11444681569E+03 -0.42694658541E+03  0.50736830264E+03  0.00000000000E+00 0.  1.
<mgrwt>
<rscale>  0 0.64323230E+03</rscale>
<asrwt>0</asrwt>
<pdfrwt beam="1">  1        2 0.17538244E+00 0.64323230E+03</pdfrwt>
<pdfrwt beam="2">  1       -2 0.14890605E+00 0.64323230E+03</pdfrwt>
<totfact> 0.65179839E+00</totfact>
</mgrwt>
</event>
<event>
12    1  0.1432447E-007  0.6547966E+03  0.7818608E-02  0.9797820E-01
          3   -1    0    0  501    0  0.00000000000E+00  0.00000000000E+00  0.49091006485E+03  0.49091006485E+03  0.00000000000E+00 0. -1.
         -3   -1    0    0    0  501 -0.00000000000E+00 -0.00000000000E+00 -0.18814892955E+04  0.18814892955E+04  0.00000000000E+00 0.  1.
         23    2    1    2    0    0 -0.93557694308E+02 -0.53391197286E+03  0.20233768698E+03  0.58598578740E+03  0.92864237085E+02 0.  0.
    5000000    2    1    2    0    0  0.93557694308E+02  0.53391197286E+03 -0.15929169177E+04  0.17864135730E+04  0.60006175538E+03 0.  0.
         23    2    4    4    0    0 -0.39213773327E+01 -0.95878551849E+02 -0.11795632737E+03  0.17708130012E+03  0.90752508400E+02 0.  0.
         23    2    4    4    0    0  0.97479071640E+02  0.62979052471E+03 -0.14749605903E+04  0.16093322729E+04  0.91122703951E+02 0.  0.
          2    1    3    3  502    0 -0.26413630021E+02 -0.33692098049E+03  0.15860239726E+03  0.37332043523E+03  0.00000000000E+00 0.  1.
         -2    1    3    3    0  502 -0.67144064287E+02 -0.19699099237E+03  0.43735289722E+02  0.21266535217E+03  0.00000000000E+00 0. -1.
         13    1    5    5    0    0 -0.18622865663E+02 -0.10635977832E+03 -0.11668729743E+03  0.15898156796E+03  0.00000000000E+00 0.  1.
        -13    1    5    5    0    0  0.14701488330E+02  0.10481226466E+02 -0.12690299394E+01  0.18099732162E+02  0.00000000000E+00 0. -1.
          2    1    6    6  503    0  0.30661578671E+02  0.15361593707E+03 -0.27281350030E+03  0.31458733998E+03  0.00000000000E+00 0. -1.
         -2    1    6    6    0  503  0.66817492970E+02  0.47617458764E+03 -0.12021470900E+04  0.12947449329E+04  0.00000000000E+00 0.  1.
<mgrwt>
<rscale>  0 0.65479659E+03</rscale>
<asrwt>0</asrwt>
<pdfrwt beam="1">  1        3 0.75524626E-01 0.65479659E+03</pdfrwt>
<pdfrwt beam="2">  1       -3 0.28945989E+00 0.65479659E+03</pdfrwt>
<totfact> 0.19204235E-01</totfact>
</mgrwt>
</event>
<event>
12    1  0.1432447E-007  0.8577872E+03  0.7818608E-02  0.9479944E-01
         -1   -1    0    0    0  501 -0.00000000000E+00  0.00000000000E+00  0.53534037674E+03  0.53534037674E+03  0.00000000000E+00 0.  1.
          1   -1    0    0  501    0  0.00000000000E+00 -0.00000000000E+00 -0.18055671119E+04  0.18055671119E+04  0.00000000000E+00 0. -1.
         23    2    1    2    0    0  0.61768140969E+03  0.55486902840E+03 -0.95578304305E+03  0.12693657595E+04  0.91423429796E+02 0.  0.
    5000000    2    1    2    0    0 -0.61768140969E+03 -0.55486902840E+03 -0.31444369208E+03  0.10715417291E+04  0.59993072861E+03 0.  0.
         23    2    4    4    0    0 -0.12554340428E+03 -0.33891281348E+02  0.14515129166E+03  0.21490743989E+03  0.90589982561E+02 0.  0.
         23    2    4    4    0    0 -0.49213800541E+03 -0.52097774706E+03 -0.45959498375E+03  0.85663428919E+03  0.94747702033E+02 0.  0.
          1    1    3    3  502    0  0.32147043853E+03  0.23391568182E+03 -0.42439218610E+03  0.58152258483E+03  0.00000000000E+00 0. -1.
         -1    1    3    3    0  502  0.29621097116E+03  0.32095334659E+03 -0.53139085694E+03  0.68784317469E+03  0.00000000000E+00 0.  1.
         11    1    5    5    0    0 -0.20141525429E+02  0.29275184948E+02  0.35185471865E+02  0.50007348767E+02  0.00000000000E+00 0. -1.
        -11    1    5    5    0    0 -0.10540187885E+03 -0.63166466296E+02  0.10996581980E+03  0.16490009113E+03  0.00000000000E+00 0.  1.
          1    1    6    6  503    0 -0.47938206395E+02 -0.16563627570E+02 -0.35258883218E+02  0.61770658378E+02  0.00000000000E+00 0. -1.
         -1    1    6    6    0  503 -0.44419979901E+03 -0.50441411949E+03 -0.42433610053E+03  0.79486363081E+03  0.00000000000E+00 0.  1.
<mgrwt>
<rscale>  0 0.85778719E+03</rscale>
<asrwt>0</asrwt>
<pdfrwt beam="1">  1        1 0.27777955E+00 0.85778719E+03</pdfrwt>
<pdfrwt beam="2">  1       -1 0.82360059E-01 0.85778719E+03</pdfrwt>
<totfact> 0.60862489E+00</totfact>
</mgrwt>
</event>
<event>
12    1  0.1432447E-007  0.5745911E+03  0.7818608E-02  0.9959570E-01
         -2   -1    0    0    0  501 -0.00000000000E+00  0.00000000000E+00  0.20024020255E+03  0.20024020255E+03  0.00000000000E+00 0.  1.
          2   -1    0    0  501    0  0.00000000000E+00 -0.00000000000E+00 -0.20955128551E+04  0.20955128551E+04  0.00000000000E+00 0. -1.
         23    2    1    2    0    0 -0.18743847023E+03 -0.45597753630E+03 -0.93515287752E+03  0.10609127987E+04  0.89310516820E+02 0.  0.
    5000000    2    1    2    0    0  0.18743847023E+03  0.45597753630E+03 -0.96011977502E+03  0.12348402589E+04  0.59995982278E+03 0.  0.
         23    2    4    4    0    0 -0.11750586925E+03  0.26340169811E+03 -0.74784787605E+03  0.80661622299E+03  0.90361505085E+02 0.  0.
         23    2    4    4    0    0  0.30494433947E+03  0.19257583819E+03 -0.21227189897E+03  0.42822403594E+03  0.90774237713E+02 0.  0.
          1    1    3    3  502    0 -0.48845127274E+02 -0.14073557197E+03 -0.37328147371E+03  0.40190969917E+03  0.00000000000E+00 0.  1.
         -1    1    3    3    0  502 -0.13859334295E+03 -0.31524196433E+03 -0.56187140381E+03  0.65900309954E+03  0.00000000000E+00 0. -1.
         13    1    5    5    0    0 -0.60364521212E+02  0.18257924882E+03 -0.38279160990E+03  0.42837889085E+03  0.00000000000E+00 0. -1.
        -13    1    5    5    0    0 -0.57141348035E+02  0.80822449296E+02 -0.36505626615E+03  0.37823733214E+03  0.00000000000E+00 0.  1.
          2    1    6    6  503    0  0.11955117302E+03  0.10673719119E+03 -0.13585326423E+03  0.21009859675E+03  0.00000000000E+00 0. -1.
         -2    1    6    6    0  503  0.18539316645E+03  0.85838647001E+02 -0.76418634738E+02  0.21812543919E+03  0.00000000000E+00 0.  1.
<mgrwt>
<rscale>  0 0.57459109E+03</rscale>
<asrwt>0</asrwt>
<pdfrwt beam="1">  1        2 0.32238659E+00 0.57459109E+03</pdfrwt>
<pdfrwt beam="2">  1       -2 0.30806186E-01 0.57459109E+03</pdfrwt>
<totfact> 0.60860199E+01</totfact>
</mgrwt>
</event>
<event>
12    1  0.1432447E-007  0.9436002E+03  0.7818608E-02  0.9372662E-01
         -1   -1    0    0    0  501 -0.00000000000E+00  0.00000000000E+00  0.13129417557E+04  0.13129417557E+04  0.00000000000E+00 0.  1.
          1   -1    0    0  501    0  0.00000000000E+00 -0.00000000000E+00 -0.78863170529E+03  0.78863170529E+03  0.00000000000E+00 0. -1.
         23    2    1    2    0    0  0.89560718600E+03  0.10728838928E+03  0.20685675571E+02  0.90685655576E+03  0.91312022522E+02 0.  0.
    5000000    2    1    2    0    0 -0.89560718600E+03 -0.10728838928E+03  0.50362437479E+03  0.11947169052E+04  0.60007328099E+03 0.  0.
         23    2    4    4    0    0 -0.25123512451E+03 -0.21047003812E+03  0.40491652601E+03  0.52885029470E+03  0.91151063841E+02 0.  0.
         23    2    4    4    0    0 -0.64437206149E+03  0.10318164884E+03  0.98707848790E+02  0.66586661048E+03  0.88166304544E+02 0.  0.
          4    1    3    3  502    0  0.66371023905E+03  0.90255074956E+02  0.53857784743E+02  0.67198059567E+03  0.00000000000E+00 0. -1.
         -4    1    3    3    0  502  0.23189694695E+03  0.17033314324E+02 -0.33172109172E+02  0.23487596010E+03  0.00000000000E+00 0.  1.
         11    1    5    5    0    0 -0.10474603007E+03 -0.99895514061E+02  0.11129494332E+03  0.18258534704E+03  0.00000000000E+00 0. -1.
        -11    1    5    5    0    0 -0.14648909445E+03 -0.11057452406E+03  0.29362158269E+03  0.34626494766E+03  0.00000000000E+00 0.  1.
          4    1    6    6  503    0 -0.44646377096E+03  0.37412669679E+02  0.90982037166E+02  0.45717320320E+03  0.00000000000E+00 0. -1.
         -4    1    6    6    0  503 -0.19790829053E+03  0.65768979160E+02  0.77258116238E+01  0.20869340728E+03  0.00000000000E+00 0.  1.
<mgrwt>
<rscale>  0 0.94360018E+03</rscale>
<asrwt>0</asrwt>
<pdfrwt beam="1">  1        1 0.12132795E+00 0.94360018E+03</pdfrwt>
<pdfrwt beam="2">  1       -1 0.20199104E+00 0.94360018E+03</pdfrwt>
<totfact> 0.33355236E+00</totfact>
</mgrwt>
</event>
<event>
12    1  0.1432447E-007  0.1219733E+04  0.7818608E-02  0.9095758E-01
          1   -1    0    0  501    0  0.00000000000E+00  0.00000000000E+00  0.10981484878E+04  0.10981484878E+04  0.00000000000E+00 0. -1.
         -1   -1    0    0    0  501 -0.00000000000E+00 -0.00000000000E+00 -0.14487414728E+04  0.14487414728E+04  0.00000000000E+00 0.  1.
         23    2    1    2    0    0 -0.28230913686E+02 -0.11542229943E+04  0.11709933440E+03  0.11641780651E+04  0.92577578521E+02 0.  0.
    5000000    2    1    2    0    0  0.28230913686E+02  0.11542229943E+04 -0.46769231940E+03  0.13827118956E+04  0.60010696994E+03 0.  0.
         23    2    4    4    0    0 -0.25219876461E+03  0.71217734707E+03 -0.19395604372E+03  0.78515212974E+03  0.89689070567E+02 0.  0.
         23    2    4    4    0    0  0.28042967830E+03  0.44204564725E+03 -0.27373627568E+03  0.59755976582E+03  0.90005368610E+02 0.  0.
          3    1    3    3  502    0 -0.25032918956E+02 -0.50489639799E+03  0.69308112471E+01  0.50556409671E+03  0.00000000000E+00 0. -1.
         -3    1    3    3    0  502 -0.31979947304E+01 -0.64932659634E+03  0.11016852316E+03  0.65861396840E+03  0.00000000000E+00 0.  1.
         11    1    5    5    0    0 -0.48670277275E+02  0.26546610910E+03 -0.65157320847E+02  0.27764460634E+03  0.00000000000E+00 0. -1.
        -11    1    5    5    0    0 -0.20352848733E+03  0.44671123797E+03 -0.12879872287E+03  0.50750752339E+03  0.00000000000E+00 0.  1.
          1    1    6    6  503    0  0.97198260614E+02  0.13682392063E+03 -0.42756522645E+02  0.17319470936E+03  0.00000000000E+00 0. -1.
         -1    1    6    6    0  503  0.18323141768E+03  0.30522172663E+03 -0.23097975304E+03  0.42436505646E+03  0.00000000000E+00 0.  1.
<mgrwt>
<rscale>  0 0.12197325E+04</rscale>
<asrwt>0</asrwt>
<pdfrwt beam="1">  1        1 0.16894592E+00 0.12197325E+04</pdfrwt>
<pdfrwt beam="2">  1       -1 0.22288330E+00 0.12197325E+04</pdfrwt>
<totfact> 0.13102610E+00</totfact>
</mgrwt>
</event>
<event>
12    1  0.1432447E-007  0.1147759E+04  0.7818608E-02  0.9159854E-01
          2   -1    0    0  501    0  0.00000000000E+00  0.00000000000E+00  0.19017005273E+04  0.19017005273E+04  0.00000000000E+00 0. -1.
         -2   -1    0    0    0  501 -0.00000000000E+00 -0.00000000000E+00 -0.73512707722E+03  0.73512707722E+03  0.00000000000E+00 0.  1.
         23    2    1    2    0    0  0.44877896721E+03 -0.97967116285E+03  0.27741745687E+03  0.11164646033E+04  0.91512929225E+02 0.  0.
    5000000    2    1    2    0    0 -0.44877896721E+03  0.97967116285E+03  0.88915599319E+03  0.15203630012E+04  0.59978923514E+03 0.  0.
         23    2    4    4    0    0 -0.46984997197E+03  0.37903896398E+03  0.32739941561E+03  0.69292209000E+03  0.92309875378E+02 0.  0.
         23    2    4    4    0    0  0.21071004761E+02  0.60063219887E+03  0.56175657758E+03  0.82744091124E+03  0.88797430046E+02 0.  0.
          2    1    3    3  502    0  0.24531852627E+03 -0.43387344215E+03  0.14547435132E+03  0.51922069492E+03  0.00000000000E+00 0. -1.
         -2    1    3    3    0  502  0.20346044093E+03 -0.54579772070E+03  0.13194310555E+03  0.59724390834E+03  0.00000000000E+00 0.  1.
         11    1    5    5    0    0 -0.40159685696E+03  0.35730476759E+03  0.30411629888E+03  0.61760299198E+03  0.00000000000E+00 0.  1.
        -11    1    5    5    0    0 -0.68253115013E+02  0.21734196394E+02  0.23283116729E+02  0.75319098020E+02  0.00000000000E+00 0. -1.
          1    1    6    6  503    0  0.47359981195E+02  0.30703767172E+03  0.32246506176E+03  0.44777094114E+03  0.00000000000E+00 0. -1.
         -1    1    6    6    0  503 -0.26288976434E+02  0.29359452715E+03  0.23929151582E+03  0.37966997010E+03  0.00000000000E+00 0.  1.
<mgrwt>
<rscale>  0 0.11477588E+04</rscale>
<asrwt>0</asrwt>
<pdfrwt beam="1">  1        2 0.29256931E+00 0.11477588E+04</pdfrwt>
<pdfrwt beam="2">  1       -2 0.11309647E+00 0.11477588E+04</pdfrwt>
<totfact> 0.45691942E+00</totfact>
</mgrwt>
</event>
<event>
12    1  0.1432447E-007  0.4488997E+03  0.7818608E-02  0.1028051E+00
          2   -1    0    0  501    0  0.00000000000E+00  0.00000000000E+00  0.20937865868E+04  0.20937865868E+04  0.00000000000E+00 0. -1.
         -2   -1    0    0    0  501 -0.00000000000E+00 -0.00000000000E+00 -0.14016688487E+03  0.14016688487E+03  0.00000000000E+00 0.  1.
         23    2    1    2    0    0 -0.20731444390E+03  0.20072959255E+03  0.11553764493E+04  0.11944872565E+04  0.92916189281E+02 0.  0.
    5000000    2    1    2    0    0  0.20731444390E+03 -0.20072959255E+03  0.79824325264E+03  0.10394662152E+04  0.60002172817E+03 0.  0.
         23    2    4    4    0    0  0.12599293154E+02  0.16871173273E+03  0.44315650197E+03  0.48393799339E+03  0.95843128344E+02 0.  0.
         23    2    4    4    0    0  0.19471515075E+03 -0.36944132528E+03  0.35508675066E+03  0.55552822186E+03  0.90133911617E+02 0.  0.
          3    1    3    3  502    0 -0.94742904637E+02  0.76341957931E+02  0.31824905042E+03  0.34071508716E+03  0.00000000000E+00 0. -1.
         -3    1    3    3    0  502 -0.11257153926E+03  0.12438763462E+03  0.83712739891E+03  0.85377216932E+03  0.00000000000E+00 0.  1.
         11    1    5    5    0    0 -0.36154027538E+02  0.46629486009E+02  0.95490014795E+02  0.11224867749E+03  0.00000000000E+00 0. -1.
        -11    1    5    5    0    0  0.48753320692E+02  0.12208224672E+03  0.34766648718E+03  0.37168931590E+03  0.00000000000E+00 0.  1.
          1    1    6    6  503    0  0.10601496514E+03 -0.21759610836E+03  0.26147758235E+03  0.35631133195E+03  0.00000000000E+00 0. -1.
         -1    1    6    6    0  503  0.88700185613E+02 -0.15184521692E+03  0.93609168312E+02  0.19921688990E+03  0.00000000000E+00 0.  1.
<mgrwt>
<rscale>  0 0.44889972E+03</rscale>
<asrwt>0</asrwt>
<pdfrwt beam="1">  1        2 0.32212099E+00 0.44889972E+03</pdfrwt>
<pdfrwt beam="2">  1       -2 0.21564138E-01 0.44889972E+03</pdfrwt>
<totfact> 0.11841471E+02</totfact>
</mgrwt>
</event>
<event>
12    1  0.1432447E-007  0.7833310E+03  0.7818608E-02  0.9584463E-01
         -1   -1    0    0    0  501 -0.00000000000E+00  0.00000000000E+00  0.11332000276E+04  0.11332000276E+04  0.00000000000E+00 0.  1.
          1   -1    0    0  501    0  0.00000000000E+00 -0.00000000000E+00 -0.93279792780E+03  0.93279792780E+03  0.00000000000E+00 0. -1.
         23    2    1    2    0    0 -0.63817358541E+03 -0.32212965393E+03 -0.51857042949E+03  0.88779843034E+03  0.90761905667E+02 0.  0.
    5000000    2    1    2    0    0  0.63817358541E+03  0.32212965393E+03  0.71897252930E+03  0.11781995251E+04  0.60016629691E+03 0.  0.
         23    2    4    4    0    0  0.46116966590E+03 -0.13429873700E+02  0.61538558403E+03  0.77426238626E+03  0.89022488709E+02 0.  0.
         23    2    4    4    0    0  0.17700391952E+03  0.33555952763E+03  0.10358694528E+03  0.40393713882E+03  0.92219156269E+02 0.  0.
          2    1    3    3  502    0 -0.25588911111E+02  0.50503025258E+01 -0.20519703574E+02  0.33186686520E+02  0.00000000000E+00 0. -1.
         -2    1    3    3    0  502 -0.61258467430E+03 -0.32717995645E+03 -0.49805072592E+03  0.85461174382E+03  0.00000000000E+00 0.  1.
         11    1    5    5    0    0  0.22902852076E+03  0.91498022138E+01  0.23653982431E+03  0.32937648776E+03  0.00000000000E+00 0.  1.
        -11    1    5    5    0    0  0.23214114513E+03 -0.22579675914E+02  0.37884575972E+03  0.44488589850E+03  0.00000000000E+00 0. -1.
          2    1    6    6  503    0  0.71030689376E+02  0.19558034177E+03  0.93378825990E+02  0.22807155470E+03  0.00000000000E+00 0. -1.
         -2    1    6    6    0  503  0.10597323014E+03  0.13997918586E+03  0.10208119289E+02  0.17586558412E+03  0.00000000000E+00 0.  1.
<mgrwt>
<rscale>  0 0.78333096E+03</rscale>
<asrwt>0</asrwt>
<pdfrwt beam="1">  1        1 0.14350737E+00 0.78333096E+03</pdfrwt>
<pdfrwt beam="2">  1       -1 0.17433846E+00 0.78333096E+03</pdfrwt>
<totfact> 0.40404358E+00</totfact>
</mgrwt>
</event>
<event>
12    1  0.1432447E-007  0.7713866E+03  0.7818608E-02  0.9602383E-01
          1   -1    0    0  501    0  0.00000000000E+00  0.00000000000E+00  0.23121976009E+04  0.23121976009E+04  0.00000000000E+00 0. -1.
         -1   -1    0    0    0  501 -0.00000000000E+00 -0.00000000000E+00 -0.33084047924E+03  0.33084047924E+03  0.00000000000E+00 0.  1.
         23    2    1    2    0    0  0.50505747418E+03 -0.45344839960E+03  0.33142302098E+03  0.76077544622E+03  0.90772007878E+02 0.  0.
    5000000    2    1    2    0    0 -0.50505747418E+03  0.45344839960E+03  0.16499341007E+04  0.18822626340E+04  0.59994298323E+03 0.  0.
         23    2    4    4    0    0  0.82013727866E+02 -0.16417281845E+02  0.10868431839E+03  0.16489409039E+03  0.91553270179E+02 0.  0.
         23    2    4    4    0    0 -0.58707120205E+03  0.46986568145E+03  0.15412497823E+04  0.17173685436E+04  0.92073166560E+02 0.  0.
          3    1    3    3  502    0  0.38245428572E+03 -0.39188275371E+03  0.26280124080E+03  0.60737786055E+03  0.00000000000E+00 0. -1.
         -3    1    3    3    0  502  0.12260318847E+03 -0.61565645888E+02  0.68621780173E+02  0.15339758567E+03  0.00000000000E+00 0.  1.
         11    1    5    5    0    0 -0.11297355381E+02 -0.13803874713E+01 -0.86009302990E+01  0.14265753054E+02  0.00000000000E+00 0. -1.
        -11    1    5    5    0    0  0.93311083247E+02 -0.15036894374E+02  0.11728524869E+03  0.15062833734E+03  0.00000000000E+00 0.  1.
          3    1    6    6  503    0 -0.23287721944E+03  0.19601719299E+03  0.52483492858E+03  0.60671759620E+03  0.00000000000E+00 0. -1.
         -3    1    6    6    0  503 -0.35419398261E+03  0.27384848846E+03  0.10164148538E+04  0.11106509474E+04  0.00000000000E+00 0.  1.
<mgrwt>
<rscale>  0 0.77138656E+03</rscale>
<asrwt>0</asrwt>
<pdfrwt beam="1">  1        1 0.35572270E+00 0.77138656E+03</pdfrwt>
<pdfrwt beam="2">  1       -1 0.50898537E-01 0.77138656E+03</pdfrwt>
<totfact> 0.74303800E+00</totfact>
</mgrwt>
</event>
<event>
12    1  0.1432447E-007  0.1809310E+04  0.7818608E-02  0.8701364E-01
          2   -1    0    0  501    0  0.00000000000E+00  0.00000000000E+00  0.22922650367E+04  0.22922650367E+04  0.00000000000E+00 0. -1.
         -2   -1    0    0    0  501 -0.00000000000E+00 -0.00000000000E+00 -0.15481477952E+04  0.15481477952E+04  0.00000000000E+00 0.  1.
         23    2    1    2    0    0  0.15308071627E+04 -0.86904692219E+03 -0.16650418863E+03  0.17697716892E+04  0.75862142667E+02 0.  0.
    5000000    2    1    2    0    0 -0.15308071627E+04  0.86904692219E+03  0.91062143018E+03  0.20706411427E+04  0.59975847649E+03 0.  0.
         23    2    4    4    0    0 -0.99242290993E+03  0.23643254866E+03  0.47273983586E+03  0.11276890525E+04  0.86000375649E+02 0.  0.
         23    2    4    4    0    0 -0.53838425280E+03  0.63261437352E+03  0.43788159432E+03  0.94295209011E+03  0.85789302010E+02 0.  0.
          1    1    3    3  502    0  0.16022860845E+03 -0.72060600542E+02 -0.32440873496E+02  0.17865706644E+03  0.00000000000E+00 0. -1.
         -1    1    3    3    0  502  0.13705785543E+04 -0.79698632164E+03 -0.13406331513E+03  0.15911146228E+04  0.00000000000E+00 0.  1.
         13    1    5    5    0    0 -0.87022989615E+03  0.23550371476E+03  0.42103425389E+03  0.99500347475E+03  0.00000000000E+00 0.  1.
        -13    1    5    5    0    0 -0.12219301378E+03  0.92883390473E+00  0.51705581972E+02  0.13268557780E+03  0.00000000000E+00 0. -1.
          4    1    6    6  503    0 -0.28024335058E+03  0.27442922718E+03  0.17910520347E+03  0.43119184846E+03  0.00000000000E+00 0. -1.
         -4    1    6    6    0  503 -0.25814090222E+03  0.35818514634E+03  0.25877639086E+03  0.51176024164E+03  0.00000000000E+00 0.  1.
<mgrwt>
<rscale>  0 0.18093101E+04</rscale>
<asrwt>0</asrwt>
<pdfrwt beam="1">  1        2 0.35265616E+00 0.18093101E+04</pdfrwt>
<pdfrwt beam="2">  1       -2 0.23817658E+00 0.18093101E+04</pdfrwt>
<totfact> 0.31614476E-01</totfact>
</mgrwt>
</event>
<event>
12    1  0.1432447E-007  0.6789277E+03  0.7818608E-02  0.9753963E-01
          1   -1    0    0  501    0  0.00000000000E+00  0.00000000000E+00  0.45031742611E+03  0.45031742611E+03  0.00000000000E+00 0. -1.
         -1   -1    0    0    0  501 -0.00000000000E+00 -0.00000000000E+00 -0.14345277486E+04  0.14345277486E+04  0.00000000000E+00 0.  1.
         23    2    1    2    0    0 -0.50486306588E+03 -0.43959324223E+03 -0.61387839120E+03  0.91272360755E+03  0.89937593300E+02 0.  0.
    5000000    2    1    2    0    0  0.50486306588E+03  0.43959324223E+03 -0.37033193126E+03  0.97212156713E+03  0.59978801927E+03 0.  0.
         23    2    4    4    0    0  0.62635339850E+02  0.11130047872E+03  0.14717880242E+03  0.21111696851E+03  0.81226794516E+02 0.  0.
         23    2    4    4    0    0  0.44222772603E+03  0.32829276351E+03 -0.51751073368E+03  0.76100459863E+03  0.89270036482E+02 0.  0.
          4    1    3    3  502    0 -0.30355741609E+03 -0.28105911573E+03 -0.43447962200E+03  0.59992822348E+03  0.00000000000E+00 0. -1.
         -4    1    3    3    0  502 -0.20130564979E+03 -0.15853412650E+03 -0.17939876920E+03  0.31279538407E+03  0.00000000000E+00 0.  1.
         13    1    5    5    0    0  0.43190508879E+02  0.99405314606E+02  0.66222652021E+02  0.12701289805E+03  0.00000000000E+00 0. -1.
        -13    1    5    5    0    0  0.19444830970E+02  0.11895164118E+02  0.80956150396E+02  0.84104070460E+02  0.00000000000E+00 0.  1.
          3    1    6    6  503    0  0.29064033545E+03  0.16613712766E+03 -0.28649662194E+03  0.44062871463E+03  0.00000000000E+00 0. -1.
         -3    1    6    6    0  503  0.15158739058E+03  0.16215563585E+03 -0.23101411174E+03  0.32037588399E+03  0.00000000000E+00 0.  1.
<mgrwt>
<rscale>  0 0.67892765E+03</rscale>
<asrwt>0</asrwt>
<pdfrwt beam="1">  1        1 0.69279604E-01 0.67892765E+03</pdfrwt>
<pdfrwt beam="2">  1       -1 0.22069658E+00 0.67892765E+03</pdfrwt>
<totfact> 0.58317579E+00</totfact>
</mgrwt>
</event>
<event>
12    1  0.1432447E-007  0.5771087E+03  0.7818608E-02  0.9954070E-01
         -2   -1    0    0    0  501 -0.00000000000E+00  0.00000000000E+00  0.21257728856E+03  0.21257728856E+03  0.00000000000E+00 0.  1.
          2   -1    0    0  501    0  0.00000000000E+00 -0.00000000000E+00 -0.20723475670E+04  0.20723475670E+04  0.00000000000E+00 0. -1.
         23    2    1    2    0    0  0.32747433464E+03 -0.39259586345E+03 -0.93791906701E+03  0.10721537488E+04  0.91926780201E+02 0.  0.
    5000000    2    1    2    0    0 -0.32747433464E+03  0.39259586345E+03 -0.92185121148E+03  0.12127711068E+04  0.59969421340E+03 0.  0.
         23    2    4    4    0    0 -0.24336520188E+03  0.46197745693E+03 -0.93250785702E+03  0.10726771307E+04  0.91736204142E+02 0.  0.
         23    2    4    4    0    0 -0.84109132763E+02 -0.69381593485E+02  0.10656645541E+02  0.14009397611E+03  0.87318991743E+02 0.  0.
          2    1    3    3  502    0  0.24924649906E+03 -0.28719699759E+03 -0.77216247282E+03  0.86072110299E+03  0.00000000000E+00 0. -1.
         -2    1    3    3    0  502  0.78227835586E+02 -0.10539886586E+03 -0.16575659419E+03  0.21143264579E+03  0.00000000000E+00 0.  1.
         11    1    5    5    0    0 -0.82600895486E+02  0.20501433632E+03 -0.31527678987E+03  0.38503667392E+03  0.00000000000E+00 0.  1.
        -11    1    5    5    0    0 -0.16076430639E+03  0.25696312062E+03 -0.61723106714E+03  0.68764045679E+03  0.00000000000E+00 0. -1.
          3    1    6    6  503    0 -0.26616105958E+02 -0.52119689126E+02 -0.31766196786E+02  0.66588064615E+02  0.00000000000E+00 0. -1.
         -3    1    6    6    0  503 -0.57493026805E+02 -0.17261904360E+02  0.42422842327E+02  0.73505911493E+02  0.00000000000E+00 0.  1.
<mgrwt>
<rscale>  0 0.57710872E+03</rscale>
<asrwt>0</asrwt>
<pdfrwt beam="1">  1        2 0.31882271E+00 0.57710872E+03</pdfrwt>
<pdfrwt beam="2">  1       -2 0.32704198E-01 0.57710872E+03</pdfrwt>
<totfact> 0.56014756E+01</totfact>
</mgrwt>
</event>
<event>
12    1  0.1432447E-007  0.6523672E+03  0.7818608E-02  0.9802347E-01
         -1   -1    0    0    0  501 -0.00000000000E+00  0.00000000000E+00  0.45764946007E+03  0.45764946007E+03  0.00000000000E+00 0.  1.
          1   -1    0    0  501    0  0.00000000000E+00 -0.00000000000E+00 -0.11309197034E+04  0.11309197034E+04  0.00000000000E+00 0. -1.
         23    2    1    2    0    0 -0.48685702309E+03  0.23981319271E+03 -0.53632351032E+03  0.76815571856E+03  0.88770332334E+02 0.  0.
    5000000    2    1    2    0    0  0.48685702309E+03 -0.23981319271E+03 -0.13694673298E+03  0.82041344489E+03  0.59981971004E+03 0.  0.
         23    2    4    4    0    0 -0.25327401809E+02 -0.24573025538E+03 -0.14493561976E+03  0.30039395934E+03  0.90583449048E+02 0.  0.
         23    2    4    4    0    0  0.51218442490E+03  0.59170626778E+01  0.79888867745E+01  0.52001948555E+03  0.89378668027E+02 0.  0.
          4    1    3    3  502    0 -0.21496956500E+03  0.11245454602E+03 -0.17931512045E+03  0.30168170514E+03  0.00000000000E+00 0.  1.
         -4    1    3    3    0  502 -0.27188745809E+03  0.12735864669E+03 -0.35700838987E+03  0.46647401342E+03  0.00000000000E+00 0. -1.
         11    1    5    5    0    0 -0.21420837443E+02 -0.14344427086E+03 -0.33056734075E+02  0.14875435721E+03  0.00000000000E+00 0. -1.
        -11    1    5    5    0    0 -0.39065643664E+01 -0.10228598452E+03 -0.11187888568E+03  0.15163960214E+03  0.00000000000E+00 0.  1.
          3    1    6    6  503    0  0.27977636181E+03  0.27296796987E+02 -0.33079043180E+02  0.28304443265E+03  0.00000000000E+00 0. -1.
         -3    1    6    6    0  503  0.23240806309E+03 -0.21379734309E+02  0.41067929955E+02  0.23697505290E+03  0.00000000000E+00 0.  1.
<mgrwt>
<rscale>  0 0.65236722E+03</rscale>
<asrwt>0</asrwt>
<pdfrwt beam="1">  1        1 0.17398765E+00 0.65236722E+03</pdfrwt>
<pdfrwt beam="2">  1       -1 0.70407610E-01 0.65236722E+03</pdfrwt>
<totfact> 0.25533366E+01</totfact>
</mgrwt>
</event>
<event>
12    1  0.1432447E-007  0.9053014E+03  0.7818608E-02  0.9418979E-01
         -2   -1    0    0    0  501 -0.00000000000E+00  0.00000000000E+00  0.51883470650E+03  0.51883470650E+03  0.00000000000E+00 0.  1.
          2   -1    0    0  501    0  0.00000000000E+00 -0.00000000000E+00 -0.16690024025E+04  0.16690024025E+04  0.00000000000E+00 0. -1.
         23    2    1    2    0    0  0.80722984687E+03 -0.19382694078E+03 -0.46491167325E+03  0.95546112445E+03  0.87029809583E+02 0.  0.
    5000000    2    1    2    0    0 -0.80722984687E+03  0.19382694078E+03 -0.68525602280E+03  0.12323759846E+04  0.59998820152E+03 0.  0.
         23    2    4    4    0    0 -0.85865525753E+03  0.17440431810E+03 -0.48163374235E+03  0.10048054176E+04  0.99785510506E+02 0.  0.
         23    2    4    4    0    0  0.51425410652E+02  0.19422622681E+02 -0.20362228045E+03  0.22757056695E+03  0.85466477127E+02 0.  0.
          3    1    3    3  502    0  0.75522582056E+03 -0.19776941297E+03 -0.45052069319E+03  0.90135879412E+03  0.00000000000E+00 0. -1.
         -3    1    3    3    0  502  0.52004026316E+02  0.39424721921E+01 -0.14390980057E+02  0.54102330329E+02  0.00000000000E+00 0.  1.
         13    1    5    5    0    0 -0.66208614218E+02  0.11076927421E+02 -0.70094920128E+02  0.97054503994E+02  0.00000000000E+00 0. -1.
        -13    1    5    5    0    0 -0.79244664331E+03  0.16332739067E+03 -0.41153882222E+03  0.90775091365E+03  0.00000000000E+00 0.  1.
          4    1    6    6  503    0  0.94863911422E+01  0.49190518238E+02 -0.10531755447E+03  0.11662540881E+03  0.00000000000E+00 0. -1.
         -4    1    6    6    0  503  0.41939019510E+02 -0.29767895557E+02 -0.98304725981E+02  0.11094515813E+03  0.00000000000E+00 0.  1.
<mgrwt>
<rscale>  0 0.90530138E+03</rscale>
<asrwt>0</asrwt>
<pdfrwt beam="1">  1        2 0.25676960E+00 0.90530138E+03</pdfrwt>
<pdfrwt beam="2">  1       -2 0.79820724E-01 0.90530138E+03</pdfrwt>
<totfact> 0.14296504E+01</totfact>
</mgrwt>
</event>
<event>
12    1  0.1432447E-007  0.6646095E+03  0.7818608E-02  0.9779745E-01
          2   -1    0    0  501    0  0.00000000000E+00  0.00000000000E+00  0.45240759990E+03  0.45240759990E+03  0.00000000000E+00 0. -1.
         -2   -1    0    0    0  501 -0.00000000000E+00 -0.00000000000E+00 -0.13176840814E+04  0.13176840814E+04  0.00000000000E+00 0.  1.
         23    2    1    2    0    0 -0.54974785121E+03  0.33089525733E+03 -0.50139654885E+03  0.81932901188E+03  0.90482922544E+02 0.  0.
    5000000    2    1    2    0    0  0.54974785121E+03 -0.33089525733E+03 -0.36387993268E+03  0.95076266946E+03  0.59985554678E+03 0.  0.
         23    2    4    4    0    0  0.11535835501E+03 -0.19433593453E+03 -0.41726682619E+03  0.48304522942E+03  0.90261198221E+02 0.  0.
         23    2    4    4    0    0  0.43438949620E+03 -0.13655932280E+03  0.53386893511E+02  0.46771744004E+03  0.92556794846E+02 0.  0.
          1    1    3    3  502    0 -0.27409599602E+03  0.16324337821E+03 -0.19214516294E+03  0.37242016487E+03  0.00000000000E+00 0. -1.
         -1    1    3    3    0  502 -0.27565185519E+03  0.16765187911E+03 -0.30925138591E+03  0.44690884700E+03  0.00000000000E+00 0.  1.
         13    1    5    5    0    0  0.99038562871E+02 -0.17789050137E+03 -0.29397939652E+03  0.35759971056E+03  0.00000000000E+00 0. -1.
        -13    1    5    5    0    0  0.16319792143E+02 -0.16445433158E+02 -0.12328742967E+03  0.12544551886E+03  0.00000000000E+00 0.  1.
          2    1    6    6  503    0  0.44503595553E+02  0.75231555907E+01 -0.12586948625E+02  0.46857221032E+02  0.00000000000E+00 0.  1.
         -2    1    6    6    0  503  0.38988590064E+03 -0.14408247839E+03  0.65973842136E+02  0.42086021901E+03  0.00000000000E+00 0. -1.
<mgrwt>
<rscale>  0 0.66460954E+03</rscale>
<asrwt>0</asrwt>
<pdfrwt beam="1">  1        2 0.69601170E-01 0.66460954E+03</pdfrwt>
<pdfrwt beam="2">  1       -2 0.20272063E+00 0.66460954E+03</pdfrwt>
<totfact> 0.90837096E+00</totfact>
</mgrwt>
</event>
<event>
12    1  0.1432447E-007  0.5012841E+03  0.7818608E-02  0.1013444E+00
          1   -1    0    0  501    0  0.00000000000E+00  0.00000000000E+00  0.29015400627E+04  0.29015400627E+04  0.00000000000E+00 0. -1.
         -1   -1    0    0    0  501 -0.00000000000E+00 -0.00000000000E+00 -0.10308028834E+03  0.10308028834E+03  0.00000000000E+00 0.  1.
         23    2    1    2    0    0 -0.17143305554E+03 -0.32221945891E+03  0.74659715174E+03  0.83589497254E+03  0.89991254648E+02 0.  0.
    5000000    2    1    2    0    0  0.17143305554E+03  0.32221945891E+03  0.20518626226E+04  0.21687253785E+04  0.60001239400E+03 0.  0.
         23    2    4    4    0    0 -0.89525332037E+02  0.34388005063E+03  0.71759492123E+03  0.80592084576E+03  0.91091516384E+02 0.  0.
         23    2    4    4    0    0  0.26095838757E+03 -0.21660591725E+02  0.13342677014E+04  0.13628045327E+04  0.91637515035E+02 0.  0.
          1    1    3    3  502    0 -0.10722126103E+03 -0.27794651934E+03  0.58912281943E+03  0.66016389087E+03  0.00000000000E+00 0. -1.
         -1    1    3    3    0  502 -0.64211794509E+02 -0.44272939562E+02  0.15747433230E+03  0.17573108167E+03  0.00000000000E+00 0.  1.
         11    1    5    5    0    0 -0.50033474525E+02  0.19284924764E+03  0.49902532284E+03  0.53732713846E+03  0.00000000000E+00 0. -1.
        -11    1    5    5    0    0 -0.39491857512E+02  0.15103080299E+03  0.21856959839E+03  0.26859370730E+03  0.00000000000E+00 0.  1.
          4    1    6    6  503    0  0.93916919476E+02 -0.42309196234E+02  0.65174289657E+03  0.65983275084E+03  0.00000000000E+00 0. -1.
         -4    1    6    6    0  503  0.16704146810E+03  0.20648604509E+02  0.68252480481E+03  0.70297178188E+03  0.00000000000E+00 0.  1.
<mgrwt>
<rscale>  0 0.50128412E+03</rscale>
<asrwt>0</asrwt>
<pdfrwt beam="1">  1        1 0.44639072E+00 0.50128412E+03</pdfrwt>
<pdfrwt beam="2">  1       -1 0.15858508E-01 0.50128412E+03</pdfrwt>
<totfact> 0.23358939E+01</totfact>
</mgrwt>
</event>
<event>
12    1  0.1432447E-007  0.1101945E+04  0.7818608E-02  0.9203298E-01
         -2   -1    0    0    0  501 -0.00000000000E+00  0.00000000000E+00  0.14076431164E+04  0.14076431164E+04  0.00000000000E+00 0.  1.
          2   -1    0    0  501    0  0.00000000000E+00 -0.00000000000E+00 -0.16424278618E+04  0.16424278618E+04  0.00000000000E+00 0. -1.
         23    2    1    2    0    0 -0.82964661341E+03  0.71320131472E+03  0.85641426499E+03  0.13924019454E+04  0.91477678745E+02 0.  0.
    5000000    2    1    2    0    0  0.82964661341E+03 -0.71320131472E+03 -0.10911990103E+04  0.16576690328E+04  0.60015141725E+03 0.  0.
         23    2    4    4    0    0  0.14014104566E+03 -0.17211836503E+03 -0.60619427009E+03  0.65193570564E+03  0.91018827371E+02 0.  0.
         23    2    4    4    0    0  0.68950556775E+03 -0.54108294969E+03 -0.48500474025E+03  0.10057333271E+04  0.89895722174E+02 0.  0.
          1    1    3    3  502    0 -0.56328310649E+03  0.49524417603E+03  0.63882357731E+03  0.98521582147E+03  0.00000000000E+00 0. -1.
         -1    1    3    3    0  502 -0.26636350693E+03  0.21795713869E+03  0.21759068768E+03  0.40718612389E+03  0.00000000000E+00 0.  1.
         13    1    5    5    0    0  0.86225499102E+02 -0.53905691282E+02 -0.35294435311E+03  0.36730147923E+03  0.00000000000E+00 0. -1.
        -13    1    5    5    0    0  0.53915546557E+02 -0.11821267375E+03 -0.25324991698E+03  0.28463422641E+03  0.00000000000E+00 0.  1.
          4    1    6    6  503    0  0.52147506127E+03 -0.43733086813E+03 -0.40967441094E+03  0.79437248865E+03  0.00000000000E+00 0. -1.
         -4    1    6    6    0  503  0.16803050648E+03 -0.10375208156E+03 -0.75330329310E+02  0.21136083849E+03  0.00000000000E+00 0.  1.
<mgrwt>
<rscale>  0 0.11019452E+04</rscale>
<asrwt>0</asrwt>
<pdfrwt beam="1">  1        2 0.25268121E+00 0.11019452E+04</pdfrwt>
<pdfrwt beam="2">  1       -2 0.21656048E+00 0.11019452E+04</pdfrwt>
<totfact> 0.10778919E+00</totfact>
</mgrwt>
</event>
<event>
12    1  0.1432447E-007  0.9743136E+03  0.7818608E-02  0.9337175E-01
          1   -1    0    0  501    0  0.00000000000E+00  0.00000000000E+00  0.16369099424E+04  0.16369099424E+04  0.00000000000E+00 0. -1.
         -1   -1    0    0    0  501 -0.00000000000E+00 -0.00000000000E+00 -0.70621887597E+03  0.70621887597E+03  0.00000000000E+00 0.  1.
         23    2    1    2    0    0 -0.50751114406E+03  0.74106656254E+03 -0.21867282781E+02  0.90313316997E+03  0.91783076801E+02 0.  0.
    5000000    2    1    2    0    0  0.50751114406E+03 -0.74106656254E+03  0.95255834917E+03  0.14399956483E+04  0.59956054509E+03 0.  0.
         23    2    4    4    0    0  0.15436566496E+03  0.66058836134E+02  0.12299482820E+03  0.22624092749E+03  0.88683150366E+02 0.  0.
         23    2    4    4    0    0  0.35314547910E+03 -0.80712539868E+03  0.82956352097E+03  0.12137547209E+04  0.94136860362E+02 0.  0.
          4    1    3    3  502    0 -0.35245779875E+03  0.48017727296E+03  0.24354586095E+02  0.59614583722E+03  0.00000000000E+00 0. -1.
         -4    1    3    3    0  502 -0.15505334530E+03  0.26088928958E+03 -0.46221868876E+02  0.30698733275E+03  0.00000000000E+00 0.  1.
         11    1    5    5    0    0  0.58792861454E+02  0.27924175157E+02  0.10234661277E+03  0.12128969149E+03  0.00000000000E+00 0. -1.
        -11    1    5    5    0    0  0.95572803507E+02  0.38134660977E+02  0.20648215428E+02  0.10495123600E+03  0.00000000000E+00 0.  1.
          1    1    6    6  503    0  0.69260550001E+02 -0.18949242841E+03  0.24365469098E+03  0.31634160752E+03  0.00000000000E+00 0. -1.
         -1    1    6    6    0  503  0.28388492910E+03 -0.61763297027E+03  0.58590882999E+03  0.89741311334E+03  0.00000000000E+00 0.  1.
<mgrwt>
<rscale>  0 0.97431363E+03</rscale>
<asrwt>0</asrwt>
<pdfrwt beam="1">  1        1 0.25183230E+00 0.97431363E+03</pdfrwt>
<pdfrwt beam="2">  1       -1 0.10864906E+00 0.97431363E+03</pdfrwt>
<totfact> 0.41785467E+00</totfact>
</mgrwt>
</event>
<event>
12    1  0.1432447E-007  0.1093205E+04  0.7818608E-02  0.9211840E-01
         -2   -1    0    0    0  501 -0.00000000000E+00  0.00000000000E+00  0.76229741656E+03  0.76229741656E+03  0.00000000000E+00 0.  1.
          2   -1    0    0  501    0  0.00000000000E+00 -0.00000000000E+00 -0.18061477550E+04  0.18061477550E+04  0.00000000000E+00 0. -1.
         23    2    1    2    0    0  0.74231051248E+03  0.75387110020E+03 -0.79608588014E+03  0.13271695048E+04  0.90992490624E+02 0.  0.
    5000000    2    1    2    0    0 -0.74231051248E+03 -0.75387110020E+03 -0.24776445832E+03  0.12412756667E+04  0.60002626726E+03 0.  0.
         23    2    4    4    0    0 -0.52192480774E+03 -0.26174539986E+03  0.90894558337E+02  0.59802501946E+03  0.91956206323E+02 0.  0.
         23    2    4    4    0    0 -0.22038570474E+03 -0.49212570034E+03 -0.33865901666E+03  0.64325064729E+03  0.91235420146E+02 0.  0.
          3    1    3    3  502    0  0.42408894210E+02  0.46807902764E+02 -0.77135162448E+02  0.99696175229E+02  0.00000000000E+00 0. -1.
         -3    1    3    3    0  502  0.69990161827E+03  0.70706319743E+03 -0.71895071769E+03  0.12274733296E+04  0.00000000000E+00 0.  1.
         13    1    5    5    0    0 -0.28696593979E+03 -0.11347692239E+03  0.85214783803E+02  0.32013750467E+03  0.00000000000E+00 0.  1.
        -13    1    5    5    0    0 -0.23495886795E+03 -0.14826847747E+03  0.56797745341E+01  0.27788751479E+03  0.00000000000E+00 0. -1.
          2    1    6    6  503    0 -0.19097244889E+03 -0.37062057048E+03 -0.29536923677E+03  0.51095309915E+03  0.00000000000E+00 0. -1.
         -2    1    6    6    0  503 -0.29413255847E+02 -0.12150512986E+03 -0.43289779883E+02  0.13229754814E+03  0.00000000000E+00 0.  1.
<mgrwt>
<rscale>  0 0.10932055E+04</rscale>
<asrwt>0</asrwt>
<pdfrwt beam="1">  1        2 0.27786888E+00 0.10932055E+04</pdfrwt>
<pdfrwt beam="2">  1       -2 0.11727653E+00 0.10932055E+04</pdfrwt>
<totfact> 0.47464237E+00</totfact>
</mgrwt>
</event>
<event>
12    1  0.1432447E-007  0.6616957E+03  0.7818608E-02  0.9785077E-01
         -1   -1    0    0    0  501 -0.00000000000E+00  0.00000000000E+00  0.61171845595E+03  0.61171845595E+03  0.00000000000E+00 0.  1.
          1   -1    0    0  501    0  0.00000000000E+00 -0.00000000000E+00 -0.88918389607E+03  0.88918389607E+03  0.00000000000E+00 0. -1.
         23    2    1    2    0    0 -0.57309695610E+03  0.14532108356E+03 -0.27572814333E+03  0.65860127983E+03  0.90395234133E+02 0.  0.
    5000000    2    1    2    0    0  0.57309695610E+03 -0.14532108356E+03 -0.17372967961E+01  0.84230107220E+03  0.59992477829E+03 0.  0.
         23    2    4    4    0    0  0.57176968304E+02 -0.19591117702E+03  0.17870341445E+03  0.28643700131E+03  0.91982881019E+02 0.  0.
         23    2    4    4    0    0  0.51591998779E+03  0.50590093459E+02 -0.18044071124E+03  0.55586407089E+03  0.87711023655E+02 0.  0.
          1    1    3    3  502    0 -0.35154500368E+03  0.13208482591E+03 -0.18769542814E+03  0.41983313899E+03  0.00000000000E+00 0. -1.
         -1    1    3    3    0  502 -0.22155195242E+03  0.13236257642E+02 -0.88032715192E+02  0.23876814084E+03  0.00000000000E+00 0.  1.
         11    1    5    5    0    0  0.58686725763E+02 -0.14318063929E+03  0.79239122426E+02  0.17384954924E+03  0.00000000000E+00 0.  1.
        -11    1    5    5    0    0 -0.15097574595E+01 -0.52730537726E+02  0.99464292020E+02  0.11258745207E+03  0.00000000000E+00 0. -1.
          2    1    6    6  503    0  0.17709081002E+03  0.15386148573E+02 -0.18623038322E+02  0.17873082028E+03  0.00000000000E+00 0. -1.
         -2    1    6    6    0  503  0.33882917778E+03  0.35203944886E+02 -0.16181767292E+03  0.37713325061E+03  0.00000000000E+00 0.  1.
<mgrwt>
<rscale>  0 0.66169567E+03</rscale>
<asrwt>0</asrwt>
<pdfrwt beam="1">  1        1 0.13679752E+00 0.66169567E+03</pdfrwt>
<pdfrwt beam="2">  1       -1 0.94110532E-01 0.66169567E+03</pdfrwt>
<totfact> 0.21112191E+01</totfact>
</mgrwt>
</event>
<event>
12    1  0.1952324E-007  0.7851936E+03  0.7818608E-02  0.9581699E-01
          2   -1    0    0  501    0  0.00000000000E+00  0.00000000000E+00  0.15479176799E+04  0.15479176799E+04  0.00000000000E+00 0.  1.
         -2   -1    0    0    0  501 -0.00000000000E+00 -0.00000000000E+00 -0.74203622311E+03  0.74203622311E+03  0.00000000000E+00 0. -1.
         23    2    1    2    0    0 -0.71381702780E+03  0.20346966004E+03 -0.32048678943E+03  0.81360677315E+03  0.91156718790E+02 0.  0.
    5000000    2    1    2    0    0  0.71381702780E+03 -0.20346966004E+03  0.11263682462E+04  0.14763471298E+04  0.59996730745E+03 0.  0.
         23    2    4    4    0    0  0.68271573205E+03 -0.26586148329E+03  0.64184865470E+03  0.97829925611E+03  0.91195613292E+02 0.  0.
         23    2    4    4    0    0  0.31101295751E+02  0.62391823255E+02  0.48451959151E+03  0.49804787374E+03  0.91828207918E+02 0.  0.
          2    1    3    3  502    0 -0.26332221028E+03  0.11206956323E+03 -0.15190082292E+03  0.32399387870E+03  0.00000000000E+00 0. -1.
         -2    1    3    3    0  502 -0.45049481752E+03  0.91400096808E+02 -0.16858596651E+03  0.48961289445E+03  0.00000000000E+00 0.  1.
         13    1    5    5    0    0  0.31674744377E+03 -0.10179727991E+03  0.34534893646E+03  0.47953885896E+03  0.00000000000E+00 0.  1.
        -13    1    5    5    0    0  0.36596828828E+03 -0.16406420338E+03  0.29649971823E+03  0.49876039716E+03  0.00000000000E+00 0. -1.
          4    1    6    6  503    0  0.41594231369E+02  0.67355354004E+02  0.22959968792E+03  0.24286383117E+03  0.00000000000E+00 0. -1.
         -4    1    6    6    0  503 -0.10492935619E+02 -0.49635307490E+01  0.25491990359E+03  0.25518404257E+03  0.00000000000E+00 0.  1.
<mgrwt>
<rscale>  0 0.78519363E+03</rscale>
<asrwt>0</asrwt>
<pdfrwt beam="1">  1        2 0.23814118E+00 0.78519363E+03</pdfrwt>
<pdfrwt beam="2">  1       -2 0.11415942E+00 0.78519363E+03</pdfrwt>
<totfact> 0.73099313E+00</totfact>
</mgrwt>
</event>
<event>
12    1  0.1432447E-007  0.1175341E+04  0.7818608E-02  0.9134718E-01
          1   -1    0    0  501    0  0.00000000000E+00  0.00000000000E+00  0.27458269209E+04  0.27458269209E+04  0.00000000000E+00 0. -1.
         -1   -1    0    0    0  501 -0.00000000000E+00 -0.00000000000E+00 -0.66188119421E+03  0.66188119421E+03  0.00000000000E+00 0.  1.
         23    2    1    2    0    0 -0.49314694291E+03 -0.98520657499E+03  0.16830358213E+03  0.11178468006E+04  0.86194380484E+02 0.  0.
    5000000    2    1    2    0    0  0.49314694291E+03  0.98520657499E+03  0.19156421446E+04  0.22898613145E+04  0.59996175785E+03 0.  0.
         23    2    4    4    0    0 -0.17434229244E+02  0.59862938119E+03  0.85463589651E+03  0.10475037519E+04  0.90556646980E+02 0.  0.
         23    2    4    4    0    0  0.51058117215E+03  0.38657719380E+03  0.10610062481E+04  0.12423575626E+04  0.87080392443E+02 0.  0.
          3    1    3    3  502    0 -0.37216563812E+03 -0.67320303853E+03  0.14154006275E+03  0.78214012980E+03  0.00000000000E+00 0. -1.
         -3    1    3    3    0  502 -0.12098130479E+03 -0.31200353646E+03  0.26763519381E+02  0.33570667083E+03  0.00000000000E+00 0.  1.
         13    1    5    5    0    0 -0.46405850235E+02  0.48757777656E+03  0.71662947395E+03  0.86801117163E+03  0.00000000000E+00 0.  1.
        -13    1    5    5    0    0  0.28971620991E+02  0.11105160463E+03  0.13800642256E+03  0.17949258030E+03  0.00000000000E+00 0. -1.
          2    1    6    6  503    0  0.27450294935E+03  0.17728849371E+03  0.47034639186E+03  0.57272053180E+03  0.00000000000E+00 0. -1.
         -2    1    6    6    0  503  0.23607822280E+03  0.20928870009E+03  0.59065985623E+03  0.66963703080E+03  0.00000000000E+00 0.  1.
<mgrwt>
<rscale>  0 0.11753412E+04</rscale>
<asrwt>0</asrwt>
<pdfrwt beam="1">  1        1 0.42243490E+00 0.11753412E+04</pdfrwt>
<pdfrwt beam="2">  1       -1 0.10182788E+00 0.11753412E+04</pdfrwt>
<totfact> 0.82936365E-01</totfact>
</mgrwt>
</event>
<event>
12    1  0.1432447E-007  0.3022358E+03  0.7818608E-02  0.1084128E+00
         -4   -1    0    0    0  501 -0.00000000000E+00  0.00000000000E+00  0.40063350354E+03  0.40063350354E+03  0.00000000000E+00 0.  1.
          4   -1    0    0  501    0  0.00000000000E+00 -0.00000000000E+00 -0.47708328203E+03  0.47708328203E+03  0.00000000000E+00 0. -1.
         23    2    1    2    0    0 -0.93995311652E+02 -0.19643384203E+03 -0.23720329606E+02  0.23724719267E+03  0.91116428187E+02 0.  0.
    5000000    2    1    2    0    0  0.93995311652E+02  0.19643384203E+03 -0.52729448882E+02  0.64046959291E+03  0.59999960980E+03 0.  0.
         23    2    4    4    0    0 -0.10965415827E+03  0.60471626527E+02  0.21584270222E+03  0.26560163521E+03  0.90968700579E+02 0.  0.
         23    2    4    4    0    0  0.20364946992E+03  0.13596221550E+03 -0.26857215111E+03  0.37486795770E+03  0.91848542255E+02 0.  0.
          2    1    3    3  502    0 -0.56001178241E+02 -0.99485877600E+02  0.32781755494E+02  0.11877800848E+03  0.00000000000E+00 0. -1.
         -2    1    3    3    0  502 -0.37994133412E+02 -0.96947964427E+02 -0.56502085100E+02  0.11846918418E+03  0.00000000000E+00 0.  1.
         11    1    5    5    0    0 -0.85916754578E+02  0.13044830058E+02  0.18464006205E+03  0.20406814749E+03  0.00000000000E+00 0. -1.
        -11    1    5    5    0    0 -0.23737403691E+02  0.47426796469E+02  0.31202640178E+02  0.61533487724E+02  0.00000000000E+00 0.  1.
          2    1    6    6  503    0  0.76613240190E+02  0.36296745490E+02 -0.15756553721E+03  0.17892439974E+03  0.00000000000E+00 0. -1.
         -2    1    6    6    0  503  0.12703622973E+03  0.99665470010E+02 -0.11100661390E+03  0.19594355796E+03  0.00000000000E+00 0.  1.
<mgrwt>
<rscale>  0 0.30223580E+03</rscale>
<asrwt>0</asrwt>
<pdfrwt beam="1">  1        4 0.73397428E-01 0.30223580E+03</pdfrwt>
<pdfrwt beam="2">  1       -4 0.61635923E-01 0.30223580E+03</pdfrwt>
<totfact> 0.78789680E+00</totfact>
</mgrwt>
</event>
<event>
12    1  0.1432447E-007  0.1067230E+04  0.7818608E-02  0.9237734E-01
          1   -1    0    0  501    0  0.00000000000E+00  0.00000000000E+00  0.25763818033E+04  0.25763818033E+04  0.00000000000E+00 0. -1.
         -1   -1    0    0    0  501 -0.00000000000E+00 -0.00000000000E+00 -0.45997647826E+03  0.45997647826E+03  0.00000000000E+00 0.  1.
         23    2    1    2    0    0  0.67926185962E+03  0.71420069699E+03  0.71481762960E+03  0.12208916065E+04  0.90181825371E+02 0.  0.
    5000000    2    1    2    0    0 -0.67926185962E+03 -0.71420069699E+03  0.14015876955E+04  0.18154666751E+04  0.59999322571E+03 0.  0.
         23    2    4    4    0    0  0.83048003464E+02 -0.13858489875E+03  0.14939748486E+03  0.23732789280E+03  0.88894179673E+02 0.  0.
         23    2    4    4    0    0 -0.76230986308E+03 -0.57561579824E+03  0.12521902106E+04  0.15781387823E+04  0.10045804194E+03 0.  0.
          1    1    3    3  502    0  0.32243043063E+03  0.40395015443E+03  0.37965084684E+03  0.64130482251E+03  0.00000000000E+00 0. -1.
         -1    1    3    3    0  502  0.35683142898E+03  0.31025054256E+03  0.33516678276E+03  0.57958678395E+03  0.00000000000E+00 0.  1.
         11    1    5    5    0    0 -0.31097010414E+01 -0.80338218777E+02  0.66141116686E+02  0.10410834238E+03  0.00000000000E+00 0. -1.
        -11    1    5    5    0    0  0.86157704506E+02 -0.58246679971E+02  0.83256368173E+02  0.13321955042E+03  0.00000000000E+00 0.  1.
          3    1    6    6  503    0 -0.61748648751E+03 -0.51216490215E+03  0.10363387407E+04  0.13105725599E+04  0.00000000000E+00 0. -1.
         -3    1    6    6    0  503 -0.14482337557E+03 -0.63450896088E+02  0.21585146996E+03  0.26756622247E+03  0.00000000000E+00 0.  1.
<mgrwt>
<rscale>  0 0.10672296E+04</rscale>
<asrwt>0</asrwt>
<pdfrwt beam="1">  1        1 0.39636642E+00 0.10672296E+04</pdfrwt>
<pdfrwt beam="2">  1       -1 0.70765614E-01 0.10672296E+04</pdfrwt>
<totfact> 0.24436131E+00</totfact>
</mgrwt>
</event>
<event>
12    1  0.1432447E-007  0.4395421E+03  0.7818608E-02  0.1030887E+00
         -2   -1    0    0    0  501 -0.00000000000E+00  0.00000000000E+00  0.43132482657E+03  0.43132482657E+03  0.00000000000E+00 0.  1.
          2   -1    0    0  501    0  0.00000000000E+00 -0.00000000000E+00 -0.81474188292E+03  0.81474188292E+03  0.00000000000E+00 0. -1.
         23    2    1    2    0    0 -0.18918667902E+03  0.26202040488E+03  0.16245723151E+03  0.37285537546E+03  0.90457099484E+02 0.  0.
    5000000    2    1    2    0    0  0.18918667902E+03 -0.26202040488E+03 -0.54587428786E+03  0.87321133402E+03  0.60006083326E+03 0.  0.
         23    2    4    4    0    0  0.30819619152E+03 -0.80101941723E+02 -0.66277067049E+02  0.33802292044E+03  0.92008866917E+02 0.  0.
         23    2    4    4    0    0 -0.11900951250E+03 -0.18191846316E+03 -0.47959722081E+03  0.53518841357E+03  0.95684651372E+02 0.  0.
          3    1    3    3  502    0 -0.10021948061E+03  0.87649491091E+02  0.29945779362E+02  0.13646657936E+03  0.00000000000E+00 0. -1.
         -3    1    3    3    0  502 -0.88967198416E+02  0.17437091379E+03  0.13251145215E+03  0.23638879610E+03  0.00000000000E+00 0.  1.
         11    1    5    5    0    0  0.10698369819E+03 -0.79152519374E+01  0.16981768711E+02  0.10861189328E+03  0.00000000000E+00 0. -1.
        -11    1    5    5    0    0  0.20121249333E+03 -0.72186689786E+02 -0.83258835759E+02  0.22941102717E+03  0.00000000000E+00 0.  1.
          1    1    6    6  503    0 -0.11546989262E+03 -0.18885299633E+03 -0.41700936350E+03  0.47211816272E+03  0.00000000000E+00 0. -1.
         -1    1    6    6    0  503 -0.35396198810E+01  0.69345331756E+01 -0.62587857319E+02  0.63070250856E+02  0.00000000000E+00 0.  1.
<mgrwt>
<rscale>  0 0.43954211E+03</rscale>
<asrwt>0</asrwt>
<pdfrwt beam="1">  1        2 0.12534490E+00 0.43954211E+03</pdfrwt>
<pdfrwt beam="2">  1       -2 0.66357666E-01 0.43954211E+03</pdfrwt>
<totfact> 0.73208187E+01</totfact>
</mgrwt>
</event>
<event>
12    1  0.1432447E-007  0.7233542E+03  0.7818608E-02  0.9678106E-01
          2   -1    0    0  501    0  0.00000000000E+00  0.00000000000E+00  0.98729288025E+03  0.98729288025E+03  0.00000000000E+00 0. -1.
         -2   -1    0    0    0  501 -0.00000000000E+00 -0.00000000000E+00 -0.67525642864E+03  0.67525642864E+03  0.00000000000E+00 0.  1.
         23    2    1    2    0    0 -0.22488624171E+03 -0.65597953668E+03  0.25051925534E+03  0.74353916417E+03  0.95956329165E+02 0.  0.
    5000000    2    1    2    0    0  0.22488624171E+03  0.65597953668E+03  0.61517196273E+02  0.91901014472E+03  0.59992691756E+03 0.  0.
         23    2    4    4    0    0 -0.65088729093E+02  0.98554120062E+02 -0.18554276207E+03  0.23694424053E+03  0.88130581112E+02 0.  0.
         23    2    4    4    0    0  0.28997497081E+03  0.55742541662E+03  0.24705995834E+03  0.68206590419E+03  0.96781691769E+02 0.  0.
          3    1    3    3  502    0 -0.11036242934E+03 -0.45678399244E+03  0.17951197175E+03  0.50304674690E+03  0.00000000000E+00 0. -1.
         -3    1    3    3    0  502 -0.11452381237E+03 -0.19919554424E+03  0.71007283588E+02  0.24049241727E+03  0.00000000000E+00 0.  1.
         13    1    5    5    0    0 -0.54773911696E+02  0.75055933829E+02 -0.64252376499E+02  0.11296876777E+03  0.00000000000E+00 0. -1.
        -13    1    5    5    0    0 -0.10314817396E+02  0.23498186233E+02 -0.12129038557E+03  0.12397547276E+03  0.00000000000E+00 0.  1.
          3    1    6    6  503    0  0.17830565509E+03  0.33127112402E+03  0.96743887180E+02  0.38844928105E+03  0.00000000000E+00 0. -1.
         -3    1    6    6    0  503  0.11166931572E+03  0.22615429260E+03  0.15031607116E+03  0.29361662314E+03  0.00000000000E+00 0.  1.
<mgrwt>
<rscale>  0 0.72335416E+03</rscale>
<asrwt>0</asrwt>
<pdfrwt beam="1">  1        2 0.15189121E+00 0.72335416E+03</pdfrwt>
<pdfrwt beam="2">  1       -2 0.10388560E+00 0.72335416E+03</pdfrwt>
<totfact> 0.19731244E+01</totfact>
</mgrwt>
</event>
<event>
12    1  0.1432447E-007  0.1941229E+03  0.7818608E-02  0.1154794E+00
         -2   -1    0    0    0  501 -0.00000000000E+00  0.00000000000E+00  0.93900135014E+02  0.93900135014E+02  0.00000000000E+00 0. -1.
          2   -1    0    0  501    0  0.00000000000E+00 -0.00000000000E+00 -0.20171120754E+04  0.20171120754E+04  0.00000000000E+00 0.  1.
         23    2    1    2    0    0 -0.69154621363E+02  0.13940286911E+03 -0.15884841648E+03  0.24089709668E+03  0.92644860596E+02 0.  0.
    5000000    2    1    2    0    0  0.69154621363E+02 -0.13940286911E+03 -0.17643635239E+04  0.18701151137E+04  0.60011363305E+03 0.  0.
         23    2    4    4    0    0  0.77539262821E+01 -0.52803291266E+02 -0.84644357033E+01  0.10875723094E+03  0.94383142922E+02 0.  0.
         23    2    4    4    0    0  0.61400695081E+02 -0.86599577848E+02 -0.17558990882E+04  0.17613578828E+04  0.89053080391E+02 0.  0.
          3    1    3    3  502    0 -0.38526486348E+02  0.10839051272E+03 -0.53457255741E+02  0.12684822265E+03  0.00000000000E+00 0. -1.
         -3    1    3    3    0  502 -0.30628135015E+02  0.31012356391E+02 -0.10539116074E+03  0.11404887403E+03  0.00000000000E+00 0.  1.
         11    1    5    5    0    0 -0.28895331536E+02  0.13647027863E+02  0.26287368151E+01  0.32063870810E+02  0.00000000000E+00 0.  1.
        -11    1    5    5    0    0  0.36649257819E+02 -0.66450319129E+02 -0.11093172518E+02  0.76693360126E+02  0.00000000000E+00 0. -1.
          3    1    6    6  503    0  0.69989586490E+02 -0.88653007876E+02 -0.11805579051E+04  0.11859489303E+04  0.00000000000E+00 0. -1.
         -3    1    6    6    0  503 -0.85888914088E+01  0.20534300284E+01 -0.57534118310E+03  0.57540895248E+03  0.00000000000E+00 0.  1.
<mgrwt>
<rscale>  0 0.19412286E+03</rscale>
<asrwt>0</asrwt>
<pdfrwt beam="1">  1        2 0.31032490E+00 0.19412286E+03</pdfrwt>
<pdfrwt beam="2">  1       -2 0.14446176E-01 0.19412286E+03</pdfrwt>
<totfact> 0.27177518E+02</totfact>
</mgrwt>
</event>
<event>
12    1  0.1432447E-007  0.1676201E+04  0.7818608E-02  0.8775055E-01
          2   -1    0    0  501    0  0.00000000000E+00  0.00000000000E+00  0.10936571733E+04  0.10936571733E+04  0.00000000000E+00 0. -1.
         -2   -1    0    0    0  501 -0.00000000000E+00 -0.00000000000E+00 -0.28555696469E+04  0.28555696469E+04  0.00000000000E+00 0.  1.
         23    2    1    2    0    0  0.15676518368E+03  0.16394221216E+04 -0.13915466757E+04  0.21577059205E+04  0.83740509339E+02 0.  0.
    5000000    2    1    2    0    0 -0.15676518368E+03 -0.16394221216E+04 -0.37036579792E+03  0.17915208998E+04  0.60008007334E+03 0.  0.
         23    2    4    4    0    0  0.98639431676E+02 -0.10718524797E+04 -0.42335882887E+03  0.11600612496E+04  0.88949024886E+02 0.  0.
         23    2    4    4    0    0 -0.25540461536E+03 -0.56756964185E+03  0.52993030953E+02  0.63145965016E+03  0.92553835962E+02 0.  0.
          1    1    3    3  502    0  0.44705682288E+02  0.18850137407E+03 -0.15779733178E+03  0.24986269024E+03  0.00000000000E+00 0. -1.
         -1    1    3    3    0  502  0.11205950140E+03  0.14509207475E+04 -0.12337493439E+04  0.19078432302E+04  0.00000000000E+00 0.  1.
         11    1    5    5    0    0  0.83983479969E+02 -0.10209761408E+04 -0.41945444870E+03  0.11069722397E+04  0.00000000000E+00 0.  1.
        -11    1    5    5    0    0  0.14655951707E+02 -0.50876338980E+02 -0.39043801699E+01  0.53089009908E+02  0.00000000000E+00 0. -1.
          1    1    6    6  503    0 -0.97967117901E+02 -0.30021114652E+03  0.58384660733E+02  0.32114335942E+03  0.00000000000E+00 0. -1.
         -1    1    6    6    0  503 -0.15743749746E+03 -0.26735849533E+03 -0.53916297798E+01  0.31031629074E+03  0.00000000000E+00 0.  1.
<mgrwt>
<rscale>  0 0.16762013E+04</rscale>
<asrwt>0</asrwt>
<pdfrwt beam="1">  1        2 0.16825495E+00 0.16762013E+04</pdfrwt>
<pdfrwt beam="2">  1       -2 0.43931840E+00 0.16762013E+04</pdfrwt>
<totfact> 0.83384160E-02</totfact>
</mgrwt>
</event>
<event>
12    1  0.1432447E-007  0.7587735E+03  0.7818608E-02  0.9621686E-01
          2   -1    0    0  501    0  0.00000000000E+00  0.00000000000E+00  0.91848900523E+03  0.91848900523E+03  0.00000000000E+00 0. -1.
         -2   -1    0    0    0  501 -0.00000000000E+00 -0.00000000000E+00 -0.10174049922E+04  0.10174049922E+04  0.00000000000E+00 0.  1.
         23    2    1    2    0    0 -0.73004226299E+03  0.18355246575E+03  0.39362749236E+03  0.85444618814E+03  0.92100337962E+02 0.  0.
    5000000    2    1    2    0    0  0.73004226299E+03 -0.18355246575E+03 -0.49254347934E+03  0.10814478093E+04  0.60023084876E+03 0.  0.
         23    2    4    4    0    0  0.40164742897E+03 -0.93643466993E+02 -0.58079637002E+03  0.71835539628E+03  0.92845548260E+02 0.  0.
         23    2    4    4    0    0  0.32839483402E+03 -0.89908998753E+02  0.88252890671E+02  0.36309241304E+03  0.90115107663E+02 0.  0.
          4    1    3    3  502    0 -0.30520185549E+03  0.11699905800E+03  0.19666583131E+03  0.38146349940E+03  0.00000000000E+00 0. -1.
         -4    1    3    3    0  502 -0.42484040750E+03  0.66553407751E+02  0.19696166104E+03  0.47298268874E+03  0.00000000000E+00 0.  1.
         11    1    5    5    0    0  0.24625344401E+03 -0.50532542563E+02 -0.27460432515E+03  0.37229266973E+03  0.00000000000E+00 0.  1.
        -11    1    5    5    0    0  0.15539398496E+03 -0.43110924431E+02 -0.30619204486E+03  0.34606272655E+03  0.00000000000E+00 0. -1.
          1    1    6    6  503    0  0.24231860922E+03 -0.32345906442E+02  0.87146847097E+02  0.25953639243E+03  0.00000000000E+00 0. -1.
         -1    1    6    6    0  503  0.86076224802E+02 -0.57563092310E+02  0.11060435743E+01  0.10355602061E+03  0.00000000000E+00 0.  1.
<mgrwt>
<rscale>  0 0.75877353E+03</rscale>
<asrwt>0</asrwt>
<pdfrwt beam="1">  1        2 0.14130600E+00 0.75877353E+03</pdfrwt>
<pdfrwt beam="2">  1       -2 0.15652385E+00 0.75877353E+03</pdfrwt>
<totfact> 0.77463776E+00</totfact>
</mgrwt>
</event>
<event>
12    1  0.1432447E-007  0.5632185E+03  0.7818608E-02  0.9984798E-01
          1   -1    0    0  501    0  0.00000000000E+00  0.00000000000E+00  0.17252663851E+04  0.17252663851E+04  0.00000000000E+00 0.  1.
         -1   -1    0    0    0  501 -0.00000000000E+00 -0.00000000000E+00 -0.41838660306E+03  0.41838660306E+03  0.00000000000E+00 0. -1.
         23    2    1    2    0    0 -0.12218347831E+02 -0.46354656168E+03 -0.15395671668E+03  0.49763125761E+03  0.94390121634E+02 0.  0.
    5000000    2    1    2    0    0  0.12218347831E+02  0.46354656168E+03  0.14608364987E+04  0.16460217306E+04  0.60026623977E+03 0.  0.
         23    2    4    4    0    0 -0.61341350169E+02 -0.69795664362E+02  0.60593636921E+02  0.14313332682E+03  0.90450895008E+02 0.  0.
         23    2    4    4    0    0  0.73559698001E+02  0.53334222605E+03  0.14002428618E+04  0.15028884038E+04  0.90158320826E+02 0.  0.
          1    1    3    3  502    0  0.15370831829E+02 -0.65461763333E+02 -0.54056911198E+02  0.86276616635E+02  0.00000000000E+00 0. -1.
         -1    1    3    3    0  502 -0.27589179660E+02 -0.39808479835E+03 -0.99899805486E+02  0.41135464097E+03  0.00000000000E+00 0.  1.
         13    1    5    5    0    0 -0.55838197475E+02 -0.76832931332E+01  0.25686108811E+00  0.56364911676E+02  0.00000000000E+00 0.  1.
        -13    1    5    5    0    0 -0.55031526946E+01 -0.62112371229E+02  0.60336775833E+02  0.86768415147E+02  0.00000000000E+00 0. -1.
          3    1    6    6  503    0  0.74695383194E+02  0.34080660022E+03  0.80725121502E+03  0.87942200517E+03  0.00000000000E+00 0. -1.
         -3    1    6    6    0  503 -0.11356851935E+01  0.19253562582E+03  0.59299164680E+03  0.62346639859E+03  0.00000000000E+00 0.  1.
<mgrwt>
<rscale>  0 0.56321849E+03</rscale>
<asrwt>0</asrwt>
<pdfrwt beam="1">  1        1 0.26542559E+00 0.56321849E+03</pdfrwt>
<pdfrwt beam="2">  1       -1 0.64367171E-01 0.56321849E+03</pdfrwt>
<totfact> 0.12052353E+01</totfact>
</mgrwt>
</event>
<event>
12    1  0.1432447E-007  0.9046031E+03  0.7818608E-02  0.9419846E-01
          2   -1    0    0  501    0  0.00000000000E+00  0.00000000000E+00  0.28941438477E+04  0.28941438477E+04  0.00000000000E+00 0. -1.
         -2   -1    0    0    0  501 -0.00000000000E+00 -0.00000000000E+00 -0.34851252070E+03  0.34851252070E+03  0.00000000000E+00 0.  1.
         23    2    1    2    0    0 -0.28085134440E+03 -0.78129448327E+03  0.55175795080E+03  0.10010625362E+04  0.91601407990E+02 0.  0.
    5000000    2    1    2    0    0  0.28085134440E+03  0.78129448327E+03  0.19938733762E+04  0.22415938321E+04  0.59992776295E+03 0.  0.
         23    2    4    4    0    0  0.37215078851E+03  0.31607886394E+03  0.68179163009E+03  0.84361313191E+03  0.91876176728E+02 0.  0.
         23    2    4    4    0    0 -0.91299444109E+02  0.46521561934E+03  0.13120817461E+04  0.13979807002E+04  0.89612325039E+02 0.  0.
          1    1    3    3  502    0 -0.18344075126E+03 -0.38258488441E+03  0.29863984832E+03  0.51885206177E+03  0.00000000000E+00 0. -1.
         -1    1    3    3    0  502 -0.97410593144E+02 -0.39870959886E+03  0.25311810247E+03  0.48221047446E+03  0.00000000000E+00 0.  1.
         11    1    5    5    0    0  0.42526357353E+02  0.65142810854E+02  0.15512645751E+03  0.17354046991E+03  0.00000000000E+00 0. -1.
        -11    1    5    5    0    0  0.32962443116E+03  0.25093605308E+03  0.52666517258E+03  0.67007266200E+03  0.00000000000E+00 0.  1.
          3    1    6    6  503    0 -0.10787910262E+03  0.35728571753E+03  0.10048910876E+04  0.10719594594E+04  0.00000000000E+00 0. -1.
         -3    1    6    6    0  503  0.16579658513E+02  0.10792990181E+03  0.30719065851E+03  0.32602124081E+03  0.00000000000E+00 0.  1.
<mgrwt>
<rscale>  0 0.90460307E+03</rscale>
<asrwt>0</asrwt>
<pdfrwt beam="1">  1        2 0.44525288E+00 0.90460307E+03</pdfrwt>
<pdfrwt beam="2">  1       -2 0.53617313E-01 0.90460307E+03</pdfrwt>
<totfact> 0.68691333E+00</totfact>
</mgrwt>
</event>
<event>
12    1  0.1432447E-007  0.7565329E+03  0.7818608E-02  0.9625157E-01
         -3   -1    0    0    0  501 -0.00000000000E+00  0.00000000000E+00  0.21389035394E+04  0.21389035394E+04  0.00000000000E+00 0.  1.
          3   -1    0    0  501    0  0.00000000000E+00 -0.00000000000E+00 -0.29462600421E+03  0.29462600421E+03  0.00000000000E+00 0. -1.
         23    2    1    2    0    0  0.50554885388E+03  0.39504050781E+03  0.11203596542E+04  0.12952369135E+04  0.10390505747E+03 0.  0.
    5000000    2    1    2    0    0 -0.50554885388E+03 -0.39504050781E+03  0.72391788095E+03  0.11382926300E+04  0.60001363879E+03 0.  0.
         23    2    4    4    0    0 -0.19385647629E+03  0.13374153726E+03  0.15349629323E+03  0.29552092642E+03  0.91128336589E+02 0.  0.
         23    2    4    4    0    0 -0.31169237759E+03 -0.52878204507E+03  0.57042158773E+03  0.84277170361E+03  0.90115299608E+02 0.  0.
          2    1    3    3  502    0  0.11847099099E+03  0.62787264757E+02  0.16884610783E+03  0.21560757048E+03  0.00000000000E+00 0. -1.
         -2    1    3    3    0  502  0.38707786290E+03  0.33225324306E+03  0.95151354637E+03  0.10796293431E+04  0.00000000000E+00 0.  1.
         13    1    5    5    0    0 -0.16544478960E+03  0.67177909370E+02  0.12385310603E+03  0.21731185377E+03  0.00000000000E+00 0.  1.
        -13    1    5    5    0    0 -0.28411686689E+02  0.66563627887E+02  0.29643187193E+02  0.78209072651E+02  0.00000000000E+00 0. -1.
          2    1    6    6  503    0 -0.11564040868E+03 -0.26618797184E+03  0.23062155383E+03  0.37069534872E+03  0.00000000000E+00 0. -1.
         -2    1    6    6    0  503 -0.19605196891E+03 -0.26259407323E+03  0.33980003390E+03  0.47207635489E+03  0.00000000000E+00 0.  1.
<mgrwt>
<rscale>  0 0.75653287E+03</rscale>
<asrwt>0</asrwt>
<pdfrwt beam="1">  1        3 0.45327079E-01 0.75653287E+03</pdfrwt>
<pdfrwt beam="2">  1       -3 0.32906207E+00 0.75653287E+03</pdfrwt>
<totfact> 0.33855845E-01</totfact>
</mgrwt>
</event>
<event>
12    1  0.1432447E-007  0.2989133E+03  0.7818608E-02  0.1085785E+00
          2   -1    0    0  501    0  0.00000000000E+00  0.00000000000E+00  0.22987218340E+04  0.22987218340E+04  0.00000000000E+00 0. -1.
         -2   -1    0    0    0  501 -0.00000000000E+00 -0.00000000000E+00 -0.10124896661E+03  0.10124896661E+03  0.00000000000E+00 0.  1.
         23    2    1    2    0    0 -0.13008554689E+03  0.24990526455E+03  0.80590536917E+03  0.85849067232E+03  0.90265606111E+02 0.  0.
    5000000    2    1    2    0    0  0.13008554689E+03 -0.24990526455E+03  0.13915674982E+04  0.15414801283E+04  0.60027159941E+03 0.  0.
         23    2    4    4    0    0 -0.18699732403E+02 -0.10380652810E+03  0.76157399603E+01  0.13901520193E+03  0.90231655219E+02 0.  0.
         23    2    4    4    0    0  0.14878527929E+03 -0.14609873645E+03  0.13839517583E+04  0.14024649264E+04  0.90019444307E+02 0.  0.
          2    1    3    3  502    0 -0.90990858238E+02  0.14593079741E+03  0.36014751142E+03  0.39910069394E+03  0.00000000000E+00 0.  1.
         -2    1    3    3    0  502 -0.39094688654E+02  0.10397446713E+03  0.44575785775E+03  0.45938997839E+03  0.00000000000E+00 0. -1.
         13    1    5    5    0    0 -0.86611534203E+01 -0.25282814651E+02 -0.38901376881E+02  0.47196964081E+02  0.00000000000E+00 0. -1.
        -13    1    5    5    0    0 -0.10038578982E+02 -0.78523713452E+02  0.46517116842E+02  0.91818237848E+02  0.00000000000E+00 0.  1.
          1    1    6    6  503    0  0.73607379696E+02 -0.63709314151E+02  0.37742819735E+03  0.38978066552E+03  0.00000000000E+00 0. -1.
         -1    1    6    6    0  503  0.75177899599E+02 -0.82389422296E+02  0.10065235609E+04  0.10126842609E+04  0.00000000000E+00 0.  1.
<mgrwt>
<rscale>  0 0.29891334E+03</rscale>
<asrwt>0</asrwt>
<pdfrwt beam="1">  1        2 0.35364947E+00 0.29891334E+03</pdfrwt>
<pdfrwt beam="2">  1       -2 0.15576766E-01 0.29891334E+03</pdfrwt>
<totfact> 0.16531292E+02</totfact>
</mgrwt>
</event>
<event>
12    1  0.1432447E-007  0.5007589E+03  0.7818608E-02  0.1013581E+00
         -2   -1    0    0    0  501 -0.00000000000E+00  0.00000000000E+00  0.55016999875E+03  0.55016999875E+03  0.00000000000E+00 0. -1.
          2   -1    0    0  501    0  0.00000000000E+00 -0.00000000000E+00 -0.18792879191E+04  0.18792879191E+04  0.00000000000E+00 0.  1.
         23    2    1    2    0    0 -0.21741438640E+03  0.24006885018E+03 -0.16442509046E+04  0.16782667724E+04  0.90090253204E+02 0.  0.
    5000000    2    1    2    0    0  0.21741438640E+03 -0.24006885018E+03  0.31513298424E+03  0.75119114550E+03  0.60006438912E+03 0.  0.
         23    2    4    4    0    0  0.23515770664E+03 -0.41060687685E+03  0.18105377895E+03  0.51480218713E+03  0.91343673551E+02 0.  0.
         23    2    4    4    0    0 -0.17743320245E+02  0.17053802667E+03  0.13407920528E+03  0.23638895837E+03  0.92219642134E+02 0.  0.
          2    1    3    3  502    0 -0.11789898813E+03  0.16204823103E+03 -0.80643487394E+03  0.83096149519E+03  0.00000000000E+00 0. -1.
         -2    1    3    3    0  502 -0.99515398261E+02  0.78020619149E+02 -0.83781603064E+03  0.84730527716E+03  0.00000000000E+00 0.  1.
         13    1    5    5    0    0  0.34205830685E+02 -0.13713929271E+03  0.36793471889E+02  0.14605130616E+03  0.00000000000E+00 0.  1.
        -13    1    5    5    0    0  0.20095187596E+03 -0.27346758414E+03  0.14426030706E+03  0.36875088097E+03  0.00000000000E+00 0. -1.
          2    1    6    6  503    0 -0.31966411119E+02  0.11021125104E+02  0.15954554843E+02  0.37388025605E+02  0.00000000000E+00 0.  1.
         -2    1    6    6    0  503  0.14223090874E+02  0.15951690156E+03  0.11812465044E+03  0.19900093276E+03  0.00000000000E+00 0. -1.
<mgrwt>
<rscale>  0 0.50075886E+03</rscale>
<asrwt>0</asrwt>
<pdfrwt beam="1">  1        2 0.28912122E+00 0.50075886E+03</pdfrwt>
<pdfrwt beam="2">  1       -2 0.84641539E-01 0.50075886E+03</pdfrwt>
<totfact> 0.10248974E+01</totfact>
</mgrwt>
</event>
<event>
12    1  0.1432447E-007  0.7162696E+03  0.7818608E-02  0.9689807E-01
          2   -1    0    0  501    0  0.00000000000E+00  0.00000000000E+00  0.10645002534E+04  0.10645002534E+04  0.00000000000E+00 0.  1.
         -2   -1    0    0    0  501 -0.00000000000E+00 -0.00000000000E+00 -0.12162420627E+04  0.12162420627E+04  0.00000000000E+00 0. -1.
         23    2    1    2    0    0 -0.26066673979E+02  0.65282998763E+03  0.76146255920E+03  0.10076772158E+04  0.93389923924E+02 0.  0.
    5000000    2    1    2    0    0  0.26066673979E+02 -0.65282998763E+03 -0.91320436849E+03  0.12730651004E+04  0.59990504833E+03 0.  0.
         23    2    4    4    0    0 -0.16218172827E+03 -0.10260033602E+03 -0.52919918807E+03  0.57032336651E+03  0.91581765600E+02 0.  0.
         23    2    4    4    0    0  0.18824840225E+03 -0.55022965161E+03 -0.38400518042E+03  0.70274173391E+03  0.90530853956E+02 0.  0.
          3    1    3    3  502    0 -0.24805772181E+01  0.27163976821E+03  0.38686232727E+03  0.47271215047E+03  0.00000000000E+00 0. -1.
         -3    1    3    3    0  502 -0.23586096761E+02  0.38119021942E+03  0.37460023193E+03  0.53496506531E+03  0.00000000000E+00 0.  1.
         11    1    5    5    0    0 -0.11093937018E+02 -0.14216704359E+02 -0.16779469290E+03  0.16876092286E+03  0.00000000000E+00 0.  1.
        -11    1    5    5    0    0 -0.15108779126E+03 -0.88383631661E+02 -0.36140449518E+03  0.40156244365E+03  0.00000000000E+00 0. -1.
          4    1    6    6  503    0  0.82974677971E+02 -0.14349569265E+03 -0.79353140990E+02  0.18377358890E+03  0.00000000000E+00 0.  1.
         -4    1    6    6    0  503  0.10527372428E+03 -0.40673395896E+03 -0.30465203943E+03  0.51896814500E+03  0.00000000000E+00 0. -1.
<mgrwt>
<rscale>  0 0.71626956E+03</rscale>
<asrwt>0</asrwt>
<pdfrwt beam="1">  1        2 0.16376927E+00 0.71626956E+03</pdfrwt>
<pdfrwt beam="2">  1       -2 0.18711416E+00 0.71626956E+03</pdfrwt>
<totfact> 0.38210499E+00</totfact>
</mgrwt>
</event>
<event>
12    1  0.1432447E-007  0.8778188E+03  0.7818608E-02  0.9453742E-01
          2   -1    0    0  501    0  0.00000000000E+00  0.00000000000E+00  0.18914314704E+04  0.18914314704E+04  0.00000000000E+00 0.  1.
         -2   -1    0    0    0  501 -0.00000000000E+00 -0.00000000000E+00 -0.51574620479E+03  0.51574620479E+03  0.00000000000E+00 0. -1.
         23    2    1    2    0    0 -0.53704465200E+03  0.64536472306E+03  0.25087537986E+03  0.88072625677E+03  0.88474285242E+02 0.  0.
    5000000    2    1    2    0    0  0.53704465200E+03 -0.64536472306E+03  0.11248098858E+04  0.15264514184E+04  0.59995338963E+03 0.  0.
         23    2    4    4    0    0  0.36928916724E+03 -0.62389973668E+03  0.11150394740E+04  0.13328503056E+04  0.86899586405E+02 0.  0.
         23    2    4    4    0    0  0.16775548475E+03 -0.21464986374E+02  0.97704117364E+01  0.19360111280E+03  0.93719163603E+02 0.  0.
          4    1    3    3  502    0 -0.26779235618E+03  0.31163011458E+03  0.16842535130E+03  0.44406437968E+03  0.00000000000E+00 0. -1.
         -4    1    3    3    0  502 -0.26925229582E+03  0.33373460848E+03  0.82450028564E+02  0.43666187710E+03  0.00000000000E+00 0.  1.
         13    1    5    5    0    0  0.12591129889E+02 -0.35635482660E+02  0.97500316230E+02  0.10456928728E+03  0.00000000000E+00 0.  1.
        -13    1    5    5    0    0  0.35669803735E+03 -0.58826425402E+03  0.10175391578E+04  0.12282810184E+04  0.00000000000E+00 0. -1.
          4    1    6    6  503    0 -0.43813252975E+00 -0.21993133753E+02  0.12662773000E+02  0.25381798842E+02  0.00000000000E+00 0.  1.
         -4    1    6    6    0  503  0.16819361728E+03  0.52814737938E+00 -0.28923612634E+01  0.16821931396E+03  0.00000000000E+00 0. -1.
<mgrwt>
<rscale>  0 0.87781882E+03</rscale>
<asrwt>0</asrwt>
<pdfrwt beam="1">  1        2 0.29098945E+00 0.87781882E+03</pdfrwt>
<pdfrwt beam="2">  1       -2 0.79345571E-01 0.87781882E+03</pdfrwt>
<totfact> 0.10972825E+01</totfact>
</mgrwt>
</event>
<event>
12    1  0.1432447E-007  0.7143655E+03  0.7818608E-02  0.9692976E-01
         -1   -1    0    0    0  501 -0.00000000000E+00  0.00000000000E+00  0.55780449396E+03  0.55780449396E+03  0.00000000000E+00 0.  1.
          1   -1    0    0  501    0  0.00000000000E+00 -0.00000000000E+00 -0.13090015844E+04  0.13090015844E+04  0.00000000000E+00 0. -1.
         23    2    1    2    0    0  0.47566489336E+02  0.60742954917E+03  0.14002685470E+03  0.63185816200E+03  0.91673271641E+02 0.  0.
    5000000    2    1    2    0    0 -0.47566489336E+02 -0.60742954917E+03 -0.89122394513E+03  0.12349479164E+04  0.59965240567E+03 0.  0.
         23    2    4    4    0    0 -0.12744443362E+03 -0.68248980998E+03 -0.65865374512E+03  0.96139499863E+03  0.91766895164E+02 0.  0.
         23    2    4    4    0    0  0.79877944280E+02  0.75060260802E+02 -0.23257020001E+03  0.27355291772E+03  0.93422546157E+02 0.  0.
          4    1    3    3  502    0  0.56162344037E+02  0.34463955321E+03  0.11547391437E+03  0.36778370739E+03  0.00000000000E+00 0. -1.
         -4    1    3    3    0  502 -0.85958547008E+01  0.26278999597E+03  0.24552940323E+02  0.26407445461E+03  0.00000000000E+00 0.  1.
         11    1    5    5    0    0  0.52406264884E+01 -0.14717950056E+03 -0.11360876813E+03  0.18600059609E+03  0.00000000000E+00 0.  1.
        -11    1    5    5    0    0 -0.13268506011E+03 -0.53531030942E+03 -0.54504497699E+03  0.77539440254E+03  0.00000000000E+00 0. -1.
          3    1    6    6  503    0 -0.46865520296E+01 -0.11045290607E+00 -0.96383946646E+02  0.96497881535E+02  0.00000000000E+00 0. -1.
         -3    1    6    6    0  503  0.84564496310E+02  0.75170713708E+02 -0.13618625336E+03  0.17705503619E+03  0.00000000000E+00 0.  1.
<mgrwt>
<rscale>  0 0.71436554E+03</rscale>
<asrwt>0</asrwt>
<pdfrwt beam="1">  1        1 0.20138486E+00 0.71436554E+03</pdfrwt>
<pdfrwt beam="2">  1       -1 0.85816076E-01 0.71436554E+03</pdfrwt>
<totfact> 0.12430953E+01</totfact>
</mgrwt>
</event>
<event>
12    1  0.1432447E-007  0.4351092E+03  0.7818608E-02  0.1032258E+00
          2   -1    0    0  501    0  0.00000000000E+00  0.00000000000E+00  0.25809885855E+04  0.25809885855E+04  0.00000000000E+00 0. -1.
         -2   -1    0    0    0  501 -0.00000000000E+00 -0.00000000000E+00 -0.96350504327E+02  0.96350504327E+02  0.00000000000E+00 0.  1.
         23    2    1    2    0    0  0.27713278629E+03  0.85813698636E+02  0.10899065718E+04  0.11315814650E+04  0.91726248914E+02 0.  0.
    5000000    2    1    2    0    0 -0.27713278629E+03 -0.85813698636E+02  0.13947315094E+04  0.15457576247E+04  0.59993672927E+03 0.  0.
         23    2    4    4    0    0 -0.36606711817E+02  0.18940315635E+03  0.89309346361E+03  0.91809663220E+03  0.89843666000E+02 0.  0.
         23    2    4    4    0    0 -0.24052607447E+03 -0.27521685499E+03  0.50163804575E+03  0.62766099254E+03  0.93383525538E+02 0.  0.
          4    1    3    3  502    0  0.20897473666E+03  0.94002709511E+02  0.92494233586E+03  0.95290360196E+03  0.00000000000E+00 0. -1.
         -4    1    3    3    0  502  0.68158049635E+02 -0.81890108746E+01  0.16496423591E+03  0.17867786309E+03  0.00000000000E+00 0.  1.
         11    1    5    5    0    0  0.82545985498E+01  0.13971781700E+03  0.69635704031E+03  0.71028327755E+03  0.00000000000E+00 0. -1.
        -11    1    5    5    0    0 -0.44861310367E+02  0.49685339357E+02  0.19673642330E+03  0.20781335465E+03  0.00000000000E+00 0.  1.
          3    1    6    6  503    0 -0.54352120208E+02 -0.64228757919E+02  0.18993770585E+03  0.20773978536E+03  0.00000000000E+00 0. -1.
         -3    1    6    6    0  503 -0.18617395427E+03 -0.21098809707E+03  0.31170033990E+03  0.41992120719E+03  0.00000000000E+00 0.  1.
<mgrwt>
<rscale>  0 0.43510922E+03</rscale>
<asrwt>0</asrwt>
<pdfrwt beam="1">  1        2 0.39707511E+00 0.43510922E+03</pdfrwt>
<pdfrwt beam="2">  1       -2 0.14823157E-01 0.43510922E+03</pdfrwt>
<totfact> 0.12178290E+02</totfact>
</mgrwt>
</event>
<event>
12    1  0.1432447E-007  0.8765456E+03  0.7818608E-02  0.9455385E-01
          1   -1    0    0  501    0  0.00000000000E+00  0.00000000000E+00  0.81389646759E+03  0.81389646759E+03  0.00000000000E+00 0. -1.
         -1   -1    0    0    0  501 -0.00000000000E+00 -0.00000000000E+00 -0.13159883818E+04  0.13159883818E+04  0.00000000000E+00 0.  1.
         23    2    1    2    0    0  0.55541347477E+03 -0.66791756511E+03 -0.61466151072E+03  0.10681750659E+04  0.92688710025E+02 0.  0.
    5000000    2    1    2    0    0 -0.55541347477E+03  0.66791756511E+03  0.11256959651E+03  0.10617097835E+04  0.59996478942E+03 0.  0.
         23    2    4    4    0    0 -0.27145993228E+03  0.22791209325E+03 -0.22738441959E+03  0.43008183408E+03  0.87362993573E+02 0.  0.
         23    2    4    4    0    0 -0.28395354249E+03  0.44000547185E+03  0.33995401610E+03  0.63162794940E+03  0.95659311371E+02 0.  0.
          3    1    3    3  502    0  0.22210658460E+03 -0.33834455154E+03 -0.29436210446E+03  0.50045720998E+03  0.00000000000E+00 0. -1.
         -3    1    3    3    0  502  0.33330689017E+03 -0.32957301357E+03 -0.32029940626E+03  0.56771785594E+03  0.00000000000E+00 0.  1.
         11    1    5    5    0    0 -0.68659474046E+02  0.71839717167E+02 -0.11091588694E+03  0.14892079208E+03  0.00000000000E+00 0. -1.
        -11    1    5    5    0    0 -0.20280045824E+03  0.15607237608E+03 -0.11646853265E+03  0.28116104199E+03  0.00000000000E+00 0.  1.
          2    1    6    6  503    0 -0.83128083331E+02  0.15185231217E+03  0.16533399953E+03  0.23938407288E+03  0.00000000000E+00 0. -1.
         -2    1    6    6    0  503 -0.20082545915E+03  0.28815315968E+03  0.17462001657E+03  0.39224387652E+03  0.00000000000E+00 0.  1.
<mgrwt>
<rscale>  0 0.87654563E+03</rscale>
<asrwt>0</asrwt>
<pdfrwt beam="1">  1        1 0.12521484E+00 0.87654563E+03</pdfrwt>
<pdfrwt beam="2">  1       -1 0.20245975E+00 0.87654563E+03</pdfrwt>
<totfact> 0.31752624E+00</totfact>
</mgrwt>
</event>
<event>
12    1  0.1432447E-007  0.1389077E+04  0.7818608E-02  0.8961764E-01
          2   -1    0    0  501    0  0.00000000000E+00  0.00000000000E+00  0.13342656962E+04  0.13342656962E+04  0.00000000000E+00 0. -1.
         -2   -1    0    0    0  501 -0.00000000000E+00 -0.00000000000E+00 -0.15918909083E+04  0.15918909083E+04  0.00000000000E+00 0.  1.
         23    2    1    2    0    0  0.52903916018E+03  0.12517578310E+04  0.18962959641E+03  0.13747617382E+04  0.85031479780E+02 0.  0.
    5000000    2    1    2    0    0 -0.52903916018E+03 -0.12517578310E+04 -0.44725480856E+03  0.15513948663E+04  0.60000755569E+03 0.  0.
         23    2    4    4    0    0 -0.48004307129E+03 -0.64417522879E+03 -0.46953099274E+03  0.93475688147E+03  0.88926928616E+02 0.  0.
         23    2    4    4    0    0 -0.48996088890E+02 -0.60758260223E+03  0.22276184182E+02  0.61663798483E+03  0.90492765960E+02 0.  0.
          1    1    3    3  502    0  0.30378775861E+03  0.64216180837E+03  0.12955004667E+03  0.72210941346E+03  0.00000000000E+00 0. -1.
         -1    1    3    3    0  502  0.22525140157E+03  0.60959602265E+03  0.60079549736E+02  0.65265232478E+03  0.00000000000E+00 0.  1.
         13    1    5    5    0    0 -0.50820083611E+02 -0.97511532329E+02 -0.94548501369E+02  0.14501930543E+03  0.00000000000E+00 0. -1.
        -13    1    5    5    0    0 -0.42922298768E+03 -0.54666369646E+03 -0.37498249138E+03  0.78973757605E+03  0.00000000000E+00 0.  1.
          3    1    6    6  503    0  0.48043041465E+01 -0.33543407275E+03 -0.19788268060E+02  0.33605159433E+03  0.00000000000E+00 0. -1.
         -3    1    6    6    0  503 -0.53800393036E+02 -0.27214852948E+03  0.42064452243E+02  0.28058639050E+03  0.00000000000E+00 0.  1.
<mgrwt>
<rscale>  0 0.13890766E+04</rscale>
<asrwt>0</asrwt>
<pdfrwt beam="1">  1        2 0.20527165E+00 0.13890766E+04</pdfrwt>
<pdfrwt beam="2">  1       -2 0.24490629E+00 0.13890766E+04</pdfrwt>
<totfact> 0.10387639E+00</totfact>
</mgrwt>
</event>
<event>
12    1  0.1432447E-007  0.3915657E+03  0.7818608E-02  0.1046740E+00
         -2   -1    0    0    0  501 -0.00000000000E+00  0.00000000000E+00  0.18722428651E+04  0.18722428651E+04  0.00000000000E+00 0. -1.
          2   -1    0    0  501    0  0.00000000000E+00 -0.00000000000E+00 -0.16865061922E+03  0.16865061922E+03  0.00000000000E+00 0.  1.
         23    2    1    2    0    0  0.12985307260E+01  0.22289103689E+03  0.12053431020E+04  0.12296998882E+04  0.98120950507E+02 0.  0.
    5000000    2    1    2    0    0 -0.12985307260E+01 -0.22289103689E+03  0.49824914394E+03  0.81119359620E+03  0.60008394460E+03 0.  0.
         23    2    4    4    0    0 -0.19882663202E+03 -0.27769718449E+03  0.12403306874E+03  0.37493737232E+03  0.92444984436E+02 0.  0.
         23    2    4    4    0    0  0.19752810130E+03  0.54806147602E+02  0.37421607520E+03  0.43625622388E+03  0.90888708417E+02 0.  0.
          2    1    3    3  502    0 -0.19674044511E+02  0.18223703946E+03  0.75036985640E+03  0.77243273362E+03  0.00000000000E+00 0. -1.
         -2    1    3    3    0  502  0.20972575237E+02  0.40653997426E+02  0.45497324559E+03  0.45726715454E+03  0.00000000000E+00 0.  1.
         11    1    5    5    0    0 -0.19360163318E+03 -0.28217743870E+03  0.12976082173E+03  0.36598301891E+03  0.00000000000E+00 0.  1.
        -11    1    5    5    0    0 -0.52249988455E+01  0.44802542069E+01 -0.57277529852E+01  0.89543534079E+01  0.00000000000E+00 0. -1.
          4    1    6    6  503    0  0.96517586534E+02  0.25716117321E+02  0.27148390030E+03  0.28927577037E+03  0.00000000000E+00 0. -1.
         -4    1    6    6    0  503  0.10101051476E+03  0.29090030281E+02  0.10273217490E+03  0.14698045351E+03  0.00000000000E+00 0.  1.
<mgrwt>
<rscale>  0 0.39156572E+03</rscale>
<asrwt>0</asrwt>
<pdfrwt beam="1">  1        2 0.25946250E-01 0.39156572E+03</pdfrwt>
<pdfrwt beam="2">  1       -2 0.28803735E+00 0.39156572E+03</pdfrwt>
<totfact> 0.86359551E+00</totfact>
</mgrwt>
</event>
<event>
12    1  0.1432447E-007  0.5869216E+03  0.7818608E-02  0.9932917E-01
         -1   -1    0    0    0  501 -0.00000000000E+00  0.00000000000E+00  0.92319477049E+03  0.92319477049E+03  0.00000000000E+00 0.  1.
          1   -1    0    0  501    0  0.00000000000E+00 -0.00000000000E+00 -0.39394479360E+03  0.39394479360E+03  0.00000000000E+00 0. -1.
         23    2    1    2    0    0  0.91087382001E+02 -0.42964707430E+03  0.29811436560E+03  0.53837665108E+03  0.89909531389E+02 0.  0.
    5000000    2    1    2    0    0 -0.91087382001E+02  0.42964707430E+03  0.23113561130E+03  0.77876291301E+03  0.60012872308E+03 0.  0.
         23    2    4    4    0    0 -0.19316288577E+03  0.52424722233E+03  0.12220239292E+03  0.57945949410E+03  0.93235346926E+02 0.  0.
         23    2    4    4    0    0  0.10207550377E+03 -0.94600148025E+02  0.10893321838E+03  0.19930341891E+03  0.92123885322E+02 0.  0.
          1    1    3    3  502    0  0.21058313711E+02 -0.27369381135E+03  0.15379471438E+03  0.31464991517E+03  0.00000000000E+00 0. -1.
         -1    1    3    3    0  502  0.70029068290E+02 -0.15595326295E+03  0.14431965122E+03  0.22372673591E+03  0.00000000000E+00 0.  1.
         11    1    5    5    0    0 -0.14496157260E+03  0.46869702035E+03  0.12347225340E+03  0.50590132613E+03  0.00000000000E+00 0.  1.
        -11    1    5    5    0    0 -0.48201313166E+02  0.55550201978E+02 -0.12698604834E+01  0.73558167978E+02  0.00000000000E+00 0. -1.
          2    1    6    6  503    0 -0.15881898058E+02 -0.72552701607E+01  0.17293995222E+01  0.17546066617E+02  0.00000000000E+00 0. -1.
         -2    1    6    6    0  503  0.11795740183E+03 -0.87344877864E+02  0.10720381886E+03  0.18175735229E+03  0.00000000000E+00 0.  1.
<mgrwt>
<rscale>  0 0.58692163E+03</rscale>
<asrwt>0</asrwt>
<pdfrwt beam="1">  1        1 0.60606891E-01 0.58692163E+03</pdfrwt>
<pdfrwt beam="2">  1       -1 0.14202996E+00 0.58692163E+03</pdfrwt>
<totfact> 0.25774926E+01</totfact>
</mgrwt>
</event>
<event>
12    1  0.1432447E-007  0.6709821E+03  0.7818608E-02  0.9768185E-01
         -1   -1    0    0    0  501 -0.00000000000E+00  0.00000000000E+00  0.11943990232E+04  0.11943990232E+04  0.00000000000E+00 0. -1.
          1   -1    0    0  501    0  0.00000000000E+00 -0.00000000000E+00 -0.69699744984E+03  0.69699744984E+03  0.00000000000E+00 0.  1.
         23    2    1    2    0    0 -0.16816501995E+03  0.59687441072E+03  0.76319711157E+03  0.98851886892E+03  0.10080271323E+03 0.  0.
    5000000    2    1    2    0    0  0.16816501995E+03 -0.59687441072E+03 -0.26579553822E+03  0.90287760411E+03  0.60000180313E+03 0.  0.
         23    2    4    4    0    0  0.20561917691E+03 -0.62926874213E+03 -0.36338887147E+03  0.76066636841E+03  0.91123303203E+02 0.  0.
         23    2    4    4    0    0 -0.37454156960E+02  0.32394331407E+02  0.97593333250E+02  0.14221123570E+03  0.90815033361E+02 0.  0.
          4    1    3    3  502    0 -0.88575582327E+02  0.40224329599E+03  0.56791685030E+03  0.70155174564E+03  0.00000000000E+00 0.  1.
         -4    1    3    3    0  502 -0.79589437628E+02  0.19463111473E+03  0.19528026127E+03  0.28696712328E+03  0.00000000000E+00 0. -1.
         11    1    5    5    0    0  0.61491528771E+02 -0.19402812826E+03 -0.16091778004E+03  0.25946609528E+03  0.00000000000E+00 0.  1.
        -11    1    5    5    0    0  0.14412764814E+03 -0.43524061387E+03 -0.20247109142E+03  0.50120027313E+03  0.00000000000E+00 0. -1.
          3    1    6    6  503    0 -0.29413412648E+02  0.37948908360E+02  0.40773867620E+01  0.48186030881E+02  0.00000000000E+00 0. -1.
         -3    1    6    6    0  503 -0.80407443118E+01 -0.55545769525E+01  0.93515946488E+02  0.94025204822E+02  0.00000000000E+00 0.  1.
<mgrwt>
<rscale>  0 0.67098207E+03</rscale>
<asrwt>0</asrwt>
<pdfrwt beam="1">  1        1 0.10723038E+00 0.67098207E+03</pdfrwt>
<pdfrwt beam="2">  1       -1 0.18375370E+00 0.67098207E+03</pdfrwt>
<totfact> 0.56206040E+00</totfact>
</mgrwt>
</event>
<event>
12    1  0.1432447E-007  0.1688748E+04  0.7818608E-02  0.8767808E-01
         -2   -1    0    0    0  501 -0.00000000000E+00  0.00000000000E+00  0.26457676496E+04  0.26457676496E+04  0.00000000000E+00 0.  1.
          2   -1    0    0  501    0  0.00000000000E+00 -0.00000000000E+00 -0.12107717167E+04  0.12107717167E+04  0.00000000000E+00 0. -1.
         23    2    1    2    0    0 -0.14392442130E+04 -0.86220623803E+03  0.20853301217E+03  0.16934289307E+04  0.96912458091E+02 0.  0.
    5000000    2    1    2    0    0  0.14392442130E+04  0.86220623803E+03  0.12264629208E+04  0.21631104356E+04  0.60000996583E+03 0.  0.
         23    2    4    4    0    0  0.20811601607E+03  0.10598645559E+03 -0.19845908515E+02  0.25278069717E+03  0.94651021447E+02 0.  0.
         23    2    4    4    0    0  0.12311281969E+04  0.75621978243E+03  0.12463088293E+04  0.19103297385E+04  0.92352666474E+02 0.  0.
          2    1    3    3  502    0 -0.12361765276E+04 -0.74930046720E+03  0.14648969602E+03  0.14529428167E+04  0.00000000000E+00 0. -1.
         -2    1    3    3    0  502 -0.20306768541E+03 -0.11290577083E+03  0.62043316149E+02  0.24048611400E+03  0.00000000000E+00 0.  1.
         13    1    5    5    0    0  0.19423107870E+03  0.59230592910E+02 -0.19609363266E+02  0.20400613274E+03  0.00000000000E+00 0.  1.
        -13    1    5    5    0    0  0.13884937372E+02  0.46755862684E+02 -0.23654524867E+00  0.48774564425E+02  0.00000000000E+00 0. -1.
          4    1    6    6  503    0  0.41761426320E+03  0.30842892104E+03  0.44409678578E+03  0.68319252580E+03  0.00000000000E+00 0. -1.
         -4    1    6    6    0  503  0.81351393372E+03  0.44779086139E+03  0.80221204356E+03  0.12271372127E+04  0.00000000000E+00 0.  1.
<mgrwt>
<rscale>  0 0.16887476E+04</rscale>
<asrwt>0</asrwt>
<pdfrwt beam="1">  1        2 0.18627257E+00 0.16887476E+04</pdfrwt>
<pdfrwt beam="2">  1       -2 0.40704118E+00 0.16887476E+04</pdfrwt>
<totfact> 0.11542327E-01</totfact>
</mgrwt>
</event>
<event>
12    1  0.1432447E-007  0.1028341E+04  0.7818608E-02  0.9277996E-01
          1   -1    0    0  501    0  0.00000000000E+00  0.00000000000E+00  0.96540912468E+03  0.96540912468E+03  0.00000000000E+00 0. -1.
         -1   -1    0    0    0  501 -0.00000000000E+00 -0.00000000000E+00 -0.12466444846E+04  0.12466444846E+04  0.00000000000E+00 0.  1.
         23    2    1    2    0    0  0.58084112206E+03  0.80766099833E+03  0.61760773082E+02  0.10007455534E+04  0.89356433731E+02 0.  0.
    5000000    2    1    2    0    0 -0.58084112206E+03 -0.80766099833E+03 -0.34299613305E+03  0.12113080559E+04  0.59994013180E+03 0.  0.
         23    2    4    4    0    0 -0.55563971909E+03 -0.56499819350E+03 -0.46500097562E+03  0.92332911567E+03  0.91390877136E+02 0.  0.
         23    2    4    4    0    0 -0.25201402972E+02 -0.24266280483E+03  0.12200484257E+03  0.28797894025E+03  0.92338187435E+02 0.  0.
          2    1    3    3  502    0  0.27177203447E+03  0.30524082158E+03  0.36717649903E+02  0.41034154517E+03  0.00000000000E+00 0. -1.
         -2    1    3    3    0  502  0.30906908759E+03  0.50242017675E+03  0.25043123178E+02  0.59040400822E+03  0.00000000000E+00 0.  1.
         13    1    5    5    0    0 -0.23875405611E+03 -0.30546468376E+03 -0.21174101329E+03  0.44175381044E+03  0.00000000000E+00 0.  1.
        -13    1    5    5    0    0 -0.31688566298E+03 -0.25953350974E+03 -0.25325996233E+03  0.48157530522E+03  0.00000000000E+00 0. -1.
          2    1    6    6  503    0  0.34891485206E+02 -0.75448990509E+02  0.41450992840E+02  0.92887839442E+02  0.00000000000E+00 0. -1.
         -2    1    6    6    0  503 -0.60092888178E+02 -0.16721381432E+03  0.80553849731E+02  0.19509110081E+03  0.00000000000E+00 0.  1.
<mgrwt>
<rscale>  0 0.10283410E+04</rscale>
<asrwt>0</asrwt>
<pdfrwt beam="1">  1        1 0.14852448E+00 0.10283410E+04</pdfrwt>
<pdfrwt beam="2">  1       -1 0.19179146E+00 0.10283410E+04</pdfrwt>
<totfact> 0.27665331E+00</totfact>
</mgrwt>
</event>
<event>
12    1  0.1432447E-007  0.9814900E+03  0.7818608E-02  0.9329082E-01
          2   -1    0    0  501    0  0.00000000000E+00  0.00000000000E+00  0.61878727057E+03  0.61878727057E+03  0.00000000000E+00 0. -1.
         -2   -1    0    0    0  501 -0.00000000000E+00 -0.00000000000E+00 -0.18485595398E+04  0.18485595398E+04  0.00000000000E+00 0.  1.
         23    2    1    2    0    0  0.66171633143E+03  0.67360319230E+03 -0.88397243092E+03  0.12964083029E+04  0.87506944309E+02 0.  0.
    5000000    2    1    2    0    0 -0.66171633143E+03 -0.67360319230E+03 -0.34579983829E+03  0.11709385074E+04  0.59992474198E+03 0.  0.
         23    2    4    4    0    0 -0.66751867519E+03 -0.70028651585E+03 -0.41109584089E+03  0.10550801835E+04  0.90620181193E+02 0.  0.
         23    2    4    4    0    0  0.58023437609E+01  0.26683323557E+02  0.65296002601E+02  0.11585832390E+03  0.91727402188E+02 0.  0.
          2    1    3    3  502    0  0.17057417828E+03  0.14408718058E+03 -0.25235085409E+03  0.33695343812E+03  0.00000000000E+00 0. -1.
         -2    1    3    3    0  502  0.49114215315E+03  0.52951601172E+03 -0.63162157683E+03  0.95945486480E+03  0.00000000000E+00 0.  1.
         13    1    5    5    0    0 -0.47518289166E+03 -0.44507332943E+03 -0.25247998169E+03  0.69830880723E+03  0.00000000000E+00 0.  1.
        -13    1    5    5    0    0 -0.19233578354E+03 -0.25521318642E+03 -0.15861585921E+03  0.35677137630E+03  0.00000000000E+00 0. -1.
          3    1    6    6  503    0  0.16674669543E+02 -0.13816932443E+01 -0.19608634909E+02  0.25776971187E+02  0.00000000000E+00 0. -1.
         -3    1    6    6    0  503 -0.10872325782E+02  0.28065016801E+02  0.84904637510E+02  0.90081352713E+02  0.00000000000E+00 0.  1.
<mgrwt>
<rscale>  0 0.98148999E+03</rscale>
<asrwt>0</asrwt>
<pdfrwt beam="1">  1        2 0.95198043E-01 0.98148999E+03</pdfrwt>
<pdfrwt beam="2">  1       -2 0.28439377E+00 0.98148999E+03</pdfrwt>
<totfact> 0.19021765E+00</totfact>
</mgrwt>
</event>
<event>
12    1  0.1432447E-007  0.1716157E+04  0.7818608E-02  0.8752203E-01
         -2   -1    0    0    0  501 -0.00000000000E+00  0.00000000000E+00  0.10756474707E+04  0.10756474707E+04  0.00000000000E+00 0. -1.
          2   -1    0    0  501    0  0.00000000000E+00 -0.00000000000E+00 -0.40340460046E+04  0.40340460046E+04  0.00000000000E+00 0.  1.
         23    2    1    2    0    0 -0.34994532595E+03  0.16385617191E+04 -0.24420070885E+02  0.16781510262E+04  0.90820087911E+02 0.  0.
    5000000    2    1    2    0    0  0.34994532595E+03 -0.16385617191E+04 -0.29339784630E+04  0.34315424491E+04  0.59992309499E+03 0.  0.
         23    2    4    4    0    0 -0.12685083230E+02 -0.11093612115E+04 -0.20763183959E+04  0.23558195976E+04  0.89132968130E+02 0.  0.
         23    2    4    4    0    0  0.36263040918E+03 -0.52920050758E+03 -0.85766006708E+03  0.10757228515E+04  0.10022410744E+03 0.  0.
          2    1    3    3  502    0 -0.29036394510E+03  0.12448426648E+04  0.11725313958E+02  0.12783121543E+04  0.00000000000E+00 0.  1.
         -2    1    3    3    0  502 -0.59581380849E+02  0.39371905432E+03 -0.36145384843E+02  0.39983887195E+03  0.00000000000E+00 0. -1.
         11    1    5    5    0    0  0.21430208256E+02 -0.45413432464E+03 -0.77691919371E+03  0.90016702461E+03  0.00000000000E+00 0.  1.
        -11    1    5    5    0    0 -0.34115291486E+02 -0.65522688690E+03 -0.12993992022E+04  0.14556525729E+04  0.00000000000E+00 0. -1.
          1    1    6    6  503    0  0.33067389232E+03 -0.44040751338E+03 -0.68479225105E+03  0.87877438971E+03  0.00000000000E+00 0. -1.
         -1    1    6    6    0  503  0.31956516866E+02 -0.88792994196E+02 -0.17286781603E+03  0.19694846180E+03  0.00000000000E+00 0.  1.
<mgrwt>
<rscale>  0 0.17161566E+04</rscale>
<asrwt>0</asrwt>
<pdfrwt beam="1">  1        2 0.62062245E+00 0.17161566E+04</pdfrwt>
<pdfrwt beam="2">  1       -2 0.16548423E+00 0.17161566E+04</pdfrwt>
<totfact> 0.68719349E-02</totfact>
</mgrwt>
</event>
<event>
12    1  0.1432447E-007  0.1097822E+04  0.7818608E-02  0.9207318E-01
          1   -1    0    0  501    0  0.00000000000E+00  0.00000000000E+00  0.78179578701E+03  0.78179578701E+03  0.00000000000E+00 0. -1.
         -1   -1    0    0    0  501 -0.00000000000E+00 -0.00000000000E+00 -0.17475429912E+04  0.17475429912E+04  0.00000000000E+00 0.  1.
         23    2    1    2    0    0  0.10309258407E+04  0.26366792415E+03 -0.19734838545E+03  0.10861205582E+04  0.91556640486E+02 0.  0.
    5000000    2    1    2    0    0 -0.10309258407E+04 -0.26366792415E+03 -0.76839881870E+03  0.14432182200E+04  0.60009434484E+03 0.  0.
         23    2    4    4    0    0 -0.40385201022E+03 -0.29142619312E+03 -0.89526472329E+02  0.51426486905E+03  0.91802473246E+02 0.  0.
         23    2    4    4    0    0 -0.62707383047E+03  0.27758268961E+02 -0.67887234637E+03  0.92895335095E+03  0.89969746104E+02 0.  0.
          1    1    3    3  502    0  0.70795850170E+03  0.15961755924E+03 -0.96373209937E+02  0.73210026700E+03  0.00000000000E+00 0. -1.
         -1    1    3    3    0  502  0.32296733900E+03  0.10405036491E+03 -0.10097517552E+03  0.35402029118E+03  0.00000000000E+00 0.  1.
         13    1    5    5    0    0 -0.35136054721E+03 -0.24038655251E+03 -0.43861235812E+02  0.42797632735E+03  0.00000000000E+00 0.  1.
        -13    1    5    5    0    0 -0.52491463011E+02 -0.51039640606E+02 -0.45665236517E+02  0.86288541698E+02  0.00000000000E+00 0. -1.
          4    1    6    6  503    0 -0.64892617451E+02  0.24807607630E+02 -0.51069226289E+02  0.86223750033E+02  0.00000000000E+00 0. -1.
         -4    1    6    6    0  503 -0.56218121302E+03  0.29506613310E+01 -0.62780312008E+03  0.84272960092E+03  0.00000000000E+00 0.  1.
<mgrwt>
<rscale>  0 0.10978216E+04</rscale>
<asrwt>0</asrwt>
<pdfrwt beam="1">  1        1 0.12027628E+00 0.10978216E+04</pdfrwt>
<pdfrwt beam="2">  1       -1 0.26885277E+00 0.10978216E+04</pdfrwt>
<totfact> 0.12022629E+00</totfact>
</mgrwt>
</event>
<event>
12    1  0.1432447E-007  0.8629373E+03  0.7818608E-02  0.9473136E-01
         -2   -1    0    0    0  501 -0.00000000000E+00  0.00000000000E+00  0.15256541833E+04  0.15256541833E+04  0.00000000000E+00 0.  1.
          2   -1    0    0  501    0  0.00000000000E+00 -0.00000000000E+00 -0.54955370952E+03  0.54955370952E+03  0.00000000000E+00 0. -1.
         23    2    1    2    0    0  0.73753893843E+03 -0.30544845731E+03  0.61997070453E+03  0.10149301263E+04  0.91962171999E+02 0.  0.
    5000000    2    1    2    0    0 -0.73753893843E+03  0.30544845731E+03  0.35612976921E+03  0.10602777665E+04  0.60008173089E+03 0.  0.
         23    2    4    4    0    0 -0.67875795647E+03  0.40280153824E+03  0.15172433590E+03  0.80933008935E+03  0.95044604035E+02 0.  0.
         23    2    4    4    0    0 -0.58780981962E+02 -0.97353080934E+02  0.20440543331E+03  0.25094767710E+03  0.90886353572E+02 0.  0.
          1    1    3    3  502    0  0.13062358674E+03 -0.22044051271E+02  0.12424487466E+03  0.18161842001E+03  0.00000000000E+00 0. -1.
         -1    1    3    3    0  502  0.60691535169E+03 -0.28340440604E+03  0.49572582987E+03  0.83331170632E+03  0.00000000000E+00 0.  1.
         11    1    5    5    0    0 -0.50597395839E+03  0.31227848724E+03  0.73254985868E+02  0.59907745168E+03  0.00000000000E+00 0. -1.
        -11    1    5    5    0    0 -0.17278399808E+03  0.90523051004E+02  0.78469350028E+02  0.21025263767E+03  0.00000000000E+00 0.  1.
          3    1    6    6  503    0  0.11838124614E+02  0.20382854427E+01 -0.10291689881E+01  0.12056325756E+02  0.00000000000E+00 0. -1.
         -3    1    6    6    0  503 -0.70619106576E+02 -0.99391366376E+02  0.20543460230E+03  0.23889135134E+03  0.00000000000E+00 0.  1.
<mgrwt>
<rscale>  0 0.86293731E+03</rscale>
<asrwt>0</asrwt>
<pdfrwt beam="1">  1        2 0.84546725E-01 0.86293731E+03</pdfrwt>
<pdfrwt beam="2">  1       -2 0.23471603E+00 0.86293731E+03</pdfrwt>
<totfact> 0.44559568E+00</totfact>
</mgrwt>
</event>
<event>
12    1  0.1432447E-007  0.9092177E+03  0.7818608E-02  0.9414132E-01
          2   -1    0    0  501    0  0.00000000000E+00  0.00000000000E+00  0.23436287968E+04  0.23436287968E+04  0.00000000000E+00 0. -1.
         -2   -1    0    0    0  501 -0.00000000000E+00 -0.00000000000E+00 -0.46205434784E+03  0.46205434784E+03  0.00000000000E+00 0.  1.
         23    2    1    2    0    0 -0.15874806897E+03 -0.82721059254E+03  0.26690912560E+03  0.88822412984E+03  0.90682466326E+02 0.  0.
    5000000    2    1    2    0    0  0.15874806897E+03  0.82721059254E+03  0.16146653234E+04  0.19174590148E+04  0.60002221058E+03 0.  0.
         23    2    4    4    0    0  0.18273546350E+03  0.63541672127E+02  0.14437486364E+03  0.25801396685E+03  0.91089582923E+02 0.  0.
         23    2    4    4    0    0 -0.23987394535E+02  0.76366892041E+03  0.14702904597E+04  0.16594450480E+04  0.90764619600E+02 0.  0.
          1    1    3    3  502    0 -0.71144364115E+02 -0.56793107385E+03  0.15904606335E+03  0.59405628981E+03  0.00000000000E+00 0. -1.
         -1    1    3    3    0  502 -0.87603704852E+02 -0.25927951869E+03  0.10786306225E+03  0.29416784004E+03  0.00000000000E+00 0.  1.
         13    1    5    5    0    0  0.92937524944E+02 -0.50606840563E+01  0.99991208410E+02  0.13660613392E+03  0.00000000000E+00 0. -1.
        -13    1    5    5    0    0  0.89797938558E+02  0.68602356183E+02  0.44383655234E+02  0.12140783292E+03  0.00000000000E+00 0.  1.
          3    1    6    6  503    0 -0.42071313578E+02  0.63244983611E+03  0.11557250842E+04  0.13181286966E+04  0.00000000000E+00 0. -1.
         -3    1    6    6    0  503  0.18083919043E+02  0.13121908431E+03  0.31456537559E+03  0.34131635140E+03  0.00000000000E+00 0.  1.
<mgrwt>
<rscale>  0 0.90921768E+03</rscale>
<asrwt>0</asrwt>
<pdfrwt beam="1">  1        2 0.36055827E+00 0.90921768E+03</pdfrwt>
<pdfrwt beam="2">  1       -2 0.71085286E-01 0.90921768E+03</pdfrwt>
<totfact> 0.78497284E+00</totfact>
</mgrwt>
</event>
<event>
12    1  0.1432447E-007  0.4754374E+03  0.7818608E-02  0.1020397E+00
         -2   -1    0    0    0  501 -0.00000000000E+00  0.00000000000E+00  0.10365346974E+03  0.10365346974E+03  0.00000000000E+00 0.  1.
          2   -1    0    0  501    0  0.00000000000E+00 -0.00000000000E+00 -0.28542232456E+04  0.28542232456E+04  0.00000000000E+00 0. -1.
         23    2    1    2    0    0  0.26112616691E+03  0.24502962951E+03 -0.69766623013E+03  0.78935955818E+03  0.90132952038E+02 0.  0.
    5000000    2    1    2    0    0 -0.26112616691E+03 -0.24502962951E+03 -0.20529035458E+04  0.21685171572E+04  0.59985606475E+03 0.  0.
         23    2    4    4    0    0 -0.29193879357E+02 -0.32155084313E+03 -0.55690787966E+03  0.65005093834E+03  0.90402481707E+02 0.  0.
         23    2    4    4    0    0 -0.23193228756E+03  0.76521213621E+02 -0.14959956661E+04  0.15184662188E+04  0.89936325430E+02 0.  0.
          3    1    3    3  502    0  0.22630682405E+03  0.16530677225E+03 -0.56544714652E+03  0.63108761917E+03  0.00000000000E+00 0. -1.
         -3    1    3    3    0  502  0.34819342863E+02  0.79722857263E+02 -0.13221908362E+03  0.15827193902E+03  0.00000000000E+00 0.  1.
         11    1    5    5    0    0  0.18380341688E+02 -0.19512613348E+03 -0.37895860417E+03  0.42663997540E+03  0.00000000000E+00 0. -1.
        -11    1    5    5    0    0 -0.47574221045E+02 -0.12642470964E+03 -0.17794927549E+03  0.22341096295E+03  0.00000000000E+00 0.  1.
          2    1    6    6  503    0 -0.39479383277E+02 -0.11227718583E+02 -0.13401610671E+03  0.14016062295E+03  0.00000000000E+00 0.  1.
         -2    1    6    6    0  503 -0.19245290428E+03  0.87748932205E+02 -0.13619795594E+04  0.13783055959E+04  0.00000000000E+00 0. -1.
<mgrwt>
<rscale>  0 0.47543743E+03</rscale>
<asrwt>0</asrwt>
<pdfrwt beam="1">  1        2 0.43911117E+00 0.47543743E+03</pdfrwt>
<pdfrwt beam="2">  1       -2 0.15946691E-01 0.47543743E+03</pdfrwt>
<totfact> 0.74389452E+01</totfact>
</mgrwt>
</event>
<event>
12    1  0.1432447E-007  0.6578768E+03  0.7818608E-02  0.9792110E-01
         -2   -1    0    0    0  501 -0.00000000000E+00  0.00000000000E+00  0.24069490950E+03  0.24069490950E+03  0.00000000000E+00 0. -1.
          2   -1    0    0  501    0  0.00000000000E+00 -0.00000000000E+00 -0.21456392624E+04  0.21456392624E+04  0.00000000000E+00 0.  1.
         23    2    1    2    0    0  0.25785445598E+03  0.51469361578E+03 -0.99877217757E+03  0.11564609240E+04  0.91965034286E+02 0.  0.
    5000000    2    1    2    0    0 -0.25785445598E+03 -0.51469361578E+03 -0.90617217535E+03  0.12298732479E+04  0.60003479556E+03 0.  0.
         23    2    4    4    0    0 -0.12994465792E+03  0.38759216494E+02 -0.14104440909E+02  0.16837068839E+03  0.98802137988E+02 0.  0.
         23    2    4    4    0    0 -0.12790979806E+03 -0.55345283227E+03 -0.89206773444E+03  0.10615025595E+04  0.91279170564E+02 0.  0.
          2    1    3    3  502    0  0.95326135662E+02  0.25531022504E+03 -0.54122442961E+03  0.60596556532E+03  0.00000000000E+00 0. -1.
         -2    1    3    3    0  502  0.16252832031E+03  0.25938339074E+03 -0.45754774796E+03  0.55049535871E+03  0.00000000000E+00 0.  1.
         11    1    5    5    0    0  0.14998989965E+02  0.33052904319E+01 -0.11403622551E+02  0.19129486456E+02  0.00000000000E+00 0. -1.
        -11    1    5    5    0    0 -0.14494364789E+03  0.35453926062E+02 -0.27008183581E+01  0.14924120194E+03  0.00000000000E+00 0.  1.
          3    1    6    6  503    0  0.69402064601E+00 -0.13006063131E+03 -0.16127850234E+03  0.20718833171E+03  0.00000000000E+00 0. -1.
         -3    1    6    6    0  503 -0.12860381870E+03 -0.42339220096E+03 -0.73078923210E+03  0.85431422777E+03  0.00000000000E+00 0.  1.
<mgrwt>
<rscale>  0 0.65787679E+03</rscale>
<asrwt>0</asrwt>
<pdfrwt beam="1">  1        2 0.33009834E+00 0.65787679E+03</pdfrwt>
<pdfrwt beam="2">  1       -2 0.37029987E-01 0.65787679E+03</pdfrwt>
<totfact> 0.39877013E+01</totfact>
</mgrwt>
</event>
<event>
12    1  0.1432447E-007  0.3088982E+03  0.7818608E-02  0.1080875E+00
          2   -1    0    0  501    0  0.00000000000E+00  0.00000000000E+00  0.12302646736E+04  0.12302646736E+04  0.00000000000E+00 0. -1.
         -2   -1    0    0    0  501 -0.00000000000E+00 -0.00000000000E+00 -0.13824593796E+03  0.13824593796E+03  0.00000000000E+00 0.  1.
         23    2    1    2    0    0  0.62536318556E+02  0.60868446216E+02  0.52274446972E+03  0.53677727041E+03  0.85160428147E+02 0.  0.
    5000000    2    1    2    0    0 -0.62536318556E+02 -0.60868446216E+02  0.56927426588E+03  0.83173334111E+03  0.60007616353E+03 0.  0.
         23    2    4    4    0    0 -0.25896383577E+03 -0.13468374847E+03  0.51270733552E+03  0.59703868533E+03  0.91566366877E+02 0.  0.
         23    2    4    4    0    0  0.19642751721E+03  0.73815302256E+02  0.56566930354E+02  0.23469465578E+03  0.88596249793E+02 0.  0.
          2    1    3    3  502    0  0.10200023177E+02  0.42326427942E+02  0.39623256961E+03  0.39861738069E+03  0.00000000000E+00 0. -1.
         -2    1    3    3    0  502  0.52336295379E+02  0.18542018274E+02  0.12651190012E+03  0.13815988972E+03  0.00000000000E+00 0.  1.
         13    1    5    5    0    0 -0.11490629357E+03 -0.76995519060E+02  0.32687377551E+03  0.35493412258E+03  0.00000000000E+00 0.  1.
        -13    1    5    5    0    0 -0.14405754219E+03 -0.57688229413E+02  0.18583356001E+03  0.24210456275E+03  0.00000000000E+00 0. -1.
          1    1    6    6  503    0  0.83526299568E+02  0.75108138386E+02  0.45680393157E+02  0.12126241582E+03  0.00000000000E+00 0. -1.
         -1    1    6    6    0  503  0.11290121764E+03 -0.12928361301E+01  0.10886537198E+02  0.11343223996E+03  0.00000000000E+00 0.  1.
<mgrwt>
<rscale>  0 0.30889822E+03</rscale>
<asrwt>0</asrwt>
<pdfrwt beam="1">  1        2 0.18927148E+00 0.30889822E+03</pdfrwt>
<pdfrwt beam="2">  1       -2 0.21268607E-01 0.30889822E+03</pdfrwt>
<totfact> 0.36347975E+02</totfact>
</mgrwt>
</event>
<event>
12    1  0.1432447E-007  0.1033280E+04  0.7818608E-02  0.9272779E-01
          1   -1    0    0  501    0  0.00000000000E+00  0.00000000000E+00  0.19503940093E+04  0.19503940093E+04  0.00000000000E+00 0. -1.
         -1   -1    0    0    0  501 -0.00000000000E+00 -0.00000000000E+00 -0.63757731845E+03  0.63757731845E+03  0.00000000000E+00 0.  1.
         23    2    1    2    0    0 -0.16598160800E+03  0.10062720823E+04  0.42461521585E+03  0.11084431097E+04  0.90634696047E+02 0.  0.
    5000000    2    1    2    0    0  0.16598160800E+03 -0.10062720823E+04  0.88820147501E+03  0.14795282180E+04  0.59997374107E+03 0.  0.
         23    2    4    4    0    0 -0.44338588956E+02 -0.33168339104E+03  0.59365598847E+01  0.34562533654E+03  0.86266147218E+02 0.  0.
         23    2    4    4    0    0  0.21032019696E+03 -0.67458869126E+03  0.88226491513E+03  0.11339028815E+04  0.89665358918E+02 0.  0.
          2    1    3    3  502    0 -0.63491878101E+02  0.63285472153E+03  0.24500873291E+03  0.68159049021E+03  0.00000000000E+00 0. -1.
         -2    1    3    3    0  502 -0.10248972990E+03  0.37341736077E+03  0.17960648294E+03  0.42685261950E+03  0.00000000000E+00 0.  1.
         11    1    5    5    0    0 -0.96330851463E+00 -0.10191138479E+03  0.39689695549E+02  0.10937152392E+03  0.00000000000E+00 0. -1.
        -11    1    5    5    0    0 -0.43375280442E+02 -0.22977200625E+03 -0.33753135664E+02  0.23625381262E+03  0.00000000000E+00 0.  1.
          1    1    6    6  503    0  0.15876461919E+03 -0.55647423569E+03  0.66730272163E+03  0.88326819347E+03  0.00000000000E+00 0. -1.
         -1    1    6    6    0  503  0.51555577765E+02 -0.11811445557E+03  0.21496219350E+03  0.25063468803E+03  0.00000000000E+00 0.  1.
<mgrwt>
<rscale>  0 0.10332800E+04</rscale>
<asrwt>0</asrwt>
<pdfrwt beam="1">  1        1 0.30006061E+00 0.10332800E+04</pdfrwt>
<pdfrwt beam="2">  1       -1 0.98088819E-01 0.10332800E+04</pdfrwt>
<totfact> 0.32267504E+00</totfact>
</mgrwt>
</event>
<event>
12    1  0.1432447E-007  0.1436720E+04  0.7818608E-02  0.8927660E-01
          2   -1    0    0  501    0  0.00000000000E+00  0.00000000000E+00  0.29449493923E+04  0.29449493923E+04  0.00000000000E+00 0.  1.
         -2   -1    0    0    0  501 -0.00000000000E+00 -0.00000000000E+00 -0.77901522280E+03  0.77901522280E+03  0.00000000000E+00 0. -1.
         23    2    1    2    0    0  0.11355074117E+04  0.81616384511E+03  0.15300930226E+04  0.20747569454E+04  0.89057400823E+02 0.  0.
    5000000    2    1    2    0    0 -0.11355074117E+04 -0.81616384511E+03  0.63584114689E+03  0.16492076697E+04  0.60007621983E+03 0.  0.
         23    2    4    4    0    0 -0.11418886231E+04 -0.73722967626E+03  0.67685767628E+03  0.15218513856E+04  0.10236260451E+03 0.  0.
         23    2    4    4    0    0  0.63812114142E+01 -0.78934168848E+02 -0.41016529384E+02  0.12735628408E+03  0.90917240065E+02 0.  0.
          4    1    3    3  502    0  0.80353064259E+03  0.62612224634E+03  0.11062769197E+04  0.15038414757E+04  0.00000000000E+00 0. -1.
         -4    1    3    3    0  502  0.33197676912E+03  0.19004159877E+03  0.42381610296E+03  0.57091546977E+03  0.00000000000E+00 0.  1.
         11    1    5    5    0    0 -0.11171187665E+04 -0.71494886462E+03  0.67569994475E+03  0.14885149085E+04  0.00000000000E+00 0. -1.
        -11    1    5    5    0    0 -0.24769856647E+02 -0.22280811643E+02  0.11577315237E+01  0.33336477139E+02  0.00000000000E+00 0.  1.
          2    1    6    6  503    0  0.36676851617E+02 -0.73068764573E+02 -0.79737911027E+01  0.82145098121E+02  0.00000000000E+00 0. -1.
         -2    1    6    6    0  503 -0.30295640203E+02 -0.58654042752E+01 -0.33042738282E+02  0.45211185958E+02  0.00000000000E+00 0.  1.
<mgrwt>
<rscale>  0 0.14367197E+04</rscale>
<asrwt>0</asrwt>
<pdfrwt beam="1">  1        2 0.45306913E+00 0.14367197E+04</pdfrwt>
<pdfrwt beam="2">  1       -2 0.11984850E+00 0.14367197E+04</pdfrwt>
<totfact> 0.96252382E-01</totfact>
</mgrwt>
</event>
<event>
12    1  0.1432447E-007  0.5535194E+03  0.7818608E-02  0.1000683E+00
         -1   -1    0    0    0  501 -0.00000000000E+00  0.00000000000E+00  0.16016356408E+04  0.16016356408E+04  0.00000000000E+00 0. -1.
          1   -1    0    0  501    0  0.00000000000E+00 -0.00000000000E+00 -0.55395391159E+03  0.55395391159E+03  0.00000000000E+00 0.  1.
         23    2    1    2    0    0  0.13363200246E+03 -0.41279935034E+03  0.12995768005E+04  0.13733084138E+04  0.93889952588E+02 0.  0.
    5000000    2    1    2    0    0 -0.13363200246E+03  0.41279935034E+03 -0.25189507131E+03  0.78228113860E+03  0.60020982760E+03 0.  0.
         23    2    4    4    0    0  0.80469511918E+02  0.42710119250E+03 -0.30978786137E+03  0.54154104897E+03  0.91691971755E+02 0.  0.
         23    2    4    4    0    0 -0.21410151437E+03 -0.14301842159E+02  0.57892790056E+02  0.24074008964E+03  0.92521427089E+02 0.  0.
          1    1    3    3  502    0  0.71873168980E+02 -0.31642195698E+03  0.10441272954E+04  0.10933848436E+04  0.00000000000E+00 0. -1.
         -1    1    3    3    0  502  0.61758833477E+02 -0.96377393357E+02  0.25544950517E+03  0.27992357020E+03  0.00000000000E+00 0.  1.
         13    1    5    5    0    0  0.34058110438E+02  0.21840028534E+03 -0.21260370931E+03  0.30669035971E+03  0.00000000000E+00 0.  1.
        -13    1    5    5    0    0  0.46411401479E+02  0.20870090716E+03 -0.97184152054E+02  0.23485068926E+03  0.00000000000E+00 0. -1.
          4    1    6    6  503    0 -0.15803287874E+02 -0.30438715281E+02  0.34372715391E+01  0.34468451245E+02  0.00000000000E+00 0. -1.
         -4    1    6    6    0  503 -0.19829822650E+03  0.16136873122E+02  0.54455518517E+02  0.20627163839E+03  0.00000000000E+00 0.  1.
<mgrwt>
<rscale>  0 0.55351939E+03</rscale>
<asrwt>0</asrwt>
<pdfrwt beam="1">  1        1 0.85223679E-01 0.55351939E+03</pdfrwt>
<pdfrwt beam="2">  1       -1 0.24640548E+00 0.55351939E+03</pdfrwt>
<totfact> 0.30573723E+00</totfact>
</mgrwt>
</event>
<event>
12    1  0.2119570E-007  0.1467400E+04  0.7818608E-02  0.8906425E-01
         -2   -1    0    0    0  501 -0.00000000000E+00  0.00000000000E+00  0.18717442179E+04  0.18717442179E+04  0.00000000000E+00 0.  1.
          2   -1    0    0  501    0  0.00000000000E+00 -0.00000000000E+00 -0.13286509083E+04  0.13286509083E+04  0.00000000000E+00 0. -1.
         23    2    1    2    0    0  0.97099120362E+03  0.10202726346E+04  0.83755437549E+03  0.16411973170E+04  0.90835758561E+02 0.  0.
    5000000    2    1    2    0    0 -0.97099120362E+03 -0.10202726346E+04 -0.29446106581E+03  0.15591978092E+04  0.60050838663E+03 0.  0.
         23    2    4    4    0    0 -0.46175642288E+03 -0.87610514192E+03 -0.21014985376E+03  0.10167596778E+04  0.94117308090E+02 0.  0.
         23    2    4    4    0    0 -0.50923478074E+03 -0.14416749270E+03 -0.84311212047E+02  0.54243813134E+03  0.83823731624E+02 0.  0.
          1    1    3    3  502    0  0.23639209477E+03  0.30544149024E+03  0.21813646217E+03  0.44357552069E+03  0.00000000000E+00 0. -1.
         -1    1    3    3    0  502  0.73459910885E+03  0.71483114438E+03  0.61941791332E+03  0.11976217963E+04  0.00000000000E+00 0.  1.
         13    1    5    5    0    0 -0.26533343694E+03 -0.45214919515E+03 -0.69740463259E+02  0.52887092910E+03  0.00000000000E+00 0. -1.
        -13    1    5    5    0    0 -0.19642298594E+03 -0.42395594677E+03 -0.14040939050E+03  0.48788874874E+03  0.00000000000E+00 0.  1.
          3    1    6    6  503    0 -0.25171557556E+03 -0.42848474697E+02 -0.83709892151E+01  0.25547367031E+03  0.00000000000E+00 0. -1.
         -3    1    6    6    0  503 -0.25751920518E+03 -0.10131901800E+03 -0.75940222832E+02  0.28696446102E+03  0.00000000000E+00 0.  1.
<mgrwt>
<rscale>  0 0.14674005E+04</rscale>
<asrwt>0</asrwt>
<pdfrwt beam="1">  1        2 0.20440783E+00 0.14674005E+04</pdfrwt>
<pdfrwt beam="2">  1       -2 0.28796065E+00 0.14674005E+04</pdfrwt>
<totfact> 0.56649819E-01</totfact>
</mgrwt>
</event>
<event>
12    1  0.1432447E-007  0.8980985E+03  0.7818608E-02  0.9427962E-01
          1   -1    0    0  501    0  0.00000000000E+00  0.00000000000E+00  0.24607648011E+04  0.24607648011E+04  0.00000000000E+00 0. -1.
         -1   -1    0    0    0  501 -0.00000000000E+00 -0.00000000000E+00 -0.36454444577E+03  0.36454444577E+03  0.00000000000E+00 0.  1.
         23    2    1    2    0    0 -0.69561021619E+03  0.48536266810E+03  0.10131802716E+04  0.13245299390E+04  0.91623164225E+02 0.  0.
    5000000    2    1    2    0    0  0.69561021619E+03 -0.48536266810E+03  0.10830400837E+04  0.15007793078E+04  0.59992684166E+03 0.  0.
         23    2    4    4    0    0  0.46585457699E+03 -0.52954778349E+03  0.10174674079E+04  0.12410965834E+04  0.87404011535E+02 0.  0.
         23    2    4    4    0    0  0.22975563920E+03  0.44185115387E+02  0.65572675822E+02  0.25968272443E+03  0.91626215600E+02 0.  0.
          2    1    3    3  502    0 -0.11873859836E+03  0.12241552636E+03  0.17727216782E+03  0.24598747390E+03  0.00000000000E+00 0.  1.
         -2    1    3    3    0  502 -0.57687161783E+03  0.36294714175E+03  0.83590810373E+03  0.10785424651E+04  0.00000000000E+00 0. -1.
         13    1    5    5    0    0  0.24188999038E+03 -0.22200132855E+03  0.51691504026E+03  0.61236959116E+03  0.00000000000E+00 0. -1.
        -13    1    5    5    0    0  0.22396458661E+03 -0.30754645494E+03  0.50055236766E+03  0.62872699224E+03  0.00000000000E+00 0.  1.
          1    1    6    6  503    0  0.13783126380E+03  0.39073187399E+02  0.83595904547E+02  0.16586876291E+03  0.00000000000E+00 0. -1.
         -1    1    6    6    0  503  0.91924375408E+02  0.51119279883E+01 -0.18023228725E+02  0.93813961517E+02  0.00000000000E+00 0.  1.
<mgrwt>
<rscale>  0 0.89809849E+03</rscale>
<asrwt>0</asrwt>
<pdfrwt beam="1">  1        1 0.37857919E+00 0.89809849E+03</pdfrwt>
<pdfrwt beam="2">  1       -1 0.56083763E-01 0.89809849E+03</pdfrwt>
<totfact> 0.47910339E+00</totfact>
</mgrwt>
</event>
<event>
12    1  0.1432447E-007  0.9807026E+03  0.7818608E-02  0.9329967E-01
         -2   -1    0    0    0  501 -0.00000000000E+00  0.00000000000E+00  0.66145428245E+03  0.66145428245E+03  0.00000000000E+00 0.  1.
          2   -1    0    0  501    0  0.00000000000E+00 -0.00000000000E+00 -0.15248908209E+04  0.15248908209E+04  0.00000000000E+00 0. -1.
         23    2    1    2    0    0 -0.90231132146E+03 -0.13068645186E+03 -0.42746583912E+03  0.10111526367E+04  0.91967067729E+02 0.  0.
    5000000    2    1    2    0    0  0.90231132146E+03  0.13068645186E+03 -0.43597069937E+03  0.11751924667E+04  0.59980181187E+03 0.  0.
         23    2    4    4    0    0  0.72025888205E+03 -0.11935120682E+03 -0.42950894442E+03  0.85192918565E+03  0.91037554187E+02 0.  0.
         23    2    4    4    0    0  0.18205243941E+03  0.25003765868E+03 -0.64617549447E+01  0.32326328105E+03  0.93784183865E+02 0.  0.
          2    1    3    3  502    0 -0.60706250816E+03 -0.93439100361E+02 -0.23998344185E+03  0.65942991034E+03  0.00000000000E+00 0. -1.
         -2    1    3    3    0  502 -0.29524881330E+03 -0.37247351495E+02 -0.18748239726E+03  0.35172272636E+03  0.00000000000E+00 0.  1.
         13    1    5    5    0    0  0.63279679576E+03 -0.83558832830E+02 -0.34721131833E+03  0.72661514080E+03  0.00000000000E+00 0.  1.
        -13    1    5    5    0    0  0.87462086294E+02 -0.35792373990E+02 -0.82297626095E+02  0.12531404485E+03  0.00000000000E+00 0. -1.
          3    1    6    6  503    0  0.52254737728E+02  0.27153978129E+02  0.23909822738E+02  0.63557657026E+02  0.00000000000E+00 0. -1.
         -3    1    6    6    0  503  0.12979770169E+03  0.22288368055E+03 -0.30371577683E+02  0.25970562402E+03  0.00000000000E+00 0.  1.
<mgrwt>
<rscale>  0 0.98070259E+03</rscale>
<asrwt>0</asrwt>
<pdfrwt beam="1">  1        2 0.23459858E+00 0.98070259E+03</pdfrwt>
<pdfrwt beam="2">  1       -2 0.10176220E+00 0.98070259E+03</pdfrwt>
<totfact> 0.97132774E+00</totfact>
</mgrwt>
</event>
<event>
12    1  0.1432447E-007  0.4710690E+03  0.7818608E-02  0.1021619E+00
         -2   -1    0    0    0  501 -0.00000000000E+00  0.00000000000E+00  0.31208871915E+03  0.31208871915E+03  0.00000000000E+00 0.  1.
          2   -1    0    0  501    0  0.00000000000E+00 -0.00000000000E+00 -0.13924559162E+04  0.13924559162E+04  0.00000000000E+00 0. -1.
         23    2    1    2    0    0  0.26922796444E+03  0.15902673237E+03  0.10227713534E+03  0.34190112960E+03  0.93072936779E+02 0.  0.
    5000000    2    1    2    0    0 -0.26922796444E+03 -0.15902673237E+03 -0.11826443324E+04  0.13626435057E+04  0.60031367499E+03 0.  0.
         23    2    4    4    0    0 -0.32912101557E+03  0.10203826050E+03 -0.87295044255E+03  0.94303936663E+03  0.92457137985E+02 0.  0.
         23    2    4    4    0    0  0.59893051122E+02 -0.26106499288E+03 -0.30969388983E+03  0.41960413912E+03  0.91734508699E+02 0.  0.
          4    1    3    3  502    0  0.14848322147E+02  0.25626865927E+02 -0.13065750129E+02  0.32371635026E+02  0.00000000000E+00 0. -1.
         -4    1    3    3    0  502  0.25437964230E+03  0.13339986644E+03  0.11534288547E+03  0.30952949457E+03  0.00000000000E+00 0.  1.
         13    1    5    5    0    0 -0.29115005503E+03  0.10943331112E+03 -0.70288207399E+03  0.76862683668E+03  0.00000000000E+00 0. -1.
        -13    1    5    5    0    0 -0.37970960537E+02 -0.73950506180E+01 -0.17006836857E+03  0.17441252995E+03  0.00000000000E+00 0.  1.
          3    1    6    6  503    0  0.70666329167E+02 -0.17352186128E+03 -0.16252803511E+03  0.24803009619E+03  0.00000000000E+00 0. -1.
         -3    1    6    6    0  503 -0.10773278045E+02 -0.87543131596E+02 -0.14716585472E+03  0.17157404293E+03  0.00000000000E+00 0.  1.
<mgrwt>
<rscale>  0 0.47106904E+03</rscale>
<asrwt>0</asrwt>
<pdfrwt beam="1">  1        2 0.21422399E+00 0.47106904E+03</pdfrwt>
<pdfrwt beam="2">  1       -2 0.48013649E-01 0.47106904E+03</pdfrwt>
<totfact> 0.63342014E+01</totfact>
</mgrwt>
</event>
<event>
12    1  0.1432447E-007  0.6354108E+03  0.7818608E-02  0.9834547E-01
          1   -1    0    0  501    0  0.00000000000E+00  0.00000000000E+00  0.27856642136E+04  0.27856642136E+04  0.00000000000E+00 0. -1.
         -1   -1    0    0    0  501 -0.00000000000E+00 -0.00000000000E+00 -0.16496938435E+03  0.16496938435E+03  0.00000000000E+00 0.  1.
         23    2    1    2    0    0 -0.50259106437E+03  0.67419573610E+02  0.14677432657E+04  0.15554553554E+04  0.89598502794E+02 0.  0.
    5000000    2    1    2    0    0  0.50259106437E+03 -0.67419573610E+02  0.11529515635E+04  0.13951782425E+04  0.60006819924E+03 0.  0.
         23    2    4    4    0    0  0.26337795662E+03 -0.31736882512E+03  0.53347905890E+03  0.67973413951E+03  0.85718579861E+02 0.  0.
         23    2    4    4    0    0  0.23921310774E+03  0.24994925151E+03  0.61947250459E+03  0.71544410300E+03  0.91741709866E+02 0.  0.
          3    1    3    3  502    0 -0.45868333399E+03  0.55744997536E+02  0.12415218151E+04  0.13247166954E+04  0.00000000000E+00 0. -1.
         -3    1    3    3    0  502 -0.43907730376E+02  0.11674576074E+02  0.22622145058E+03  0.23073865999E+03  0.00000000000E+00 0.  1.
         11    1    5    5    0    0  0.12420539225E+03 -0.11242035421E+03  0.16068557358E+03  0.23213179244E+03  0.00000000000E+00 0. -1.
        -11    1    5    5    0    0  0.13917256437E+03 -0.20494847091E+03  0.37279348532E+03  0.44760234706E+03  0.00000000000E+00 0.  1.
          3    1    6    6  503    0  0.49358004318E+02  0.75703222305E+02  0.95209311484E+02  0.13127072580E+03  0.00000000000E+00 0. -1.
         -3    1    6    6    0  503  0.18985510342E+03  0.17424602921E+03  0.52426319310E+03  0.58417337720E+03  0.00000000000E+00 0.  1.
<mgrwt>
<rscale>  0 0.63541078E+03</rscale>
<asrwt>0</asrwt>
<pdfrwt beam="1">  1        1 0.42856369E+00 0.63541078E+03</pdfrwt>
<pdfrwt beam="2">  1       -1 0.25379907E-01 0.63541078E+03</pdfrwt>
<totfact> 0.12550525E+01</totfact>
</mgrwt>
</event>
<event>
12    1  0.1432447E-007  0.6327051E+03  0.7818608E-02  0.9839784E-01
          1   -1    0    0  501    0  0.00000000000E+00  0.00000000000E+00  0.90123058849E+03  0.90123058849E+03  0.00000000000E+00 0. -1.
         -1   -1    0    0    0  501 -0.00000000000E+00 -0.00000000000E+00 -0.54604098596E+03  0.54604098596E+03  0.00000000000E+00 0.  1.
         23    2    1    2    0    0 -0.52267975720E+03  0.15787166870E+03  0.30900936154E+03  0.63438748432E+03  0.94037771033E+02 0.  0.
    5000000    2    1    2    0    0  0.52267975720E+03 -0.15787166870E+03  0.46180240985E+02  0.81288409013E+03  0.60044178484E+03 0.  0.
         23    2    4    4    0    0  0.57951831456E+03 -0.18628464973E+03  0.17691238457E+03  0.64060350799E+03  0.92365659148E+02 0.  0.
         23    2    4    4    0    0 -0.56838557366E+02  0.28412981038E+02 -0.13073214358E+03  0.17228058215E+03  0.92475869956E+02 0.  0.
          1    1    3    3  502    0 -0.42562300130E+03  0.14920805963E+03  0.28668118668E+03  0.53441939251E+03  0.00000000000E+00 0. -1.
         -1    1    3    3    0  502 -0.97056755898E+02  0.86636090614E+01  0.22328174862E+02  0.99968091810E+02  0.00000000000E+00 0.  1.
         13    1    5    5    0    0  0.28463631442E+03 -0.11653130522E+03  0.47947860231E+02  0.31128182389E+03  0.00000000000E+00 0.  1.
        -13    1    5    5    0    0  0.29488200014E+03 -0.69753344517E+02  0.12896452434E+03  0.32932168410E+03  0.00000000000E+00 0. -1.
          2    1    6    6  503    0 -0.36722788408E+02  0.59153274656E+02 -0.57301085321E+02  0.90172542772E+02  0.00000000000E+00 0. -1.
         -2    1    6    6    0  503 -0.20115768958E+02 -0.30740293618E+02 -0.73431058264E+02  0.82108039376E+02  0.00000000000E+00 0.  1.
<mgrwt>
<rscale>  0 0.63270515E+03</rscale>
<asrwt>0</asrwt>
<pdfrwt beam="1">  1        1 0.13865086E+00 0.63270515E+03</pdfrwt>
<pdfrwt beam="2">  1       -1 0.84006306E-01 0.63270515E+03</pdfrwt>
<totfact> 0.26560075E+01</totfact>
</mgrwt>
</event>
<event>
12    1  0.1432447E-007  0.1201478E+04  0.7818608E-02  0.9111564E-01
         -2   -1    0    0    0  501 -0.00000000000E+00  0.00000000000E+00  0.20307147135E+04  0.20307147135E+04  0.00000000000E+00 0.  1.
          2   -1    0    0  501    0  0.00000000000E+00 -0.00000000000E+00 -0.12428476615E+04  0.12428476615E+04  0.00000000000E+00 0. -1.
         23    2    1    2    0    0  0.28930022873E+03 -0.11302081177E+04 -0.64062511098E+03  0.13340723048E+04  0.91013020170E+02 0.  0.
    5000000    2    1    2    0    0 -0.28930022873E+03  0.11302081177E+04  0.14284921630E+04  0.19394900702E+04  0.59997238330E+03 0.  0.
         23    2    4    4    0    0 -0.20095065068E+03  0.16585652585E+03  0.10137026111E+03  0.29409280208E+03  0.91241959768E+02 0.  0.
         23    2    4    4    0    0 -0.88349578048E+02  0.96435159190E+03  0.13271219019E+04  0.16453972681E+04  0.91104262129E+02 0.  0.
          2    1    3    3  502    0  0.21053822389E+03 -0.89705885995E+03 -0.54148604198E+03  0.10687600646E+04  0.00000000000E+00 0.  1.
         -2    1    3    3    0  502  0.78762004845E+02 -0.23314925780E+03 -0.99139068998E+02  0.26531224024E+03  0.00000000000E+00 0. -1.
         13    1    5    5    0    0 -0.81267357646E+02  0.44862244733E+02  0.80047627384E+02  0.12257498550E+03  0.00000000000E+00 0. -1.
        -13    1    5    5    0    0 -0.11968329304E+03  0.12099428112E+03  0.21322633725E+02  0.17151781658E+03  0.00000000000E+00 0.  1.
          4    1    6    6  503    0 -0.10601212877E+03  0.86868387936E+03  0.12053405050E+04  0.14895287801E+04  0.00000000000E+00 0. -1.
         -4    1    6    6    0  503  0.17662550724E+02  0.95667712540E+02  0.12178139691E+03  0.15586848801E+03  0.00000000000E+00 0.  1.
<mgrwt>
<rscale>  0 0.12014780E+04</rscale>
<asrwt>0</asrwt>
<pdfrwt beam="1">  1        2 0.19120733E+00 0.12014780E+04</pdfrwt>
<pdfrwt beam="2">  1       -2 0.31241765E+00 0.12014780E+04</pdfrwt>
<totfact> 0.46549013E-01</totfact>
</mgrwt>
</event>
<event>
12    1  0.1432447E-007  0.6382808E+03  0.7818608E-02  0.9829021E-01
         -1   -1    0    0    0  501 -0.00000000000E+00  0.00000000000E+00  0.58795038896E+03  0.58795038896E+03  0.00000000000E+00 0.  1.
          1   -1    0    0  501    0  0.00000000000E+00 -0.00000000000E+00 -0.85669577879E+03  0.85669577879E+03  0.00000000000E+00 0. -1.
         23    2    1    2    0    0 -0.40253482112E+03 -0.39169368381E+03  0.37038630587E+02  0.56768738606E+03  0.73748789769E+02 0.  0.
    5000000    2    1    2    0    0  0.40253482112E+03  0.39169368381E+03 -0.30578402042E+03  0.87695878169E+03  0.60007883940E+03 0.  0.
         23    2    4    4    0    0  0.28634633850E+03  0.47204436201E+03 -0.38234100600E+02  0.56058353377E+03  0.89285758117E+02 0.  0.
         23    2    4    4    0    0  0.11618848261E+03 -0.80350678201E+02 -0.26754991982E+03  0.31637524793E+03  0.92489690915E+02 0.  0.
          4    1    3    3  502    0 -0.22025625308E+03 -0.20056693331E+03 -0.15924329986E+02  0.29831777695E+03  0.00000000000E+00 0. -1.
         -4    1    3    3    0  502 -0.18227856804E+03 -0.19112675050E+03  0.52962960572E+02  0.26936960912E+03  0.00000000000E+00 0.  1.
         13    1    5    5    0    0  0.18057542651E+03  0.28413126447E+03 -0.66316724821E+02  0.34312675224E+03  0.00000000000E+00 0.  1.
        -13    1    5    5    0    0  0.10577091199E+03  0.18791309753E+03  0.28082624221E+02  0.21745678152E+03  0.00000000000E+00 0. -1.
          4    1    6    6  503    0  0.69631881965E+02 -0.26816856951E+00 -0.15960329836E+03  0.17413179993E+03  0.00000000000E+00 0. -1.
         -4    1    6    6    0  503  0.46556600650E+02 -0.80082509632E+02 -0.10794662146E+03  0.14224344800E+03  0.00000000000E+00 0.  1.
<mgrwt>
<rscale>  0 0.63828082E+03</rscale>
<asrwt>0</asrwt>
<pdfrwt beam="1">  1        1 0.13179935E+00 0.63828082E+03</pdfrwt>
<pdfrwt beam="2">  1       -1 0.90453906E-01 0.63828082E+03</pdfrwt>
<totfact> 0.24585538E+01</totfact>
</mgrwt>
</event>
<event>
12    1  0.1432447E-007  0.1221499E+04  0.7818608E-02  0.9094244E-01
          2   -1    0    0  501    0  0.00000000000E+00  0.00000000000E+00  0.24849741926E+04  0.24849741926E+04  0.00000000000E+00 0. -1.
         -2   -1    0    0    0  501 -0.00000000000E+00 -0.00000000000E+00 -0.63942682046E+03  0.63942682046E+03  0.00000000000E+00 0.  1.
         23    2    1    2    0    0 -0.51511437156E+03 -0.10691514446E+04  0.91838974224E+03  0.15032855975E+04  0.89444070147E+02 0.  0.
    5000000    2    1    2    0    0  0.51511437156E+03  0.10691514446E+04  0.92715762985E+03  0.16211154156E+04  0.59997191000E+03 0.  0.
         23    2    4    4    0    0  0.28950677663E+03  0.18612231690E+03  0.49151856797E+03  0.60698936927E+03  0.91596403755E+02 0.  0.
         23    2    4    4    0    0  0.22560759493E+03  0.88302912765E+03  0.43563906189E+03  0.10141260463E+04  0.89615949258E+02 0.  0.
          3    1    3    3  502    0 -0.15012443470E+03 -0.33067958342E+03  0.23094359089E+03  0.43037341340E+03  0.00000000000E+00 0. -1.
         -3    1    3    3    0  502 -0.36498993685E+03 -0.73847186114E+03  0.68744615136E+03  0.10729121841E+04  0.00000000000E+00 0.  1.
         11    1    5    5    0    0  0.71961313960E+02  0.50173255527E+02  0.20166397412E+03  0.21991849566E+03  0.00000000000E+00 0.  1.
        -11    1    5    5    0    0  0.21754546267E+03  0.13594906138E+03  0.28985459385E+03  0.38707087361E+03  0.00000000000E+00 0. -1.
          2    1    6    6  503    0  0.14893603240E+03  0.52696410405E+03  0.30737659465E+03  0.62797569988E+03  0.00000000000E+00 0. -1.
         -2    1    6    6    0  503  0.76671562531E+02  0.35606502360E+03  0.12826246724E+03  0.38615034642E+03  0.00000000000E+00 0.  1.
<mgrwt>
<rscale>  0 0.12214989E+04</rscale>
<asrwt>0</asrwt>
<pdfrwt beam="1">  1        2 0.38230372E+00 0.12214989E+04</pdfrwt>
<pdfrwt beam="2">  1       -2 0.98373358E-01 0.12214989E+04</pdfrwt>
<totfact> 0.29917687E+00</totfact>
</mgrwt>
</event>
<event>
12    1  0.1432447E-007  0.3213039E+03  0.7818608E-02  0.1075051E+00
         -1   -1    0    0    0  501 -0.00000000000E+00  0.00000000000E+00  0.38762798021E+03  0.38762798021E+03  0.00000000000E+00 0.  1.
          1   -1    0    0  501    0  0.00000000000E+00 -0.00000000000E+00 -0.37439442033E+03  0.37439442033E+03  0.00000000000E+00 0. -1.
         23    2    1    2    0    0  0.90662062229E+02  0.46399523315E+02 -0.61700335910E+02  0.14873170425E+03  0.89116009257E+02 0.  0.
    5000000    2    1    2    0    0 -0.90662062229E+02 -0.46399523315E+02  0.74933895788E+02  0.61329069629E+03  0.60011487577E+03 0.  0.
         23    2    4    4    0    0 -0.25779540851E+03  0.12477619596E+03  0.16310786462E+03  0.34173477206E+03  0.90282374872E+02 0.  0.
         23    2    4    4    0    0  0.16713334628E+03 -0.17117571927E+03 -0.88173968830E+02  0.27155592422E+03  0.93452067371E+02 0.  0.
          1    1    3    3  502    0  0.70855119317E+02  0.48699623803E+02 -0.22286435719E+01  0.86006209916E+02  0.00000000000E+00 0. -1.
         -1    1    3    3    0  502  0.19806942913E+02 -0.23001004881E+01 -0.59471692338E+02  0.62725494333E+02  0.00000000000E+00 0.  1.
         13    1    5    5    0    0 -0.18179117299E+03  0.55855023820E+02  0.14108709798E+03  0.23679819146E+03  0.00000000000E+00 0. -1.
        -13    1    5    5    0    0 -0.76004235515E+02  0.68921172137E+02  0.22020766638E+02  0.10493658060E+03  0.00000000000E+00 0.  1.
          2    1    6    6  503    0  0.87644855480E+02 -0.56134142743E+02 -0.80383123870E+02  0.13150706930E+03  0.00000000000E+00 0.  1.
         -2    1    6    6    0  503  0.79488490796E+02 -0.11504157653E+03 -0.77908449600E+01  0.14004885492E+03  0.00000000000E+00 0. -1.
<mgrwt>
<rscale>  0 0.32130394E+03</rscale>
<asrwt>0</asrwt>
<pdfrwt beam="1">  1        1 0.57599141E-01 0.32130394E+03</pdfrwt>
<pdfrwt beam="2">  1       -1 0.59635074E-01 0.32130394E+03</pdfrwt>
<totfact> 0.19481712E+02</totfact>
</mgrwt>
</event>
<event>
12    1  0.1432447E-007  0.8507769E+03  0.7818608E-02  0.9489295E-01
          1   -1    0    0  501    0  0.00000000000E+00  0.00000000000E+00  0.17646325976E+04  0.17646325976E+04  0.00000000000E+00 0. -1.
         -1   -1    0    0    0  501 -0.00000000000E+00 -0.00000000000E+00 -0.44763398464E+03  0.44763398464E+03  0.00000000000E+00 0.  1.
         23    2    1    2    0    0 -0.67145463565E+03  0.35556008741E+03  0.33761611310E+03  0.83513187101E+03  0.78653027017E+02 0.  0.
    5000000    2    1    2    0    0  0.67145463565E+03 -0.35556008741E+03  0.97938249989E+03  0.13771347113E+04  0.60002968956E+03 0.  0.
         23    2    4    4    0    0  0.71628488935E+03 -0.15809573755E+03  0.82425570649E+03  0.11065186079E+04  0.83232536184E+02 0.  0.
         23    2    4    4    0    0 -0.44830253697E+02 -0.19746434986E+03  0.15512679340E+03  0.27061610332E+03  0.90370527461E+02 0.  0.
          4    1    3    3  502    0 -0.59104110405E+03  0.28266241417E+03  0.28373418855E+03  0.71395568267E+03  0.00000000000E+00 0. -1.
         -4    1    3    3    0  502 -0.80413531598E+02  0.72897673242E+02  0.53881924544E+02  0.12117618834E+03  0.00000000000E+00 0.  1.
         13    1    5    5    0    0  0.54607779498E+03 -0.14159944326E+03  0.67347729414E+03  0.87853459023E+03  0.00000000000E+00 0. -1.
        -13    1    5    5    0    0  0.17020709437E+03 -0.16496294286E+02  0.15077841235E+03  0.22798401771E+03  0.00000000000E+00 0.  1.
          1    1    6    6  503    0 -0.38551872160E+02 -0.18181627312E+03  0.96109827871E+02  0.20923791012E+03  0.00000000000E+00 0. -1.
         -1    1    6    6    0  503 -0.62783815370E+01 -0.15648076743E+02  0.59016965530E+02  0.61378193203E+02  0.00000000000E+00 0.  1.
<mgrwt>
<rscale>  0 0.85077688E+03</rscale>
<asrwt>0</asrwt>
<pdfrwt beam="1">  1        1 0.27148193E+00 0.85077688E+03</pdfrwt>
<pdfrwt beam="2">  1       -1 0.68866768E-01 0.85077688E+03</pdfrwt>
<totfact> 0.94390802E+00</totfact>
</mgrwt>
</event>
<event>
12    1  0.1432447E-007  0.1003251E+04  0.7818608E-02  0.9304986E-01
          2   -1    0    0  501    0  0.00000000000E+00  0.00000000000E+00  0.86557173198E+03  0.86557173198E+03  0.00000000000E+00 0.  1.
         -2   -1    0    0    0  501 -0.00000000000E+00 -0.00000000000E+00 -0.13059078615E+04  0.13059078615E+04  0.00000000000E+00 0. -1.
         23    2    1    2    0    0  0.44963290220E+03  0.86312177375E+03 -0.12460177753E+03  0.98543056169E+03  0.91645217488E+02 0.  0.
    5000000    2    1    2    0    0 -0.44963290220E+03 -0.86312177375E+03 -0.31573435200E+03  0.11860490318E+04  0.59989597575E+03 0.  0.
         23    2    4    4    0    0 -0.31593883741E+03 -0.25728345260E+03  0.10642260145E+03  0.43091451351E+03  0.91375182048E+02 0.  0.
         23    2    4    4    0    0 -0.13369406479E+03 -0.60583832115E+03 -0.42215695344E+03  0.75513451828E+03  0.84246501519E+02 0.  0.
          3    1    3    3  502    0  0.26654087576E+03  0.51289483766E+03 -0.28526721322E+02  0.57872180430E+03  0.00000000000E+00 0. -1.
         -3    1    3    3    0  502  0.18309202644E+03  0.35022693609E+03 -0.96075056205E+02  0.40670875739E+03  0.00000000000E+00 0.  1.
         11    1    5    5    0    0 -0.11485166091E+03 -0.56402172948E+02  0.65515899244E+02  0.14375132062E+03  0.00000000000E+00 0. -1.
        -11    1    5    5    0    0 -0.20108717650E+03 -0.20088127965E+03  0.40906702202E+02  0.28716319289E+03  0.00000000000E+00 0.  1.
          1    1    6    6  503    0 -0.11713371485E+03 -0.47565718569E+03 -0.29194099901E+03  0.57026275729E+03  0.00000000000E+00 0. -1.
         -1    1    6    6    0  503 -0.16560349943E+02 -0.13018113546E+03 -0.13021595444E+03  0.18487176098E+03  0.00000000000E+00 0.  1.
<mgrwt>
<rscale>  0 0.10032511E+04</rscale>
<asrwt>0</asrwt>
<pdfrwt beam="1">  1        2 0.13316488E+00 0.10032511E+04</pdfrwt>
<pdfrwt beam="2">  1       -2 0.20090890E+00 0.10032511E+04</pdfrwt>
<totfact> 0.40297369E+00</totfact>
</mgrwt>
</event>
<event>
12    1  0.1432447E-007  0.7034830E+03  0.7818608E-02  0.9711294E-01
          2   -1    0    0  501    0  0.00000000000E+00  0.00000000000E+00  0.91956494072E+03  0.91956494072E+03  0.00000000000E+00 0. -1.
         -2   -1    0    0    0  501 -0.00000000000E+00 -0.00000000000E+00 -0.62629199336E+03  0.62629199336E+03  0.00000000000E+00 0.  1.
         23    2    1    2    0    0 -0.40526400572E+03 -0.48497471956E+03  0.45707800010E+02  0.64004577253E+03  0.90166484928E+02 0.  0.
    5000000    2    1    2    0    0  0.40526400572E+03  0.48497471956E+03  0.24756514735E+03  0.90581116155E+03  0.59980493934E+03 0.  0.
         23    2    4    4    0    0 -0.35277805623E+02  0.25270105682E+03 -0.10428477514E+03  0.28977081751E+03  0.89383805404E+02 0.  0.
         23    2    4    4    0    0  0.44054181135E+03  0.23227366274E+03  0.35184992250E+03  0.61604034404E+03  0.87631019475E+02 0.  0.
          3    1    3    3  502    0 -0.12574057016E+03 -0.91481621040E+02  0.18742278230E+02  0.15662327721E+03  0.00000000000E+00 0. -1.
         -3    1    3    3    0  502 -0.27952343557E+03 -0.39349309852E+03  0.26965521781E+02  0.48342249532E+03  0.00000000000E+00 0.  1.
         11    1    5    5    0    0 -0.51965029119E+02  0.90537098954E+02 -0.61775147411E+02  0.12129921424E+03  0.00000000000E+00 0.  1.
        -11    1    5    5    0    0  0.16687223496E+02  0.16216395786E+03 -0.42509627733E+02  0.16847160327E+03  0.00000000000E+00 0. -1.
          4    1    6    6  503    0  0.37454122400E+03  0.21962961261E+03  0.27498115504E+03  0.51393864501E+03  0.00000000000E+00 0. -1.
         -4    1    6    6    0  503  0.66000587351E+02  0.12644050137E+02  0.76868767461E+02  0.10210169903E+03  0.00000000000E+00 0.  1.
<mgrwt>
<rscale>  0 0.70348299E+03</rscale>
<asrwt>0</asrwt>
<pdfrwt beam="1">  1        2 0.14147153E+00 0.70348299E+03</pdfrwt>
<pdfrwt beam="2">  1       -2 0.96352614E-01 0.70348299E+03</pdfrwt>
<totfact> 0.26162681E+01</totfact>
</mgrwt>
</event>
<event>
12    1  0.1432447E-007  0.7709708E+03  0.7818608E-02  0.9603013E-01
          1   -1    0    0  501    0  0.00000000000E+00  0.00000000000E+00  0.93896673208E+03  0.93896673208E+03  0.00000000000E+00 0. -1.
         -1   -1    0    0    0  501 -0.00000000000E+00 -0.00000000000E+00 -0.72579102591E+03  0.72579102591E+03  0.00000000000E+00 0.  1.
         23    2    1    2    0    0  0.13632831184E+03  0.70001905156E+03  0.12572073014E+03  0.72869128604E+03  0.81075318148E+02 0.  0.
    5000000    2    1    2    0    0 -0.13632831184E+03 -0.70001905156E+03  0.87454976027E+02  0.93606647195E+03  0.59996665401E+03 0.  0.
         23    2    4    4    0    0 -0.18897134883E+03 -0.12150916021E+03  0.22647832655E+03  0.33169780894E+03  0.90864500020E+02 0.  0.
         23    2    4    4    0    0  0.52643036999E+02 -0.57850989135E+03 -0.13902335052E+03  0.60436866301E+03  0.92135797101E+02 0.  0.
          1    1    3    3  502    0  0.49768774609E+02  0.41317875691E+03  0.99740867325E+02  0.42795076434E+03  0.00000000000E+00 0. -1.
         -1    1    3    3    0  502  0.86559537227E+02  0.28684029465E+03  0.25979862815E+02  0.30074052170E+03  0.00000000000E+00 0.  1.
         13    1    5    5    0    0 -0.15813497863E+03 -0.52312855835E+02  0.15788866384E+03  0.22950411003E+03  0.00000000000E+00 0.  1.
        -13    1    5    5    0    0 -0.30836370208E+02 -0.69196304374E+02  0.68589662701E+02  0.10219369891E+03  0.00000000000E+00 0. -1.
          4    1    6    6  503    0  0.55788252827E+02 -0.29022013257E+03 -0.33799628484E+02  0.29746002990E+03  0.00000000000E+00 0.  1.
         -4    1    6    6    0  503 -0.31452158283E+01 -0.28828975878E+03 -0.10522372203E+03  0.30690863312E+03  0.00000000000E+00 0. -1.
<mgrwt>
<rscale>  0 0.77097077E+03</rscale>
<asrwt>0</asrwt>
<pdfrwt beam="1">  1        1 0.14445642E+00 0.77097077E+03</pdfrwt>
<pdfrwt beam="2">  1       -1 0.11166016E+00 0.77097077E+03</pdfrwt>
<totfact> 0.12808702E+01</totfact>
</mgrwt>
</event>
<event>
12    1  0.1432447E-007  0.1281131E+04  0.7818608E-02  0.9044664E-01
          2   -1    0    0  501    0  0.00000000000E+00  0.00000000000E+00  0.35524491826E+04  0.35524491826E+04  0.00000000000E+00 0. -1.
         -2   -1    0    0    0  501 -0.00000000000E+00 -0.00000000000E+00 -0.58560420615E+03  0.58560420615E+03  0.00000000000E+00 0.  1.
         23    2    1    2    0    0  0.81527061722E+03 -0.89572355804E+03  0.47691196465E+03  0.13048984156E+04  0.91257773527E+02 0.  0.
    5000000    2    1    2    0    0 -0.81527061722E+03  0.89572355804E+03  0.24899330118E+04  0.28331549732E+04  0.60001152243E+03 0.  0.
         23    2    4    4    0    0 -0.62671033450E+03  0.26399372281E+03  0.12085586351E+04  0.13893884372E+04  0.85602135931E+02 0.  0.
         23    2    4    4    0    0 -0.18856028272E+03  0.63172983524E+03  0.12813743767E+04  0.14437665360E+04  0.88904175538E+02 0.  0.
          1    1    3    3  502    0  0.70516757451E+03 -0.73390395032E+03  0.42031834034E+03  0.11011556764E+04  0.00000000000E+00 0. -1.
         -1    1    3    3    0  502  0.11010304270E+03 -0.16181960773E+03  0.56593624304E+02  0.20374273918E+03  0.00000000000E+00 0.  1.
         11    1    5    5    0    0 -0.24336716157E+03  0.59850202874E+02  0.46747244769E+03  0.53041503699E+03  0.00000000000E+00 0. -1.
        -11    1    5    5    0    0 -0.38334317293E+03  0.20414351993E+03  0.74108618745E+03  0.85897340017E+03  0.00000000000E+00 0.  1.
          3    1    6    6  503    0 -0.28156782562E+02  0.22263463469E+03  0.38956781599E+03  0.44957987969E+03  0.00000000000E+00 0. -1.
         -3    1    6    6    0  503 -0.16040350016E+03  0.40909520055E+03  0.89180656067E+03  0.99418665633E+03  0.00000000000E+00 0.  1.
<mgrwt>
<rscale>  0 0.12811306E+04</rscale>
<asrwt>0</asrwt>
<pdfrwt beam="1">  1        2 0.54653063E+00 0.12811306E+04</pdfrwt>
<pdfrwt beam="2">  1       -2 0.90092957E-01 0.12811306E+04</pdfrwt>
<totfact> 0.78053768E-01</totfact>
</mgrwt>
</event>
<event>
12    1  0.1432447E-007  0.9993080E+03  0.7818608E-02  0.9309304E-01
         -2   -1    0    0    0  501 -0.00000000000E+00  0.00000000000E+00  0.45754461271E+03  0.45754461271E+03  0.00000000000E+00 0. -1.
          2   -1    0    0  501    0  0.00000000000E+00 -0.00000000000E+00 -0.21860394292E+04  0.21860394292E+04  0.00000000000E+00 0.  1.
         23    2    1    2    0    0  0.12725424628E+03 -0.89855583124E+03 -0.77340370707E+03  0.11958738570E+04  0.91459076527E+02 0.  0.
    5000000    2    1    2    0    0 -0.12725424628E+03  0.89855583124E+03 -0.95509110947E+03  0.14477101850E+04  0.60005793655E+03 0.  0.
         23    2    4    4    0    0 -0.74164556458E+02  0.95974960834E+03 -0.85103652726E+03  0.12878594585E+04  0.87744641420E+02 0.  0.
         23    2    4    4    0    0 -0.53089689827E+02 -0.61193777105E+02 -0.10405458221E+03  0.15985072642E+03  0.90342155910E+02 0.  0.
          2    1    3    3  502    0  0.20121344634E+02 -0.46803286800E+03 -0.39824331013E+03  0.61486369880E+03  0.00000000000E+00 0. -1.
         -2    1    3    3    0  502  0.10713290165E+03 -0.43052296324E+03 -0.37516039693E+03  0.58101015819E+03  0.00000000000E+00 0.  1.
         13    1    5    5    0    0 -0.89543273746E+02  0.83100355400E+03 -0.71479680139E+03  0.10997815110E+04  0.00000000000E+00 0. -1.
        -13    1    5    5    0    0  0.15378717288E+02  0.12874605434E+03 -0.13623972586E+03  0.18807794756E+03  0.00000000000E+00 0.  1.
          3    1    6    6  503    0 -0.55673843690E+02 -0.82518027795E+02 -0.80946116438E+02  0.12830072310E+03  0.00000000000E+00 0. -1.
         -3    1    6    6    0  503  0.25841538637E+01  0.21324250690E+02 -0.23108465773E+02  0.31550003313E+02  0.00000000000E+00 0.  1.
<mgrwt>
<rscale>  0 0.99930803E+03</rscale>
<asrwt>0</asrwt>
<pdfrwt beam="1">  1        2 0.33631376E+00 0.99930803E+03</pdfrwt>
<pdfrwt beam="2">  1       -2 0.70391478E-01 0.99930803E+03</pdfrwt>
<totfact> 0.97106869E+00</totfact>
</mgrwt>
</event>
<event>
12    1  0.1432447E-007  0.6407962E+03  0.7818608E-02  0.9824204E-01
         -2   -1    0    0    0  501 -0.00000000000E+00  0.00000000000E+00  0.11683880088E+04  0.11683880088E+04  0.00000000000E+00 0. -1.
          2   -1    0    0  501    0  0.00000000000E+00 -0.00000000000E+00 -0.63227335100E+03  0.63227335100E+03  0.00000000000E+00 0.  1.
         23    2    1    2    0    0 -0.88228476682E+01 -0.50146761858E+03 -0.35024443734E+03  0.61864659215E+03  0.92221607933E+02 0.  0.
    5000000    2    1    2    0    0  0.88228476682E+01  0.50146761858E+03  0.88635909517E+03  0.11820147677E+04  0.59998237498E+03 0.  0.
         23    2    4    4    0    0  0.20198964492E+03  0.52176351498E+03  0.67177073666E+03  0.87892135915E+03  0.90497793974E+02 0.  0.
         23    2    4    4    0    0 -0.19316679725E+03 -0.20295896396E+02  0.21458835851E+03  0.30309340853E+03  0.89956187775E+02 0.  0.
          2    1    3    3  502    0 -0.26151034790E+02 -0.15414364554E+03 -0.66837476467E+02  0.17003349182E+03  0.00000000000E+00 0.  1.
         -2    1    3    3    0  502  0.17328187121E+02 -0.34732397304E+03 -0.28340696087E+03  0.44861310034E+03  0.00000000000E+00 0. -1.
         11    1    5    5    0    0  0.10952489040E+02  0.13256083484E+03  0.14801943206E+03  0.19900272415E+03  0.00000000000E+00 0. -1.
        -11    1    5    5    0    0  0.19103715588E+03  0.38920268014E+03  0.52375130460E+03  0.67991863500E+03  0.00000000000E+00 0.  1.
          2    1    6    6  503    0 -0.11514156375E+03 -0.52452819764E+02  0.15342941491E+03  0.19887046881E+03  0.00000000000E+00 0. -1.
         -2    1    6    6    0  503 -0.78025233494E+02  0.32156923368E+02  0.61158943594E+02  0.10422293972E+03  0.00000000000E+00 0.  1.
<mgrwt>
<rscale>  0 0.64079623E+03</rscale>
<asrwt>0</asrwt>
<pdfrwt beam="1">  1        2 0.97272823E-01 0.64079623E+03</pdfrwt>
<pdfrwt beam="2">  1       -2 0.17975200E+00 0.64079623E+03</pdfrwt>
<totfact> 0.87337230E+00</totfact>
</mgrwt>
</event>
<event>
12    1  0.1432447E-007  0.8555852E+03  0.7818608E-02  0.9482871E-01
         -2   -1    0    0    0  501 -0.00000000000E+00  0.00000000000E+00  0.18421923819E+04  0.18421923819E+04  0.00000000000E+00 0.  1.
          2   -1    0    0  501    0  0.00000000000E+00 -0.00000000000E+00 -0.66628073114E+03  0.66628073114E+03  0.00000000000E+00 0. -1.
         23    2    1    2    0    0 -0.67622394057E+03  0.39934301573E+03  0.12907808327E+04  0.15136821269E+04  0.91459068984E+02 0.  0.
    5000000    2    1    2    0    0  0.67622394057E+03 -0.39934301573E+03 -0.11486918196E+03  0.99479098609E+03  0.59971702913E+03 0.  0.
         23    2    4    4    0    0  0.33836606474E+03  0.63343254256E+02  0.10982295281E+03  0.37287042034E+03  0.92017975258E+02 0.  0.
         23    2    4    4    0    0  0.33785787583E+03 -0.46268626998E+03 -0.22469213478E+03  0.62192056575E+03  0.89844899608E+02 0.  0.
          3    1    3    3  502    0 -0.45594473917E+03  0.30557985330E+03  0.95106970435E+03  0.10980884456E+04  0.00000000000E+00 0. -1.
         -3    1    3    3    0  502 -0.22027920140E+03  0.93763162429E+02  0.33971112833E+03  0.41559368127E+03  0.00000000000E+00 0.  1.
         11    1    5    5    0    0  0.18180396943E+03  0.49643777137E+02  0.14400155082E+02  0.18900939758E+03  0.00000000000E+00 0. -1.
        -11    1    5    5    0    0  0.15656209532E+03  0.13699477119E+02  0.95422797729E+02  0.18386102276E+03  0.00000000000E+00 0.  1.
          3    1    6    6  503    0  0.23244900266E+03 -0.25962027735E+03 -0.16444095229E+03  0.38532590626E+03  0.00000000000E+00 0. -1.
         -3    1    6    6    0  503  0.10540887317E+03 -0.20306599264E+03 -0.60251182482E+02  0.23659465949E+03  0.00000000000E+00 0.  1.
<mgrwt>
<rscale>  0 0.85558521E+03</rscale>
<asrwt>0</asrwt>
<pdfrwt beam="1">  1        2 0.10250473E+00 0.85558521E+03</pdfrwt>
<pdfrwt beam="2">  1       -2 0.28341421E+00 0.85558521E+03</pdfrwt>
<totfact> 0.17886883E+00</totfact>
</mgrwt>
</event>
<event>
12    1  0.1432447E-007  0.1097907E+04  0.7818608E-02  0.9207235E-01
          2   -1    0    0  501    0  0.00000000000E+00  0.00000000000E+00  0.78908810681E+03  0.78908810681E+03  0.00000000000E+00 0.  1.
         -2   -1    0    0    0  501 -0.00000000000E+00 -0.00000000000E+00 -0.16309466180E+04  0.16309466180E+04  0.00000000000E+00 0. -1.
         23    2    1    2    0    0  0.10072679936E+04  0.30516626221E+03 -0.42768906291E+03  0.11397132890E+04  0.91176686243E+02 0.  0.
    5000000    2    1    2    0    0 -0.10072679936E+04 -0.30516626221E+03 -0.41416944829E+03  0.12803214358E+04  0.59997615678E+03 0.  0.
         23    2    4    4    0    0 -0.61725925309E+03 -0.40683106766E+03 -0.44299096758E+03  0.86661468990E+03  0.90881902767E+02 0.  0.
         23    2    4    4    0    0 -0.39000874047E+03  0.10166480545E+03  0.28821519290E+02  0.41370674593E+03  0.88769596946E+02 0.  0.
          3    1    3    3  502    0  0.11959479872E+03  0.22772658079E+02 -0.22093127189E+02  0.12373203346E+03  0.00000000000E+00 0. -1.
         -3    1    3    3    0  502  0.88767319485E+03  0.28239360413E+03 -0.40559593572E+03  0.10159812555E+04  0.00000000000E+00 0.  1.
         13    1    5    5    0    0 -0.25724646299E+02 -0.21498430330E+02 -0.68803862820E+00  0.33532272977E+02  0.00000000000E+00 0. -1.
        -13    1    5    5    0    0 -0.59153460680E+03 -0.38533263733E+03 -0.44230292895E+03  0.83308241692E+03  0.00000000000E+00 0.  1.
          1    1    6    6  503    0 -0.13598536503E+03  0.33348217013E+02  0.52635582585E+02  0.14958150833E+03  0.00000000000E+00 0. -1.
         -1    1    6    6    0  503 -0.25402337544E+03  0.68316588442E+02 -0.23814063295E+02  0.26412523760E+03  0.00000000000E+00 0.  1.
<mgrwt>
<rscale>  0 0.10979065E+04</rscale>
<asrwt>0</asrwt>
<pdfrwt beam="1">  1        2 0.12139817E+00 0.10979065E+04</pdfrwt>
<pdfrwt beam="2">  1       -2 0.25091486E+00 0.10979065E+04</pdfrwt>
<totfact> 0.21962551E+00</totfact>
</mgrwt>
</event>
<event>
12    1  0.1432447E-007  0.6096872E+03  0.7818608E-02  0.9885509E-01
          2   -1    0    0  501    0  0.00000000000E+00  0.00000000000E+00  0.91961405997E+03  0.91961405997E+03  0.00000000000E+00 0. -1.
         -2   -1    0    0    0  501 -0.00000000000E+00 -0.00000000000E+00 -0.52107317460E+03  0.52107317460E+03  0.00000000000E+00 0.  1.
         23    2    1    2    0    0  0.39138677236E+03  0.39231597671E+03  0.23037182605E+03  0.60673339063E+03  0.89212095129E+02 0.  0.
    5000000    2    1    2    0    0 -0.39138677236E+03 -0.39231597671E+03  0.16816905932E+03  0.83395384393E+03  0.60008561900E+03 0.  0.
         23    2    4    4    0    0 -0.20668107079E+03 -0.40518383309E+03 -0.12169842784E+03  0.47803488332E+03  0.82558092964E+02 0.  0.
         23    2    4    4    0    0 -0.18470570157E+03  0.12867856379E+02  0.28986748716E+03  0.35591896061E+03  0.91506111771E+02 0.  0.
          2    1    3    3  502    0  0.32074134811E+03  0.26869767471E+03  0.16065290478E+03  0.44819951873E+03  0.00000000000E+00 0. -1.
         -2    1    3    3    0  502  0.70645424249E+02  0.12361830200E+03  0.69718921273E+02  0.15853387190E+03  0.00000000000E+00 0.  1.
         11    1    5    5    0    0 -0.98616394372E+02 -0.21974157783E+03 -0.10501993703E+03  0.26275604929E+03  0.00000000000E+00 0.  1.
        -11    1    5    5    0    0 -0.10806467642E+03 -0.18544225526E+03 -0.16678490808E+02  0.21527883403E+03  0.00000000000E+00 0. -1.
          1    1    6    6  503    0 -0.13415431564E+03 -0.29231780524E+02  0.22464019595E+03  0.26327760071E+03  0.00000000000E+00 0. -1.
         -1    1    6    6    0  503 -0.50551385926E+02  0.42099636902E+02  0.65227291208E+02  0.92641359903E+02  0.00000000000E+00 0.  1.
<mgrwt>
<rscale>  0 0.60968724E+03</rscale>
<asrwt>0</asrwt>
<pdfrwt beam="1">  1        2 0.14147909E+00 0.60968724E+03</pdfrwt>
<pdfrwt beam="2">  1       -2 0.80165104E-01 0.60968724E+03</pdfrwt>
<totfact> 0.40268319E+01</totfact>
</mgrwt>
</event>
<event>
12    1  0.1432447E-007  0.4168118E+03  0.7818608E-02  0.1038109E+00
          1   -1    0    0  501    0  0.00000000000E+00  0.00000000000E+00  0.63780186021E+03  0.63780186021E+03  0.00000000000E+00 0. -1.
         -1   -1    0    0    0  501 -0.00000000000E+00 -0.00000000000E+00 -0.46797255590E+03  0.46797255590E+03  0.00000000000E+00 0.  1.
         23    2    1    2    0    0 -0.22473752872E+03 -0.27565616046E+03 -0.60126495219E+02  0.37125025084E+03  0.87853729031E+02 0.  0.
    5000000    2    1    2    0    0  0.22473752872E+03  0.27565616046E+03  0.22995579953E+03  0.73452416527E+03  0.60012732316E+03 0.  0.
         23    2    4    4    0    0 -0.45297819048E+02  0.16525893994E+03  0.35417734654E+03  0.40423218307E+03  0.92734326889E+02 0.  0.
         23    2    4    4    0    0  0.27003534777E+03  0.11039722052E+03 -0.12422154701E+03  0.33029198220E+03  0.92494137234E+02 0.  0.
          4    1    3    3  502    0 -0.15647056655E+03 -0.20548005121E+03 -0.38023693751E+01  0.25830127304E+03  0.00000000000E+00 0. -1.
         -4    1    3    3    0  502 -0.68266962166E+02 -0.70176109258E+02 -0.56324125844E+02  0.11294897780E+03  0.00000000000E+00 0.  1.
         13    1    5    5    0    0 -0.53766766016E+02  0.64696144877E+02  0.99537391760E+02  0.13032324677E+03  0.00000000000E+00 0. -1.
        -13    1    5    5    0    0  0.84689469682E+01  0.10056279507E+03  0.25463995478E+03  0.27390893630E+03  0.00000000000E+00 0.  1.
          3    1    6    6  503    0  0.18610484148E+03  0.66034406206E+02 -0.36065391004E+02  0.20073930172E+03  0.00000000000E+00 0. -1.
         -3    1    6    6    0  503  0.83930506288E+02  0.44362814315E+02 -0.88156156002E+02  0.12955268048E+03  0.00000000000E+00 0.  1.
<mgrwt>
<rscale>  0 0.41681180E+03</rscale>
<asrwt>0</asrwt>
<pdfrwt beam="1">  1        1 0.98123363E-01 0.41681180E+03</pdfrwt>
<pdfrwt beam="2">  1       -1 0.71995778E-01 0.41681180E+03</pdfrwt>
<totfact> 0.64560724E+01</totfact>
</mgrwt>
</event>
<event>
12    1  0.1432447E-007  0.1405431E+04  0.7818608E-02  0.8949897E-01
         -2   -1    0    0    0  501 -0.00000000000E+00  0.00000000000E+00  0.68903743312E+03  0.68903743312E+03  0.00000000000E+00 0.  1.
          2   -1    0    0  501    0  0.00000000000E+00 -0.00000000000E+00 -0.37786997970E+04  0.37786997970E+04  0.00000000000E+00 0. -1.
         23    2    1    2    0    0 -0.94603112274E+03 -0.97632797134E+03 -0.44367337394E+03  0.14331139676E+04  0.93693054635E+02 0.  0.
    5000000    2    1    2    0    0  0.94603112274E+03  0.97632797134E+03 -0.26459889899E+04  0.30346232625E+04  0.59957436399E+03 0.  0.
         23    2    4    4    0    0  0.27984485451E+03  0.22537980699E+02 -0.77809651686E+03  0.83221393201E+03  0.91239990792E+02 0.  0.
         23    2    4    4    0    0  0.66618626823E+03  0.95378999064E+03 -0.18678924730E+04  0.22024093305E+04  0.89805779553E+02 0.  0.
          2    1    3    3  502    0 -0.16648529223E+03 -0.19956968639E+03 -0.52217741951E+02  0.26508886214E+03  0.00000000000E+00 0. -1.
         -2    1    3    3    0  502 -0.77954583051E+03 -0.77675828495E+03 -0.39145563199E+03  0.11680251054E+04  0.00000000000E+00 0.  1.
         11    1    5    5    0    0  0.11088903319E+03  0.34800500177E+02 -0.21779898604E+03  0.24686808383E+03  0.00000000000E+00 0. -1.
        -11    1    5    5    0    0  0.16895582132E+03 -0.12262519478E+02 -0.56029753082E+03  0.58534584818E+03  0.00000000000E+00 0.  1.
          1    1    6    6  503    0  0.24006146000E+03  0.29591703008E+03 -0.67260229792E+03  0.77303961376E+03  0.00000000000E+00 0. -1.
         -1    1    6    6    0  503  0.42612480822E+03  0.65787296056E+03 -0.11952901751E+04  0.14293697167E+04  0.00000000000E+00 0.  1.
<mgrwt>
<rscale>  0 0.14054308E+04</rscale>
<asrwt>0</asrwt>
<pdfrwt beam="1">  1        2 0.58133844E+00 0.14054308E+04</pdfrwt>
<pdfrwt beam="2">  1       -2 0.10600576E+00 0.14054308E+04</pdfrwt>
<totfact> 0.35773776E-01</totfact>
</mgrwt>
</event>
<event>
12    1  0.1432447E-007  0.1895956E+04  0.7818608E-02  0.8656872E-01
         -1   -1    0    0    0  501 -0.00000000000E+00  0.00000000000E+00  0.17221705559E+04  0.17221705559E+04  0.00000000000E+00 0.  1.
          1   -1    0    0  501    0  0.00000000000E+00 -0.00000000000E+00 -0.22058874745E+04  0.22058874745E+04  0.00000000000E+00 0. -1.
         23    2    1    2    0    0  0.14347592318E+04  0.11654237064E+04  0.21441906776E+03  0.18630521231E+04  0.90781100421E+02 0.  0.
    5000000    2    1    2    0    0 -0.14347592318E+04 -0.11654237064E+04 -0.69813598644E+03  0.20650059073E+04  0.60009088710E+03 0.  0.
         23    2    4    4    0    0 -0.14302368670E+04 -0.11642764545E+04 -0.65595729508E+03  0.19594809061E+04  0.90378593695E+02 0.  0.
         23    2    4    4    0    0 -0.45223648390E+01 -0.11472518642E+01 -0.42178691362E+02  0.10552500116E+03  0.96616333478E+02 0.  0.
          4    1    3    3  502    0  0.95146979022E+03  0.79556997015E+03  0.18287711650E+03  0.12536627851E+04  0.00000000000E+00 0. -1.
         -4    1    3    3    0  502  0.48328944161E+03  0.36985373621E+03  0.31541951260E+02  0.60938933799E+03  0.00000000000E+00 0.  1.
         13    1    5    5    0    0 -0.39949032316E+03 -0.37766708789E+03 -0.18768757408E+03  0.58090582115E+03  0.00000000000E+00 0. -1.
        -13    1    5    5    0    0 -0.10307465438E+04 -0.78660936661E+03 -0.46826972100E+03  0.13785750850E+04  0.00000000000E+00 0.  1.
          3    1    6    6  503    0 -0.17459351058E+02  0.45281397766E+02 -0.20945948265E+02  0.52857985884E+02  0.00000000000E+00 0. -1.
         -3    1    6    6    0  503  0.12936986219E+02 -0.46428649630E+02 -0.21232743097E+02  0.52667015278E+02  0.00000000000E+00 0.  1.
<mgrwt>
<rscale>  0 0.18959556E+04</rscale>
<asrwt>0</asrwt>
<pdfrwt beam="1">  1        1 0.33936731E+00 0.18959556E+04</pdfrwt>
<pdfrwt beam="2">  1       -1 0.26494932E+00 0.18959556E+04</pdfrwt>
<totfact> 0.10844519E-01</totfact>
</mgrwt>
</event>
<event>
12    1  0.1432447E-007  0.1265903E+04  0.7818608E-02  0.9057050E-01
         -2   -1    0    0    0  501 -0.00000000000E+00  0.00000000000E+00  0.16714879913E+04  0.16714879913E+04  0.00000000000E+00 0.  1.
          2   -1    0    0  501    0  0.00000000000E+00 -0.00000000000E+00 -0.18018882664E+04  0.18018882664E+04  0.00000000000E+00 0. -1.
         23    2    1    2    0    0 -0.11977333423E+04  0.23194188879E+03  0.10959030143E+04  0.16424748063E+04  0.91421406111E+02 0.  0.
    5000000    2    1    2    0    0  0.11977333423E+04 -0.23194188879E+03 -0.12263032893E+04  0.18309014514E+04  0.60001513992E+03 0.  0.
         23    2    4    4    0    0  0.12312928597E+04 -0.25220787058E+03 -0.11404001343E+04  0.16995872984E+04  0.91616605301E+02 0.  0.
         23    2    4    4    0    0 -0.33559517345E+02  0.20265981784E+02 -0.85903155066E+02  0.13131415299E+03  0.91252964346E+02 0.  0.
          4    1    3    3  502    0 -0.38191574341E+03  0.49797927323E+02  0.39377829442E+03  0.55081831287E+03  0.00000000000E+00 0.  1.
         -4    1    3    3    0  502 -0.81581759892E+03  0.18214396147E+03  0.70212471985E+03  0.10916564934E+04  0.00000000000E+00 0. -1.
         11    1    5    5    0    0  0.77392634868E+03 -0.20134926347E+03 -0.70541980141E+03  0.10663585773E+04  0.00000000000E+00 0. -1.
        -11    1    5    5    0    0  0.45736651100E+03 -0.50858607112E+02 -0.43498033286E+03  0.63322872114E+03  0.00000000000E+00 0.  1.
          2    1    6    6  503    0 -0.11274253677E+02 -0.87647565576E+01 -0.92952778119E+02  0.94043334232E+02  0.00000000000E+00 0. -1.
         -2    1    6    6    0  503 -0.22285263667E+02  0.29030738342E+02  0.70496230524E+01  0.37270818754E+02  0.00000000000E+00 0.  1.
<mgrwt>
<rscale>  0 0.12659029E+04</rscale>
<asrwt>0</asrwt>
<pdfrwt beam="1">  1        2 0.27721358E+00 0.12659029E+04</pdfrwt>
<pdfrwt beam="2">  1       -2 0.25715200E+00 0.12659029E+04</pdfrwt>
<totfact> 0.48199545E-01</totfact>
</mgrwt>
</event>
<event>
12    1  0.1432447E-007  0.4934411E+03  0.7818608E-02  0.1015505E+00
          1   -1    0    0  501    0  0.00000000000E+00  0.00000000000E+00  0.11839945201E+04  0.11839945201E+04  0.00000000000E+00 0. -1.
         -1   -1    0    0    0  501 -0.00000000000E+00 -0.00000000000E+00 -0.55629342575E+03  0.55629342575E+03  0.00000000000E+00 0.  1.
         23    2    1    2    0    0 -0.32052320411E+03 -0.31619872625E+03  0.84281821699E+03  0.95985323689E+03  0.90878658791E+02 0.  0.
    5000000    2    1    2    0    0  0.32052320411E+03  0.31619872625E+03 -0.21511712261E+03  0.78043470900E+03  0.60007182880E+03 0.  0.
         23    2    4    4    0    0  0.84933302671E+02  0.26362931826E+03 -0.37492764726E+03  0.47563054372E+03  0.94549405550E+02 0.  0.
         23    2    4    4    0    0  0.23558990144E+03  0.52569407990E+02  0.15981052465E+03  0.30480416528E+03  0.95394082986E+02 0.  0.
          3    1    3    3  502    0 -0.10722638201E+03 -0.12623036746E+03  0.39968950159E+03  0.43264685409E+03  0.00000000000E+00 0. -1.
         -3    1    3    3    0  502 -0.21329682210E+03 -0.18996835879E+03  0.44312871540E+03  0.52720638280E+03  0.00000000000E+00 0.  1.
         11    1    5    5    0    0  0.10843899937E+02  0.95855983268E+02 -0.20062088147E+03  0.22260884479E+03  0.00000000000E+00 0. -1.
        -11    1    5    5    0    0  0.74089402734E+02  0.16777333499E+03 -0.17430676578E+03  0.25302169893E+03  0.00000000000E+00 0.  1.
          1    1    6    6  503    0  0.12158640941E+03  0.70202547636E+02  0.61664068441E+02  0.15334311196E+03  0.00000000000E+00 0. -1.
         -1    1    6    6    0  503  0.11400349203E+03 -0.17633139646E+02  0.98146456208E+02  0.15146105333E+03  0.00000000000E+00 0.  1.
<mgrwt>
<rscale>  0 0.49344107E+03</rscale>
<asrwt>0</asrwt>
<pdfrwt beam="1">  1        1 0.18215300E+00 0.49344107E+03</pdfrwt>
<pdfrwt beam="2">  1       -1 0.85583605E-01 0.49344107E+03</pdfrwt>
<totfact> 0.15940357E+01</totfact>
</mgrwt>
</event>
<event>
12    1  0.1432447E-007  0.1066152E+04  0.7818608E-02  0.9238825E-01
          2   -1    0    0  501    0  0.00000000000E+00  0.00000000000E+00  0.17817081198E+04  0.17817081198E+04  0.00000000000E+00 0. -1.
         -2   -1    0    0    0  501 -0.00000000000E+00 -0.00000000000E+00 -0.69022101916E+03  0.69022101916E+03  0.00000000000E+00 0.  1.
         23    2    1    2    0    0  0.96335858242E+03  0.33068627795E+03  0.37091171654E+03  0.10877440737E+04  0.90545544510E+02 0.  0.
    5000000    2    1    2    0    0 -0.96335858242E+03 -0.33068627795E+03  0.72057538411E+03  0.13841850653E+04  0.59943826869E+03 0.  0.
         23    2    4    4    0    0 -0.47035972517E+03  0.55207983807E+02  0.88962422051E+02  0.49027458906E+03  0.90380681615E+02 0.  0.
         23    2    4    4    0    0 -0.49299885726E+03 -0.38589426176E+03  0.63161296206E+03  0.89391047620E+03  0.90436447927E+02 0.  0.
          4    1    3    3  502    0  0.27944983172E+03  0.55079541303E+02  0.11656358555E+03  0.30775482742E+03  0.00000000000E+00 0.  1.
         -4    1    3    3    0  502  0.68390875070E+03  0.27560673665E+03  0.25434813098E+03  0.77998924627E+03  0.00000000000E+00 0. -1.
         13    1    5    5    0    0 -0.33246659999E+03 -0.23674931752E+01  0.54352189281E+02  0.33688841715E+03  0.00000000000E+00 0. -1.
        -13    1    5    5    0    0 -0.13789312518E+03  0.57575476982E+02  0.34610232769E+02  0.15338617191E+03  0.00000000000E+00 0.  1.
          3    1    6    6  503    0 -0.19295199437E+03 -0.11936347138E+03  0.17902975352E+03  0.28901516063E+03  0.00000000000E+00 0. -1.
         -3    1    6    6    0  503 -0.30004686289E+03 -0.26653079038E+03  0.45258320854E+03  0.60489531557E+03  0.00000000000E+00 0.  1.
<mgrwt>
<rscale>  0 0.10661522E+04</rscale>
<asrwt>0</asrwt>
<pdfrwt beam="1">  1        2 0.27410894E+00 0.10661522E+04</pdfrwt>
<pdfrwt beam="2">  1       -2 0.10618785E+00 0.10661522E+04</pdfrwt>
<totfact> 0.62577452E+00</totfact>
</mgrwt>
</event>
<event>
12    1  0.1432447E-007  0.8005952E+03  0.7818608E-02  0.9559156E-01
         -2   -1    0    0    0  501 -0.00000000000E+00  0.00000000000E+00  0.38394363841E+03  0.38394363841E+03  0.00000000000E+00 0.  1.
          2   -1    0    0  501    0  0.00000000000E+00 -0.00000000000E+00 -0.22515807364E+04  0.22515807364E+04  0.00000000000E+00 0. -1.
         23    2    1    2    0    0 -0.22845410290E+03 -0.71103512322E+03 -0.13529699106E+04  0.15479701842E+04  0.89004990890E+02 0.  0.
    5000000    2    1    2    0    0  0.22845410290E+03  0.71103512322E+03 -0.51466718730E+03  0.10875541906E+04  0.60010797381E+03 0.  0.
         23    2    4    4    0    0  0.32939956009E+03  0.51866508213E+03 -0.57446748452E+03  0.84614397010E+03  0.91810619043E+02 0.  0.
         23    2    4    4    0    0 -0.10094545719E+03  0.19237004109E+03  0.59800297215E+02  0.24141022050E+03  0.86640642754E+02 0.  0.
          2    1    3    3  502    0 -0.15162661114E+03 -0.48928325409E+03 -0.83998252797E+03  0.98384926652E+03  0.00000000000E+00 0. -1.
         -2    1    3    3    0  502 -0.76827491761E+02 -0.22175186913E+03 -0.51298738268E+03  0.56412091766E+03  0.00000000000E+00 0.  1.
         13    1    5    5    0    0  0.14246466464E+03  0.30439115306E+03 -0.28959326113E+03  0.44363770312E+03  0.00000000000E+00 0.  1.
        -13    1    5    5    0    0  0.18693489545E+03  0.21427392906E+03 -0.28487422339E+03  0.40250626699E+03  0.00000000000E+00 0. -1.
          3    1    6    6  503    0  0.15858223802E+02  0.28150169752E+02  0.64776578602E+01  0.32952623121E+02  0.00000000000E+00 0. -1.
         -3    1    6    6    0  503 -0.11680368099E+03  0.16421987134E+03  0.53322639354E+02  0.20845759737E+03  0.00000000000E+00 0.  1.
<mgrwt>
<rscale>  0 0.80059523E+03</rscale>
<asrwt>0</asrwt>
<pdfrwt beam="1">  1        2 0.34639704E+00 0.80059523E+03</pdfrwt>
<pdfrwt beam="2">  1       -2 0.59068252E-01 0.80059523E+03</pdfrwt>
<totfact> 0.13358836E+01</totfact>
</mgrwt>
</event>
<event>
12    1  0.1432447E-007  0.5240635E+03  0.7818608E-02  0.1007682E+00
         -2   -1    0    0    0  501 -0.00000000000E+00  0.00000000000E+00  0.85627382401E+03  0.85627382401E+03  0.00000000000E+00 0.  1.
          2   -1    0    0  501    0  0.00000000000E+00 -0.00000000000E+00 -0.13686351310E+04  0.13686351310E+04  0.00000000000E+00 0. -1.
         23    2    1    2    0    0  0.31605385980E+03  0.23675630026E+03  0.70371081829E+03  0.81257256368E+03  0.95507420966E+02 0.  0.
    5000000    2    1    2    0    0 -0.31605385980E+03 -0.23675630026E+03 -0.12160721253E+04  0.14123363914E+04  0.59993256322E+03 0.  0.
         23    2    4    4    0    0  0.11175496422E+03  0.24456861595E+02 -0.57287195100E+03  0.59194130651E+03  0.95524489031E+02 0.  0.
         23    2    4    4    0    0 -0.42780882402E+03 -0.26121316185E+03 -0.64320017433E+03  0.82039508487E+03  0.89938452194E+02 0.  0.
          4    1    3    3  502    0  0.10762819845E+03  0.11188973936E+03  0.19875499704E+03  0.25220367111E+03  0.00000000000E+00 0. -1.
         -4    1    3    3    0  502  0.20842566135E+03  0.12486656090E+03  0.50495582125E+03  0.56036889257E+03  0.00000000000E+00 0.  1.
         13    1    5    5    0    0  0.96561256381E+02  0.53195987678E+02 -0.35698017297E+03  0.37361575613E+03  0.00000000000E+00 0.  1.
        -13    1    5    5    0    0  0.15193707841E+02 -0.28739126083E+02 -0.21589177803E+03  0.21832555038E+03  0.00000000000E+00 0. -1.
          4    1    6    6  503    0 -0.31763176555E+03 -0.23149948894E+03 -0.52815889750E+03  0.65835687349E+03  0.00000000000E+00 0. -1.
         -4    1    6    6    0  503 -0.11017705847E+03 -0.29713672910E+02 -0.11504127683E+03  0.16203821137E+03  0.00000000000E+00 0.  1.
<mgrwt>
<rscale>  0 0.52406355E+03</rscale>
<asrwt>0</asrwt>
<pdfrwt beam="1">  1        2 0.21055925E+00 0.52406355E+03</pdfrwt>
<pdfrwt beam="2">  1       -2 0.13173444E+00 0.52406355E+03</pdfrwt>
<totfact> 0.67323208E+00</totfact>
</mgrwt>
</event>
<event>
12    1  0.1432447E-007  0.4353316E+03  0.7818608E-02  0.1032189E+00
         -1   -1    0    0    0  501 -0.00000000000E+00  0.00000000000E+00  0.18407874769E+04  0.18407874769E+04  0.00000000000E+00 0.  1.
          1   -1    0    0  501    0  0.00000000000E+00 -0.00000000000E+00 -0.33114498210E+03  0.33114498210E+03  0.00000000000E+00 0. -1.
         23    2    1    2    0    0  0.31407974197E+03  0.27985518191E+03 -0.64690275961E+02  0.43540373972E+03  0.91796392075E+02 0.  0.
    5000000    2    1    2    0    0 -0.31407974197E+03 -0.27985518191E+03  0.15743327707E+04  0.17365287192E+04  0.60003609274E+03 0.  0.
         23    2    4    4    0    0 -0.21856249661E+03 -0.18570063160E+03  0.15418281180E+04  0.15711185822E+04  0.94474146599E+02 0.  0.
         23    2    4    4    0    0 -0.95517245361E+02 -0.94154550311E+02  0.32504652759E+02  0.16541013707E+03  0.91188472346E+02 0.  0.
          4    1    3    3  502    0  0.16982581811E+03  0.18304654668E+03  0.93392640008E+00  0.24969525219E+03  0.00000000000E+00 0. -1.
         -4    1    3    3    0  502  0.14425392386E+03  0.96808635239E+02 -0.65624202362E+02  0.18570848753E+03  0.00000000000E+00 0.  1.
         13    1    5    5    0    0 -0.77591646170E+02 -0.11244636417E+03  0.55398225323E+03  0.57057951704E+03  0.00000000000E+00 0. -1.
        -13    1    5    5    0    0 -0.14097085044E+03 -0.73254267436E+02  0.98784586474E+03  0.10005390651E+04  0.00000000000E+00 0.  1.
          2    1    6    6  503    0 -0.10298710503E+03 -0.65286142904E+02  0.48904893524E+02  0.13137850992E+03  0.00000000000E+00 0. -1.
         -2    1    6    6    0  503  0.74698596646E+01 -0.28868407407E+02 -0.16400240766E+02  0.34031627155E+02  0.00000000000E+00 0.  1.
<mgrwt>
<rscale>  0 0.43533158E+03</rscale>
<asrwt>0</asrwt>
<pdfrwt beam="1">  1        1 0.50945383E-01 0.43533158E+03</pdfrwt>
<pdfrwt beam="2">  1       -1 0.28319807E+00 0.43533158E+03</pdfrwt>
<totfact> 0.36380330E+00</totfact>
</mgrwt>
</event>
<event>
12    1  0.1432447E-007  0.1003748E+04  0.7818608E-02  0.9304443E-01
         -2   -1    0    0    0  501 -0.00000000000E+00  0.00000000000E+00  0.74881287373E+03  0.74881287373E+03  0.00000000000E+00 0.  1.
          2   -1    0    0  501    0  0.00000000000E+00 -0.00000000000E+00 -0.15063086799E+04  0.15063086799E+04  0.00000000000E+00 0. -1.
         23    2    1    2    0    0 -0.89011753816E+03  0.29483832331E+03 -0.63288750673E+03  0.11350535497E+04  0.92526190502E+02 0.  0.
    5000000    2    1    2    0    0  0.89011753816E+03 -0.29483832331E+03 -0.12460829940E+03  0.11200680039E+04  0.59982183719E+03 0.  0.
         23    2    4    4    0    0  0.16793335735E+03  0.13943883055E+03  0.76501186762E+02  0.24884219181E+03  0.91788914760E+02 0.  0.
         23    2    4    4    0    0  0.72218418082E+03 -0.43427715386E+03 -0.20110948616E+03  0.87122581206E+03  0.91884453471E+02 0.  0.
          4    1    3    3  502    0 -0.51923493370E+03  0.12369379355E+03 -0.35793259113E+03  0.64266695164E+03  0.00000000000E+00 0. -1.
         -4    1    3    3    0  502 -0.37088260447E+03  0.17114452976E+03 -0.27495491560E+03  0.49238659809E+03  0.00000000000E+00 0.  1.
         13    1    5    5    0    0  0.12628116790E+03  0.11683375539E+03  0.96670466362E+02  0.19733787987E+03  0.00000000000E+00 0.  1.
        -13    1    5    5    0    0  0.41652189444E+02  0.22605075159E+02 -0.20169279600E+02  0.51504311936E+02  0.00000000000E+00 0. -1.
          1    1    6    6  503    0  0.42369904531E+03 -0.29616440445E+03 -0.15093347584E+03  0.53853054657E+03  0.00000000000E+00 0. -1.
         -1    1    6    6    0  503  0.29848513551E+03 -0.13811274941E+03 -0.50176010318E+02  0.33269526549E+03  0.00000000000E+00 0.  1.
<mgrwt>
<rscale>  0 0.10037483E+04</rscale>
<asrwt>0</asrwt>
<pdfrwt beam="1">  1        2 0.23173979E+00 0.10037483E+04</pdfrwt>
<pdfrwt beam="2">  1       -2 0.11520198E+00 0.10037483E+04</pdfrwt>
<totfact> 0.73475482E+00</totfact>
</mgrwt>
</event>
<event>
12    1  0.1432447E-007  0.8187507E+03  0.7818608E-02  0.9533266E-01
          2   -1    0    0  501    0  0.00000000000E+00  0.00000000000E+00  0.16417998098E+04  0.16417998098E+04  0.00000000000E+00 0.  1.
         -2   -1    0    0    0  501 -0.00000000000E+00 -0.00000000000E+00 -0.48794529994E+03  0.48794529994E+03  0.00000000000E+00 0. -1.
         23    2    1    2    0    0 -0.38448258410E+03  0.68641282014E+03  0.61732364597E+03  0.10042517896E+04  0.91889912261E+02 0.  0.
    5000000    2    1    2    0    0  0.38448258410E+03 -0.68641282014E+03  0.53653086391E+03  0.11254933201E+04  0.59990034888E+03 0.  0.
         23    2    4    4    0    0  0.30275770726E+03 -0.23217368544E+03 -0.24166500011E+02  0.39340253925E+03  0.92815347061E+02 0.  0.
         23    2    4    4    0    0  0.81724876844E+02 -0.45423913470E+03  0.56069736392E+03  0.73209078087E+03  0.92537724974E+02 0.  0.
          1    1    3    3  502    0 -0.36371018814E+03  0.67854404856E+03  0.59884266341E+03  0.97535617202E+03  0.00000000000E+00 0. -1.
         -1    1    3    3    0  502 -0.20772395968E+02  0.78687715787E+01  0.18480982566E+02  0.28895617610E+02  0.00000000000E+00 0.  1.
         13    1    5    5    0    0  0.13152501319E+03 -0.12349874476E+03  0.31377482033E+02  0.18312650117E+03  0.00000000000E+00 0.  1.
        -13    1    5    5    0    0  0.17123269407E+03 -0.10867494068E+03 -0.55543982044E+02  0.21027603808E+03  0.00000000000E+00 0. -1.
          4    1    6    6  503    0  0.15940217185E+02 -0.15420778818E+03  0.25703199276E+03  0.30016591706E+03  0.00000000000E+00 0. -1.
         -4    1    6    6    0  503  0.65784659659E+02 -0.30003134652E+03  0.30366537115E+03  0.43192486381E+03  0.00000000000E+00 0.  1.
<mgrwt>
<rscale>  0 0.81875074E+03</rscale>
<asrwt>0</asrwt>
<pdfrwt beam="1">  1        2 0.25258458E+00 0.81875074E+03</pdfrwt>
<pdfrwt beam="2">  1       -2 0.75068508E-01 0.81875074E+03</pdfrwt>
<totfact> 0.17145446E+01</totfact>
</mgrwt>
</event>
<event>
12    1  0.1432447E-007  0.3293957E+04  0.7818608E-02  0.8164435E-01
          2   -1    0    0  501    0  0.00000000000E+00  0.00000000000E+00  0.50380524662E+04  0.50380524662E+04  0.00000000000E+00 0. -1.
         -2   -1    0    0    0  501 -0.00000000000E+00 -0.00000000000E+00 -0.22079130266E+04  0.22079130266E+04  0.00000000000E+00 0.  1.
         23    2    1    2    0    0  0.32633639074E+04 -0.43033241543E+03  0.10521533232E+04  0.34570494819E+04  0.97131485170E+02 0.  0.
    5000000    2    1    2    0    0 -0.32633639074E+04  0.43033241543E+03  0.17779861164E+04  0.37889160108E+04  0.59993326898E+03 0.  0.
         23    2    4    4    0    0 -0.25154890577E+04  0.32954438355E+03  0.10863721223E+04  0.27612609188E+04  0.89848612437E+02 0.  0.
         23    2    4    4    0    0 -0.74787484963E+03  0.10078803188E+03  0.69161399415E+03  0.10276550921E+04  0.90939833098E+02 0.  0.
          3    1    3    3  502    0  0.27305752007E+04 -0.37250470626E+03  0.91594967188E+03  0.29040944345E+04  0.00000000000E+00 0. -1.
         -3    1    3    3    0  502  0.53278870664E+03 -0.57827709173E+02  0.13620365129E+03  0.55295504745E+03  0.00000000000E+00 0.  1.
         13    1    5    5    0    0 -0.51389475361E+03  0.84122388671E+02  0.25834790161E+03  0.58129857417E+03  0.00000000000E+00 0.  1.
        -13    1    5    5    0    0 -0.20015943041E+04  0.24542199488E+03  0.82802422068E+03  0.21799623446E+04  0.00000000000E+00 0. -1.
          2    1    6    6  503    0 -0.38708592288E+03  0.92223803958E+02  0.33280307890E+03  0.51874717448E+03  0.00000000000E+00 0.  1.
         -2    1    6    6    0  503 -0.36078892675E+03  0.85642279172E+01  0.35881091525E+03  0.50890791757E+03  0.00000000000E+00 0. -1.
<mgrwt>
<rscale>  0 0.32939570E+04</rscale>
<asrwt>0</asrwt>
<pdfrwt beam="1">  1        2 0.77508499E+00 0.32939570E+04</pdfrwt>
<pdfrwt beam="2">  1       -2 0.33967893E+00 0.32939570E+04</pdfrwt>
<totfact> 0.42551867E-04</totfact>
</mgrwt>
</event>
<event>
12    1  0.1432447E-007  0.1507358E+04  0.7818608E-02  0.8879575E-01
          1   -1    0    0  501    0  0.00000000000E+00  0.00000000000E+00  0.13481741782E+04  0.13481741782E+04  0.00000000000E+00 0.  1.
         -1   -1    0    0    0  501 -0.00000000000E+00 -0.00000000000E+00 -0.17776008972E+04  0.17776008972E+04  0.00000000000E+00 0. -1.
         23    2    1    2    0    0  0.58509460340E+03  0.13312267461E+04 -0.52733284636E+03  0.15496895867E+04  0.94644280208E+02 0.  0.
    5000000    2    1    2    0    0 -0.58509460340E+03 -0.13312267461E+04  0.97906127307E+02  0.15760854887E+04  0.59996626033E+03 0.  0.
         23    2    4    4    0    0 -0.13483494150E+02 -0.71524460482E+03  0.11509789383E+03  0.73030429324E+03  0.91324620046E+02 0.  0.
         23    2    4    4    0    0 -0.57161110925E+03 -0.61598214125E+03 -0.17191766521E+02  0.84578119545E+03  0.94217913298E+02 0.  0.
          3    1    3    3  502    0  0.37208274828E+03  0.83830288723E+03 -0.38076609932E+03  0.99306602233E+03  0.00000000000E+00 0.  1.
         -3    1    3    3    0  502  0.21301185513E+03  0.49292385884E+03 -0.14656674703E+03  0.55662356433E+03  0.00000000000E+00 0. -1.
         11    1    5    5    0    0 -0.15425865941E+02 -0.66633601327E+03  0.82744856788E+02  0.67163111248E+03  0.00000000000E+00 0. -1.
        -11    1    5    5    0    0  0.19423717902E+01 -0.48908591547E+02  0.32353037039E+02  0.58673180764E+02  0.00000000000E+00 0.  1.
          3    1    6    6  503    0 -0.39059395305E+03 -0.47920854725E+03 -0.25464636185E+02  0.61875109342E+03  0.00000000000E+00 0. -1.
         -3    1    6    6    0  503 -0.18101715620E+03 -0.13677359400E+03  0.82728696640E+01  0.22703010203E+03  0.00000000000E+00 0.  1.
<mgrwt>
<rscale>  0 0.15073582E+04</rscale>
<asrwt>0</asrwt>
<pdfrwt beam="1">  1        1 0.20741141E+00 0.15073582E+04</pdfrwt>
<pdfrwt beam="2">  1       -1 0.27347706E+00 0.15073582E+04</pdfrwt>
<totfact> 0.38792666E-01</totfact>
</mgrwt>
</event>
<event>
12    1  0.1432447E-007  0.2045450E+04  0.7818608E-02  0.8585661E-01
          2   -1    0    0  501    0  0.00000000000E+00  0.00000000000E+00  0.26221613016E+04  0.26221613016E+04  0.00000000000E+00 0. -1.
         -2   -1    0    0    0  501 -0.00000000000E+00 -0.00000000000E+00 -0.16458376182E+04  0.16458376182E+04  0.00000000000E+00 0.  1.
         23    2    1    2    0    0  0.18048707845E+04 -0.87456098745E+03  0.13703027334E+03  0.20125940102E+04  0.96653425572E+02 0.  0.
    5000000    2    1    2    0    0 -0.18048707845E+04  0.87456098745E+03  0.83929341007E+03  0.22554049096E+04  0.60001867345E+03 0.  0.
         23    2    4    4    0    0 -0.14874708571E+04  0.47228285315E+03  0.71824410491E+03  0.17209261826E+04  0.10045739125E+03 0.  0.
         23    2    4    4    0    0 -0.31739992739E+03  0.40227813430E+03  0.12104930517E+03  0.53447872703E+03  0.91892133086E+02 0.  0.
          3    1    3    3  502    0  0.43572366498E+03 -0.24306853098E+03  0.37219616707E+01  0.49895017384E+03  0.00000000000E+00 0. -1.
         -3    1    3    3    0  502  0.13691471195E+04 -0.63149245646E+03  0.13330831167E+03  0.15136438364E+04  0.00000000000E+00 0.  1.
         11    1    5    5    0    0 -0.46046238469E+03  0.98081659639E+02  0.22096293254E+03  0.52006753141E+03  0.00000000000E+00 0. -1.
        -11    1    5    5    0    0 -0.10270084724E+04  0.37420119351E+03  0.49728117237E+03  0.12008586511E+04  0.00000000000E+00 0.  1.
          3    1    6    6  503    0 -0.12697453273E+03  0.23398813368E+03  0.53847256558E+02  0.27161094548E+03  0.00000000000E+00 0. -1.
         -3    1    6    6    0  503 -0.19042539466E+03  0.16829000062E+03  0.67202048608E+02  0.26286778155E+03  0.00000000000E+00 0.  1.
<mgrwt>
<rscale>  0 0.20454500E+04</rscale>
<asrwt>0</asrwt>
<pdfrwt beam="1">  1        2 0.40340943E+00 0.20454500E+04</pdfrwt>
<pdfrwt beam="2">  1       -2 0.25320579E+00 0.20454500E+04</pdfrwt>
<totfact> 0.16058091E-01</totfact>
</mgrwt>
</event>
<event>
12    1  0.1432447E-007  0.3333400E+03  0.7818608E-02  0.1069669E+00
          2   -1    0    0  501    0  0.00000000000E+00  0.00000000000E+00  0.23830970264E+03  0.23830970264E+03  0.00000000000E+00 0. -1.
         -2   -1    0    0    0  501 -0.00000000000E+00 -0.00000000000E+00 -0.82814971625E+03  0.82814971625E+03  0.00000000000E+00 0.  1.
         23    2    1    2    0    0 -0.52886737074E+02  0.17380086521E+03  0.54796406024E+01  0.20188930665E+03  0.87894925747E+02 0.  0.
    5000000    2    1    2    0    0  0.52886737074E+02 -0.17380086521E+03 -0.59531965422E+03  0.86457011224E+03  0.60006019746E+03 0.  0.
         23    2    4    4    0    0 -0.13897783290E+03 -0.20617905107E+03 -0.39264021209E+02  0.26793232579E+03  0.91768342583E+02 0.  0.
         23    2    4    4    0    0  0.19186456998E+03  0.32378185860E+02 -0.55605563301E+03  0.59663778645E+03  0.94437392427E+02 0.  0.
          3    1    3    3  502    0 -0.40299115174E+02  0.19215241023E+02  0.13330636490E+02  0.46593454912E+02  0.00000000000E+00 0. -1.
         -3    1    3    3    0  502 -0.12587621899E+02  0.15458562419E+03 -0.78509958872E+01  0.15529585174E+03  0.00000000000E+00 0.  1.
         11    1    5    5    0    0 -0.78455212489E+02 -0.42726251456E+02 -0.26428469632E+02  0.93162315006E+02  0.00000000000E+00 0.  1.
        -11    1    5    5    0    0 -0.60522620416E+02 -0.16345279961E+03 -0.12835551577E+02  0.17477001078E+03  0.00000000000E+00 0. -1.
          2    1    6    6  503    0  0.13917832896E+03  0.49788136466E+02 -0.48163962974E+03  0.50381166989E+03  0.00000000000E+00 0.  1.
         -2    1    6    6    0  503  0.52686241021E+02 -0.17409950606E+02 -0.74416003274E+02  0.92826116564E+02  0.00000000000E+00 0. -1.
<mgrwt>
<rscale>  0 0.33334002E+03</rscale>
<asrwt>0</asrwt>
<pdfrwt beam="1">  1        2 0.36663031E-01 0.33334002E+03</pdfrwt>
<pdfrwt beam="2">  1       -2 0.12740765E+00 0.33334002E+03</pdfrwt>
<totfact> 0.67453477E+01</totfact>
</mgrwt>
</event>
<event>
12    1  0.1432447E-007  0.5120678E+03  0.7818608E-02  0.1010676E+00
          2   -1    0    0  501    0  0.00000000000E+00  0.00000000000E+00  0.68419693763E+03  0.68419693763E+03  0.00000000000E+00 0. -1.
         -2   -1    0    0    0  501 -0.00000000000E+00 -0.00000000000E+00 -0.83864288451E+03  0.83864288451E+03  0.00000000000E+00 0.  1.
         23    2    1    2    0    0  0.27925407568E+03 -0.41887933187E+03 -0.45421132783E+03  0.68428726425E+03  0.92186746524E+02 0.  0.
    5000000    2    1    2    0    0 -0.27925407568E+03  0.41887933187E+03  0.29976538095E+03  0.83855255789E+03  0.59989030270E+03 0.  0.
         23    2    4    4    0    0 -0.15248143721E+03  0.24570677083E+03  0.46304997791E+03  0.55363695232E+03  0.92066209909E+02 0.  0.
         23    2    4    4    0    0 -0.12677263847E+03  0.17317256104E+03 -0.16328459696E+03  0.28491560557E+03  0.91951100751E+02 0.  0.
          4    1    3    3  502    0  0.23290862018E+03 -0.36915568779E+03 -0.42835105276E+03  0.61156109391E+03  0.00000000000E+00 0. -1.
         -4    1    3    3    0  502  0.46345455499E+02 -0.49723644082E+02 -0.25860275073E+02  0.72726170345E+02  0.00000000000E+00 0.  1.
         11    1    5    5    0    0 -0.56867229035E+02  0.48073887116E+02  0.64041227845E+02  0.98215371631E+02  0.00000000000E+00 0. -1.
        -11    1    5    5    0    0 -0.95614208175E+02  0.19763288371E+03  0.39900875007E+03  0.45542158069E+03  0.00000000000E+00 0.  1.
          2    1    6    6  503    0 -0.86344523702E+02  0.16223407250E+03 -0.10055971667E+03  0.20949350269E+03  0.00000000000E+00 0. -1.
         -2    1    6    6    0  503 -0.40428114768E+02  0.10938488544E+02 -0.62724880287E+02  0.75422102877E+02  0.00000000000E+00 0.  1.
<mgrwt>
<rscale>  0 0.51206777E+03</rscale>
<asrwt>0</asrwt>
<pdfrwt beam="1">  1        2 0.10526107E+00 0.51206777E+03</pdfrwt>
<pdfrwt beam="2">  1       -2 0.12902198E+00 0.51206777E+03</pdfrwt>
<totfact> 0.19448251E+01</totfact>
</mgrwt>
</event>
<event>
12    1  0.1432447E-007  0.6380936E+03  0.7818608E-02  0.9829381E-01
          1   -1    0    0  501    0  0.00000000000E+00  0.00000000000E+00  0.11267901072E+04  0.11267901072E+04  0.00000000000E+00 0. -1.
         -1   -1    0    0    0  501 -0.00000000000E+00 -0.00000000000E+00 -0.11858418610E+04  0.11858418610E+04  0.00000000000E+00 0.  1.
         23    2    1    2    0    0  0.29209207845E+03 -0.54747608641E+03  0.85165845413E+03  0.10578655666E+04  0.93325167718E+02 0.  0.
    5000000    2    1    2    0    0 -0.29209207845E+03  0.54747608641E+03 -0.91071020788E+03  0.12547664016E+04  0.59999816033E+03 0.  0.
         23    2    4    4    0    0 -0.15412170092E+03  0.11550339515E+03 -0.72618418913E+03  0.75679097088E+03  0.91074497411E+02 0.  0.
         23    2    4    4    0    0 -0.13797037753E+03  0.43197269126E+03 -0.18452601875E+03  0.49797543074E+03  0.91068364161E+02 0.  0.
          3    1    3    3  502    0  0.17840650427E+03 -0.36272487776E+03  0.48001983774E+03  0.62754861352E+03  0.00000000000E+00 0. -1.
         -3    1    3    3    0  502  0.11368557418E+03 -0.18475120865E+03  0.37163861639E+03  0.43031695303E+03  0.00000000000E+00 0.  1.
         13    1    5    5    0    0 -0.12464065521E+03  0.62462816999E+02 -0.36841329439E+03  0.39391020794E+03  0.00000000000E+00 0. -1.
        -13    1    5    5    0    0 -0.29481045709E+02  0.53040578152E+02 -0.35777089474E+03  0.36288076293E+03  0.00000000000E+00 0.  1.
          3    1    6    6  503    0 -0.57395184979E+02  0.12471444243E+03 -0.15509910111E+02  0.13816098118E+03  0.00000000000E+00 0. -1.
         -3    1    6    6    0  503 -0.80575192551E+02  0.30725824883E+03 -0.16901610864E+03  0.35981444956E+03  0.00000000000E+00 0.  1.
<mgrwt>
<rscale>  0 0.63809363E+03</rscale>
<asrwt>0</asrwt>
<pdfrwt beam="1">  1        1 0.17335232E+00 0.63809363E+03</pdfrwt>
<pdfrwt beam="2">  1       -1 0.18243721E+00 0.63809363E+03</pdfrwt>
<totfact> 0.25772757E+00</totfact>
</mgrwt>
</event>
<event>
12    1  0.1432447E-007  0.8213991E+03  0.7818608E-02  0.9529549E-01
          2   -1    0    0  501    0  0.00000000000E+00  0.00000000000E+00  0.19045517817E+04  0.19045517817E+04  0.00000000000E+00 0. -1.
         -2   -1    0    0    0  501 -0.00000000000E+00 -0.00000000000E+00 -0.50360462083E+03  0.50360462083E+03  0.00000000000E+00 0.  1.
         23    2    1    2    0    0 -0.66433029025E+03  0.30343189163E+03  0.21736793762E+02  0.73608150722E+03  0.89094610748E+02 0.  0.
    5000000    2    1    2    0    0  0.66433029025E+03 -0.30343189163E+03  0.13792103671E+04  0.16720748953E+04  0.60017295125E+03 0.  0.
         23    2    4    4    0    0  0.72544166458E+03 -0.34375684886E+03  0.12985966552E+04  0.15299568393E+04  0.99901339377E+02 0.  0.
         23    2    4    4    0    0 -0.61111374323E+02  0.40324957230E+02  0.80613711961E+02  0.14211805599E+03  0.91314122867E+02 0.  0.
          1    1    3    3  502    0 -0.24822127322E+03  0.12598102756E+03  0.50069501552E+02  0.28282852538E+03  0.00000000000E+00 0. -1.
         -1    1    3    3    0  502 -0.41610901703E+03  0.17745086406E+03 -0.28332707790E+02  0.45325298184E+03  0.00000000000E+00 0.  1.
         11    1    5    5    0    0  0.23157856254E+03 -0.60936996544E+02  0.36326486024E+03  0.43508999858E+03  0.00000000000E+00 0.  1.
        -11    1    5    5    0    0  0.49386310204E+03 -0.28281985231E+03  0.93533179491E+03  0.10948668408E+04  0.00000000000E+00 0. -1.
          3    1    6    6  503    0 -0.72849183229E+02  0.13327459272E+02  0.84571709766E+02  0.11241440637E+03  0.00000000000E+00 0. -1.
         -3    1    6    6    0  503  0.11737808906E+02  0.26997497958E+02 -0.39579978044E+01  0.29703649616E+02  0.00000000000E+00 0.  1.
<mgrwt>
<rscale>  0 0.82139907E+03</rscale>
<asrwt>0</asrwt>
<pdfrwt beam="1">  1        2 0.29300796E+00 0.82139907E+03</pdfrwt>
<pdfrwt beam="2">  1       -2 0.77477635E-01 0.82139907E+03</pdfrwt>
<totfact> 0.11468319E+01</totfact>
</mgrwt>
</event>
<event>
12    1  0.1432447E-007  0.6952644E+03  0.7818608E-02  0.9725365E-01
          2   -1    0    0  501    0  0.00000000000E+00  0.00000000000E+00  0.28070136700E+04  0.28070136700E+04  0.00000000000E+00 0. -1.
         -2   -1    0    0    0  501 -0.00000000000E+00 -0.00000000000E+00 -0.23746100581E+03  0.23746100581E+03  0.00000000000E+00 0.  1.
         23    2    1    2    0    0 -0.56868399757E+03 -0.17553077847E+03  0.41787877266E+03  0.73277472554E+03  0.90130940719E+02 0.  0.
    5000000    2    1    2    0    0  0.56868399757E+03  0.17553077847E+03  0.21516738915E+04  0.23116999502E+04  0.60003631665E+03 0.  0.
         23    2    4    4    0    0 -0.33519772988E+02 -0.11268924232E+03  0.63233304267E+03  0.64980861959E+03  0.92648393000E+02 0.  0.
         23    2    4    4    0    0  0.60220377055E+03  0.28822002079E+03  0.15193408488E+04  0.16618913307E+04  0.88125015273E+02 0.  0.
          4    1    3    3  502    0 -0.32523369443E+03 -0.12896558452E+03  0.20146783141E+03  0.40373056000E+03  0.00000000000E+00 0. -1.
         -4    1    3    3    0  502 -0.24345030314E+03 -0.46565193940E+02  0.21641094125E+03  0.32904416554E+03  0.00000000000E+00 0.  1.
         13    1    5    5    0    0 -0.17377530392E+02 -0.10844731816E+02  0.19234034027E+02  0.28098662524E+02  0.00000000000E+00 0. -1.
        -13    1    5    5    0    0 -0.16142242595E+02 -0.10184451051E+03  0.61309900864E+03  0.62170995707E+03  0.00000000000E+00 0.  1.
          1    1    6    6  503    0  0.24316430976E+02  0.22558541203E+02  0.42473403865E+02  0.53890320397E+02  0.00000000000E+00 0. -1.
         -1    1    6    6    0  503  0.57788733958E+03  0.26566147958E+03  0.14768674450E+04  0.16080010103E+04  0.00000000000E+00 0.  1.
<mgrwt>
<rscale>  0 0.69526442E+03</rscale>
<asrwt>0</asrwt>
<pdfrwt beam="1">  1        2 0.43184823E+00 0.69526442E+03</pdfrwt>
<pdfrwt beam="2">  1       -2 0.36532464E-01 0.69526442E+03</pdfrwt>
<totfact> 0.17197060E+01</totfact>
</mgrwt>
</event>
<event>
12    1  0.1432447E-007  0.3514645E+03  0.7818608E-02  0.1062016E+00
          1   -1    0    0  501    0  0.00000000000E+00  0.00000000000E+00  0.70439404738E+03  0.70439404738E+03  0.00000000000E+00 0. -1.
         -1   -1    0    0    0  501 -0.00000000000E+00 -0.00000000000E+00 -0.54734608480E+03  0.54734608480E+03  0.00000000000E+00 0.  1.
         23    2    1    2    0    0  0.26153387742E+03 -0.21715563756E+03 -0.26878720071E+03  0.44125056279E+03  0.83059977939E+02 0.  0.
    5000000    2    1    2    0    0 -0.26153387742E+03  0.21715563756E+03  0.42583516329E+03  0.81048956939E+03  0.60000101319E+03 0.  0.
         23    2    4    4    0    0 -0.47009272586E+02  0.17558011214E+02  0.48589021499E+03  0.49751615742E+03  0.94418591401E+02 0.  0.
         23    2    4    4    0    0 -0.21452460483E+03  0.19959762635E+03 -0.60055051696E+02  0.31297341197E+03  0.92118015852E+02 0.  0.
          4    1    3    3  502    0  0.78150634350E+02 -0.10449645920E+03 -0.13540399393E+03  0.18804593377E+03  0.00000000000E+00 0. -1.
         -4    1    3    3    0  502  0.18338324307E+03 -0.11265917836E+03 -0.13338320678E+03  0.25320462902E+03  0.00000000000E+00 0.  1.
         13    1    5    5    0    0 -0.14198228065E+02  0.26442306672E+02  0.38403818147E+02  0.48740522264E+02  0.00000000000E+00 0. -1.
        -13    1    5    5    0    0 -0.32811044521E+02 -0.88842954579E+01  0.44748639684E+03  0.44877563515E+03  0.00000000000E+00 0.  1.
          1    1    6    6  503    0 -0.67002990715E+02  0.55709994375E+02  0.24052935218E+02  0.90396614597E+02  0.00000000000E+00 0. -1.
         -1    1    6    6    0  503 -0.14752161412E+03  0.14388763197E+03 -0.84107986914E+02  0.22257679737E+03  0.00000000000E+00 0.  1.
<mgrwt>
<rscale>  0 0.35146448E+03</rscale>
<asrwt>0</asrwt>
<pdfrwt beam="1">  1        1 0.10836831E+00 0.35146448E+03</pdfrwt>
<pdfrwt beam="2">  1       -1 0.84207090E-01 0.35146448E+03</pdfrwt>
<totfact> 0.40786976E+01</totfact>
</mgrwt>
</event>
<event>
12    1  0.1432447E-007  0.6658667E+03  0.7818608E-02  0.9777454E-01
          2   -1    0    0  501    0  0.00000000000E+00  0.00000000000E+00  0.28262539922E+04  0.28262539922E+04  0.00000000000E+00 0. -1.
         -2   -1    0    0    0  501 -0.00000000000E+00 -0.00000000000E+00 -0.21536602643E+03  0.21536602643E+03  0.00000000000E+00 0.  1.
         23    2    1    2    0    0  0.40756486929E+03 -0.47413977527E+03  0.15358785954E+04  0.16607692602E+04  0.91180187843E+02 0.  0.
    5000000    2    1    2    0    0 -0.40756486929E+03  0.47413977527E+03  0.10750093704E+04  0.13808507584E+04  0.60015499790E+03 0.  0.
         23    2    4    4    0    0 -0.12171064826E+03  0.36185694296E+03  0.96541862534E+03  0.10423094912E+04  0.92854856159E+02 0.  0.
         23    2    4    4    0    0 -0.28585422103E+03  0.11228283232E+03  0.10959074504E+03  0.33854126720E+03  0.90994439856E+02 0.  0.
          3    1    3    3  502    0  0.13590346946E+03 -0.19948017224E+03  0.68552769618E+03  0.72678078838E+03  0.00000000000E+00 0. -1.
         -3    1    3    3    0  502  0.27166139983E+03 -0.27465960303E+03  0.85035089919E+03  0.93398847180E+03  0.00000000000E+00 0.  1.
         13    1    5    5    0    0 -0.10268201781E+03  0.16132624407E+03  0.45185326732E+03  0.49065377712E+03  0.00000000000E+00 0. -1.
        -13    1    5    5    0    0 -0.19028630453E+02  0.20053069889E+03  0.51356535802E+03  0.55165571413E+03  0.00000000000E+00 0.  1.
          3    1    6    6  503    0 -0.25615022772E+03  0.11646518043E+03  0.12119964326E+03  0.30637628978E+03  0.00000000000E+00 0. -1.
         -3    1    6    6    0  503 -0.29703993306E+02 -0.41823481175E+01 -0.11608898221E+02  0.32164977413E+02  0.00000000000E+00 0.  1.
<mgrwt>
<rscale>  0 0.66586671E+03</rscale>
<asrwt>0</asrwt>
<pdfrwt beam="1">  1        2 0.43480828E+00 0.66586671E+03</pdfrwt>
<pdfrwt beam="2">  1       -2 0.33133237E-01 0.66586671E+03</pdfrwt>
<totfact> 0.20275269E+01</totfact>
</mgrwt>
</event>
<event>
12    1  0.1432447E-007  0.4922733E+03  0.7818608E-02  0.1015816E+00
          2   -1    0    0  501    0  0.00000000000E+00  0.00000000000E+00  0.24393190454E+04  0.24393190454E+04  0.00000000000E+00 0. -1.
         -2   -1    0    0    0  501 -0.00000000000E+00 -0.00000000000E+00 -0.17647980776E+03  0.17647980776E+03  0.00000000000E+00 0.  1.
         23    2    1    2    0    0 -0.33408735029E+03  0.26939220169E+03  0.14638417485E+04  0.15283232983E+04  0.93557059918E+02 0.  0.
    5000000    2    1    2    0    0  0.33408735029E+03 -0.26939220169E+03  0.79899748915E+03  0.10874755549E+04  0.60001631548E+03 0.  0.
         23    2    4    4    0    0  0.24961836629E+03  0.85385434203E+01  0.37810340212E+02  0.26769305147E+03  0.88587315479E+02 0.  0.
         23    2    4    4    0    0  0.84468983999E+02 -0.27793074511E+03  0.76118714893E+03  0.81978250341E+03  0.90867864846E+02 0.  0.
          2    1    3    3  502    0 -0.83044425505E+02  0.42086273954E+02  0.44621741486E+03  0.45582629629E+03  0.00000000000E+00 0. -1.
         -2    1    3    3    0  502 -0.25104292479E+03  0.22730592774E+03  0.10176243337E+04  0.10724970020E+04  0.00000000000E+00 0.  1.
         13    1    5    5    0    0  0.21171931235E+03  0.11827757257E+02  0.64012781769E+02  0.22150078847E+03  0.00000000000E+00 0. -1.
        -13    1    5    5    0    0  0.37899053946E+02 -0.32892138366E+01 -0.26202441556E+02  0.46192263001E+02  0.00000000000E+00 0.  1.
          4    1    6    6  503    0  0.10122092238E+03 -0.21602443962E+03  0.63263709020E+03  0.67612271189E+03  0.00000000000E+00 0. -1.
         -4    1    6    6    0  503 -0.16751938378E+02 -0.61906305486E+02  0.12855005874E+03  0.14365979152E+03  0.00000000000E+00 0.  1.
<mgrwt>
<rscale>  0 0.49227332E+03</rscale>
<asrwt>0</asrwt>
<pdfrwt beam="1">  1        2 0.37527983E+00 0.49227332E+03</pdfrwt>
<pdfrwt beam="2">  1       -2 0.27150741E-01 0.49227332E+03</pdfrwt>
<totfact> 0.50448010E+01</totfact>
</mgrwt>
</event>
<event>
12    1  0.1432447E-007  0.7665696E+03  0.7818608E-02  0.9609708E-01
          1   -1    0    0  501    0  0.00000000000E+00  0.00000000000E+00  0.14420097209E+04  0.14420097209E+04  0.00000000000E+00 0. -1.
         -1   -1    0    0    0  501 -0.00000000000E+00 -0.00000000000E+00 -0.66057407370E+03  0.66057407370E+03  0.00000000000E+00 0.  1.
         23    2    1    2    0    0 -0.60454170794E+02  0.72010544912E+03  0.89819742464E+03  0.11563902542E+04  0.90957362041E+02 0.  0.
    5000000    2    1    2    0    0  0.60454170794E+02 -0.72010544912E+03 -0.11676177741E+03  0.94619354044E+03  0.59953510213E+03 0.  0.
         23    2    4    4    0    0 -0.79700061774E+02 -0.62421216783E+03  0.11290002331E+03  0.64608004846E+03  0.93166965377E+02 0.  0.
         23    2    4    4    0    0  0.14015423257E+03 -0.95893281289E+02 -0.22966180072E+03  0.30011349198E+03  0.92113164386E+02 0.  0.
          4    1    3    3  502    0 -0.45476520765E+02  0.61203190036E+03  0.70667856292E+03  0.93597315789E+03  0.00000000000E+00 0. -1.
         -4    1    3    3    0  502 -0.14977650029E+02  0.10807354876E+03  0.19151886172E+03  0.22041709629E+03  0.00000000000E+00 0.  1.
         13    1    5    5    0    0 -0.75132634348E+02 -0.40988821859E+03  0.11277417544E+03  0.43170739990E+03  0.00000000000E+00 0.  1.
        -13    1    5    5    0    0 -0.45674274265E+01 -0.21432394925E+03  0.12584786845E+00  0.21437264857E+03  0.00000000000E+00 0. -1.
          3    1    6    6  503    0  0.12151158078E+03 -0.53218610433E+02 -0.11214539937E+03  0.17370629050E+03  0.00000000000E+00 0. -1.
         -3    1    6    6    0  503  0.18642651789E+02 -0.42674670856E+02 -0.11751640135E+03  0.12640720148E+03  0.00000000000E+00 0.  1.
<mgrwt>
<rscale>  0 0.76656963E+03</rscale>
<asrwt>0</asrwt>
<pdfrwt beam="1">  1        1 0.22184765E+00 0.76656963E+03</pdfrwt>
<pdfrwt beam="2">  1       -1 0.10162678E+00 0.76656963E+03</pdfrwt>
<totfact> 0.68363175E+00</totfact>
</mgrwt>
</event>
<event>
12    1  0.1432447E-007  0.4845025E+03  0.7818608E-02  0.1017905E+00
         -2   -1    0    0    0  501 -0.00000000000E+00  0.00000000000E+00  0.29765007986E+03  0.29765007986E+03  0.00000000000E+00 0.  1.
          2   -1    0    0  501    0  0.00000000000E+00 -0.00000000000E+00 -0.10306824018E+04  0.10306824018E+04  0.00000000000E+00 0. -1.
         23    2    1    2    0    0  0.36218347070E+03  0.79624231228E+02 -0.38099914703E+03  0.54010534342E+03  0.95060755833E+02 0.  0.
    5000000    2    1    2    0    0 -0.36218347070E+03 -0.79624231228E+02 -0.35203317492E+03  0.78822713826E+03  0.59988147213E+03 0.  0.
         23    2    4    4    0    0 -0.11714304326E+03  0.18357372203E+03  0.50130416887E+02  0.24136943419E+03  0.91237826909E+02 0.  0.
         23    2    4    4    0    0 -0.24504042744E+03 -0.26319795325E+03 -0.40216359181E+03  0.54685770408E+03  0.89441714292E+02 0.  0.
          2    1    3    3  502    0  0.18250507095E+03  0.74120470770E+02 -0.24681527026E+03  0.31578429781E+03  0.00000000000E+00 0. -1.
         -2    1    3    3    0  502  0.17967839975E+03  0.55037604579E+01 -0.13418387677E+03  0.22432104561E+03  0.00000000000E+00 0.  1.
         13    1    5    5    0    0 -0.65926498645E+01  0.78647166697E+02  0.40348345689E+02  0.88638754851E+02  0.00000000000E+00 0. -1.
        -13    1    5    5    0    0 -0.11055039339E+03  0.10492655533E+03  0.97820711983E+01  0.15273067933E+03  0.00000000000E+00 0.  1.
          3    1    6    6  503    0 -0.10606561261E+03 -0.91932007742E+02 -0.98190979809E+02  0.17129762620E+03  0.00000000000E+00 0. -1.
         -3    1    6    6    0  503 -0.13897481483E+03 -0.17126594551E+03 -0.30397261200E+03  0.37556007787E+03  0.00000000000E+00 0.  1.
<mgrwt>
<rscale>  0 0.48450250E+03</rscale>
<asrwt>0</asrwt>
<pdfrwt beam="1">  1        2 0.15856653E+00 0.48450250E+03</pdfrwt>
<pdfrwt beam="2">  1       -2 0.45792319E-01 0.48450250E+03</pdfrwt>
<totfact> 0.11296173E+02</totfact>
</mgrwt>
</event>
<event>
12    1  0.1432447E-007  0.9475293E+03  0.7818608E-02  0.9368043E-01
          1   -1    0    0  501    0  0.00000000000E+00  0.00000000000E+00  0.26219242243E+04  0.26219242243E+04  0.00000000000E+00 0. -1.
         -1   -1    0    0    0  501 -0.00000000000E+00 -0.00000000000E+00 -0.65062885599E+03  0.65062885599E+03  0.00000000000E+00 0.  1.
         23    2    1    2    0    0  0.84293942049E+03 -0.29647685368E+03  0.20040822489E+04  0.21957670542E+04  0.81252106935E+02 0.  0.
    5000000    2    1    2    0    0 -0.84293942049E+03  0.29647685368E+03 -0.32786880566E+02  0.10767860260E+04  0.59995647754E+03 0.  0.
         23    2    4    4    0    0 -0.41409911631E+03  0.36692550212E+03  0.17362571200E+03  0.58723070135E+03  0.92636960805E+02 0.  0.
         23    2    4    4    0    0 -0.42884030418E+03 -0.70448648442E+02 -0.20641259257E+03  0.48955532468E+03  0.90505463900E+02 0.  0.
          3    1    3    3  502    0  0.37984080524E+03 -0.94319430280E+02  0.83613548057E+03  0.92319972601E+03  0.00000000000E+00 0. -1.
         -3    1    3    3    0  502  0.46309861525E+03 -0.20215742340E+03  0.11679467683E+04  0.12725673282E+04  0.00000000000E+00 0.  1.
         13    1    5    5    0    0 -0.41856927207E+03  0.35731599949E+03  0.17125123944E+03  0.57636962621E+03  0.00000000000E+00 0.  1.
        -13    1    5    5    0    0  0.44701557553E+01  0.96095026290E+01  0.23744725626E+01  0.10861075140E+02  0.00000000000E+00 0. -1.
          3    1    6    6  503    0 -0.23462721763E+03 -0.13331053453E+02 -0.15219085864E+03  0.27998161671E+03  0.00000000000E+00 0. -1.
         -3    1    6    6    0  503 -0.19421308655E+03 -0.57117594989E+02 -0.54221733927E+02  0.20957370797E+03  0.00000000000E+00 0.  1.
<mgrwt>
<rscale>  0 0.94752931E+03</rscale>
<asrwt>0</asrwt>
<pdfrwt beam="1">  1        1 0.40337295E+00 0.94752931E+03</pdfrwt>
<pdfrwt beam="2">  1       -1 0.10009675E+00 0.94752931E+03</pdfrwt>
<totfact> 0.10905889E+00</totfact>
</mgrwt>
</event>
<event>
12    1  0.1432447E-007  0.1562152E+04  0.7818608E-02  0.8844143E-01
          2   -1    0    0  501    0  0.00000000000E+00  0.00000000000E+00  0.27264846653E+04  0.27264846653E+04  0.00000000000E+00 0. -1.
         -2   -1    0    0    0  501 -0.00000000000E+00 -0.00000000000E+00 -0.17214397297E+04  0.17214397297E+04  0.00000000000E+00 0.  1.
         23    2    1    2    0    0  0.14915762449E+04  0.22348192552E+03  0.20282768448E+04  0.25291740317E+04  0.89835727541E+02 0.  0.
    5000000    2    1    2    0    0 -0.14915762449E+04 -0.22348192552E+03 -0.10232319092E+04  0.19187503634E+04  0.59987961420E+03 0.  0.
         23    2    4    4    0    0 -0.87652366638E+03  0.15194525620E+03 -0.51223461533E+03  0.10303835524E+04  0.89021712941E+02 0.  0.
         23    2    4    4    0    0 -0.61505257853E+03 -0.37542718172E+03 -0.51099729389E+03  0.88836681095E+03  0.94032511996E+02 0.  0.
          4    1    3    3  502    0  0.10493819361E+04  0.12544710440E+03  0.14637027495E+04  0.18053711980E+04  0.00000000000E+00 0. -1.
         -4    1    3    3    0  502  0.44219430884E+03  0.98034821116E+02  0.56457409527E+03  0.72380283364E+03  0.00000000000E+00 0.  1.
         13    1    5    5    0    0 -0.60539630891E+03  0.13642765126E+03 -0.38671153819E+03  0.73120654308E+03  0.00000000000E+00 0.  1.
        -13    1    5    5    0    0 -0.27112735747E+03  0.15517604941E+02 -0.12552307714E+03  0.29917700936E+03  0.00000000000E+00 0. -1.
          4    1    6    6  503    0 -0.36190915158E+03 -0.24996532897E+03 -0.35768961525E+03  0.56692394599E+03  0.00000000000E+00 0. -1.
         -4    1    6    6    0  503 -0.25314342695E+03 -0.12546185275E+03 -0.15330767864E+03  0.32144286496E+03  0.00000000000E+00 0.  1.
<mgrwt>
<rscale>  0 0.15621521E+04</rscale>
<asrwt>0</asrwt>
<pdfrwt beam="1">  1        2 0.41945918E+00 0.15621521E+04</pdfrwt>
<pdfrwt beam="2">  1       -2 0.26483688E+00 0.15621521E+04</pdfrwt>
<totfact> 0.12428801E-01</totfact>
</mgrwt>
</event>
<event>
12    1  0.1432447E-007  0.1651707E+04  0.7818608E-02  0.8789398E-01
          1   -1    0    0  501    0  0.00000000000E+00  0.00000000000E+00  0.17232929909E+04  0.17232929909E+04  0.00000000000E+00 0. -1.
         -1   -1    0    0    0  501 -0.00000000000E+00 -0.00000000000E+00 -0.16044644786E+04  0.16044644786E+04  0.00000000000E+00 0.  1.
         23    2    1    2    0    0  0.79262535651E+03 -0.13957273087E+04 -0.27079908815E+02  0.16080140622E+04  0.93092571650E+02 0.  0.
    5000000    2    1    2    0    0 -0.79262535651E+03  0.13957273087E+04  0.14590842120E+03  0.17197434072E+04  0.59993203229E+03 0.  0.
         23    2    4    4    0    0 -0.19116836148E+03  0.87543612044E+03  0.17849238886E+03  0.91805961277E+03  0.89667030311E+02 0.  0.
         23    2    4    4    0    0 -0.60145699502E+03  0.52029118826E+03 -0.32583967652E+02  0.80168379447E+03  0.95821469050E+02 0.  0.
          4    1    3    3  502    0  0.18107304187E+03 -0.40183646523E+03 -0.14034916998E+02  0.44097275446E+03  0.00000000000E+00 0. -1.
         -4    1    3    3    0  502  0.61155231464E+03 -0.99389084346E+03 -0.13044991817E+02  0.11670413078E+04  0.00000000000E+00 0.  1.
         11    1    5    5    0    0 -0.26619202248E+02  0.27814877194E+03  0.80783103095E+02  0.29086290758E+03  0.00000000000E+00 0.  1.
        -11    1    5    5    0    0 -0.16454915924E+03  0.59728734850E+03  0.97709285761E+02  0.62719670520E+03  0.00000000000E+00 0. -1.
          3    1    6    6  503    0 -0.38898347790E+03  0.36651505001E+03  0.17142069053E+02  0.53472916368E+03  0.00000000000E+00 0. -1.
         -3    1    6    6    0  503 -0.21247351713E+03  0.15377613825E+03 -0.49726036705E+02  0.26695463079E+03  0.00000000000E+00 0.  1.
<mgrwt>
<rscale>  0 0.16517066E+04</rscale>
<asrwt>0</asrwt>
<pdfrwt beam="1">  1        1 0.26512200E+00 0.16517066E+04</pdfrwt>
<pdfrwt beam="2">  1       -1 0.24684069E+00 0.16517066E+04</pdfrwt>
<totfact> 0.31216750E-01</totfact>
</mgrwt>
</event>
<event>
12    1  0.1432447E-007  0.4505596E+03  0.7818608E-02  0.1027555E+00
          1   -1    0    0  501    0  0.00000000000E+00  0.00000000000E+00  0.48227899341E+03  0.48227899341E+03  0.00000000000E+00 0. -1.
         -1   -1    0    0    0  501 -0.00000000000E+00 -0.00000000000E+00 -0.67720739533E+03  0.67720739533E+03  0.00000000000E+00 0.  1.
         23    2    1    2    0    0  0.38938256038E+03  0.53982725059E+02  0.38394071623E+02  0.40509996146E+03  0.89994228166E+02 0.  0.
    5000000    2    1    2    0    0 -0.38938256038E+03 -0.53982725059E+02 -0.23332247355E+03  0.75438642728E+03  0.60010548412E+03 0.  0.
         23    2    4    4    0    0 -0.14875439527E+03 -0.16104187153E+03  0.14862609376E+03  0.28178413474E+03  0.96178107411E+02 0.  0.
         23    2    4    4    0    0 -0.24062816511E+03  0.10705914647E+03 -0.38194856731E+03  0.47260229255E+03  0.90025797227E+02 0.  0.
          3    1    3    3  502    0  0.17692181709E+03 -0.51573630994E+01 -0.16703255613E+02  0.17778336959E+03  0.00000000000E+00 0. -1.
         -3    1    3    3    0  502  0.21246074329E+03  0.59140088158E+02  0.55097327236E+02  0.22731659186E+03  0.00000000000E+00 0.  1.
         11    1    5    5    0    0 -0.16531252800E+02 -0.83960446849E+02  0.64319923411E+02  0.10704994863E+03  0.00000000000E+00 0.  1.
        -11    1    5    5    0    0 -0.13222314247E+03 -0.77081424680E+02  0.84306170349E+02  0.17473418610E+03  0.00000000000E+00 0. -1.
          1    1    6    6  503    0 -0.11514414968E+03  0.35428127846E+02 -0.10319720410E+03  0.15862846649E+03  0.00000000000E+00 0. -1.
         -1    1    6    6    0  503 -0.12548401544E+03  0.71631018624E+02 -0.27875136321E+03  0.31397382606E+03  0.00000000000E+00 0.  1.
<mgrwt>
<rscale>  0 0.45055958E+03</rscale>
<asrwt>0</asrwt>
<pdfrwt beam="1">  1        1 0.74196768E-01 0.45055958E+03</pdfrwt>
<pdfrwt beam="2">  1       -1 0.10418575E+00 0.45055958E+03</pdfrwt>
<totfact> 0.42700074E+01</totfact>
</mgrwt>
</event>
<event>
12    1  0.1432447E-007  0.9308489E+03  0.7818608E-02  0.9387820E-01
         -1   -1    0    0    0  501 -0.00000000000E+00  0.00000000000E+00  0.56030809431E+03  0.56030809431E+03  0.00000000000E+00 0.  1.
          1   -1    0    0  501    0  0.00000000000E+00 -0.00000000000E+00 -0.18630456881E+04  0.18630456881E+04  0.00000000000E+00 0. -1.
         23    2    1    2    0    0 -0.88051117092E+03  0.58082787729E+02 -0.24168459867E+03  0.91847557322E+03  0.80699448591E+02 0.  0.
    5000000    2    1    2    0    0  0.88051117092E+03 -0.58082787729E+02 -0.10610529951E+04  0.15048782092E+04  0.60012618150E+03 0.  0.
         23    2    4    4    0    0 -0.10637403481E+02 -0.76124189302E+02 -0.32284062037E+03  0.34382288136E+03  0.89889159735E+02 0.  0.
         23    2    4    4    0    0  0.89114857441E+03  0.18041401573E+02 -0.73821237474E+03  0.11610553278E+04  0.92847672203E+02 0.  0.
          3    1    3    3  502    0 -0.19724454331E+03 -0.40896844997E-01 -0.22293000833E+02  0.19850035120E+03  0.00000000000E+00 0. -1.
         -3    1    3    3    0  502 -0.68326662761E+03  0.58123684574E+02 -0.21939159784E+03  0.71997522202E+03  0.00000000000E+00 0.  1.
         11    1    5    5    0    0 -0.16621644035E+02 -0.15580478363E+02 -0.95890032751E+01  0.24717996283E+02  0.00000000000E+00 0. -1.
        -11    1    5    5    0    0  0.59842405531E+01 -0.60543710939E+02 -0.31325161709E+03  0.31910488508E+03  0.00000000000E+00 0.  1.
          1    1    6    6  503    0  0.43569940767E+03  0.49835843819E+02 -0.33352411457E+03  0.55095909120E+03  0.00000000000E+00 0. -1.
         -1    1    6    6    0  503  0.45544916674E+03 -0.31794442246E+02 -0.40468826016E+03  0.61009623664E+03  0.00000000000E+00 0.  1.
<mgrwt>
<rscale>  0 0.93084889E+03</rscale>
<asrwt>0</asrwt>
<pdfrwt beam="1">  1        1 0.28662242E+00 0.93084889E+03</pdfrwt>
<pdfrwt beam="2">  1       -1 0.86201245E-01 0.93084889E+03</pdfrwt>
<totfact> 0.49940121E+00</totfact>
</mgrwt>
</event>
<event>
12    1  0.1432447E-007  0.1305983E+04  0.7818608E-02  0.9024834E-01
          1   -1    0    0  501    0  0.00000000000E+00  0.00000000000E+00  0.15037546367E+04  0.15037546367E+04  0.00000000000E+00 0. -1.
         -1   -1    0    0    0  501 -0.00000000000E+00 -0.00000000000E+00 -0.13075329850E+04  0.13075329850E+04  0.00000000000E+00 0.  1.
         23    2    1    2    0    0 -0.79718478218E+02 -0.12988974733E+04  0.39862671212E+03  0.13640459128E+04  0.90710058282E+02 0.  0.
    5000000    2    1    2    0    0  0.79718478218E+02  0.12988974733E+04 -0.20240506040E+03  0.14472417089E+04  0.60004255983E+03 0.  0.
         23    2    4    4    0    0  0.14802933300E+02  0.81784661885E+03 -0.39882236895E+03  0.91469526488E+03  0.92281779464E+02 0.  0.
         23    2    4    4    0    0  0.64915544918E+02  0.48105085446E+03  0.19641730854E+03  0.53254644404E+03  0.96963928403E+02 0.  0.
          1    1    3    3  502    0 -0.42594497186E+02 -0.57821059105E+03  0.13113226999E+03  0.59442194696E+03  0.00000000000E+00 0. -1.
         -1    1    3    3    0  502 -0.37123981032E+02 -0.72068688226E+03  0.26749444213E+03  0.76962396584E+03  0.00000000000E+00 0.  1.
         11    1    5    5    0    0  0.12824256057E+02  0.51225863698E+03 -0.19973113248E+03  0.54996899730E+03  0.00000000000E+00 0.  1.
        -11    1    5    5    0    0  0.19786772422E+01  0.30558798187E+03 -0.19909123647E+03  0.36472626758E+03  0.00000000000E+00 0. -1.
          1    1    6    6  503    0  0.40042614457E+02  0.69342706703E+02  0.52272099385E+02  0.95625280756E+02  0.00000000000E+00 0. -1.
         -1    1    6    6    0  503  0.24872930461E+02  0.41170814776E+03  0.14414520916E+03  0.43692116328E+03  0.00000000000E+00 0.  1.
<mgrwt>
<rscale>  0 0.13059830E+04</rscale>
<asrwt>0</asrwt>
<pdfrwt beam="1">  1        1 0.23134687E+00 0.13059830E+04</pdfrwt>
<pdfrwt beam="2">  1       -1 0.20115892E+00 0.13059830E+04</pdfrwt>
<totfact> 0.92956535E-01</totfact>
</mgrwt>
</event>
<event>
12    1  0.1432447E-007  0.8208842E+03  0.7818608E-02  0.9530270E-01
         -1   -1    0    0    0  501 -0.00000000000E+00  0.00000000000E+00  0.39866183108E+03  0.39866183108E+03  0.00000000000E+00 0.  1.
          1   -1    0    0  501    0  0.00000000000E+00 -0.00000000000E+00 -0.31292849599E+04  0.31292849599E+04  0.00000000000E+00 0. -1.
         23    2    1    2    0    0 -0.69261583919E+03 -0.27893219589E+03 -0.23991516081E+04  0.25143296900E+04  0.91681409215E+02 0.  0.
    5000000    2    1    2    0    0  0.69261583919E+03  0.27893219589E+03 -0.33147152065E+03  0.10136171009E+04  0.60002198931E+03 0.  0.
         23    2    4    4    0    0  0.49765971497E+03  0.40916627876E+03 -0.38590145717E+03  0.75655421196E+03  0.91499209897E+02 0.  0.
         23    2    4    4    0    0  0.19495612422E+03 -0.13023408287E+03  0.54429936519E+02  0.25706288895E+03  0.90276819688E+02 0.  0.
          1    1    3    3  502    0 -0.20807514616E+03 -0.58373347139E+02 -0.81222197256E+03  0.84048036670E+03  0.00000000000E+00 0. -1.
         -1    1    3    3    0  502 -0.48454069302E+03 -0.22055884875E+03 -0.15869296356E+04  0.16738493233E+04  0.00000000000E+00 0.  1.
         13    1    5    5    0    0  0.18846938188E+03  0.12666507721E+03 -0.18053005777E+03  0.29009627962E+03  0.00000000000E+00 0.  1.
        -13    1    5    5    0    0  0.30919033309E+03  0.28250120155E+03 -0.20537139941E+03  0.46645793235E+03  0.00000000000E+00 0. -1.
          4    1    6    6  503    0  0.10610129679E+03 -0.11633779693E+03  0.55993332470E+02  0.16711439632E+03  0.00000000000E+00 0.  1.
         -4    1    6    6    0  503  0.88854827428E+02 -0.13896285947E+02 -0.15633959511E+01  0.89948492635E+02  0.00000000000E+00 0. -1.
<mgrwt>
<rscale>  0 0.82088424E+03</rscale>
<asrwt>0</asrwt>
<pdfrwt beam="1">  1        1 0.48142845E+00 0.82088424E+03</pdfrwt>
<pdfrwt beam="2">  1       -1 0.61332590E-01 0.82088424E+03</pdfrwt>
<totfact> 0.13774084E+00</totfact>
</mgrwt>
</event>
<event>
12    1  0.1432447E-007  0.1544126E+04  0.7818608E-02  0.8855628E-01
         -2   -1    0    0    0  501 -0.00000000000E+00  0.00000000000E+00  0.18276547182E+04  0.18276547182E+04  0.00000000000E+00 0.  1.
          2   -1    0    0  501    0  0.00000000000E+00 -0.00000000000E+00 -0.14138970348E+04  0.14138970348E+04  0.00000000000E+00 0. -1.
         23    2    1    2    0    0  0.57669399623E+03  0.14042017048E+04 -0.11649703331E+03  0.15252713540E+04  0.92318750366E+02 0.  0.
    5000000    2    1    2    0    0 -0.57669399623E+03 -0.14042017048E+04  0.53025471663E+03  0.17162803989E+04  0.60007495391E+03 0.  0.
         23    2    4    4    0    0 -0.85471452175E+02 -0.72847560422E+03  0.46549317381E+03  0.87343976082E+03  0.90725111399E+02 0.  0.
         23    2    4    4    0    0 -0.49122254406E+03 -0.67572610056E+03  0.64761542821E+02  0.84284063813E+03  0.90999632309E+02 0.  0.
          1    1    3    3  502    0  0.10026687355E+03  0.29999302505E+03 -0.55354447643E+02  0.32111271523E+03  0.00000000000E+00 0. -1.
         -1    1    3    3    0  502  0.47642712268E+03  0.11042086797E+04 -0.61142585664E+02  0.12041586388E+04  0.00000000000E+00 0.  1.
         13    1    5    5    0    0 -0.77047705338E+02 -0.66062139234E+03  0.38762186976E+03  0.76981016285E+03  0.00000000000E+00 0.  1.
        -13    1    5    5    0    0 -0.84237468364E+01 -0.67854211883E+02  0.77871304051E+02  0.10362959797E+03  0.00000000000E+00 0. -1.
          2    1    6    6  503    0 -0.20484785993E+03 -0.25875362240E+03  0.68147697353E+02  0.33698693072E+03  0.00000000000E+00 0. -1.
         -2    1    6    6    0  503 -0.28637468413E+03 -0.41697247816E+03 -0.33861545316E+01  0.50585370741E+03  0.00000000000E+00 0.  1.
<mgrwt>
<rscale>  0 0.15441260E+04</rscale>
<asrwt>0</asrwt>
<pdfrwt beam="1">  1        2 0.21752262E+00 0.15441260E+04</pdfrwt>
<pdfrwt beam="2">  1       -2 0.28117765E+00 0.15441260E+04</pdfrwt>
<totfact> 0.55161942E-01</totfact>
</mgrwt>
</event>
<event>
12    1  0.1432447E-007  0.4754580E+03  0.7818608E-02  0.1020391E+00
         -2   -1    0    0    0  501 -0.00000000000E+00  0.00000000000E+00  0.11581518491E+04  0.11581518491E+04  0.00000000000E+00 0.  1.
          2   -1    0    0  501    0  0.00000000000E+00 -0.00000000000E+00 -0.31099227788E+03  0.31099227788E+03  0.00000000000E+00 0. -1.
         23    2    1    2    0    0 -0.13325237114E+02  0.33125207978E+03 -0.42545074806E+02  0.34595284709E+03  0.89262459717E+02 0.  0.
    5000000    2    1    2    0    0  0.13325237114E+02 -0.33125207978E+03  0.88970464604E+03  0.11231912799E+04  0.60006565620E+03 0.  0.
         23    2    4    4    0    0 -0.17451657130E+03 -0.37879797684E+03  0.76349838977E+03  0.87441435063E+03  0.87901788925E+02 0.  0.
         23    2    4    4    0    0  0.18784180841E+03  0.47545897052E+02  0.12620625628E+03  0.24877692928E+03  0.91743032990E+02 0.  0.
          2    1    3    3  502    0  0.16373134454E+01  0.13387137281E+03 -0.61047738255E+02  0.14714296313E+03  0.00000000000E+00 0. -1.
         -2    1    3    3    0  502 -0.14962550560E+02  0.19738070698E+03  0.18502663449E+02  0.19880988396E+03  0.00000000000E+00 0.  1.
         11    1    5    5    0    0 -0.18155822272E+03 -0.37225895671E+03  0.75673499613E+03  0.86266330248E+03  0.00000000000E+00 0. -1.
        -11    1    5    5    0    0  0.70416514213E+01 -0.65390201308E+01  0.67633936357E+01  0.11751048144E+02  0.00000000000E+00 0.  1.
          2    1    6    6  503    0  0.97443705323E+02  0.37252209465E+02  0.11788294664E+03  0.15741471318E+03  0.00000000000E+00 0. -1.
         -2    1    6    6    0  503  0.90398103090E+02  0.10293687587E+02  0.83233096355E+01  0.91362216094E+02  0.00000000000E+00 0.  1.
<mgrwt>
<rscale>  0 0.47545795E+03</rscale>
<asrwt>0</asrwt>
<pdfrwt beam="1">  1        2 0.47844966E-01 0.47545795E+03</pdfrwt>
<pdfrwt beam="2">  1       -2 0.17817721E+00 0.47545795E+03</pdfrwt>
<totfact> 0.20540103E+01</totfact>
</mgrwt>
</event>
<event>
12    1  0.1432447E-007  0.5940291E+03  0.7818608E-02  0.9917872E-01
          2   -1    0    0  501    0  0.00000000000E+00  0.00000000000E+00  0.25628412161E+04  0.25628412161E+04  0.00000000000E+00 0. -1.
         -2   -1    0    0    0  501 -0.00000000000E+00 -0.00000000000E+00 -0.18606270417E+03  0.18606270417E+03  0.00000000000E+00 0.  1.
         23    2    1    2    0    0 -0.38674386951E+03  0.28140399792E+03  0.40662166134E+03  0.63459672713E+03  0.92805172087E+02 0.  0.
    5000000    2    1    2    0    0  0.38674386951E+03 -0.28140399792E+03  0.19701568506E+04  0.21143071931E+04  0.60001488345E+03 0.  0.
         23    2    4    4    0    0 -0.39472794229E+02 -0.26173092876E+03  0.42727747870E+03  0.51086701869E+03  0.91421476832E+02 0.  0.
         23    2    4    4    0    0  0.42621666374E+03 -0.19673069158E+02  0.15428793719E+04  0.16034401744E+04  0.92173546737E+02 0.  0.
          3    1    3    3  502    0 -0.25261817334E+03  0.14672720083E+03  0.20114217890E+03  0.35468717075E+03  0.00000000000E+00 0. -1.
         -3    1    3    3    0  502 -0.13412569618E+03  0.13467679709E+03  0.20547948245E+03  0.27990955639E+03  0.00000000000E+00 0.  1.
         11    1    5    5    0    0  0.79522460971E+01 -0.17468310346E+03  0.21936537927E+03  0.28053269769E+03  0.00000000000E+00 0.  1.
        -11    1    5    5    0    0 -0.47425040326E+02 -0.87047825300E+02  0.20791209943E+03  0.23033432100E+03  0.00000000000E+00 0. -1.
          4    1    6    6  503    0  0.90637834390E+02  0.23169353353E+02  0.44023630468E+03  0.45006670607E+03  0.00000000000E+00 0. -1.
         -4    1    6    6    0  503  0.33557882935E+03 -0.42842422511E+02  0.11026430672E+04  0.11533734684E+04  0.00000000000E+00 0.  1.
<mgrwt>
<rscale>  0 0.59402910E+03</rscale>
<asrwt>0</asrwt>
<pdfrwt beam="1">  1        2 0.39428324E+00 0.59402910E+03</pdfrwt>
<pdfrwt beam="2">  1       -2 0.28625033E-01 0.59402910E+03</pdfrwt>
<totfact> 0.38294662E+01</totfact>
</mgrwt>
</event>
<event>
12    1  0.1432447E-007  0.1107294E+04  0.7818608E-02  0.9198112E-01
         -1   -1    0    0    0  501 -0.00000000000E+00  0.00000000000E+00  0.74262034323E+03  0.74262034323E+03  0.00000000000E+00 0.  1.
          1   -1    0    0  501    0  0.00000000000E+00 -0.00000000000E+00 -0.18902548209E+04  0.18902548209E+04  0.00000000000E+00 0. -1.
         23    2    1    2    0    0  0.19130580343E+03 -0.10459168174E+04 -0.87830594835E+03  0.13826656842E+04  0.99010888722E+02 0.  0.
    5000000    2    1    2    0    0 -0.19130580343E+03  0.10459168174E+04 -0.26932852937E+03  0.12502094800E+04  0.59995498815E+03 0.  0.
         23    2    4    4    0    0  0.47390029138E+02  0.32285344494E+02  0.94271460344E+02  0.14303910487E+03  0.91021530174E+02 0.  0.
         23    2    4    4    0    0 -0.23869583257E+03  0.10136314729E+04 -0.36359998971E+03  0.11071703751E+04  0.95900071488E+02 0.  0.
          4    1    3    3  502    0  0.77623228404E+02 -0.64067892570E+03 -0.49408476218E+03  0.81278201484E+03  0.00000000000E+00 0. -1.
         -4    1    3    3    0  502  0.11368257503E+03 -0.40523789167E+03 -0.38422118617E+03  0.56988366936E+03  0.00000000000E+00 0.  1.
         13    1    5    5    0    0  0.73494665073E+02  0.33485346717E+02  0.77850188872E+02  0.11217569321E+03  0.00000000000E+00 0. -1.
        -13    1    5    5    0    0 -0.26104635935E+02 -0.12000022233E+01  0.16421271472E+02  0.30863411661E+02  0.00000000000E+00 0.  1.
          1    1    6    6  503    0 -0.88804876365E+02  0.34894630487E+03 -0.78349580885E+02  0.36849489355E+03  0.00000000000E+00 0.  1.
         -1    1    6    6    0  503 -0.14989095621E+03  0.66468516800E+03 -0.28525040883E+03  0.73867548155E+03  0.00000000000E+00 0. -1.
<mgrwt>
<rscale>  0 0.11072935E+04</rscale>
<asrwt>0</asrwt>
<pdfrwt beam="1">  1        1 0.29080843E+00 0.11072935E+04</pdfrwt>
<pdfrwt beam="2">  1       -1 0.11424929E+00 0.11072935E+04</pdfrwt>
<totfact> 0.24554261E+00</totfact>
</mgrwt>
</event>
<event>
12    1  0.1450073E-007  0.7460458E+03  0.7818608E-02  0.9641574E-01
         -2   -1    0    0    0  501 -0.00000000000E+00  0.00000000000E+00  0.34710071144E+03  0.34710071144E+03  0.00000000000E+00 0.  1.
          2   -1    0    0  501    0  0.00000000000E+00 -0.00000000000E+00 -0.18400344538E+04  0.18400344538E+04  0.00000000000E+00 0. -1.
         23    2    1    2    0    0  0.63817284371E+03  0.18009938653E+03 -0.86765897033E+03  0.10957352841E+04  0.90018646067E+02 0.  0.
    5000000    2    1    2    0    0 -0.63817284371E+03 -0.18009938653E+03 -0.62527477206E+03  0.10913998811E+04  0.60040385778E+03 0.  0.
         23    2    4    4    0    0  0.27641184775E+02  0.64451076640E+02 -0.27012402026E+03  0.29347171839E+03  0.90778228646E+02 0.  0.
         23    2    4    4    0    0 -0.66581402849E+03 -0.24455046318E+03 -0.35515075179E+03  0.79792816272E+03  0.86278889626E+02 0.  0.
          4    1    3    3  502    0  0.42887314758E+03  0.14956810248E+03 -0.64221138759E+03  0.78659917388E+03  0.00000000000E+00 0. -1.
         -4    1    3    3    0  502  0.20929969613E+03  0.30531284054E+02 -0.22544758275E+03  0.30913611027E+03  0.00000000000E+00 0.  1.
         11    1    5    5    0    0  0.59482897052E+02  0.26403451156E+02 -0.15583895138E+03  0.16888201811E+03  0.00000000000E+00 0.  1.
        -11    1    5    5    0    0 -0.31841712277E+02  0.38047625484E+02 -0.11428506889E+03  0.12458970028E+03  0.00000000000E+00 0. -1.
          4    1    6    6  503    0 -0.48871657596E+03 -0.15172000621E+03 -0.22268841704E+03  0.55807972816E+03  0.00000000000E+00 0. -1.
         -4    1    6    6    0  503 -0.17709745253E+03 -0.92830456964E+02 -0.13246233475E+03  0.23984843456E+03  0.00000000000E+00 0.  1.
<mgrwt>
<rscale>  0 0.74604583E+03</rscale>
<asrwt>0</asrwt>
<pdfrwt beam="1">  1        2 0.28308223E+00 0.74604583E+03</pdfrwt>
<pdfrwt beam="2">  1       -2 0.53400109E-01 0.74604583E+03</pdfrwt>
<totfact> 0.27916294E+01</totfact>
</mgrwt>
</event>
<event>
12    1  0.1432447E-007  0.3986806E+03  0.7818608E-02  0.1044237E+00
         -1   -1    0    0    0  501 -0.00000000000E+00  0.00000000000E+00  0.13170614530E+04  0.13170614530E+04  0.00000000000E+00 0.  1.
          1   -1    0    0  501    0  0.00000000000E+00 -0.00000000000E+00 -0.38660523209E+03  0.38660523209E+03  0.00000000000E+00 0. -1.
         23    2    1    2    0    0 -0.71481383791E+02 -0.18592159092E+03  0.10396217748E+04  0.10623515442E+04  0.90005237349E+02 0.  0.
    5000000    2    1    2    0    0  0.71481383791E+02  0.18592159092E+03 -0.10916555388E+03  0.64131514084E+03  0.59974291618E+03 0.  0.
         23    2    4    4    0    0 -0.23415330736E+03  0.82486334986E+02 -0.14753132472E+03  0.30361595707E+03  0.93730415586E+02 0.  0.
         23    2    4    4    0    0  0.30563469115E+03  0.10343525594E+03  0.38365770837E+02  0.33769918377E+03  0.91964067667E+02 0.  0.
          4    1    3    3  502    0 -0.53519189428E+01 -0.99457883735E+02  0.33917817838E+03  0.35350014196E+03  0.00000000000E+00 0. -1.
         -4    1    3    3    0  502 -0.66129464848E+02 -0.86463707187E+02  0.70044359638E+03  0.70885140227E+03  0.00000000000E+00 0.  1.
         13    1    5    5    0    0 -0.18267437879E+03  0.21898724076E+02 -0.11916579120E+03  0.21920303048E+03  0.00000000000E+00 0. -1.
        -13    1    5    5    0    0 -0.51478928573E+02  0.60587610910E+02 -0.28365533526E+02  0.84412926587E+02  0.00000000000E+00 0.  1.
          3    1    6    6  503    0  0.11464247522E+02  0.13705785706E+02  0.23856364022E+02  0.29806100674E+02  0.00000000000E+00 0. -1.
         -3    1    6    6    0  503  0.29417044363E+03  0.89729470230E+02  0.14509406815E+02  0.30789308309E+03  0.00000000000E+00 0.  1.
<mgrwt>
<rscale>  0 0.39868061E+03</rscale>
<asrwt>0</asrwt>
<pdfrwt beam="1">  1        1 0.59477729E-01 0.39868061E+03</pdfrwt>
<pdfrwt beam="2">  1       -1 0.20262484E+00 0.39868061E+03</pdfrwt>
<totfact> 0.99244987E+00</totfact>
</mgrwt>
</event>
<event>
12    1  0.1432447E-007  0.2126573E+03  0.7818608E-02  0.1139479E+00
         -2   -1    0    0    0  501 -0.00000000000E+00  0.00000000000E+00  0.10975140580E+03  0.10975140580E+03  0.00000000000E+00 0.  1.
          2   -1    0    0  501    0  0.00000000000E+00 -0.00000000000E+00 -0.13216141448E+04  0.13216141448E+04  0.00000000000E+00 0. -1.
         23    2    1    2    0    0 -0.18654319028E+02  0.86547802981E+02 -0.88923806859E+02  0.15499679555E+03  0.90983830350E+02 0.  0.
    5000000    2    1    2    0    0  0.18654319028E+02 -0.86547802981E+02 -0.11229389321E+04  0.12763687550E+04  0.60023899215E+03 0.  0.
         23    2    4    4    0    0  0.10751819338E+03  0.59565350060E+02 -0.16998432124E+02  0.15370404138E+03  0.90707181665E+02 0.  0.
         23    2    4    4    0    0 -0.88863874352E+02 -0.14611315304E+03 -0.11059405000E+04  0.11226647136E+04  0.89586986040E+02 0.  0.
          4    1    3    3  502    0  0.28057412520E+02  0.36997863382E+02 -0.46746435549E+01  0.46668111002E+02  0.00000000000E+00 0. -1.
         -4    1    3    3    0  502 -0.46711731548E+02  0.49549939599E+02 -0.84249163304E+02  0.10832868455E+03  0.00000000000E+00 0.  1.
         13    1    5    5    0    0  0.10440072538E+03  0.32615323552E+02 -0.41658553034E+02  0.11704147056E+03  0.00000000000E+00 0. -1.
        -13    1    5    5    0    0  0.31174679994E+01  0.26950026508E+02  0.24660120910E+02  0.36662570815E+02  0.00000000000E+00 0.  1.
          1    1    6    6  503    0 -0.62785156108E+02 -0.12786716797E+03 -0.64107240685E+03  0.65670832133E+03  0.00000000000E+00 0. -1.
         -1    1    6    6    0  503 -0.26078718244E+02 -0.18245985073E+02 -0.46486809313E+03  0.46595639230E+03  0.00000000000E+00 0.  1.
<mgrwt>
<rscale>  0 0.21265729E+03</rscale>
<asrwt>0</asrwt>
<pdfrwt beam="1">  1        2 0.20332526E+00 0.21265729E+03</pdfrwt>
<pdfrwt beam="2">  1       -2 0.16884831E-01 0.21265729E+03</pdfrwt>
<totfact> 0.48519983E+02</totfact>
</mgrwt>
</event>
<event>
12    1  0.1432447E-007  0.6806634E+03  0.7818608E-02  0.9750884E-01
         -2   -1    0    0    0  501 -0.00000000000E+00  0.00000000000E+00  0.40980851412E+03  0.40980851412E+03  0.00000000000E+00 0.  1.
          2   -1    0    0  501    0  0.00000000000E+00 -0.00000000000E+00 -0.12527811726E+04  0.12527811726E+04  0.00000000000E+00 0. -1.
         23    2    1    2    0    0  0.54992674016E+03  0.47527888752E+02 -0.58116767067E+03  0.80634903061E+03  0.88116842715E+02 0.  0.
    5000000    2    1    2    0    0 -0.54992674016E+03 -0.47527888752E+02 -0.26180498780E+03  0.85624065611E+03  0.59993990515E+03 0.  0.
         23    2    4    4    0    0 -0.44208871827E+02 -0.24471990399E+03 -0.75956903015E+02  0.27567716899E+03  0.91576168476E+02 0.  0.
         23    2    4    4    0    0 -0.50571786833E+03  0.19719201524E+03 -0.18584808479E+03  0.58056348712E+03  0.88764850761E+02 0.  0.
          1    1    3    3  502    0  0.17922346046E+03 -0.22038010386E+01 -0.24420758839E+03  0.30292449842E+03  0.00000000000E+00 0. -1.
         -1    1    3    3    0  502  0.37070327970E+03  0.49731689790E+02 -0.33696008228E+03  0.50342453218E+03  0.00000000000E+00 0.  1.
         11    1    5    5    0    0  0.28113689855E+02 -0.88390173669E+02 -0.27359562166E+02  0.96704436301E+02  0.00000000000E+00 0. -1.
        -11    1    5    5    0    0 -0.72322561682E+02 -0.15632973032E+03 -0.48597340849E+02  0.17897273269E+03  0.00000000000E+00 0.  1.
          3    1    6    6  503    0 -0.32754423250E+03  0.13630674832E+03 -0.76854580267E+02  0.36300327876E+03  0.00000000000E+00 0. -1.
         -3    1    6    6    0  503 -0.17817363583E+03  0.60885266915E+02 -0.10899350452E+03  0.21756020836E+03  0.00000000000E+00 0.  1.
<mgrwt>
<rscale>  0 0.68066337E+03</rscale>
<asrwt>0</asrwt>
<pdfrwt beam="1">  1        2 0.19273556E+00 0.68066337E+03</pdfrwt>
<pdfrwt beam="2">  1       -2 0.63047464E-01 0.68066337E+03</pdfrwt>
<totfact> 0.42147843E+01</totfact>
</mgrwt>
</event>
<event>
12    1  0.1432447E-007  0.1098032E+04  0.7818608E-02  0.9207112E-01
         -2   -1    0    0    0  501 -0.00000000000E+00  0.00000000000E+00  0.10987555011E+04  0.10987555011E+04  0.00000000000E+00 0.  1.
          2   -1    0    0  501    0  0.00000000000E+00 -0.00000000000E+00 -0.20668333271E+04  0.20668333271E+04  0.00000000000E+00 0. -1.
         23    2    1    2    0    0 -0.12242159747E+03 -0.10337847402E+04  0.58817851131E+03  0.11994880796E+04  0.95497409867E+02 0.  0.
    5000000    2    1    2    0    0  0.12242159747E+03  0.10337847402E+04 -0.15562563372E+04  0.19661007486E+04  0.59993368798E+03 0.  0.
         23    2    4    4    0    0  0.24525380527E+03  0.98598740738E+03 -0.11955873473E+04  0.15717072451E+04  0.92271137374E+02 0.  0.
         23    2    4    4    0    0 -0.12283220781E+03  0.47797332822E+02 -0.36066898995E+03  0.39439350353E+03  0.89954316265E+02 0.  0.
          3    1    3    3  502    0 -0.60213882531E+02 -0.82056421190E+03  0.44782648442E+03  0.93674964513E+03  0.00000000000E+00 0. -1.
         -3    1    3    3    0  502 -0.62207714935E+02 -0.21322052830E+03  0.14035202689E+03  0.26273843445E+03  0.00000000000E+00 0.  1.
         11    1    5    5    0    0  0.10748357238E+03  0.58654668973E+03 -0.65940697682E+03  0.88904853559E+03  0.00000000000E+00 0.  1.
        -11    1    5    5    0    0  0.13777023289E+03  0.39944071765E+03 -0.53618037046E+03  0.68265870950E+03  0.00000000000E+00 0. -1.
          1    1    6    6  503    0 -0.77963824559E+02  0.24139214351E+02 -0.10118317708E+03  0.12999651893E+03  0.00000000000E+00 0. -1.
         -1    1    6    6    0  503 -0.44868383246E+02  0.23658118471E+02 -0.25948581288E+03  0.26439698460E+03  0.00000000000E+00 0.  1.
<mgrwt>
<rscale>  0 0.10980325E+04</rscale>
<asrwt>0</asrwt>
<pdfrwt beam="1">  1        2 0.31797435E+00 0.10980325E+04</pdfrwt>
<pdfrwt beam="2">  1       -2 0.16903931E+00 0.10980325E+04</pdfrwt>
<totfact> 0.13079092E+00</totfact>
</mgrwt>
</event>
<event>
12    1  0.1432447E-007  0.4126771E+03  0.7818608E-02  0.1039476E+00
         -1   -1    0    0    0  501 -0.00000000000E+00  0.00000000000E+00  0.97156214937E+03  0.97156214937E+03  0.00000000000E+00 0.  1.
          1   -1    0    0  501    0  0.00000000000E+00 -0.00000000000E+00 -0.51595047064E+03  0.51595047064E+03  0.00000000000E+00 0. -1.
         23    2    1    2    0    0  0.20446601996E+03 -0.69412312697E+02  0.74949430797E+03  0.78529202837E+03  0.91199943382E+02 0.  0.
    5000000    2    1    2    0    0 -0.20446601996E+03  0.69412312697E+02 -0.29388262924E+03  0.70222059164E+03  0.60010193891E+03 0.  0.
         23    2    4    4    0    0 -0.17455385061E+03 -0.22140849688E+03 -0.26010949017E+03  0.39431442017E+03  0.91302496263E+02 0.  0.
         23    2    4    4    0    0 -0.29912169357E+02  0.29082080958E+03 -0.33773139069E+02  0.30790617147E+03  0.90521292214E+02 0.  0.
          1    1    3    3  502    0  0.15599914841E+03 -0.16655797951E+02  0.42627281733E+03  0.45422644651E+03  0.00000000000E+00 0. -1.
         -1    1    3    3    0  502  0.48466871555E+02 -0.52756514746E+02  0.32322149064E+03  0.33106558186E+03  0.00000000000E+00 0.  1.
         11    1    5    5    0    0 -0.25549274862E+02 -0.10243732742E+03 -0.97793224877E+02  0.14390860407E+03  0.00000000000E+00 0.  1.
        -11    1    5    5    0    0 -0.14900457574E+03 -0.11897116947E+03 -0.16231626529E+03  0.25040581610E+03  0.00000000000E+00 0. -1.
          1    1    6    6  503    0 -0.51255592535E+02  0.24080951240E+03 -0.47050440666E+01  0.24624884663E+03  0.00000000000E+00 0. -1.
         -1    1    6    6    0  503  0.21343423178E+02  0.50011297183E+02 -0.29068095003E+02  0.61657324836E+02  0.00000000000E+00 0.  1.
<mgrwt>
<rscale>  0 0.41267710E+03</rscale>
<asrwt>0</asrwt>
<pdfrwt beam="1">  1        1 0.79376996E-01 0.41267710E+03</pdfrwt>
<pdfrwt beam="2">  1       -1 0.14947110E+00 0.41267710E+03</pdfrwt>
<totfact> 0.16172166E+01</totfact>
</mgrwt>
</event>
<event>
12    1  0.1432447E-007  0.3953427E+03  0.7818608E-02  0.1045404E+00
         -2   -1    0    0    0  501 -0.00000000000E+00  0.00000000000E+00  0.16243305353E+03  0.16243305353E+03  0.00000000000E+00 0.  1.
          2   -1    0    0  501    0  0.00000000000E+00 -0.00000000000E+00 -0.14240288070E+04  0.14240288070E+04  0.00000000000E+00 0. -1.
         23    2    1    2    0    0  0.44763322831E+02 -0.27771293461E+03 -0.33346785738E+03  0.44577715090E+03  0.91587265684E+02 0.  0.
    5000000    2    1    2    0    0 -0.44763322831E+02  0.27771293461E+03 -0.92812789608E+03  0.11406847096E+04  0.60050977191E+03 0.  0.
         23    2    4    4    0    0  0.68622575919E+02  0.34249249466E+03 -0.91214927636E+03  0.98107869083E+03  0.92135380873E+02 0.  0.
         23    2    4    4    0    0 -0.11338589875E+03 -0.64779560050E+02 -0.15978619717E+02  0.15960601879E+03  0.90365986467E+02 0.  0.
          2    1    3    3  502    0  0.62147261390E+02 -0.14849635485E+03 -0.14530481581E+03  0.21685695515E+03  0.00000000000E+00 0. -1.
         -2    1    3    3    0  502 -0.17383938558E+02 -0.12921657976E+03 -0.18816304158E+03  0.22892019574E+03  0.00000000000E+00 0.  1.
         13    1    5    5    0    0  0.53814013659E+02  0.31069947654E+03 -0.72398402422E+03  0.78967270443E+03  0.00000000000E+00 0. -1.
        -13    1    5    5    0    0  0.14808562259E+02  0.31793018112E+02 -0.18816525214E+03  0.19140598640E+03  0.00000000000E+00 0.  1.
          4    1    6    6  503    0 -0.91925445941E+02 -0.12949725750E+02 -0.36671957242E+02  0.99813904124E+02  0.00000000000E+00 0. -1.
         -4    1    6    6    0  503 -0.21460452809E+02 -0.51829834300E+02  0.20693337524E+02  0.59792114666E+02  0.00000000000E+00 0.  1.
<mgrwt>
<rscale>  0 0.39534273E+03</rscale>
<asrwt>0</asrwt>
<pdfrwt beam="1">  1        2 0.21908135E+00 0.39534273E+03</pdfrwt>
<pdfrwt beam="2">  1       -2 0.24989701E-01 0.39534273E+03</pdfrwt>
<totfact> 0.21099886E+02</totfact>
</mgrwt>
</event>
<event>
12    1  0.1432447E-007  0.5456235E+03  0.7818608E-02  0.1002512E+00
          1   -1    0    0  501    0  0.00000000000E+00  0.00000000000E+00  0.92878039554E+03  0.92878039554E+03  0.00000000000E+00 0. -1.
         -1   -1    0    0    0  501 -0.00000000000E+00 -0.00000000000E+00 -0.37443854208E+03  0.37443854208E+03  0.00000000000E+00 0.  1.
         23    2    1    2    0    0  0.36691193710E+03 -0.19830620311E+03  0.87989213158E+02  0.43627950952E+03  0.92994564434E+02 0.  0.
    5000000    2    1    2    0    0 -0.36691193710E+03  0.19830620311E+03  0.46635264030E+03  0.86693942809E+03  0.60012454298E+03 0.  0.
         23    2    4    4    0    0 -0.82197408148E+02  0.32846928359E+03  0.40400923313E+03  0.53515349395E+03  0.92289313891E+02 0.  0.
         23    2    4    4    0    0 -0.28471452896E+03 -0.13016308048E+03  0.62343407167E+02  0.33178593415E+03  0.90500912500E+02 0.  0.
          2    1    3    3  502    0  0.11697538759E+03 -0.30876361779E+02 -0.59265248575E+01  0.12112685381E+03  0.00000000000E+00 0. -1.
         -2    1    3    3    0  502  0.24993654952E+03 -0.16742984133E+03  0.93915738015E+02  0.31515265571E+03  0.00000000000E+00 0.  1.
         13    1    5    5    0    0 -0.79964503195E+01  0.15871198874E+03  0.13496940890E+03  0.20849503573E+03  0.00000000000E+00 0.  1.
        -13    1    5    5    0    0 -0.74200957828E+02  0.16975729485E+03  0.26903982424E+03  0.32665845821E+03  0.00000000000E+00 0. -1.
          2    1    6    6  503    0 -0.24160534100E+03 -0.70568295025E+02  0.39591124356E+02  0.25479498070E+03  0.00000000000E+00 0. -1.
         -2    1    6    6    0  503 -0.43109187951E+02 -0.59594785452E+02  0.22752282811E+02  0.76990953442E+02  0.00000000000E+00 0.  1.
<mgrwt>
<rscale>  0 0.54562354E+03</rscale>
<asrwt>0</asrwt>
<pdfrwt beam="1">  1        1 0.14288929E+00 0.54562354E+03</pdfrwt>
<pdfrwt beam="2">  1       -1 0.57605930E-01 0.54562354E+03</pdfrwt>
<totfact> 0.55065926E+01</totfact>
</mgrwt>
</event>
<event>
12    1  0.1432447E-007  0.6910142E+03  0.7818608E-02  0.9732724E-01
         -1   -1    0    0    0  501 -0.00000000000E+00  0.00000000000E+00  0.45021023061E+03  0.45021023061E+03  0.00000000000E+00 0.  1.
          1   -1    0    0  501    0  0.00000000000E+00 -0.00000000000E+00 -0.14537937145E+04  0.14537937145E+04  0.00000000000E+00 0. -1.
         23    2    1    2    0    0 -0.22549393753E+03 -0.57914896507E+03 -0.79859829683E+03  0.10162616977E+04  0.93635243777E+02 0.  0.
    5000000    2    1    2    0    0  0.22549393753E+03  0.57914896507E+03 -0.20498518703E+03  0.88774224740E+03  0.59983858771E+03 0.  0.
         23    2    4    4    0    0  0.25097155368E+03  0.12551815466E+03 -0.29307891546E+03  0.41586472581E+03  0.91141053214E+02 0.  0.
         23    2    4    4    0    0 -0.25477616149E+02  0.45363081041E+03  0.88093728433E+02  0.47187752159E+03  0.92075345834E+02 0.  0.
          4    1    3    3  502    0  0.70276435406E+01 -0.27024812709E+02 -0.51944735463E+02  0.58974433596E+02  0.00000000000E+00 0. -1.
         -4    1    3    3    0  502 -0.23252158107E+03 -0.55212415236E+03 -0.74665356136E+03  0.95728726409E+03  0.00000000000E+00 0.  1.
         13    1    5    5    0    0  0.22101041934E+03  0.13631500961E+03 -0.23798050037E+03  0.35222451059E+03  0.00000000000E+00 0.  1.
        -13    1    5    5    0    0  0.29961134335E+02 -0.10796854958E+02 -0.55098415090E+02  0.63640215218E+02  0.00000000000E+00 0. -1.
          4    1    6    6  503    0  0.23762255583E+02  0.32340871958E+03  0.57594685816E+02  0.32935541976E+03  0.00000000000E+00 0. -1.
         -4    1    6    6    0  503 -0.49239871732E+02  0.13022209083E+03  0.30499042617E+02  0.14252210183E+03  0.00000000000E+00 0.  1.
<mgrwt>
<rscale>  0 0.69101422E+03</rscale>
<asrwt>0</asrwt>
<pdfrwt beam="1">  1        1 0.22366058E+00 0.69101422E+03</pdfrwt>
<pdfrwt beam="2">  1       -1 0.69263111E-01 0.69101422E+03</pdfrwt>
<totfact> 0.15512376E+01</totfact>
</mgrwt>
</event>
<event>
12    1  0.1432447E-007  0.1242780E+04  0.7818608E-02  0.9076214E-01
         -2   -1    0    0    0  501 -0.00000000000E+00  0.00000000000E+00  0.10241779735E+04  0.10241779735E+04  0.00000000000E+00 0.  1.
          2   -1    0    0  501    0  0.00000000000E+00 -0.00000000000E+00 -0.22240346484E+04  0.22240346484E+04  0.00000000000E+00 0. -1.
         23    2    1    2    0    0  0.11952618135E+04  0.27840915731E+03  0.25049734007E+03  0.12557654163E+04  0.89640403026E+02 0.  0.
    5000000    2    1    2    0    0 -0.11952618135E+04 -0.27840915731E+03 -0.14503540150E+04  0.19924472055E+04  0.60013051611E+03 0.  0.
         23    2    4    4    0    0 -0.19837285384E+03 -0.12416472322E+03 -0.43797523915E+02  0.25916856487E+03  0.10237897383E+03 0.  0.
         23    2    4    4    0    0 -0.99688895962E+03 -0.15424443409E+03 -0.14065564911E+04  0.17332786406E+04  0.90965599286E+02 0.  0.
          3    1    3    3  502    0  0.33623123957E+03  0.10056934285E+03  0.36857384465E+02  0.35287973301E+03  0.00000000000E+00 0. -1.
         -3    1    3    3    0  502  0.85903057389E+03  0.17783981446E+03  0.21363995560E+03  0.90288568331E+03  0.00000000000E+00 0.  1.
         11    1    5    5    0    0 -0.14744633192E+03 -0.12714915903E+03 -0.44599185393E+01  0.19474912147E+03  0.00000000000E+00 0. -1.
        -11    1    5    5    0    0 -0.50926521917E+02  0.29844358092E+01 -0.39337605375E+02  0.64419443403E+02  0.00000000000E+00 0.  1.
          3    1    6    6  503    0 -0.44126602301E+03 -0.10680315782E+03 -0.67322175004E+03  0.81200378220E+03  0.00000000000E+00 0. -1.
         -3    1    6    6    0  503 -0.55562293661E+03 -0.47441276269E+02 -0.73333474104E+03  0.92127485845E+03  0.00000000000E+00 0.  1.
<mgrwt>
<rscale>  0 0.12427797E+04</rscale>
<asrwt>0</asrwt>
<pdfrwt beam="1">  1        2 0.34215917E+00 0.12427797E+04</pdfrwt>
<pdfrwt beam="2">  1       -2 0.15756584E+00 0.12427797E+04</pdfrwt>
<totfact> 0.12742294E+00</totfact>
</mgrwt>
</event>
<event>
12    1  0.1432447E-007  0.8586284E+03  0.7818608E-02  0.9478829E-01
          1   -1    0    0  501    0  0.00000000000E+00  0.00000000000E+00  0.18539431293E+04  0.18539431293E+04  0.00000000000E+00 0. -1.
         -1   -1    0    0    0  501 -0.00000000000E+00 -0.00000000000E+00 -0.49332831829E+03  0.49332831829E+03  0.00000000000E+00 0.  1.
         23    2    1    2    0    0  0.11212769177E+03  0.76226500178E+03  0.14578253073E+03  0.78860923638E+03  0.83853617890E+02 0.  0.
    5000000    2    1    2    0    0 -0.11212769177E+03 -0.76226500178E+03  0.12148322802E+04  0.15586622112E+04  0.59999155594E+03 0.  0.
         23    2    4    4    0    0  0.13364989663E+03  0.57082621461E+01  0.17092286181E+03  0.23602197079E+03  0.92719290765E+02 0.  0.
         23    2    4    4    0    0 -0.24577758839E+03 -0.76797326393E+03  0.10439094184E+04  0.13226402404E+04  0.97163648136E+02 0.  0.
          3    1    3    3  502    0 -0.40026854165E+01  0.10862379239E+03 -0.98525175654E+00  0.10870198013E+03  0.00000000000E+00 0. -1.
         -3    1    3    3    0  502  0.11613037719E+03  0.65364120939E+03  0.14676778248E+03  0.67990725625E+03  0.00000000000E+00 0.  1.
         13    1    5    5    0    0  0.90076116553E+02  0.36664076470E+01  0.16996080096E+03  0.19238976891E+03  0.00000000000E+00 0. -1.
        -13    1    5    5    0    0  0.43573780072E+02  0.20418544990E+01  0.96206085087E+00  0.43632201877E+02  0.00000000000E+00 0.  1.
          2    1    6    6  503    0 -0.18203663095E+03 -0.42945726871E+03  0.56372448700E+03  0.73168037961E+03  0.00000000000E+00 0.  1.
         -2    1    6    6    0  503 -0.63740957444E+02 -0.33851599522E+03  0.48018493143E+03  0.59095986078E+03  0.00000000000E+00 0. -1.
<mgrwt>
<rscale>  0 0.85862843E+03</rscale>
<asrwt>0</asrwt>
<pdfrwt beam="1">  1        1 0.28522202E+00 0.85862843E+03</pdfrwt>
<pdfrwt beam="2">  1       -1 0.75896665E-01 0.85862843E+03</pdfrwt>
<totfact> 0.67153539E+00</totfact>
</mgrwt>
</event>
<event>
12    1  0.1432447E-007  0.5789218E+03  0.7818608E-02  0.9950128E-01
         -2   -1    0    0    0  501 -0.00000000000E+00  0.00000000000E+00  0.10434751526E+04  0.10434751526E+04  0.00000000000E+00 0. -1.
          2   -1    0    0  501    0  0.00000000000E+00 -0.00000000000E+00 -0.37567154244E+03  0.37567154244E+03  0.00000000000E+00 0.  1.
         23    2    1    2    0    0 -0.38857686335E+03  0.27716438726E+03  0.27645282829E+03  0.55846832080E+03  0.87456404974E+02 0.  0.
    5000000    2    1    2    0    0  0.38857686335E+03 -0.27716438726E+03  0.39135078185E+03  0.86067837422E+03  0.59983310436E+03 0.  0.
         23    2    4    4    0    0 -0.96119230492E+02 -0.54910586813E+02  0.27058174224E+03  0.30595684429E+03  0.90227669366E+02 0.  0.
         23    2    4    4    0    0  0.48469609385E+03 -0.22225380045E+03  0.12076903961E+03  0.55472152993E+03  0.93828351968E+02 0.  0.
          2    1    3    3  502    0 -0.21506560163E+03  0.17876593604E+03  0.20435160237E+03  0.34636693012E+03  0.00000000000E+00 0. -1.
         -2    1    3    3    0  502 -0.17351126173E+03  0.98398451219E+02  0.72101225915E+02  0.21210139068E+03  0.00000000000E+00 0.  1.
         13    1    5    5    0    0 -0.11258679909E+03 -0.37258560559E+02  0.22853542390E+03  0.25747315907E+03  0.00000000000E+00 0.  1.
        -13    1    5    5    0    0  0.16467568599E+02 -0.17652026254E+02  0.42046318341E+02  0.48483685220E+02  0.00000000000E+00 0. -1.
          3    1    6    6  503    0  0.41563760330E+02 -0.37127868433E+02  0.37846265832E+02  0.67367385467E+02  0.00000000000E+00 0. -1.
         -3    1    6    6    0  503  0.44313233352E+03 -0.18512593201E+03  0.82922773777E+02  0.48735414446E+03  0.00000000000E+00 0.  1.
<mgrwt>
<rscale>  0 0.57892177E+03</rscale>
<asrwt>0</asrwt>
<pdfrwt beam="1">  1        2 0.57795622E-01 0.57892177E+03</pdfrwt>
<pdfrwt beam="2">  1       -2 0.16053464E+00 0.57892177E+03</pdfrwt>
<totfact> 0.21932942E+01</totfact>
</mgrwt>
</event>
<event>
12    1  0.1432447E-007  0.6594711E+03  0.7818608E-02  0.9789168E-01
          2   -1    0    0  501    0  0.00000000000E+00  0.00000000000E+00  0.21250703053E+04  0.21250703053E+04  0.00000000000E+00 0. -1.
         -2   -1    0    0    0  501 -0.00000000000E+00 -0.00000000000E+00 -0.31302654320E+03  0.31302654320E+03  0.00000000000E+00 0.  1.
         23    2    1    2    0    0 -0.84474334556E+02 -0.53966572008E+03  0.14454569682E+04  0.15479988144E+04  0.92625480971E+02 0.  0.
    5000000    2    1    2    0    0  0.84474334556E+02  0.53966572008E+03  0.36658679389E+03  0.89009803413E+03  0.59959455491E+03 0.  0.
         23    2    4    4    0    0  0.30365330592E+03  0.33548746395E+03  0.82294330506E+02  0.46699165656E+03  0.80942459816E+02 0.  0.
         23    2    4    4    0    0 -0.21917897137E+03  0.20417825613E+03  0.28429246339E+03  0.42310637757E+03  0.92025106550E+02 0.  0.
          2    1    3    3  502    0  0.10630024277E+02 -0.19823469199E+03  0.56622961932E+03  0.60002164321E+03  0.00000000000E+00 0. -1.
         -2    1    3    3    0  502 -0.95104358834E+02 -0.34143102809E+03  0.87922734893E+03  0.94797717120E+03  0.00000000000E+00 0.  1.
         13    1    5    5    0    0  0.22456683459E+03  0.20808146399E+03  0.82359626514E+02  0.31703511940E+03  0.00000000000E+00 0.  1.
        -13    1    5    5    0    0  0.79086471328E+02  0.12740599996E+03 -0.65296008861E-01  0.14995653716E+03  0.00000000000E+00 0. -1.
          2    1    6    6  503    0 -0.18281324993E+03  0.12134014191E+03  0.17134663945E+03  0.27839501655E+03  0.00000000000E+00 0. -1.
         -2    1    6    6    0  503 -0.36365721436E+02  0.82838114223E+02  0.11294582394E+03  0.14471136102E+03  0.00000000000E+00 0.  1.
<mgrwt>
<rscale>  0 0.65947111E+03</rscale>
<asrwt>0</asrwt>
<pdfrwt beam="1">  1        2 0.32693388E+00 0.65947111E+03</pdfrwt>
<pdfrwt beam="2">  1       -2 0.48157931E-01 0.65947111E+03</pdfrwt>
<totfact> 0.24402615E+01</totfact>
</mgrwt>
</event>
<event>
12    1  0.1432447E-007  0.5534982E+03  0.7818608E-02  0.1000687E+00
          2   -1    0    0  501    0  0.00000000000E+00  0.00000000000E+00  0.21158958733E+04  0.21158958733E+04  0.00000000000E+00 0.  1.
         -2   -1    0    0    0  501 -0.00000000000E+00 -0.00000000000E+00 -0.23652885066E+03  0.23652885066E+03  0.00000000000E+00 0. -1.
         23    2    1    2    0    0 -0.37591004248E+03  0.25914780738E+03  0.13580051100E+04  0.14357410001E+04  0.93318778598E+02 0.  0.
    5000000    2    1    2    0    0  0.37591004248E+03 -0.25914780738E+03  0.52136191256E+03  0.91668372379E+03  0.60002071589E+03 0.  0.
         23    2    4    4    0    0 -0.69564051739E+02 -0.15492797210E+03 -0.29330012378E+02  0.19491600595E+03  0.91050348244E+02 0.  0.
         23    2    4    4    0    0  0.44547409422E+03 -0.10421983529E+03  0.55069192494E+03  0.72176771785E+03  0.91531959748E+02 0.  0.
          3    1    3    3  502    0 -0.23113376796E+02  0.15669144570E+02  0.18032279217E+03  0.18247207911E+03  0.00000000000E+00 0. -1.
         -3    1    3    3    0  502 -0.35279666568E+03  0.24347866281E+03  0.11776823179E+04  0.12532689210E+04  0.00000000000E+00 0.  1.
         13    1    5    5    0    0 -0.15062863598E+01  0.12140369040E+02 -0.64013325154E+00  0.12250193044E+02  0.00000000000E+00 0. -1.
        -13    1    5    5    0    0 -0.68057765379E+02 -0.16706834114E+03 -0.28689879126E+02  0.18266581290E+03  0.00000000000E+00 0.  1.
          4    1    6    6  503    0  0.13750116919E+03 -0.24602290736E+02  0.10762805377E+03  0.17633956503E+03  0.00000000000E+00 0. -1.
         -4    1    6    6    0  503  0.30797292502E+03 -0.79617544551E+02  0.44306387117E+03  0.54542815282E+03  0.00000000000E+00 0.  1.
<mgrwt>
<rscale>  0 0.55349824E+03</rscale>
<asrwt>0</asrwt>
<pdfrwt beam="1">  1        2 0.32552243E+00 0.55349824E+03</pdfrwt>
<pdfrwt beam="2">  1       -2 0.36389055E-01 0.55349824E+03</pdfrwt>
<totfact> 0.43519465E+01</totfact>
</mgrwt>
</event>
<event>
12    1  0.1432447E-007  0.1086491E+04  0.7818608E-02  0.9218460E-01
          2   -1    0    0  501    0  0.00000000000E+00  0.00000000000E+00  0.20135470210E+04  0.20135470210E+04  0.00000000000E+00 0. -1.
         -2   -1    0    0    0  501 -0.00000000000E+00 -0.00000000000E+00 -0.92142688399E+03  0.92142688399E+03  0.00000000000E+00 0.  1.
         23    2    1    2    0    0 -0.55827769260E+02 -0.10155196514E+04  0.13825041526E+04  0.17190570375E+04  0.97172340898E+02 0.  0.
    5000000    2    1    2    0    0  0.55827769260E+02  0.10155196514E+04 -0.29038401567E+03  0.12159168675E+04  0.59977833385E+03 0.  0.
         23    2    4    4    0    0  0.60018828349E+02 -0.30884345950E+02  0.35968081079E+02  0.11609732911E+03  0.87342912640E+02 0.  0.
         23    2    4    4    0    0 -0.41910590888E+01  0.10464039974E+04 -0.32635209675E+03  0.10998195383E+04  0.90102359439E+02 0.  0.
          3    1    3    3  502    0  0.23478795561E+02 -0.19683975506E+03  0.24012700024E+03  0.31138098731E+03  0.00000000000E+00 0. -1.
         -3    1    3    3    0  502 -0.79306564822E+02 -0.81867989637E+03  0.11423771524E+04  0.14076760502E+04  0.00000000000E+00 0.  1.
         11    1    5    5    0    0  0.79605789345E+02 -0.27645056461E+02  0.43535729558E+02  0.94850886090E+02  0.00000000000E+00 0.  1.
        -11    1    5    5    0    0 -0.19586960996E+02 -0.32392894886E+01 -0.75676484781E+01  0.21246443018E+02  0.00000000000E+00 0. -1.
          3    1    6    6  503    0 -0.24595911441E+02  0.20641709845E+03 -0.36908729035E+02  0.21112847196E+03  0.00000000000E+00 0. -1.
         -3    1    6    6    0  503  0.20404852352E+02  0.83998689892E+03 -0.28944336771E+03  0.88869106639E+03  0.00000000000E+00 0.  1.
<mgrwt>
<rscale>  0 0.10864908E+04</rscale>
<asrwt>0</asrwt>
<pdfrwt beam="1">  1        2 0.30977646E+00 0.10864908E+04</pdfrwt>
<pdfrwt beam="2">  1       -2 0.14175798E+00 0.10864908E+04</pdfrwt>
<totfact> 0.22533988E+00</totfact>
</mgrwt>
</event>
<event>
12    1  0.1432447E-007  0.1059368E+04  0.7818608E-02  0.9245725E-01
         -2   -1    0    0    0  501 -0.00000000000E+00  0.00000000000E+00  0.54943342961E+03  0.54943342961E+03  0.00000000000E+00 0.  1.
          2   -1    0    0  501    0  0.00000000000E+00 -0.00000000000E+00 -0.22360230981E+04  0.22360230981E+04  0.00000000000E+00 0. -1.
         23    2    1    2    0    0 -0.95332693334E+03  0.37655595729E+03 -0.78935919799E+03  0.12969429069E+04  0.91358248793E+02 0.  0.
    5000000    2    1    2    0    0  0.95332693334E+03 -0.37655595729E+03 -0.89723047052E+03  0.14885136208E+04  0.60001970902E+03 0.  0.
         23    2    4    4    0    0  0.25894619001E+03 -0.27490299787E+03 -0.61690184413E+02  0.39357492498E+03  0.92036705545E+02 0.  0.
         23    2    4    4    0    0  0.69438074333E+03 -0.10165295942E+03 -0.83554028611E+03  0.10949386958E+04  0.90913348702E+02 0.  0.
          3    1    3    3  502    0 -0.80417453805E+03  0.30986254392E+03 -0.62026091922E+03  0.10618074645E+04  0.00000000000E+00 0. -1.
         -3    1    3    3    0  502 -0.14915239529E+03  0.66693413367E+02 -0.16909827877E+03  0.23513544244E+03  0.00000000000E+00 0.  1.
         13    1    5    5    0    0  0.22279399492E+03 -0.17765183751E+03 -0.44320654796E+02  0.28837763434E+03  0.00000000000E+00 0. -1.
        -13    1    5    5    0    0  0.36152195084E+02 -0.97251160358E+02 -0.17369529617E+02  0.10519729065E+03  0.00000000000E+00 0.  1.
          1    1    6    6  503    0  0.39157702245E+03 -0.24399883903E+02 -0.41631316763E+03  0.57205294544E+03  0.00000000000E+00 0. -1.
         -1    1    6    6    0  503  0.30280372089E+03 -0.77253075520E+02 -0.41922711848E+03  0.52288575036E+03  0.00000000000E+00 0.  1.
<mgrwt>
<rscale>  0 0.10593679E+04</rscale>
<asrwt>0</asrwt>
<pdfrwt beam="1">  1        2 0.34400355E+00 0.10593679E+04</pdfrwt>
<pdfrwt beam="2">  1       -2 0.84528221E-01 0.10593679E+04</pdfrwt>
<totfact> 0.60017241E+00</totfact>
</mgrwt>
</event>
<event>
12    1  0.1432447E-007  0.3362145E+03  0.7818608E-02  0.1068420E+00
         -1   -1    0    0    0  501 -0.00000000000E+00  0.00000000000E+00  0.86325813195E+03  0.86325813195E+03  0.00000000000E+00 0.  1.
          1   -1    0    0  501    0  0.00000000000E+00 -0.00000000000E+00 -0.30502727631E+03  0.30502727631E+03  0.00000000000E+00 0. -1.
         23    2    1    2    0    0 -0.50127928493E+02 -0.30857819919E+03  0.66602663700E+02  0.33225896332E+03  0.90701651937E+02 0.  0.
    5000000    2    1    2    0    0  0.50127928493E+02  0.30857819919E+03  0.49162819195E+03  0.83602644494E+03  0.59959037959E+03 0.  0.
         23    2    4    4    0    0 -0.35960147656E+02  0.14068772914E+03  0.58217823066E+03  0.60709055057E+03  0.92419018521E+02 0.  0.
         23    2    4    4    0    0  0.86088076149E+02  0.16789047005E+03 -0.90550038715E+02  0.22893589437E+03  0.92811461756E+02 0.  0.
          3    1    3    3  502    0 -0.31819276842E+02 -0.20345728930E+03  0.87120524312E+02  0.22360080659E+03  0.00000000000E+00 0. -1.
         -3    1    3    3    0  502 -0.18308651651E+02 -0.10512090989E+03 -0.20517860613E+02  0.10865815674E+03  0.00000000000E+00 0.  1.
         11    1    5    5    0    0  0.16415077307E+02  0.10631537239E+03  0.32276214653E+03  0.34021730761E+03  0.00000000000E+00 0.  1.
        -11    1    5    5    0    0 -0.52375224963E+02  0.34372356759E+02  0.25941608413E+03  0.26687324296E+03  0.00000000000E+00 0. -1.
          1    1    6    6  503    0  0.32547072776E+02  0.45102183523E+02 -0.76023092252E+02  0.94196759288E+02  0.00000000000E+00 0. -1.
         -1    1    6    6    0  503  0.53541003373E+02  0.12278828652E+03 -0.14526946463E+02  0.13473913508E+03  0.00000000000E+00 0.  1.
<mgrwt>
<rscale>  0 0.33621445E+03</rscale>
<asrwt>0</asrwt>
<pdfrwt beam="1">  1        1 0.46927274E-01 0.33621445E+03</pdfrwt>
<pdfrwt beam="2">  1       -1 0.13280894E+00 0.33621445E+03</pdfrwt>
<totfact> 0.44209858E+01</totfact>
</mgrwt>
</event>
<event>
12    1  0.1432447E-007  0.4113714E+03  0.7818608E-02  0.1039912E+00
          2   -1    0    0  501    0  0.00000000000E+00  0.00000000000E+00  0.15088284481E+04  0.15088284481E+04  0.00000000000E+00 0. -1.
         -2   -1    0    0    0  501 -0.00000000000E+00 -0.00000000000E+00 -0.25838287245E+03  0.25838287245E+03  0.00000000000E+00 0.  1.
         23    2    1    2    0    0  0.22909456353E+03  0.32396743533E+03  0.85498246773E+03  0.94630761388E+03  0.84046783155E+02 0.  0.
    5000000    2    1    2    0    0 -0.22909456353E+03 -0.32396743533E+03  0.39546310796E+03  0.82090370671E+03  0.60004383819E+03 0.  0.
         23    2    4    4    0    0 -0.90054985884E+02 -0.52717187537E+02  0.47299692612E+03  0.49312481684E+03  0.92504002760E+02 0.  0.
         23    2    4    4    0    0 -0.13903957764E+03 -0.27125024780E+03 -0.77533818156E+02  0.32777888987E+03  0.92297381370E+02 0.  0.
          1    1    3    3  502    0  0.20181641207E+03  0.31868963983E+03  0.80819347340E+03  0.89189104781E+03  0.00000000000E+00 0. -1.
         -1    1    3    3    0  502  0.27278151452E+02  0.52777955073E+01  0.46788994329E+02  0.54416566065E+02  0.00000000000E+00 0.  1.
         13    1    5    5    0    0 -0.80578005462E+02 -0.43338213926E+02  0.20148139201E+03  0.22128209841E+03  0.00000000000E+00 0. -1.
        -13    1    5    5    0    0 -0.94769804210E+01 -0.93789736114E+01  0.27151553410E+03  0.27184271843E+03  0.00000000000E+00 0.  1.
          3    1    6    6  503    0 -0.62431411653E+02 -0.53971970962E+02  0.59272689681E+01  0.82739273190E+02  0.00000000000E+00 0. -1.
         -3    1    6    6    0  503 -0.76608165989E+02 -0.21727827683E+03 -0.83461087124E+02  0.24503961668E+03  0.00000000000E+00 0.  1.
<mgrwt>
<rscale>  0 0.41137139E+03</rscale>
<asrwt>0</asrwt>
<pdfrwt beam="1">  1        2 0.23212745E+00 0.41137139E+03</pdfrwt>
<pdfrwt beam="2">  1       -2 0.39751212E-01 0.41137139E+03</pdfrwt>
<totfact> 0.80017425E+01</totfact>
</mgrwt>
</event>
<event>
12    1  0.1432447E-007  0.4852095E+03  0.7818608E-02  0.1017713E+00
          2   -1    0    0  501    0  0.00000000000E+00  0.00000000000E+00  0.16905855401E+03  0.16905855401E+03  0.00000000000E+00 0. -1.
         -2   -1    0    0    0  501 -0.00000000000E+00 -0.00000000000E+00 -0.14951597438E+04  0.14951597438E+04  0.00000000000E+00 0.  1.
         23    2    1    2    0    0 -0.12333182498E+03 -0.28750453750E+03 -0.49264988735E+03  0.59078132157E+03  0.91918769964E+02 0.  0.
    5000000    2    1    2    0    0  0.12333182498E+03  0.28750453750E+03 -0.83345130240E+03  0.10734369762E+04  0.59979685749E+03 0.  0.
         23    2    4    4    0    0 -0.22665548339E+03  0.15286411661E+03 -0.29184221758E+03  0.40920321569E+03  0.86805791724E+02 0.  0.
         23    2    4    4    0    0  0.34998730837E+03  0.13464042089E+03 -0.54160908482E+03  0.66423376050E+03  0.85128895584E+02 0.  0.
          4    1    3    3  502    0 -0.12760142803E+03 -0.23852318790E+03 -0.36753418104E+03  0.45635162960E+03  0.00000000000E+00 0. -1.
         -4    1    3    3    0  502  0.42696030458E+01 -0.48981349598E+02 -0.12511570631E+03  0.13442969197E+03  0.00000000000E+00 0.  1.
         13    1    5    5    0    0 -0.19515821291E+03  0.13165280733E+03 -0.28656901010E+03  0.37086518750E+03  0.00000000000E+00 0. -1.
        -13    1    5    5    0    0 -0.31497270483E+02  0.21211309278E+02 -0.52732074717E+01  0.38338028199E+02  0.00000000000E+00 0.  1.
          1    1    6    6  503    0  0.12758969649E+03  0.27605724486E+02 -0.25132936068E+03  0.28320955884E+03  0.00000000000E+00 0. -1.
         -1    1    6    6    0  503  0.22239761188E+03  0.10703469640E+03 -0.29027972414E+03  0.38102420166E+03  0.00000000000E+00 0.  1.
<mgrwt>
<rscale>  0 0.48520952E+03</rscale>
<asrwt>0</asrwt>
<pdfrwt beam="1">  1        2 0.26009008E-01 0.48520952E+03</pdfrwt>
<pdfrwt beam="2">  1       -2 0.23002458E+00 0.48520952E+03</pdfrwt>
<totfact> 0.18798132E+01</totfact>
</mgrwt>
</event>
<event>
12    1  0.1432447E-007  0.7965335E+03  0.7818608E-02  0.9565048E-01
         -2   -1    0    0    0  501 -0.00000000000E+00  0.00000000000E+00  0.41472005307E+03  0.41472005307E+03  0.00000000000E+00 0.  1.
          2   -1    0    0  501    0  0.00000000000E+00 -0.00000000000E+00 -0.19179932417E+04  0.19179932417E+04  0.00000000000E+00 0. -1.
         23    2    1    2    0    0  0.41330576644E+03  0.55364259669E+03 -0.11651416482E+04  0.13574130258E+04  0.87597264614E+02 0.  0.
    5000000    2    1    2    0    0 -0.41330576644E+03 -0.55364259669E+03 -0.33813154046E+03  0.97530026899E+03  0.59961312077E+03 0.  0.
         23    2    4    4    0    0  0.34483110599E+02 -0.42759578982E+03 -0.13186204588E+03  0.45819411013E+03  0.92341751274E+02 0.  0.
         23    2    4    4    0    0 -0.44778887704E+03 -0.12604680687E+03 -0.20626949457E+03  0.51710615886E+03  0.91918437840E+02 0.  0.
          1    1    3    3  502    0  0.39844720014E+03  0.49517811987E+03 -0.10783007753E+04  0.12516765172E+04  0.00000000000E+00 0. -1.
         -1    1    3    3    0  502  0.14858566306E+02  0.58464476817E+02 -0.86840872847E+02  0.10573650854E+03  0.00000000000E+00 0.  1.
         13    1    5    5    0    0 -0.45865600288E+01 -0.21569898713E+03 -0.23536002741E+02  0.21702772405E+03  0.00000000000E+00 0. -1.
        -13    1    5    5    0    0  0.39069670628E+02 -0.21189680269E+03 -0.10832604314E+03  0.24116638608E+03  0.00000000000E+00 0.  1.
          4    1    6    6  503    0 -0.50986385536E+01 -0.46834260617E+01 -0.20984089784E+02  0.22096665333E+02  0.00000000000E+00 0.  1.
         -4    1    6    6    0  503 -0.44269023849E+03 -0.12136338081E+03 -0.18528540479E+03  0.49500949353E+03  0.00000000000E+00 0. -1.
<mgrwt>
<rscale>  0 0.79653349E+03</rscale>
<asrwt>0</asrwt>
<pdfrwt beam="1">  1        2 0.29507588E+00 0.79653349E+03</pdfrwt>
<pdfrwt beam="2">  1       -2 0.63803085E-01 0.79653349E+03</pdfrwt>
<totfact> 0.17301683E+01</totfact>
</mgrwt>
</event>
<event>
12    1  0.1432447E-007  0.7325844E+03  0.7818608E-02  0.9663076E-01
          2   -1    0    0  501    0  0.00000000000E+00  0.00000000000E+00  0.28203176803E+04  0.28203176803E+04  0.00000000000E+00 0. -1.
         -2   -1    0    0    0  501 -0.00000000000E+00 -0.00000000000E+00 -0.21683492967E+03  0.21683492967E+03  0.00000000000E+00 0.  1.
         23    2    1    2    0    0  0.58589608061E+03 -0.23894915957E+03  0.15012391338E+04  0.16316687813E+04  0.90846886318E+02 0.  0.
    5000000    2    1    2    0    0 -0.58589608061E+03  0.23894915957E+03  0.11022436169E+04  0.14054838288E+04  0.60006073343E+03 0.  0.
         23    2    4    4    0    0 -0.50977073877E+03 -0.49707045097E+02  0.88037453272E+03  0.10224688745E+04  0.89701086558E+02 0.  0.
         23    2    4    4    0    0 -0.76125341846E+02  0.28865620467E+03  0.22186908416E+03  0.38301495430E+03  0.91417134853E+02 0.  0.
          1    1    3    3  502    0  0.20839636394E+03 -0.13260233618E+03  0.58866421782E+03  0.63838701852E+03  0.00000000000E+00 0. -1.
         -1    1    3    3    0  502  0.37749971667E+03 -0.10634682339E+03  0.91257491598E+03  0.99328176274E+03  0.00000000000E+00 0.  1.
         13    1    5    5    0    0 -0.11583070134E+03 -0.48470922808E+02  0.19442252323E+03  0.23144394412E+03  0.00000000000E+00 0.  1.
        -13    1    5    5    0    0 -0.39394003743E+03 -0.12361222893E+01  0.68595200949E+03  0.79102493033E+03  0.00000000000E+00 0. -1.
          4    1    6    6  503    0  0.13139724318E+02  0.48686104782E+02  0.11700374915E+02  0.51767633973E+02  0.00000000000E+00 0.  1.
         -4    1    6    6    0  503 -0.89265066164E+02  0.23997009989E+03  0.21016870924E+03  0.33124732032E+03  0.00000000000E+00 0. -1.
<mgrwt>
<rscale>  0 0.73258440E+03</rscale>
<asrwt>0</asrwt>
<pdfrwt beam="1">  1        2 0.43389500E+00 0.73258440E+03</pdfrwt>
<pdfrwt beam="2">  1       -2 0.33359222E-01 0.73258440E+03</pdfrwt>
<totfact> 0.19946462E+01</totfact>
</mgrwt>
</event>
<event>
12    1  0.1432447E-007  0.1430435E+04  0.7818608E-02  0.8932078E-01
         -2   -1    0    0    0  501 -0.00000000000E+00  0.00000000000E+00  0.17396931018E+04  0.17396931018E+04  0.00000000000E+00 0.  1.
          2   -1    0    0  501    0  0.00000000000E+00 -0.00000000000E+00 -0.20051704912E+04  0.20051704912E+04  0.00000000000E+00 0. -1.
         23    2    1    2    0    0 -0.14155456478E+04  0.17131846897E+03 -0.12606683808E+04  0.19054301006E+04  0.90882359048E+02 0.  0.
    5000000    2    1    2    0    0  0.14155456478E+04 -0.17131846897E+03  0.99519099143E+03  0.18394334925E+04  0.59999247086E+03 0.  0.
         23    2    4    4    0    0  0.58406888136E+03  0.58540538237E+00  0.95542003046E+02  0.59891562249E+03  0.91841426647E+02 0.  0.
         23    2    4    4    0    0  0.83147676639E+03 -0.17190387436E+03  0.89964898839E+03  0.12405178700E+04  0.92799398382E+02 0.  0.
          3    1    3    3  502    0 -0.28999540004E+03  0.40084946383E+02 -0.21173910762E+03  0.36129985423E+03  0.00000000000E+00 0. -1.
         -3    1    3    3    0  502 -0.11255502477E+04  0.13123352259E+03 -0.10489292732E+04  0.15441302463E+04  0.00000000000E+00 0.  1.
         11    1    5    5    0    0  0.28219976790E+03  0.49733306364E+01  0.92449068810E+02  0.29699877667E+03  0.00000000000E+00 0. -1.
        -11    1    5    5    0    0  0.30186911346E+03 -0.43879252540E+01  0.30929342354E+01  0.30191684582E+03  0.00000000000E+00 0.  1.
          1    1    6    6  503    0  0.40964520344E+03 -0.56966702865E+02  0.38281548470E+03  0.56356196932E+03  0.00000000000E+00 0. -1.
         -1    1    6    6    0  503  0.42183156296E+03 -0.11493717149E+03  0.51683350368E+03  0.67695590065E+03  0.00000000000E+00 0.  1.
<mgrwt>
<rscale>  0 0.14304347E+04</rscale>
<asrwt>0</asrwt>
<pdfrwt beam="1">  1        2 0.30848777E+00 0.14304347E+04</pdfrwt>
<pdfrwt beam="2">  1       -2 0.26764509E+00 0.14304347E+04</pdfrwt>
<totfact> 0.31429638E-01</totfact>
</mgrwt>
</event>
<event>
12    1  0.1432447E-007  0.6636584E+03  0.7818608E-02  0.9781482E-01
         -2   -1    0    0    0  501 -0.00000000000E+00  0.00000000000E+00  0.13020138330E+03  0.13020138330E+03  0.00000000000E+00 0.  1.
          2   -1    0    0  501    0  0.00000000000E+00 -0.00000000000E+00 -0.43131386838E+04  0.43131386838E+04  0.00000000000E+00 0. -1.
         23    2    1    2    0    0  0.50868974018E+03  0.32945541369E+03 -0.13056335505E+04  0.14423167848E+04  0.91063813695E+02 0.  0.
    5000000    2    1    2    0    0 -0.50868974018E+03 -0.32945541369E+03 -0.28773037500E+04  0.30010232823E+04  0.59996479038E+03 0.  0.
         23    2    4    4    0    0 -0.13411368807E+03  0.75630786975E+02 -0.15542559602E+04  0.15646530174E+04  0.93386174476E+02 0.  0.
         23    2    4    4    0    0 -0.37457605210E+03 -0.40508620066E+03 -0.13230477898E+04  0.14363702649E+04  0.91115504462E+02 0.  0.
          2    1    3    3  502    0  0.41136088947E+03  0.24861630300E+03 -0.94655190769E+03  0.10615970806E+04  0.00000000000E+00 0. -1.
         -2    1    3    3    0  502  0.97328850705E+02  0.80839110682E+02 -0.35908164276E+03  0.38071970420E+03  0.00000000000E+00 0.  1.
         11    1    5    5    0    0 -0.32156941879E+02  0.44228873746E+02 -0.24359088846E+03  0.24965332589E+03  0.00000000000E+00 0. -1.
        -11    1    5    5    0    0 -0.10195674619E+03  0.31401913229E+02 -0.13106650718E+04  0.13149996915E+04  0.00000000000E+00 0.  1.
          1    1    6    6  503    0 -0.29927866108E+03 -0.26502919617E+03 -0.97136375783E+03  0.10504074171E+04  0.00000000000E+00 0. -1.
         -1    1    6    6    0  503 -0.75297391020E+02 -0.14005700449E+03 -0.35168403197E+03  0.38596284788E+03  0.00000000000E+00 0.  1.
<mgrwt>
<rscale>  0 0.66365843E+03</rscale>
<asrwt>0</asrwt>
<pdfrwt beam="1">  1        2 0.66355979E+00 0.66365843E+03</pdfrwt>
<pdfrwt beam="2">  1       -2 0.20030982E-01 0.66365843E+03</pdfrwt>
<totfact> 0.44953060E+00</totfact>
</mgrwt>
</event>
<event>
12    1  0.1432447E-007  0.5484560E+03  0.7818608E-02  0.1001852E+00
         -1   -1    0    0    0  501 -0.00000000000E+00  0.00000000000E+00  0.12756655981E+04  0.12756655981E+04  0.00000000000E+00 0.  1.
          1   -1    0    0  501    0  0.00000000000E+00 -0.00000000000E+00 -0.27100991586E+03  0.27100991586E+03  0.00000000000E+00 0. -1.
         23    2    1    2    0    0 -0.76662463189E+02 -0.41398574047E+03  0.27243536656E+03  0.51061563614E+03  0.96155979230E+02 0.  0.
    5000000    2    1    2    0    0  0.76662463189E+02  0.41398574047E+03  0.73222031562E+03  0.10360598778E+04  0.60001012754E+03 0.  0.
         23    2    4    4    0    0 -0.80829927997E+02 -0.88897609715E+02  0.34429399781E+03  0.37548537139E+03  0.89524549282E+02 0.  0.
         23    2    4    4    0    0  0.15749239119E+03  0.50288335018E+03  0.38792631781E+03  0.66057450639E+03  0.90423079275E+02 0.  0.
          2    1    3    3  502    0  0.83992654338E+01 -0.94919293484E+02  0.26568578731E+02  0.98924765914E+02  0.00000000000E+00 0. -1.
         -2    1    3    3    0  502 -0.85061728623E+02 -0.31906644699E+03  0.24586678783E+03  0.41169087023E+03  0.00000000000E+00 0.  1.
         11    1    5    5    0    0 -0.79653471258E+02 -0.35020286244E+02  0.27021094760E+03  0.28387506431E+03  0.00000000000E+00 0. -1.
        -11    1    5    5    0    0 -0.11764567393E+01 -0.53877323470E+02  0.74083050208E+02  0.91610307078E+02  0.00000000000E+00 0.  1.
          3    1    6    6  503    0  0.91624996197E+02  0.38211443727E+03  0.24975837839E+03  0.46560265320E+03  0.00000000000E+00 0. -1.
         -3    1    6    6    0  503  0.65867394990E+02  0.12076891292E+03  0.13816793942E+03  0.19497185318E+03  0.00000000000E+00 0.  1.
<mgrwt>
<rscale>  0 0.54845602E+03</rscale>
<asrwt>0</asrwt>
<pdfrwt beam="1">  1        1 0.41693834E-01 0.54845602E+03</pdfrwt>
<pdfrwt beam="2">  1       -1 0.19625624E+00 0.54845602E+03</pdfrwt>
<totfact> 0.16852367E+01</totfact>
</mgrwt>
</event>
<event>
12    1  0.1432447E-007  0.3229923E+03  0.7818608E-02  0.1074280E+00
         -2   -1    0    0    0  501 -0.00000000000E+00  0.00000000000E+00  0.14597721619E+03  0.14597721619E+03  0.00000000000E+00 0.  1.
          2   -1    0    0  501    0  0.00000000000E+00 -0.00000000000E+00 -0.12200863018E+04  0.12200863018E+04  0.00000000000E+00 0. -1.
         23    2    1    2    0    0  0.15621531493E+03 -0.77051489800E+02 -0.13279959256E+03  0.23613593012E+03  0.88228617869E+02 0.  0.
    5000000    2    1    2    0    0 -0.15621531493E+03  0.77051489800E+02 -0.94130949303E+03  0.11299275878E+04  0.60027713218E+03 0.  0.
         23    2    4    4    0    0 -0.18031311459E+03  0.22144330213E+03 -0.18123350245E+03  0.35046099468E+03  0.91800713674E+02 0.  0.
         23    2    4    4    0    0  0.24097799659E+02 -0.14439181233E+03 -0.76007599058E+03  0.77946659317E+03  0.91776680017E+02 0.  0.
          4    1    3    3  502    0  0.10887142341E+03 -0.94970750577E+02 -0.94094823038E+02  0.17241306802E+03  0.00000000000E+00 0. -1.
         -4    1    3    3    0  502  0.47343891520E+02  0.17919260777E+02 -0.38704769519E+02  0.63722862103E+02  0.00000000000E+00 0.  1.
         13    1    5    5    0    0 -0.58866051307E+02  0.32981296865E+02 -0.97095862211E+01  0.68170770892E+02  0.00000000000E+00 0. -1.
        -13    1    5    5    0    0 -0.12144706329E+03  0.18846200526E+03 -0.17152391623E+03  0.28229022379E+03  0.00000000000E+00 0.  1.
          2    1    6    6  503    0 -0.15916497925E+02 -0.91574530505E+02 -0.28454580790E+03  0.29934185530E+03  0.00000000000E+00 0. -1.
         -2    1    6    6    0  503  0.40014297584E+02 -0.52817281821E+02 -0.47553018268E+03  0.48012473786E+03  0.00000000000E+00 0.  1.
<mgrwt>
<rscale>  0 0.32299233E+03</rscale>
<asrwt>0</asrwt>
<pdfrwt beam="1">  1        2 0.18770558E+00 0.32299233E+03</pdfrwt>
<pdfrwt beam="2">  1       -2 0.22458033E-01 0.32299233E+03</pdfrwt>
<totfact> 0.33446015E+02</totfact>
</mgrwt>
</event>
<event>
12    1  0.1432447E-007  0.9066208E+03  0.7818608E-02  0.9417343E-01
          1   -1    0    0  501    0  0.00000000000E+00  0.00000000000E+00  0.10687433099E+04  0.10687433099E+04  0.00000000000E+00 0. -1.
         -1   -1    0    0    0  501 -0.00000000000E+00 -0.00000000000E+00 -0.94832875784E+03  0.94832875784E+03  0.00000000000E+00 0.  1.
         23    2    1    2    0    0 -0.12399410816E+03 -0.82362443995E+03 -0.32424444994E+03  0.89849173285E+03  0.91766953455E+02 0.  0.
    5000000    2    1    2    0    0  0.12399410816E+03  0.82362443995E+03  0.44465900204E+03  0.11185803349E+04  0.59980711956E+03 0.  0.
         23    2    4    4    0    0  0.32095789541E+03  0.47108848296E+03  0.39973339840E+03  0.70215724794E+03  0.91102588484E+02 0.  0.
         23    2    4    4    0    0 -0.19696378726E+03  0.35253595698E+03  0.44925603638E+02  0.41642308699E+03  0.91178632706E+02 0.  0.
          1    1    3    3  502    0 -0.52176626753E+02 -0.17274549825E+03 -0.41131931616E+02  0.18508172072E+03  0.00000000000E+00 0. -1.
         -1    1    3    3    0  502 -0.71817481404E+02 -0.65087894169E+03 -0.28311251832E+03  0.71341001213E+03  0.00000000000E+00 0.  1.
         11    1    5    5    0    0  0.31317750672E+03  0.47121527254E+03  0.38167944546E+03  0.68249775302E+03  0.00000000000E+00 0. -1.
        -11    1    5    5    0    0  0.77803886952E+01 -0.12678957379E+00  0.18053952940E+02  0.19659494923E+02  0.00000000000E+00 0.  1.
          4    1    6    6  503    0 -0.15073747758E+03  0.28710062287E+03  0.71422242075E+02  0.33203868970E+03  0.00000000000E+00 0. -1.
         -4    1    6    6    0  503 -0.46226309677E+02  0.65435334116E+02 -0.26496638438E+02  0.84384397288E+02  0.00000000000E+00 0.  1.
<mgrwt>
<rscale>  0 0.90662077E+03</rscale>
<asrwt>0</asrwt>
<pdfrwt beam="1">  1        1 0.16442205E+00 0.90662077E+03</pdfrwt>
<pdfrwt beam="2">  1       -1 0.14589673E+00 0.90662077E+03</pdfrwt>
<totfact> 0.51040864E+00</totfact>
</mgrwt>
</event>
<event>
12    1  0.1432447E-007  0.1015900E+04  0.7818608E-02  0.9291276E-01
          4   -1    0    0  501    0  0.00000000000E+00  0.00000000000E+00  0.74708663794E+03  0.74708663794E+03  0.00000000000E+00 0.  1.
         -4   -1    0    0    0  501 -0.00000000000E+00 -0.00000000000E+00 -0.14867703297E+04  0.14867703297E+04  0.00000000000E+00 0. -1.
         23    2    1    2    0    0  0.71544135014E+03  0.62720808220E+03 -0.51470936479E+03  0.10867120951E+04  0.10378412038E+03 0.  0.
    5000000    2    1    2    0    0 -0.71544135014E+03 -0.62720808220E+03 -0.22497432695E+03  0.11471448725E+04  0.60006800183E+03 0.  0.
         23    2    4    4    0    0 -0.56223155600E+03 -0.69220145013E+03 -0.64578842593E+02  0.89869870409E+03  0.90784159881E+02 0.  0.
         23    2    4    4    0    0 -0.15320979414E+03  0.64993367935E+02 -0.16039548436E+03  0.24844616840E+03  0.91112064492E+02 0.  0.
          4    1    3    3  502    0  0.13767019752E+03  0.13178167533E+03 -0.58469893745E+02  0.19934448002E+03  0.00000000000E+00 0. -1.
         -4    1    3    3    0  502  0.57777115262E+03  0.49542640687E+03 -0.45623947104E+03  0.88736761512E+03  0.00000000000E+00 0.  1.
         13    1    5    5    0    0 -0.35048156685E+03 -0.44369889407E+03 -0.84033345140E+02  0.57163593344E+03  0.00000000000E+00 0.  1.
        -13    1    5    5    0    0 -0.21174998915E+03 -0.24850255606E+03  0.19454502547E+02  0.32706277065E+03  0.00000000000E+00 0. -1.
          2    1    6    6  503    0 -0.21647104809E+02  0.51622238295E+02 -0.33870548488E+02  0.65426804049E+02  0.00000000000E+00 0. -1.
         -2    1    6    6    0  503 -0.13156268933E+03  0.13371129640E+02 -0.12652493587E+03  0.18301936435E+03  0.00000000000E+00 0.  1.
<mgrwt>
<rscale>  0 0.10158997E+04</rscale>
<asrwt>0</asrwt>
<pdfrwt beam="1">  1        4 0.11493641E+00 0.10158997E+04</pdfrwt>
<pdfrwt beam="2">  1       -4 0.22873390E+00 0.10158997E+04</pdfrwt>
<totfact> 0.97584527E-02</totfact>
</mgrwt>
</event>
<event>
12    1  0.1432447E-007  0.7300567E+03  0.7818608E-02  0.9667168E-01
         -1   -1    0    0    0  501 -0.00000000000E+00  0.00000000000E+00  0.15384041004E+04  0.15384041004E+04  0.00000000000E+00 0.  1.
          1   -1    0    0  501    0  0.00000000000E+00 -0.00000000000E+00 -0.45249990653E+03  0.45249990653E+03  0.00000000000E+00 0. -1.
         23    2    1    2    0    0  0.58774218056E+03  0.15826412462E+03  0.75834589312E+01  0.61545068998E+03  0.90739401564E+02 0.  0.
    5000000    2    1    2    0    0 -0.58774218056E+03 -0.15826412462E+03  0.10783207349E+04  0.13754533169E+04  0.59883872266E+03 0.  0.
         23    2    4    4    0    0 -0.61452318810E+03  0.52347716663E+02  0.81241505314E+03  0.10241596127E+04  0.92226143411E+02 0.  0.
         23    2    4    4    0    0  0.26781007540E+02 -0.21061184128E+03  0.26590568177E+03  0.35129370425E+03  0.87331924252E+02 0.  0.
          4    1    3    3  502    0  0.44431565633E+03  0.15439636909E+03  0.24282711814E+02  0.47100349398E+03  0.00000000000E+00 0.  1.
         -4    1    3    3    0  502  0.14342652423E+03  0.38677555304E+01 -0.16699252882E+02  0.14444719600E+03  0.00000000000E+00 0. -1.
         13    1    5    5    0    0 -0.41048674367E+03  0.37855811801E+02  0.61125711462E+03  0.73727043166E+03  0.00000000000E+00 0. -1.
        -13    1    5    5    0    0 -0.20403644443E+03  0.14491904862E+02  0.20115793852E+03  0.28688918102E+03  0.00000000000E+00 0.  1.
          4    1    6    6  503    0 -0.32126284394E+02 -0.79186856267E+02  0.94306556349E+02  0.12726501061E+03  0.00000000000E+00 0. -1.
         -4    1    6    6    0  503  0.58907291933E+02 -0.13142498501E+03  0.17159912542E+03  0.22402869364E+03  0.00000000000E+00 0.  1.
<mgrwt>
<rscale>  0 0.73005667E+03</rscale>
<asrwt>0</asrwt>
<pdfrwt beam="1">  1        1 0.69615371E-01 0.73005667E+03</pdfrwt>
<pdfrwt beam="2">  1       -1 0.23667755E+00 0.73005667E+03</pdfrwt>
<totfact> 0.45160761E+00</totfact>
</mgrwt>
</event>
<event>
12    1  0.1432447E-007  0.9667832E+03  0.7818608E-02  0.9345746E-01
         -1   -1    0    0    0  501 -0.00000000000E+00  0.00000000000E+00  0.31999248537E+03  0.31999248537E+03  0.00000000000E+00 0.  1.
          1   -1    0    0  501    0  0.00000000000E+00 -0.00000000000E+00 -0.32247486320E+04  0.32247486320E+04  0.00000000000E+00 0. -1.
         23    2    1    2    0    0 -0.86718115637E+03 -0.15138042967E+03 -0.83380440181E+03  0.12158430542E+04  0.90140776418E+02 0.  0.
    5000000    2    1    2    0    0  0.86718115637E+03  0.15138042967E+03 -0.20709517448E+04  0.23288980631E+04  0.60000488884E+03 0.  0.
         23    2    4    4    0    0  0.39937982674E+03 -0.20505279392E+03 -0.10782679423E+04  0.11714235737E+04  0.89557464349E+02 0.  0.
         23    2    4    4    0    0  0.46780132963E+03  0.35643322359E+03 -0.99268380248E+03  0.11574744894E+04  0.91887621174E+02 0.  0.
          4    1    3    3  502    0 -0.38554596580E+03 -0.98159095699E+02 -0.42147681303E+03  0.57958916806E+03  0.00000000000E+00 0. -1.
         -4    1    3    3    0  502 -0.48163519057E+03 -0.53221333973E+02 -0.41232758879E+03  0.63625388617E+03  0.00000000000E+00 0.  1.
         13    1    5    5    0    0  0.24405922638E+03 -0.75559374474E+02 -0.59088245751E+03  0.64375166302E+03  0.00000000000E+00 0.  1.
        -13    1    5    5    0    0  0.15532060036E+03 -0.12949341944E+03 -0.48738548478E+03  0.52767191071E+03  0.00000000000E+00 0. -1.
          1    1    6    6  503    0  0.35955838721E+03  0.31336875316E+03 -0.76013047038E+03  0.89737424817E+03  0.00000000000E+00 0. -1.
         -1    1    6    6    0  503  0.10824294242E+03  0.43064470426E+02 -0.23255333210E+03  0.26010024119E+03  0.00000000000E+00 0.  1.
<mgrwt>
<rscale>  0 0.96678316E+03</rscale>
<asrwt>0</asrwt>
<pdfrwt beam="1">  1        1 0.49611518E+00 0.96678316E+03</pdfrwt>
<pdfrwt beam="2">  1       -1 0.49229613E-01 0.96678316E+03</pdfrwt>
<totfact> 0.17479262E+00</totfact>
</mgrwt>
</event>
<event>
12    1  0.1432447E-007  0.7127654E+03  0.7818608E-02  0.9695647E-01
         -1   -1    0    0    0  501 -0.00000000000E+00  0.00000000000E+00  0.88420750365E+03  0.88420750365E+03  0.00000000000E+00 0.  1.
          1   -1    0    0  501    0  0.00000000000E+00 -0.00000000000E+00 -0.79346998503E+03  0.79346998503E+03  0.00000000000E+00 0. -1.
         23    2    1    2    0    0 -0.60525213208E+03 -0.61211953445E+02  0.43797352641E+03  0.75535373771E+03  0.93066710494E+02 0.  0.
    5000000    2    1    2    0    0  0.60525213208E+03  0.61211953445E+02 -0.34723600779E+03  0.92232375097E+03  0.60002600766E+03 0.  0.
         23    2    4    4    0    0 -0.97397543451E+02  0.70498569157E+01 -0.10814228578E+03  0.17276398199E+03  0.92825952980E+02 0.  0.
         23    2    4    4    0    0  0.70264967553E+03  0.54162096530E+02 -0.23909372201E+03  0.74955976898E+03  0.89576448625E+02 0.  0.
          1    1    3    3  502    0 -0.24102068678E+03  0.20768549330E+02  0.16381891496E+03  0.29216252497E+03  0.00000000000E+00 0. -1.
         -1    1    3    3    0  502 -0.36423144530E+03 -0.81980502775E+02  0.27415461144E+03  0.46319121274E+03  0.00000000000E+00 0.  1.
         11    1    5    5    0    0 -0.81621700704E+01  0.68573261646E+01 -0.77775980411E+02  0.78503165996E+02  0.00000000000E+00 0. -1.
        -11    1    5    5    0    0 -0.89235373380E+02  0.19253075116E+00 -0.30366305372E+02  0.94260815997E+02  0.00000000000E+00 0.  1.
          2    1    6    6  503    0  0.36084720451E+03 -0.16993401238E+02 -0.11834167377E+03  0.38013712321E+03  0.00000000000E+00 0. -1.
         -2    1    6    6    0  503  0.34180247102E+03  0.71155497768E+02 -0.12075204824E+03  0.36942264577E+03  0.00000000000E+00 0.  1.
<mgrwt>
<rscale>  0 0.71276540E+03</rscale>
<asrwt>0</asrwt>
<pdfrwt beam="1">  1        1 0.12207231E+00 0.71276540E+03</pdfrwt>
<pdfrwt beam="2">  1       -1 0.13603192E+00 0.71276540E+03</pdfrwt>
<totfact> 0.10484170E+01</totfact>
</mgrwt>
</event>
<event>
12    1  0.1432447E-007  0.1070154E+04  0.7818608E-02  0.9234780E-01
          2   -1    0    0  501    0  0.00000000000E+00  0.00000000000E+00  0.88739663810E+03  0.88739663810E+03  0.00000000000E+00 0. -1.
         -2   -1    0    0    0  501 -0.00000000000E+00 -0.00000000000E+00 -0.14700861688E+04  0.14700861688E+04  0.00000000000E+00 0.  1.
         23    2    1    2    0    0 -0.97064834251E+03 -0.41734097144E+03 -0.16884955815E+03  0.10739022623E+04  0.91783464548E+02 0.  0.
    5000000    2    1    2    0    0  0.97064834251E+03  0.41734097144E+03 -0.41383997253E+03  0.12835805446E+04  0.59998650015E+03 0.  0.
         23    2    4    4    0    0  0.23031530539E+03  0.13397122945E+03 -0.39429318596E+03  0.48478936152E+03  0.92521231776E+02 0.  0.
         23    2    4    4    0    0  0.74033303712E+03  0.28336974200E+03 -0.19546786566E+02  0.79879118309E+03  0.96404672002E+02 0.  0.
          4    1    3    3  502    0 -0.37189455836E+03 -0.20594339410E+03 -0.83209229194E+02  0.43317666134E+03  0.00000000000E+00 0. -1.
         -4    1    3    3    0  502 -0.59875378415E+03 -0.21139757735E+03 -0.85640328952E+02  0.64072560092E+03  0.00000000000E+00 0.  1.
         11    1    5    5    0    0  0.18790219481E+02  0.51260132916E+02 -0.86055114547E+02  0.10191249342E+03  0.00000000000E+00 0. -1.
        -11    1    5    5    0    0  0.21152508591E+03  0.82711096530E+02 -0.30823807141E+03  0.38287686810E+03  0.00000000000E+00 0.  1.
          3    1    6    6  503    0  0.35889994570E+03  0.86117449178E+02 -0.47175913535E+01  0.36911738207E+03  0.00000000000E+00 0. -1.
         -3    1    6    6    0  503  0.38143309142E+03  0.19725229282E+03 -0.14829195213E+02  0.42967380102E+03  0.00000000000E+00 0.  1.
<mgrwt>
<rscale>  0 0.10701539E+04</rscale>
<asrwt>0</asrwt>
<pdfrwt beam="1">  1        2 0.13652256E+00 0.10701539E+04</pdfrwt>
<pdfrwt beam="2">  1       -2 0.22616710E+00 0.10701539E+04</pdfrwt>
<totfact> 0.26670570E+00</totfact>
</mgrwt>
</event>
<event>
12    1  0.1432447E-007  0.1178822E+04  0.7818608E-02  0.9131598E-01
          1   -1    0    0  501    0  0.00000000000E+00  0.00000000000E+00  0.11369568678E+04  0.11369568678E+04  0.00000000000E+00 0. -1.
         -1   -1    0    0    0  501 -0.00000000000E+00 -0.00000000000E+00 -0.13110672301E+04  0.13110672301E+04  0.00000000000E+00 0.  1.
         23    2    1    2    0    0  0.81652035480E+03  0.79763363977E+03  0.63704960172E+01  0.11459422877E+04  0.10108526279E+03 0.  0.
    5000000    2    1    2    0    0 -0.81652035480E+03 -0.79763363977E+03 -0.18048085824E+03  0.13020818103E+04  0.59993231894E+03 0.  0.
         23    2    4    4    0    0 -0.81565226765E+03 -0.66338630498E+03  0.50656787647E+01  0.10553577047E+04  0.91565344633E+02 0.  0.
         23    2    4    4    0    0 -0.86808714560E+00 -0.13424733479E+03 -0.18554653701E+03  0.24672410559E+03  0.91772361897E+02 0.  0.
          4    1    3    3  502    0  0.45827662235E+03  0.51615603725E+03 -0.30203356982E+01  0.69024896944E+03  0.00000000000E+00 0. -1.
         -4    1    3    3    0  502  0.35824373245E+03  0.28147760252E+03  0.93908317153E+01  0.45569331823E+03  0.00000000000E+00 0.  1.
         13    1    5    5    0    0 -0.57135128474E+03 -0.41966772294E+03  0.28417333371E+02  0.70948631635E+03  0.00000000000E+00 0.  1.
        -13    1    5    5    0    0 -0.24430098291E+03 -0.24371858204E+03 -0.23351654606E+02  0.34587138832E+03  0.00000000000E+00 0. -1.
          2    1    6    6  503    0  0.36754848635E+02 -0.10142297346E+03 -0.97017507784E+02  0.14508595818E+03  0.00000000000E+00 0. -1.
         -2    1    6    6    0  503 -0.37622935780E+02 -0.32824361333E+02 -0.88529029225E+02  0.10163814741E+03  0.00000000000E+00 0.  1.
<mgrwt>
<rscale>  0 0.11788223E+04</rscale>
<asrwt>0</asrwt>
<pdfrwt beam="1">  1        1 0.17491644E+00 0.11788223E+04</pdfrwt>
<pdfrwt beam="2">  1       -1 0.20170265E+00 0.11788223E+04</pdfrwt>
<totfact> 0.17124703E+00</totfact>
</mgrwt>
</event>
<event>
12    1  0.1432447E-007  0.6004805E+03  0.7818608E-02  0.9904410E-01
         -1   -1    0    0    0  501 -0.00000000000E+00  0.00000000000E+00  0.49502330162E+03  0.49502330162E+03  0.00000000000E+00 0.  1.
          1   -1    0    0  501    0  0.00000000000E+00 -0.00000000000E+00 -0.74197962311E+03  0.74197962311E+03  0.00000000000E+00 0. -1.
         23    2    1    2    0    0  0.23407596870E+03  0.38606554607E+03 -0.80100699304E+02  0.46780451816E+03  0.92664881131E+02 0.  0.
    5000000    2    1    2    0    0 -0.23407596870E+03 -0.38606554607E+03 -0.16685562218E+03  0.76919840657E+03  0.59998935410E+03 0.  0.
         23    2    4    4    0    0  0.13454497250E+03 -0.32821711083E+03 -0.67128560037E+02  0.37239800510E+03  0.91352116382E+02 0.  0.
         23    2    4    4    0    0 -0.36862094120E+03 -0.57848435242E+02 -0.99727062141E+02  0.39680040147E+03  0.90979293977E+02 0.  0.
          2    1    3    3  502    0  0.91160705252E+02  0.15984868376E+03 -0.78911882545E+02  0.20022227920E+03  0.00000000000E+00 0. -1.
         -2    1    3    3    0  502  0.14291526345E+03  0.22621686231E+03 -0.11888167589E+01  0.26758223895E+03  0.00000000000E+00 0.  1.
         13    1    5    5    0    0  0.59142148188E+02 -0.25249658806E+03 -0.51616003561E+02  0.26441734531E+03  0.00000000000E+00 0. -1.
        -13    1    5    5    0    0  0.75402824308E+02 -0.75720522766E+02 -0.15512556477E+02  0.10798065980E+03  0.00000000000E+00 0.  1.
          3    1    6    6  503    0 -0.33520852686E+03 -0.77988655657E+02 -0.97584525484E+02  0.35772856540E+03  0.00000000000E+00 0. -1.
         -3    1    6    6    0  503 -0.33412414340E+02  0.20140220415E+02 -0.21425366568E+01  0.39071836068E+02  0.00000000000E+00 0.  1.
<mgrwt>
<rscale>  0 0.60048050E+03</rscale>
<asrwt>0</asrwt>
<pdfrwt beam="1">  1        1 0.11415071E+00 0.60048050E+03</pdfrwt>
<pdfrwt beam="2">  1       -1 0.76157431E-01 0.60048050E+03</pdfrwt>
<totfact> 0.44822140E+01</totfact>
</mgrwt>
</event>
<event>
12    1  0.1432447E-007  0.7971063E+03  0.7818608E-02  0.9564215E-01
         -2   -1    0    0    0  501 -0.00000000000E+00  0.00000000000E+00  0.43732412326E+03  0.43732412326E+03  0.00000000000E+00 0.  1.
          2   -1    0    0  501    0  0.00000000000E+00 -0.00000000000E+00 -0.19607588726E+04  0.19607588726E+04  0.00000000000E+00 0. -1.
         23    2    1    2    0    0  0.68841212274E+03  0.31299450323E+03 -0.25359941132E+03  0.80297768638E+03  0.92648225068E+02 0.  0.
    5000000    2    1    2    0    0 -0.68841212274E+03 -0.31299450323E+03 -0.12698353381E+04  0.15951053095E+04  0.60000196071E+03 0.  0.
         23    2    4    4    0    0 -0.64946931205E+03 -0.15285127953E+03 -0.60665684763E+03  0.90578593767E+03  0.85098373396E+02 0.  0.
         23    2    4    4    0    0 -0.38942810695E+02 -0.16014322370E+03 -0.66317849044E+03  0.68931937185E+03  0.90515698244E+02 0.  0.
          1    1    3    3  502    0  0.27496843344E+03  0.14344952168E+03 -0.59536769113E+02  0.31580061991E+03  0.00000000000E+00 0. -1.
         -1    1    3    3    0  502  0.41344368931E+03  0.16954498155E+03 -0.19406264221E+03  0.48717706647E+03  0.00000000000E+00 0.  1.
         11    1    5    5    0    0 -0.56963188006E+03 -0.10501232993E+03 -0.51289018699E+03  0.77366944630E+03  0.00000000000E+00 0.  1.
        -11    1    5    5    0    0 -0.79837431985E+02 -0.47838949600E+02 -0.93766660643E+02  0.13211649137E+03  0.00000000000E+00 0. -1.
          2    1    6    6  503    0 -0.18800934235E+02 -0.65114072280E+02 -0.12263342962E+03  0.14011522257E+03  0.00000000000E+00 0. -1.
         -2    1    6    6    0  503 -0.20141876461E+02 -0.95029151420E+02 -0.54054506082E+03  0.54920414928E+03  0.00000000000E+00 0.  1.
<mgrwt>
<rscale>  0 0.79710630E+03</rscale>
<asrwt>0</asrwt>
<pdfrwt beam="1">  1        2 0.30165520E+00 0.79710630E+03</pdfrwt>
<pdfrwt beam="2">  1       -2 0.67280636E-01 0.79710630E+03</pdfrwt>
<totfact> 0.14623652E+01</totfact>
</mgrwt>
</event>
<event>
12    1  0.1432447E-007  0.6377473E+03  0.7818608E-02  0.9830046E-01
          2   -1    0    0  501    0  0.00000000000E+00  0.00000000000E+00  0.24770358619E+04  0.24770358619E+04  0.00000000000E+00 0. -1.
         -2   -1    0    0    0  501 -0.00000000000E+00 -0.00000000000E+00 -0.56603298213E+03  0.56603298213E+03  0.00000000000E+00 0.  1.
         23    2    1    2    0    0 -0.49223328956E+03  0.27107772769E+03  0.21199582548E+04  0.21948946361E+04  0.86963877076E+02 0.  0.
    5000000    2    1    2    0    0  0.49223328956E+03 -0.27107772769E+03 -0.20895537502E+03  0.84817420789E+03  0.59996699274E+03 0.  0.
         23    2    4    4    0    0  0.51250388582E+03 -0.32681086427E+03 -0.14046023009E+01  0.61478241320E+03  0.92140483454E+02 0.  0.
         23    2    4    4    0    0 -0.20270596260E+02  0.55733136580E+02 -0.20755077272E+03  0.23339179469E+03  0.88754306862E+02 0.  0.
          1    1    3    3  502    0 -0.34040219429E+03  0.21362236094E+03  0.13793241696E+04  0.14366778804E+04  0.00000000000E+00 0. -1.
         -1    1    3    3    0  502 -0.15183109527E+03  0.57455366749E+02  0.74063408517E+03  0.75821675580E+03  0.00000000000E+00 0.  1.
         11    1    5    5    0    0  0.37142217027E+03 -0.23236209326E+03  0.40270997654E+02  0.43996400330E+03  0.00000000000E+00 0.  1.
        -11    1    5    5    0    0  0.14108171555E+03 -0.94448771010E+02 -0.41675599955E+02  0.17481840990E+03  0.00000000000E+00 0. -1.
          2    1    6    6  503    0  0.32104210861E+02  0.93989872089E+01 -0.42113553583E+02  0.53782643213E+02  0.00000000000E+00 0. -1.
         -2    1    6    6    0  503 -0.52374807121E+02  0.46334149371E+02 -0.16543721914E+03  0.17960915148E+03  0.00000000000E+00 0.  1.
<mgrwt>
<rscale>  0 0.63774734E+03</rscale>
<asrwt>0</asrwt>
<pdfrwt beam="1">  1        2 0.38108243E+00 0.63774734E+03</pdfrwt>
<pdfrwt beam="2">  1       -2 0.87081999E-01 0.63774734E+03</pdfrwt>
<totfact> 0.43906163E+00</totfact>
</mgrwt>
</event>
<event>
12    1  0.1432447E-007  0.1109105E+04  0.7818608E-02  0.9196362E-01
         -2   -1    0    0    0  501 -0.00000000000E+00  0.00000000000E+00  0.14347470385E+04  0.14347470385E+04  0.00000000000E+00 0.  1.
          2   -1    0    0  501    0  0.00000000000E+00 -0.00000000000E+00 -0.93513071732E+03  0.93513071732E+03  0.00000000000E+00 0. -1.
         23    2    1    2    0    0 -0.10661877688E+04  0.15897370506E+03  0.20128856041E+03  0.11006217123E+04  0.93925884596E+02 0.  0.
    5000000    2    1    2    0    0  0.10661877688E+04 -0.15897370506E+03  0.29832776072E+03  0.12692560435E+04  0.59998537797E+03 0.  0.
         23    2    4    4    0    0  0.83915715859E+03  0.18310043366E+02 -0.43098613700E+00  0.84442637184E+03  0.92388945246E+02 0.  0.
         23    2    4    4    0    0  0.22703061022E+03 -0.17728374842E+03  0.29875874686E+03  0.42482967162E+03  0.90835211427E+02 0.  0.
          4    1    3    3  502    0 -0.10116746588E+04  0.14224250960E+03  0.17029917177E+03  0.10357221416E+04  0.00000000000E+00 0.  1.
         -4    1    3    3    0  502 -0.54513110053E+02  0.16731195453E+02  0.30989388646E+02  0.64899570705E+02  0.00000000000E+00 0. -1.
         13    1    5    5    0    0  0.33448722865E+03 -0.36739592688E+02  0.10163883358E+02  0.33665235529E+03  0.00000000000E+00 0. -1.
        -13    1    5    5    0    0  0.50466992995E+03  0.55049636054E+02 -0.10594869495E+02  0.50777401655E+03  0.00000000000E+00 0.  1.
          1    1    6    6  503    0  0.43071281133E+02 -0.70721897918E+02  0.12657162326E+03  0.15125176996E+03  0.00000000000E+00 0. -1.
         -1    1    6    6    0  503  0.18395932909E+03 -0.10656185051E+03  0.17218712360E+03  0.27357790166E+03  0.00000000000E+00 0.  1.
<mgrwt>
<rscale>  0 0.11091053E+04</rscale>
<asrwt>0</asrwt>
<pdfrwt beam="1">  1        2 0.14386627E+00 0.11091053E+04</pdfrwt>
<pdfrwt beam="2">  1       -2 0.22073031E+00 0.11091053E+04</pdfrwt>
<totfact> 0.26676501E+00</totfact>
</mgrwt>
</event>
<event>
12    1  0.1432447E-007  0.6315153E+03  0.7818608E-02  0.9842096E-01
          2   -1    0    0  501    0  0.00000000000E+00  0.00000000000E+00  0.87740997558E+03  0.87740997558E+03  0.00000000000E+00 0. -1.
         -2   -1    0    0    0  501 -0.00000000000E+00 -0.00000000000E+00 -0.94314094926E+03  0.94314094926E+03  0.00000000000E+00 0.  1.
         23    2    1    2    0    0 -0.36425598235E+03 -0.39592314888E+03  0.57372098125E+03  0.79176557596E+03  0.91101056238E+02 0.  0.
    5000000    2    1    2    0    0  0.36425598235E+03  0.39592314888E+03 -0.63945195493E+03  0.10287853489E+04  0.60005244015E+03 0.  0.
         23    2    4    4    0    0  0.45523566440E+03  0.22184821069E+03 -0.62791940870E+03  0.81170864800E+03  0.90177639661E+02 0.  0.
         23    2    4    4    0    0 -0.90979682053E+02  0.17407493820E+03 -0.11532546226E+02  0.21707670089E+03  0.91705549394E+02 0.  0.
          4    1    3    3  502    0 -0.19024664941E+03 -0.27011410490E+03  0.36481722297E+03  0.49218596430E+03  0.00000000000E+00 0.  1.
         -4    1    3    3    0  502 -0.17400933294E+03 -0.12580904398E+03  0.20890375828E+03  0.29957961166E+03  0.00000000000E+00 0. -1.
         11    1    5    5    0    0  0.19356022920E+03  0.45569982386E+02 -0.23956257681E+03  0.31133970809E+03  0.00000000000E+00 0. -1.
        -11    1    5    5    0    0  0.26167543520E+03  0.17627822830E+03 -0.38835683189E+03  0.50036893992E+03  0.00000000000E+00 0.  1.
          2    1    6    6  503    0 -0.63675020670E+02  0.64528972864E+02  0.31911868540E+02  0.96108604974E+02  0.00000000000E+00 0. -1.
         -2    1    6    6    0  503 -0.27304661384E+02  0.10954596533E+03 -0.43444414766E+02  0.12096809591E+03  0.00000000000E+00 0.  1.
<mgrwt>
<rscale>  0 0.63151529E+03</rscale>
<asrwt>0</asrwt>
<pdfrwt beam="1">  1        2 0.13498615E+00 0.63151529E+03</pdfrwt>
<pdfrwt beam="2">  1       -2 0.14509861E+00 0.63151529E+03</pdfrwt>
<totfact> 0.10254631E+01</totfact>
</mgrwt>
</event>
<event>
12    1  0.1432447E-007  0.6052705E+03  0.7818608E-02  0.9894531E-01
         -2   -1    0    0    0  501 -0.00000000000E+00  0.00000000000E+00  0.15800165912E+04  0.15800165912E+04  0.00000000000E+00 0.  1.
          2   -1    0    0  501    0  0.00000000000E+00 -0.00000000000E+00 -0.19261307354E+04  0.19261307354E+04  0.00000000000E+00 0. -1.
         23    2    1    2    0    0  0.23807238840E+03  0.51831504948E+03  0.14324421852E+04  0.15444521726E+04  0.90071898364E+02 0.  0.
    5000000    2    1    2    0    0 -0.23807238840E+03 -0.51831504948E+03 -0.17785563294E+04  0.19616951540E+04  0.59971352145E+03 0.  0.
         23    2    4    4    0    0  0.20391437900E+02 -0.29100024608E+03 -0.25674061735E+03  0.39939438553E+03  0.92212670725E+02 0.  0.
         23    2    4    4    0    0 -0.25846382630E+03 -0.22731480340E+03 -0.15218157121E+04  0.15623007685E+04  0.79906572877E+02 0.  0.
          1    1    3    3  502    0  0.63885491460E+01  0.45622334747E+02  0.18159155375E+03  0.18734381063E+03  0.00000000000E+00 0. -1.
         -1    1    3    3    0  502  0.23168383925E+03  0.47269271473E+03  0.12508506315E+04  0.13571083620E+04  0.00000000000E+00 0.  1.
         13    1    5    5    0    0  0.22363316372E+02 -0.17779250953E+03 -0.21216080700E+03  0.27770938478E+03  0.00000000000E+00 0.  1.
        -13    1    5    5    0    0 -0.19718784711E+01 -0.11320773655E+03 -0.44579810343E+02  0.12168500076E+03  0.00000000000E+00 0. -1.
          4    1    6    6  503    0 -0.17890682085E+03 -0.13740861011E+03 -0.82822554705E+03  0.85839753813E+03  0.00000000000E+00 0. -1.
         -4    1    6    6    0  503 -0.79557005447E+02 -0.89906193285E+02 -0.69359016502E+03  0.70390323037E+03  0.00000000000E+00 0.  1.
<mgrwt>
<rscale>  0 0.60527048E+03</rscale>
<asrwt>0</asrwt>
<pdfrwt beam="1">  1        2 0.29632780E+00 0.60527048E+03</pdfrwt>
<pdfrwt beam="2">  1       -2 0.24307948E+00 0.60527048E+03</pdfrwt>
<totfact> 0.56695069E-01</totfact>
</mgrwt>
</event>
<event>
12    1  0.1432447E-007  0.6159594E+03  0.7818608E-02  0.9872838E-01
          1   -1    0    0  501    0  0.00000000000E+00  0.00000000000E+00  0.10203319016E+04  0.10203319016E+04  0.00000000000E+00 0. -1.
         -1   -1    0    0    0  501 -0.00000000000E+00 -0.00000000000E+00 -0.53403998288E+03  0.53403998288E+03  0.00000000000E+00 0.  1.
         23    2    1    2    0    0  0.29409765408E+02 -0.59305595940E+03  0.36116457060E+03  0.70101016059E+03  0.91624739612E+02 0.  0.
    5000000    2    1    2    0    0 -0.29409765408E+02  0.59305595940E+03  0.12512734814E+03  0.85336172392E+03  0.59999089436E+03 0.  0.
         23    2    4    4    0    0  0.23847601610E+02  0.13040987465E+03  0.30602056576E+03  0.34542190302E+03  0.89956994770E+02 0.  0.
         23    2    4    4    0    0 -0.53257367018E+02  0.46264608475E+03 -0.18089321762E+03  0.50793982090E+03  0.91666562049E+02 0.  0.
          4    1    3    3  502    0  0.44685123782E+02 -0.22274376589E+03  0.17167404740E+03  0.28475168846E+03  0.00000000000E+00 0. -1.
         -4    1    3    3    0  502 -0.15275358374E+02 -0.37031219351E+03  0.18949052321E+03  0.41625847213E+03  0.00000000000E+00 0.  1.
         11    1    5    5    0    0  0.42203448771E+02  0.13486671178E+03  0.27092923581E+03  0.30556965139E+03  0.00000000000E+00 0.  1.
        -11    1    5    5    0    0 -0.18355847162E+02 -0.44568371273E+01  0.35091329951E+02  0.39852251629E+02  0.00000000000E+00 0. -1.
          4    1    6    6  503    0 -0.74085839176E+02  0.26489696630E+03 -0.11886704447E+03  0.29964727361E+03  0.00000000000E+00 0. -1.
         -4    1    6    6    0  503  0.20828472158E+02  0.19774911845E+03 -0.62026173152E+02  0.20829254729E+03  0.00000000000E+00 0.  1.
<mgrwt>
<rscale>  0 0.61595943E+03</rscale>
<asrwt>0</asrwt>
<pdfrwt beam="1">  1        1 0.15697414E+00 0.61595943E+03</pdfrwt>
<pdfrwt beam="2">  1       -1 0.82159998E-01 0.61595943E+03</pdfrwt>
<totfact> 0.22507121E+01</totfact>
</mgrwt>
</event>
<event>
12    1  0.1432447E-007  0.1178101E+04  0.7818608E-02  0.9132243E-01
         -2   -1    0    0    0  501 -0.00000000000E+00  0.00000000000E+00  0.95946631910E+03  0.95946631910E+03  0.00000000000E+00 0.  1.
          2   -1    0    0  501    0  0.00000000000E+00 -0.00000000000E+00 -0.16894323009E+04  0.16894323009E+04  0.00000000000E+00 0. -1.
         23    2    1    2    0    0 -0.52202155027E+03  0.10447803864E+04 -0.56013880971E+02  0.11729718653E+04  0.93020896934E+02 0.  0.
    5000000    2    1    2    0    0  0.52202155027E+03 -0.10447803864E+04 -0.67395210086E+03  0.14759267547E+04  0.60006316036E+03 0.  0.
         23    2    4    4    0    0  0.28647859664E+03 -0.76052097303E+03 -0.15423083362E+03  0.83217761689E+03  0.90941185662E+02 0.  0.
         23    2    4    4    0    0  0.23554295363E+03 -0.28425941332E+03 -0.51972126724E+03  0.64374913784E+03  0.89548086458E+02 0.  0.
          3    1    3    3  502    0 -0.24621396529E+03  0.58305839869E+03 -0.74365048067E+01  0.63295632913E+03  0.00000000000E+00 0. -1.
         -3    1    3    3    0  502 -0.27580758498E+03  0.46172198766E+03 -0.48577376164E+02  0.54001553617E+03  0.00000000000E+00 0.  1.
         11    1    5    5    0    0  0.73155763637E+02 -0.26633004319E+03 -0.87869731768E+02  0.28983537986E+03  0.00000000000E+00 0.  1.
        -11    1    5    5    0    0  0.21332283301E+03 -0.49419092984E+03 -0.66361101849E+02  0.54234223702E+03  0.00000000000E+00 0. -1.
          1    1    6    6  503    0  0.98314569902E+02 -0.90915793173E+02 -0.25747322381E+03  0.29021353704E+03  0.00000000000E+00 0. -1.
         -1    1    6    6    0  503  0.13722838372E+03 -0.19334362015E+03 -0.26224804343E+03  0.35353560080E+03  0.00000000000E+00 0.  1.
<mgrwt>
<rscale>  0 0.11781012E+04</rscale>
<asrwt>0</asrwt>
<pdfrwt beam="1">  1        2 0.25991266E+00 0.11781012E+04</pdfrwt>
<pdfrwt beam="2">  1       -2 0.14761020E+00 0.11781012E+04</pdfrwt>
<totfact> 0.30286036E+00</totfact>
</mgrwt>
</event>
<event>
12    1  0.1432447E-007  0.1015292E+04  0.7818608E-02  0.9291930E-01
          1   -1    0    0  501    0  0.00000000000E+00  0.00000000000E+00  0.25181136473E+04  0.25181136473E+04  0.00000000000E+00 0. -1.
         -1   -1    0    0    0  501 -0.00000000000E+00 -0.00000000000E+00 -0.56392170861E+03  0.56392170861E+03  0.00000000000E+00 0.  1.
         23    2    1    2    0    0 -0.77453532281E+03  0.55512457522E+03  0.16630887816E+04  0.19189550126E+04  0.91955340405E+02 0.  0.
    5000000    2    1    2    0    0  0.77453532281E+03 -0.55512457522E+03  0.29110315707E+03  0.11630803433E+04  0.59995547885E+03 0.  0.
         23    2    4    4    0    0  0.77259693685E+03 -0.62542024504E+03  0.20627954951E+03  0.10193774082E+04  0.92317593213E+02 0.  0.
         23    2    4    4    0    0  0.19383859533E+01  0.70295669822E+02  0.84823607565E+02  0.14370293511E+03  0.92251019630E+02 0.  0.
          1    1    3    3  502    0 -0.36175413579E+03  0.20751336425E+03  0.76035430830E+03  0.86721769196E+03  0.00000000000E+00 0. -1.
         -1    1    3    3    0  502 -0.41278118702E+03  0.34761121096E+03  0.90273447327E+03  0.10517373206E+04  0.00000000000E+00 0.  1.
         11    1    5    5    0    0  0.69753718262E+02 -0.32370279476E+02 -0.43414320237E-01  0.76898752197E+02  0.00000000000E+00 0.  1.
        -11    1    5    5    0    0  0.70284321859E+03 -0.59304996556E+03  0.20632296383E+03  0.94247865598E+03  0.00000000000E+00 0. -1.
          1    1    6    6  503    0 -0.13793429653E+02  0.48939591395E+02  0.10068634990E+03  0.11279664607E+03  0.00000000000E+00 0. -1.
         -1    1    6    6    0  503  0.15731815606E+02  0.21356078427E+02 -0.15862742335E+02  0.30906289043E+02  0.00000000000E+00 0.  1.
<mgrwt>
<rscale>  0 0.10152920E+04</rscale>
<asrwt>0</asrwt>
<pdfrwt beam="1">  1        1 0.38740209E+00 0.10152920E+04</pdfrwt>
<pdfrwt beam="2">  1       -1 0.86757187E-01 0.10152920E+04</pdfrwt>
<totfact> 0.17520456E+00</totfact>
</mgrwt>
</event>
<event>
12    1  0.1432447E-007  0.8473772E+03  0.7818608E-02  0.9493864E-01
          2   -1    0    0  501    0  0.00000000000E+00  0.00000000000E+00  0.24269964189E+04  0.24269964189E+04  0.00000000000E+00 0. -1.
         -2   -1    0    0    0  501 -0.00000000000E+00 -0.00000000000E+00 -0.39391290198E+03  0.39391290198E+03  0.00000000000E+00 0.  1.
         23    2    1    2    0    0  0.67455414012E+03 -0.46645037056E+03  0.45040896067E+03  0.94005206301E+03  0.90721624567E+02 0.  0.
    5000000    2    1    2    0    0 -0.67455414012E+03  0.46645037056E+03  0.15826745562E+04  0.18808572579E+04  0.60013834848E+03 0.  0.
         23    2    4    4    0    0 -0.55791673897E+03  0.46332353709E+03  0.79716377342E+03  0.10818792172E+04  0.95146052719E+02 0.  0.
         23    2    4    4    0    0 -0.11663740115E+03  0.31268334772E+01  0.78551078281E+03  0.79897804064E+03  0.87890039672E+02 0.  0.
          2    1    3    3  502    0  0.19086593015E+03 -0.84652606293E+02  0.10733304344E+03  0.23476850142E+03  0.00000000000E+00 0. -1.
         -2    1    3    3    0  502  0.48368820997E+03 -0.38179776427E+03  0.34307591723E+03  0.70528356159E+03  0.00000000000E+00 0.  1.
         11    1    5    5    0    0 -0.45148388066E+03  0.41530523579E+03  0.69173566836E+03  0.92456171684E+03  0.00000000000E+00 0. -1.
        -11    1    5    5    0    0 -0.10643285830E+03  0.48018301299E+02  0.10542810507E+03  0.15731750038E+03  0.00000000000E+00 0.  1.
          2    1    6    6  503    0 -0.18670363407E+02  0.32304223710E+02  0.33199856109E+03  0.33408859589E+03  0.00000000000E+00 0. -1.
         -2    1    6    6    0  503 -0.97967037747E+02 -0.29177390233E+02  0.45351222172E+03  0.46488944474E+03  0.00000000000E+00 0.  1.
<mgrwt>
<rscale>  0 0.84737715E+03</rscale>
<asrwt>0</asrwt>
<pdfrwt beam="1">  1        2 0.37338406E+00 0.84737715E+03</pdfrwt>
<pdfrwt beam="2">  1       -2 0.60601986E-01 0.84737715E+03</pdfrwt>
<totfact> 0.10027776E+01</totfact>
</mgrwt>
</event>
<event>
12    1  0.1432447E-007  0.4432532E+03  0.7818608E-02  0.1029753E+00
         -1   -1    0    0    0  501 -0.00000000000E+00  0.00000000000E+00  0.20194716928E+03  0.20194716928E+03  0.00000000000E+00 0.  1.
          1   -1    0    0  501    0  0.00000000000E+00 -0.00000000000E+00 -0.10687225502E+04  0.10687225502E+04  0.00000000000E+00 0. -1.
         23    2    1    2    0    0 -0.17340509519E+03 -0.15522525514E+03 -0.41348241483E+03  0.48361084495E+03  0.93528258339E+02 0.  0.
    5000000    2    1    2    0    0  0.17340509519E+03  0.15522525514E+03 -0.45329296612E+03  0.78705887456E+03  0.59985244187E+03 0.  0.
         23    2    4    4    0    0 -0.16539895401E+03 -0.95220672132E+02 -0.16935237696E+03  0.27084824249E+03  0.90855668432E+02 0.  0.
         23    2    4    4    0    0  0.33880404920E+03  0.25044592728E+03 -0.28394058916E+03  0.51621063207E+03  0.91322572506E+02 0.  0.
          3    1    3    3  502    0 -0.53700774224E+02 -0.10665556414E+03 -0.23089081612E+03  0.25994182327E+03  0.00000000000E+00 0. -1.
         -3    1    3    3    0  502 -0.11970432097E+03 -0.48569691007E+02 -0.18259159871E+03  0.22366902169E+03  0.00000000000E+00 0.  1.
         13    1    5    5    0    0 -0.88174928543E+01 -0.39781228029E+02 -0.57959401190E+02  0.70849040008E+02  0.00000000000E+00 0. -1.
        -13    1    5    5    0    0 -0.15658146116E+03 -0.55439444103E+02 -0.11139297577E+03  0.19999920248E+03  0.00000000000E+00 0.  1.
          1    1    6    6  503    0  0.10425382835E+03  0.28346270793E+02 -0.67926476388E+02  0.12761809428E+03  0.00000000000E+00 0. -1.
         -1    1    6    6    0  503  0.23455022085E+03  0.22209965648E+03 -0.21601411277E+03  0.38859253779E+03  0.00000000000E+00 0.  1.
<mgrwt>
<rscale>  0 0.44325317E+03</rscale>
<asrwt>0</asrwt>
<pdfrwt beam="1">  1        1 0.16441885E+00 0.44325317E+03</pdfrwt>
<pdfrwt beam="2">  1       -1 0.31068795E-01 0.44325317E+03</pdfrwt>
<totfact> 0.13460578E+02</totfact>
</mgrwt>
</event>
<event>
12    1  0.1432447E-007  0.5187389E+03  0.7818608E-02  0.1009000E+00
         -2   -1    0    0    0  501 -0.00000000000E+00  0.00000000000E+00  0.26492580719E+04  0.26492580719E+04  0.00000000000E+00 0.  1.
          2   -1    0    0  501    0  0.00000000000E+00 -0.00000000000E+00 -0.58755145880E+03  0.58755145880E+03  0.00000000000E+00 0. -1.
         23    2    1    2    0    0  0.30027540205E+03  0.22608117415E+03 -0.46970343626E+03  0.60826594270E+03  0.89934001529E+02 0.  0.
    5000000    2    1    2    0    0 -0.30027540205E+03 -0.22608117415E+03  0.25314100494E+04  0.26285435880E+04  0.59993878157E+03 0.  0.
         23    2    4    4    0    0 -0.27479560871E+03  0.11603201877E+03  0.75495508262E+03  0.81678791046E+03  0.90604955429E+02 0.  0.
         23    2    4    4    0    0 -0.25479793342E+02 -0.34211319292E+03  0.17764549667E+04  0.18117556776E+04  0.94740327275E+02 0.  0.
          3    1    3    3  502    0  0.21299961619E+03  0.11538302166E+03 -0.33397615180E+03  0.41257986882E+03  0.00000000000E+00 0. -1.
         -3    1    3    3    0  502  0.87275785858E+02  0.11069815250E+03 -0.13572728446E+03  0.19568607388E+03  0.00000000000E+00 0.  1.
         13    1    5    5    0    0 -0.47337413022E+02  0.25314118659E+02  0.62941533049E+02  0.82724070606E+02  0.00000000000E+00 0.  1.
        -13    1    5    5    0    0 -0.22745819569E+03  0.90717900110E+02  0.69201354957E+03  0.73406383985E+03  0.00000000000E+00 0. -1.
          1    1    6    6  503    0  0.16210806845E+02 -0.28248138832E+03  0.13882567255E+04  0.14167975370E+04  0.00000000000E+00 0. -1.
         -1    1    6    6    0  503 -0.41690600187E+02 -0.59631804597E+02  0.38819824126E+03  0.39495814055E+03  0.00000000000E+00 0.  1.
<mgrwt>
<rscale>  0 0.51873886E+03</rscale>
<asrwt>0</asrwt>
<pdfrwt beam="1">  1        2 0.90392533E-01 0.51873886E+03</pdfrwt>
<pdfrwt beam="2">  1       -2 0.40757816E+00 0.51873886E+03</pdfrwt>
<totfact> 0.38008858E-01</totfact>
</mgrwt>
</event>
<event>
12    1  0.1432447E-007  0.1302866E+04  0.7818608E-02  0.9027295E-01
         -2   -1    0    0    0  501 -0.00000000000E+00  0.00000000000E+00  0.14614419195E+04  0.14614419195E+04  0.00000000000E+00 0. -1.
          2   -1    0    0  501    0  0.00000000000E+00 -0.00000000000E+00 -0.20504869611E+04  0.20504869611E+04  0.00000000000E+00 0.  1.
         23    2    1    2    0    0 -0.74880637194E+03  0.10410306458E+04 -0.13834866526E+04  0.18885863039E+04  0.90923710542E+02 0.  0.
    5000000    2    1    2    0    0  0.74880637194E+03 -0.10410306458E+04  0.79444161099E+03  0.16233425768E+04  0.59970647836E+03 0.  0.
         23    2    4    4    0    0  0.62908520449E+03 -0.63444795899E+03  0.77984294723E+03  0.11893994152E+04  0.90793938754E+02 0.  0.
         23    2    4    4    0    0  0.11972116745E+03 -0.40658268682E+03  0.14598663759E+02  0.43394316161E+03  0.91928816869E+02 0.  0.
          2    1    3    3  502    0 -0.39843716392E+03  0.56318904286E+03 -0.67787751106E+03  0.96718767133E+03  0.00000000000E+00 0. -1.
         -2    1    3    3    0  502 -0.35036920802E+03  0.47784160295E+03 -0.70560914154E+03  0.92139863255E+03  0.00000000000E+00 0.  1.
         13    1    5    5    0    0  0.29350655904E+03 -0.25688640304E+03  0.38727379379E+03  0.54965235888E+03  0.00000000000E+00 0. -1.
        -13    1    5    5    0    0  0.33557864545E+03 -0.37756155595E+03  0.39256915345E+03  0.63974705630E+03  0.00000000000E+00 0.  1.
          1    1    6    6  503    0  0.79313266725E+02 -0.16353708352E+03 -0.28020425780E+02  0.18390246389E+03  0.00000000000E+00 0.  1.
         -1    1    6    6    0  503  0.40407900728E+02 -0.24304560329E+03  0.42619089539E+02  0.25004069772E+03  0.00000000000E+00 0. -1.
<mgrwt>
<rscale>  0 0.13028663E+04</rscale>
<asrwt>0</asrwt>
<pdfrwt beam="1">  1        2 0.31545953E+00 0.13028663E+04</pdfrwt>
<pdfrwt beam="2">  1       -2 0.22483722E+00 0.13028663E+04</pdfrwt>
<totfact> 0.55341451E-01</totfact>
</mgrwt>
</event>
<event>
12    1  0.1432447E-007  0.8676612E+03  0.7818608E-02  0.9466935E-01
         -2   -1    0    0    0  501 -0.00000000000E+00  0.00000000000E+00  0.74574686132E+03  0.74574686132E+03  0.00000000000E+00 0.  1.
          2   -1    0    0  501    0  0.00000000000E+00 -0.00000000000E+00 -0.14101917208E+04  0.14101917208E+04  0.00000000000E+00 0. -1.
         23    2    1    2    0    0 -0.55122788068E+03  0.55091134290E+03  0.24083038424E+03  0.81920507089E+03  0.75777239387E+02 0.  0.
    5000000    2    1    2    0    0  0.55122788068E+03 -0.55091134290E+03 -0.90527524370E+03  0.13367335112E+04  0.59998144051E+03 0.  0.
         23    2    4    4    0    0  0.77695153608E+02  0.10116229919E+03 -0.23145035199E+03  0.28239014092E+03  0.99521749290E+02 0.  0.
         23    2    4    4    0    0  0.47353272708E+03 -0.65207364209E+03 -0.67382489172E+03  0.10543433703E+04  0.90369682258E+02 0.  0.
          1    1    3    3  502    0 -0.36914738437E+03  0.33815818118E+03  0.18469152637E+03  0.53360257383E+03  0.00000000000E+00 0. -1.
         -1    1    3    3    0  502 -0.18208049631E+03  0.21275316172E+03  0.56138857874E+02  0.28560249705E+03  0.00000000000E+00 0.  1.
         11    1    5    5    0    0  0.47819545691E+02  0.10796224923E+03 -0.12644320399E+03  0.17300416193E+03  0.00000000000E+00 0. -1.
        -11    1    5    5    0    0  0.29875607917E+02 -0.67999500464E+01 -0.10500714799E+03  0.10938597899E+03  0.00000000000E+00 0.  1.
          3    1    6    6  503    0  0.32803498747E+03 -0.46049344818E+03 -0.52444543742E+03  0.77117065923E+03  0.00000000000E+00 0.  1.
         -3    1    6    6    0  503  0.14549773960E+03 -0.19158019391E+03 -0.14937945430E+03  0.28317271107E+03  0.00000000000E+00 0. -1.
<mgrwt>
<rscale>  0 0.86766122E+03</rscale>
<asrwt>0</asrwt>
<pdfrwt beam="1">  1        2 0.21695257E+00 0.86766122E+03</pdfrwt>
<pdfrwt beam="2">  1       -2 0.11473029E+00 0.86766122E+03</pdfrwt>
<totfact> 0.85363156E+00</totfact>
</mgrwt>
</event>
<event>
12    1  0.1432447E-007  0.1277188E+04  0.7818608E-02  0.9047854E-01
         -1   -1    0    0    0  501 -0.00000000000E+00  0.00000000000E+00  0.13129894382E+04  0.13129894382E+04  0.00000000000E+00 0.  1.
          1   -1    0    0  501    0  0.00000000000E+00 -0.00000000000E+00 -0.32892324353E+04  0.32892324353E+04  0.00000000000E+00 0. -1.
         23    2    1    2    0    0  0.24111420049E+03  0.12097703785E+04  0.82249671077E+03  0.14853901354E+04  0.90568144779E+02 0.  0.
    5000000    2    1    2    0    0 -0.24111420049E+03 -0.12097703785E+04 -0.27987397079E+04  0.31168317381E+04  0.60001308708E+03 0.  0.
         23    2    4    4    0    0 -0.37462475686E+03 -0.76089170880E+03 -0.14026735478E+04  0.16415562719E+04  0.88960726885E+02 0.  0.
         23    2    4    4    0    0  0.13351055637E+03 -0.44887866967E+03 -0.13960661600E+04  0.14752754662E+04  0.90110205942E+02 0.  0.
          4    1    3    3  502    0  0.13925772635E+03  0.72946191292E+03  0.54745012855E+03  0.92260990673E+03  0.00000000000E+00 0. -1.
         -4    1    3    3    0  502  0.10185647414E+03  0.48030846555E+03  0.27504658222E+03  0.56278022868E+03  0.00000000000E+00 0.  1.
         13    1    5    5    0    0 -0.37489819572E+03 -0.72890870318E+03 -0.13643811983E+04  0.15916634723E+04  0.00000000000E+00 0.  1.
        -13    1    5    5    0    0  0.27343885640E+00 -0.31983005626E+02 -0.38292349556E+02  0.49892799603E+02  0.00000000000E+00 0. -1.
          2    1    6    6  503    0  0.11087714865E+03 -0.33134028757E+03 -0.91225708037E+03  0.97687927040E+03  0.00000000000E+00 0. -1.
         -2    1    6    6    0  503  0.22633407720E+02 -0.11753838209E+03 -0.48380907968E+03  0.49839619580E+03  0.00000000000E+00 0.  1.
<mgrwt>
<rscale>  0 0.12771877E+04</rscale>
<asrwt>0</asrwt>
<pdfrwt beam="1">  1        1 0.50603576E+00 0.12771877E+04</pdfrwt>
<pdfrwt beam="2">  1       -1 0.20199838E+00 0.12771877E+04</pdfrwt>
<totfact> 0.52141680E-02</totfact>
</mgrwt>
</event>
<event>
12    1  0.1432447E-007  0.5980630E+03  0.7818608E-02  0.9909433E-01
          2   -1    0    0  501    0  0.00000000000E+00  0.00000000000E+00  0.13188481785E+04  0.13188481785E+04  0.00000000000E+00 0. -1.
         -2   -1    0    0    0  501 -0.00000000000E+00 -0.00000000000E+00 -0.49710942188E+03  0.49710942188E+03  0.00000000000E+00 0.  1.
         23    2    1    2    0    0  0.14922936530E+03  0.45696005459E+03  0.91880233106E+03  0.10410163412E+04  0.91844456294E+02 0.  0.
    5000000    2    1    2    0    0 -0.14922936530E+03 -0.45696005459E+03 -0.97063574445E+02  0.77494125916E+03  0.60002560171E+03 0.  0.
         23    2    4    4    0    0 -0.18583440721E+03  0.48634646532E+02 -0.14792954180E+03  0.25750744013E+03  0.86759302905E+02 0.  0.
         23    2    4    4    0    0  0.36605041904E+02 -0.50559470112E+03  0.50865967355E+02  0.51743381903E+03  0.90468113438E+02 0.  0.
          4    1    3    3  502    0  0.42373904303E+01  0.66401195644E+02  0.19301576437E+03  0.20416209138E+03  0.00000000000E+00 0. -1.
         -4    1    3    3    0  502  0.14499197487E+03  0.39055885894E+03  0.72578656669E+03  0.83685424983E+03  0.00000000000E+00 0.  1.
         11    1    5    5    0    0 -0.11534583845E+03 -0.45717480309E+00 -0.12173558956E+03  0.16770338465E+03  0.00000000000E+00 0. -1.
        -11    1    5    5    0    0 -0.70488568758E+02  0.49091821336E+02 -0.26193952239E+02  0.89804055485E+02  0.00000000000E+00 0.  1.
          3    1    6    6  503    0  0.45084031184E+02 -0.16525170939E+03  0.44277691875E+02  0.17692148350E+03  0.00000000000E+00 0. -1.
         -3    1    6    6    0  503 -0.84789892809E+01 -0.34034299173E+03  0.65882754801E+01  0.34051233554E+03  0.00000000000E+00 0.  1.
<mgrwt>
<rscale>  0 0.59806295E+03</rscale>
<asrwt>0</asrwt>
<pdfrwt beam="1">  1        2 0.20289972E+00 0.59806295E+03</pdfrwt>
<pdfrwt beam="2">  1       -2 0.76478373E-01 0.59806295E+03</pdfrwt>
<totfact> 0.25635674E+01</totfact>
</mgrwt>
</event>
<event>
12    1  0.1432447E-007  0.4073977E+03  0.7818608E-02  0.1041248E+00
         -2   -1    0    0    0  501 -0.00000000000E+00  0.00000000000E+00  0.20312116982E+03  0.20312116982E+03  0.00000000000E+00 0.  1.
          2   -1    0    0  501    0  0.00000000000E+00 -0.00000000000E+00 -0.95546379335E+03  0.95546379335E+03  0.00000000000E+00 0. -1.
         23    2    1    2    0    0  0.18583263935E+03 -0.39546998245E+02 -0.69759864467E+02  0.23020433695E+03  0.10968073276E+03 0.  0.
    5000000    2    1    2    0    0 -0.18583263935E+03  0.39546998245E+02 -0.68258275906E+03  0.92838062622E+03  0.59989468179E+03 0.  0.
         23    2    4    4    0    0  0.18401038669E+03  0.66643426273E+02 -0.39236500753E+03  0.44859775478E+03  0.94807582930E+02 0.  0.
         23    2    4    4    0    0 -0.36984302605E+03 -0.27096428028E+02 -0.29021775153E+03  0.47978287144E+03  0.91908542011E+02 0.  0.
          4    1    3    3  502    0  0.10936832436E+03  0.32729343225E+02 -0.36820701933E+02  0.11995167515E+03  0.00000000000E+00 0.  1.
         -4    1    3    3    0  502  0.76464314993E+02 -0.72276341470E+02 -0.32939162534E+02  0.11025266179E+03  0.00000000000E+00 0. -1.
         13    1    5    5    0    0 -0.79768972669E+01 -0.62439906169E+01 -0.83743140696E+01  0.13143342230E+02  0.00000000000E+00 0. -1.
        -13    1    5    5    0    0  0.19198728396E+03  0.72887416890E+02 -0.38399069346E+03  0.43545441255E+03  0.00000000000E+00 0.  1.
          3    1    6    6  503    0 -0.22802497215E+03 -0.56893605870E+02 -0.20368776438E+03  0.31099996089E+03  0.00000000000E+00 0. -1.
         -3    1    6    6    0  503 -0.14181805389E+03  0.29797177841E+02 -0.86529987151E+02  0.16878291055E+03  0.00000000000E+00 0.  1.
<mgrwt>
<rscale>  0 0.40739769E+03</rscale>
<asrwt>0</asrwt>
<pdfrwt beam="1">  1        2 0.14699443E+00 0.40739769E+03</pdfrwt>
<pdfrwt beam="2">  1       -2 0.31249412E-01 0.40739769E+03</pdfrwt>
<totfact> 0.26396134E+02</totfact>
</mgrwt>
</event>
<event>
12    1  0.1432447E-007  0.4362179E+03  0.7818608E-02  0.1031914E+00
         -1   -1    0    0    0  501 -0.00000000000E+00  0.00000000000E+00  0.17094101396E+03  0.17094101396E+03  0.00000000000E+00 0.  1.
          1   -1    0    0  501    0  0.00000000000E+00 -0.00000000000E+00 -0.24119159518E+04  0.24119159518E+04  0.00000000000E+00 0. -1.
         23    2    1    2    0    0 -0.63256065142E+02  0.25775569227E+03 -0.17285347669E+04  0.17500486467E+04  0.66321179200E+02 0.  0.
    5000000    2    1    2    0    0  0.63256065142E+02 -0.25775569227E+03 -0.51244017095E+03  0.83280831907E+03  0.60044603490E+03 0.  0.
         23    2    4    4    0    0 -0.17147202779E+03 -0.31084351373E+03 -0.16681135930E+03  0.40241495444E+03  0.89918961463E+02 0.  0.
         23    2    4    4    0    0  0.23472809293E+03  0.53087821462E+02 -0.34562881165E+03  0.43039336462E+03  0.88676820357E+02 0.  0.
          2    1    3    3  502    0 -0.45701278203E+02  0.15148231521E+03 -0.12210328581E+04  0.12312419499E+04  0.00000000000E+00 0. -1.
         -2    1    3    3    0  502 -0.17554786939E+02  0.10627337706E+03 -0.50750190877E+03  0.51880669678E+03  0.00000000000E+00 0.  1.
         13    1    5    5    0    0 -0.72121805174E+02 -0.53937500479E+02 -0.30499123128E+02  0.95084200849E+02  0.00000000000E+00 0.  1.
        -13    1    5    5    0    0 -0.99350222612E+02 -0.25690601325E+03 -0.13631223617E+03  0.30733075360E+03  0.00000000000E+00 0. -1.
          2    1    6    6  503    0  0.83307274062E+02  0.25070494836E+02 -0.59312415180E+02  0.10529289728E+03  0.00000000000E+00 0. -1.
         -2    1    6    6    0  503  0.15142081887E+03  0.28017326626E+02 -0.28631639647E+03  0.32510046734E+03  0.00000000000E+00 0.  1.
<mgrwt>
<rscale>  0 0.43621788E+03</rscale>
<asrwt>0</asrwt>
<pdfrwt beam="1">  1        1 0.37106399E+00 0.43621788E+03</pdfrwt>
<pdfrwt beam="2">  1       -1 0.26298617E-01 0.43621788E+03</pdfrwt>
<totfact> 0.22210228E+01</totfact>
</mgrwt>
</event>
<event>
12    1  0.1432447E-007  0.8658762E+03  0.7818608E-02  0.9469273E-01
         -1   -1    0    0    0  501 -0.00000000000E+00  0.00000000000E+00  0.52643571751E+03  0.52643571751E+03  0.00000000000E+00 0.  1.
          1   -1    0    0  501    0  0.00000000000E+00 -0.00000000000E+00 -0.19054383083E+04  0.19054383083E+04  0.00000000000E+00 0. -1.
         23    2    1    2    0    0  0.62639651343E+03  0.57101483419E+03 -0.22952801237E+03  0.88283629044E+03  0.91028975356E+02 0.  0.
    5000000    2    1    2    0    0 -0.62639651343E+03 -0.57101483419E+03 -0.11494745784E+04  0.15490377353E+04  0.59982961435E+03 0.  0.
         23    2    4    4    0    0 -0.49394288797E+03 -0.32748153121E+03 -0.10998786162E+04  0.12528185667E+04  0.92723572103E+02 0.  0.
         23    2    4    4    0    0 -0.13245362546E+03 -0.24353330298E+03 -0.49595962208E+02  0.29621916866E+03  0.91834654995E+02 0.  0.
          3    1    3    3  502    0  0.40919479179E+03  0.33130991852E+03 -0.17482132454E+03  0.55476944333E+03  0.00000000000E+00 0. -1.
         -3    1    3    3    0  502  0.21720172163E+03  0.23970491567E+03 -0.54706687829E+02  0.32806684711E+03  0.00000000000E+00 0.  1.
         13    1    5    5    0    0 -0.32567577851E+02 -0.21143270322E+02 -0.13312253686E+03  0.13866973292E+03  0.00000000000E+00 0. -1.
        -13    1    5    5    0    0 -0.46137531011E+03 -0.30633826089E+03 -0.96675607933E+03  0.11141488338E+04  0.00000000000E+00 0.  1.
          1    1    6    6  503    0 -0.74017506852E+00  0.64922853058E+01 -0.83886983069E+01  0.10633338465E+02  0.00000000000E+00 0. -1.
         -1    1    6    6    0  503 -0.13171345039E+03 -0.25002558829E+03 -0.41207263901E+02  0.28558583020E+03  0.00000000000E+00 0.  1.
<mgrwt>
<rscale>  0 0.86587622E+03</rscale>
<asrwt>0</asrwt>
<pdfrwt beam="1">  1        1 0.29314435E+00 0.86587622E+03</pdfrwt>
<pdfrwt beam="2">  1       -1 0.80990112E-01 0.86587622E+03</pdfrwt>
<totfact> 0.53995439E+00</totfact>
</mgrwt>
</event>
<event>
12    1  0.1432447E-007  0.5179407E+03  0.7818608E-02  0.1009199E+00
          2   -1    0    0  501    0  0.00000000000E+00  0.00000000000E+00  0.28834212448E+04  0.28834212448E+04  0.00000000000E+00 0. -1.
         -2   -1    0    0    0  501 -0.00000000000E+00 -0.00000000000E+00 -0.12579229383E+03  0.12579229383E+03  0.00000000000E+00 0.  1.
         23    2    1    2    0    0  0.33771701931E+03  0.75353244299E+02  0.33880206928E+03  0.49316962855E+03  0.93265984222E+02 0.  0.
    5000000    2    1    2    0    0 -0.33771701931E+03 -0.75353244299E+02  0.24188268817E+04  0.25160439101E+04  0.60001881413E+03 0.  0.
         23    2    4    4    0    0  0.15246026096E+03  0.30326086034E+02  0.56310815441E+03  0.59162945172E+03  0.93652612935E+02 0.  0.
         23    2    4    4    0    0 -0.49017728026E+03 -0.10567933033E+03  0.18557187273E+04  0.19244144584E+04  0.90758613011E+02 0.  0.
          1    1    3    3  502    0  0.23621523824E+03  0.61456345332E+02  0.29188660375E+03  0.38048956702E+03  0.00000000000E+00 0. -1.
         -1    1    3    3    0  502  0.10150178106E+03  0.13896898967E+02  0.46915465534E+02  0.11268006153E+03  0.00000000000E+00 0.  1.
         13    1    5    5    0    0  0.25477432562E+02 -0.31269617891E+02  0.12250349924E+03  0.12897284946E+03  0.00000000000E+00 0.  1.
        -13    1    5    5    0    0  0.12698282840E+03  0.61595703925E+02  0.44060465517E+03  0.46265660226E+03  0.00000000000E+00 0. -1.
          1    1    6    6  503    0 -0.42611594938E+03 -0.62607452710E+02  0.16259466894E+04  0.16820217395E+04  0.00000000000E+00 0. -1.
         -1    1    6    6    0  503 -0.64061330887E+02 -0.43071877624E+02  0.22977203791E+03  0.24239271887E+03  0.00000000000E+00 0.  1.
<mgrwt>
<rscale>  0 0.51794069E+03</rscale>
<asrwt>0</asrwt>
<pdfrwt beam="1">  1        2 0.44360322E+00 0.51794069E+03</pdfrwt>
<pdfrwt beam="2">  1       -2 0.19352663E-01 0.51794069E+03</pdfrwt>
<totfact> 0.50892961E+01</totfact>
</mgrwt>
</event>
<event>
12    1  0.1432447E-007  0.1358726E+04  0.7818608E-02  0.8984249E-01
          2   -1    0    0  501    0  0.00000000000E+00  0.00000000000E+00  0.33721683467E+04  0.33721683467E+04  0.00000000000E+00 0.  1.
         -2   -1    0    0    0  501 -0.00000000000E+00 -0.00000000000E+00 -0.72488876808E+03  0.72488876808E+03  0.00000000000E+00 0. -1.
         23    2    1    2    0    0 -0.66737320065E+03 -0.11387816186E+04  0.33010353200E+03  0.13636409903E+04  0.91311799861E+02 0.  0.
    5000000    2    1    2    0    0  0.66737320065E+03  0.11387816186E+04  0.23171760466E+04  0.27334161245E+04  0.60004026105E+03 0.  0.
         23    2    4    4    0    0  0.10190825598E+03  0.60342127545E+03  0.68638948953E+03  0.92399041516E+03  0.90140044745E+02 0.  0.
         23    2    4    4    0    0  0.56546494466E+03  0.53536034313E+03  0.16307865571E+04  0.18094257093E+04  0.90527908409E+02 0.  0.
          2    1    3    3  502    0 -0.39887053889E+03 -0.64805917293E+03  0.14684829019E+03  0.77501149588E+03  0.00000000000E+00 0. -1.
         -2    1    3    3    0  502 -0.26850266176E+03 -0.49072244564E+03  0.18325524182E+03  0.58862949441E+03  0.00000000000E+00 0.  1.
         13    1    5    5    0    0  0.98429824235E+02  0.40845672862E+03  0.42220782461E+03  0.59563812556E+03  0.00000000000E+00 0. -1.
        -13    1    5    5    0    0  0.34784317493E+01  0.19496454682E+03  0.26418166492E+03  0.32835228960E+03  0.00000000000E+00 0.  1.
          2    1    6    6  503    0  0.53960976643E+03  0.52827280033E+03  0.15472914999E+04  0.17217322199E+04  0.00000000000E+00 0. -1.
         -2    1    6    6    0  503  0.25855178236E+02  0.70875428025E+01  0.83495057181E+02  0.87693489372E+02  0.00000000000E+00 0.  1.
<mgrwt>
<rscale>  0 0.13587260E+04</rscale>
<asrwt>0</asrwt>
<pdfrwt beam="1">  1        2 0.51879512E+00 0.13587260E+04</pdfrwt>
<pdfrwt beam="2">  1       -2 0.11152135E+00 0.13587260E+04</pdfrwt>
<totfact> 0.61689239E-01</totfact>
</mgrwt>
</event>
<event>
12    1  0.1432447E-007  0.9945858E+03  0.7818608E-02  0.9314503E-01
         -2   -1    0    0    0  501 -0.00000000000E+00  0.00000000000E+00  0.12677065148E+04  0.12677065148E+04  0.00000000000E+00 0.  1.
          2   -1    0    0  501    0  0.00000000000E+00 -0.00000000000E+00 -0.88405590792E+03  0.88405590792E+03  0.00000000000E+00 0. -1.
         23    2    1    2    0    0 -0.24914048168E+03 -0.91691079067E+03  0.38194990388E+03  0.10280142803E+04  0.90173464330E+02 0.  0.
    5000000    2    1    2    0    0  0.24914048168E+03  0.91691079067E+03  0.17007029774E+01  0.11237481424E+04  0.60000884793E+03 0.  0.
         23    2    4    4    0    0 -0.77681894579E+00  0.69766485669E+03 -0.18933475170E+03  0.72922760131E+03  0.95856093210E+02 0.  0.
         23    2    4    4    0    0  0.24991730063E+03  0.21924593398E+03  0.19103545467E+03  0.39452054113E+03  0.92868055387E+02 0.  0.
          1    1    3    3  502    0 -0.12516765038E+03 -0.50842038082E+03  0.25663802777E+03  0.58311345520E+03  0.00000000000E+00 0. -1.
         -1    1    3    3    0  502 -0.12397283130E+03 -0.40849040985E+03  0.12531187611E+03  0.44490082505E+03  0.00000000000E+00 0.  1.
         11    1    5    5    0    0 -0.15212310029E+00  0.53728635096E+03 -0.10294213611E+03  0.54705916449E+03  0.00000000000E+00 0.  1.
        -11    1    5    5    0    0 -0.62469584550E+00  0.16037850574E+03 -0.86392615584E+02  0.18216843682E+03  0.00000000000E+00 0. -1.
          3    1    6    6  503    0  0.29568952648E+02 -0.84117022911E+00  0.82280422420E+00  0.29592356020E+02  0.00000000000E+00 0. -1.
         -3    1    6    6    0  503  0.22034834798E+03  0.22008710420E+03  0.19021265045E+03  0.36492818511E+03  0.00000000000E+00 0.  1.
<mgrwt>
<rscale>  0 0.99458577E+03</rscale>
<asrwt>0</asrwt>
<pdfrwt beam="1">  1        2 0.13600860E+00 0.99458577E+03</pdfrwt>
<pdfrwt beam="2">  1       -2 0.19503177E+00 0.99458577E+03</pdfrwt>
<totfact> 0.42814118E+00</totfact>
</mgrwt>
</event>
<event>
12    1  0.1432447E-007  0.5362017E+03  0.7818608E-02  0.1004739E+00
         -3   -1    0    0    0  501 -0.00000000000E+00  0.00000000000E+00  0.51068665618E+03  0.51068665618E+03  0.00000000000E+00 0.  1.
          3   -1    0    0  501    0  0.00000000000E+00 -0.00000000000E+00 -0.66552147748E+03  0.66552147748E+03  0.00000000000E+00 0. -1.
         23    2    1    2    0    0 -0.37594514594E+03 -0.65071676947E+02  0.12704950528E+03  0.41116948365E+03  0.85730342331E+02 0.  0.
    5000000    2    1    2    0    0  0.37594514594E+03  0.65071676947E+02 -0.28188432658E+03  0.76503865001E+03  0.60021353412E+03 0.  0.
         23    2    4    4    0    0 -0.12649513505E+03 -0.68100209009E+02 -0.13278243195E+03  0.21635117262E+03  0.92401287863E+02 0.  0.
         23    2    4    4    0    0  0.50244028100E+03  0.13317188596E+03 -0.14910189464E+03  0.54868747739E+03  0.92981641669E+02 0.  0.
          2    1    3    3  502    0 -0.35536745592E+03 -0.63404739469E+02  0.95384823062E+02  0.37336905895E+03  0.00000000000E+00 0. -1.
         -2    1    3    3    0  502 -0.20577690024E+02 -0.16669374781E+01  0.31664682222E+02  0.37800424700E+02  0.00000000000E+00 0.  1.
         13    1    5    5    0    0 -0.46198497489E+02 -0.68438312182E+02 -0.34633973509E+02  0.89541140632E+02  0.00000000000E+00 0.  1.
        -13    1    5    5    0    0 -0.80296637565E+02  0.33810317268E+00 -0.98148458439E+02  0.12681003198E+03  0.00000000000E+00 0. -1.
          2    1    6    6  503    0  0.22129663456E+03  0.10624471538E+03 -0.63246781845E+02  0.25349614480E+03  0.00000000000E+00 0. -1.
         -2    1    6    6    0  503  0.28114364643E+03  0.26927170575E+02 -0.85855112791E+02  0.29519133259E+03  0.00000000000E+00 0.  1.
<mgrwt>
<rscale>  0 0.53620168E+03</rscale>
<asrwt>0</asrwt>
<pdfrwt beam="1">  1        3 0.10238792E+00 0.53620168E+03</pdfrwt>
<pdfrwt beam="2">  1       -3 0.78567178E-01 0.53620168E+03</pdfrwt>
<totfact> 0.32754508E+00</totfact>
</mgrwt>
</event>
<event>
12    1  0.1432447E-007  0.7034923E+03  0.7818608E-02  0.9711278E-01
          1   -1    0    0  501    0  0.00000000000E+00  0.00000000000E+00  0.61086569094E+03  0.61086569094E+03  0.00000000000E+00 0. -1.
         -1   -1    0    0    0  501 -0.00000000000E+00 -0.00000000000E+00 -0.11220862005E+04  0.11220862005E+04  0.00000000000E+00 0.  1.
         23    2    1    2    0    0 -0.59704885905E+03  0.34704098505E+03 -0.42023830903E+03  0.81358321676E+03  0.91720383856E+02 0.  0.
    5000000    2    1    2    0    0  0.59704885905E+03 -0.34704098505E+03 -0.90982200572E+02  0.91936867472E+03  0.60004684304E+03 0.  0.
         23    2    4    4    0    0  0.45659451528E+03 -0.28908615116E+03  0.19596471914E+03  0.58239216220E+03  0.93429680876E+02 0.  0.
         23    2    4    4    0    0  0.14045434378E+03 -0.57954833891E+02 -0.28694691971E+03  0.33697651253E+03  0.90157915930E+02 0.  0.
          2    1    3    3  502    0 -0.22526536767E+03  0.93125542147E+02 -0.18209290733E+03  0.30426087388E+03  0.00000000000E+00 0. -1.
         -2    1    3    3    0  502 -0.37178349138E+03  0.25391544290E+03 -0.23814540170E+03  0.50932234288E+03  0.00000000000E+00 0.  1.
         11    1    5    5    0    0  0.12011730816E+03 -0.11528117876E+03  0.89391165387E+02  0.18896745313E+03  0.00000000000E+00 0. -1.
        -11    1    5    5    0    0  0.33647720712E+03 -0.17380497240E+03  0.10657355375E+03  0.39342470906E+03  0.00000000000E+00 0.  1.
          1    1    6    6  503    0  0.49482515187E+02 -0.58778152360E+02 -0.80026497705E+02  0.11093976221E+03  0.00000000000E+00 0. -1.
         -1    1    6    6    0  503  0.90971828589E+02  0.82331846830E+00 -0.20692042201E+03  0.22603675032E+03  0.00000000000E+00 0.  1.
<mgrwt>
<rscale>  0 0.70349229E+03</rscale>
<asrwt>0</asrwt>
<pdfrwt beam="1">  1        1 0.93979339E-01 0.70349229E+03</pdfrwt>
<pdfrwt beam="2">  1       -1 0.17262864E+00 0.70349229E+03</pdfrwt>
<totfact> 0.81581139E+00</totfact>
</mgrwt>
</event>
<event>
12    1  0.1432447E-007  0.3625447E+03  0.7818608E-02  0.1057581E+00
          2   -1    0    0  501    0  0.00000000000E+00  0.00000000000E+00  0.21674305960E+04  0.21674305960E+04  0.00000000000E+00 0.  1.
         -2   -1    0    0    0  501 -0.00000000000E+00 -0.00000000000E+00 -0.99716335521E+02  0.99716335521E+02  0.00000000000E+00 0. -1.
         23    2    1    2    0    0  0.41441085414E+02  0.90501719185E+02  0.11999875063E+04  0.12075054534E+04  0.90506796240E+02 0.  0.
    5000000    2    1    2    0    0 -0.41441085414E+02 -0.90501719185E+02  0.86772675420E+03  0.10596414781E+04  0.59998534761E+03 0.  0.
         23    2    4    4    0    0  0.15060619851E+03 -0.27061813629E+03  0.54520501171E+03  0.63389150275E+03  0.93024350285E+02 0.  0.
         23    2    4    4    0    0 -0.19204728393E+03  0.18011641710E+03  0.32252174249E+03  0.42574997531E+03  0.88986988539E+02 0.  0.
          2    1    3    3  502    0  0.20391756352E+02  0.10565095661E+03  0.90314127165E+03  0.90952850693E+03  0.00000000000E+00 0. -1.
         -2    1    3    3    0  502  0.21049329062E+02 -0.15149237421E+02  0.29684623462E+03  0.29797694652E+03  0.00000000000E+00 0.  1.
         13    1    5    5    0    0  0.11650574931E+03 -0.14383815915E+03  0.25238797659E+03  0.31298993016E+03  0.00000000000E+00 0. -1.
        -13    1    5    5    0    0  0.34100449204E+02 -0.12677997714E+03  0.29281703512E+03  0.32090157260E+03  0.00000000000E+00 0.  1.
          3    1    6    6  503    0 -0.41557735739E+02  0.91569982921E+02  0.89878705334E+02  0.13487137889E+03  0.00000000000E+00 0. -1.
         -3    1    6    6    0  503 -0.15048954819E+03  0.88546434181E+02  0.23264303715E+03  0.29087859642E+03  0.00000000000E+00 0.  1.
<mgrwt>
<rscale>  0 0.36254472E+03</rscale>
<asrwt>0</asrwt>
<pdfrwt beam="1">  1        2 0.33345083E+00 0.36254472E+03</pdfrwt>
<pdfrwt beam="2">  1       -2 0.15340976E-01 0.36254472E+03</pdfrwt>
<totfact> 0.19667263E+02</totfact>
</mgrwt>
</event>
<event>
12    1  0.1432447E-007  0.5245088E+03  0.7818608E-02  0.1007573E+00
         -2   -1    0    0    0  501 -0.00000000000E+00  0.00000000000E+00  0.65729857472E+03  0.65729857472E+03  0.00000000000E+00 0.  1.
          2   -1    0    0  501    0  0.00000000000E+00 -0.00000000000E+00 -0.49472697897E+03  0.49472697897E+03  0.00000000000E+00 0. -1.
         23    2    1    2    0    0 -0.40648069490E+02 -0.38006664723E+03  0.19726191414E+03  0.43971110409E+03  0.91272506233E+02 0.  0.
    5000000    2    1    2    0    0  0.40648069490E+02  0.38006664723E+03 -0.34690318393E+02  0.71231444960E+03  0.60007127495E+03 0.  0.
         23    2    4    4    0    0 -0.17739292585E+03  0.39084640089E+03 -0.12804731994E+03  0.45754470196E+03  0.93391000159E+02 0.  0.
         23    2    4    4    0    0  0.21804099534E+03 -0.10779753660E+02  0.93357001550E+02  0.25476974764E+03  0.92379737135E+02 0.  0.
          2    1    3    3  502    0  0.65915272742E+01 -0.23459695873E+03  0.83526734310E+02  0.24911020979E+03  0.00000000000E+00 0. -1.
         -2    1    3    3    0  502 -0.47239596764E+02 -0.14546968851E+03  0.11373517983E+03  0.19060089430E+03  0.00000000000E+00 0.  1.
         13    1    5    5    0    0 -0.11502139503E+03  0.31277395325E+03 -0.65418721396E+02  0.33961312733E+03  0.00000000000E+00 0. -1.
        -13    1    5    5    0    0 -0.62371530823E+02  0.78072447648E+02 -0.62628598547E+02  0.11793157463E+03  0.00000000000E+00 0.  1.
          4    1    6    6  503    0  0.63437746314E+02  0.27163290523E+02  0.61470369936E+02  0.92416440039E+02  0.00000000000E+00 0. -1.
         -4    1    6    6    0  503  0.15460324903E+03 -0.37943044182E+02  0.31886631614E+02  0.16235330760E+03  0.00000000000E+00 0.  1.
<mgrwt>
<rscale>  0 0.52450876E+03</rscale>
<asrwt>0</asrwt>
<pdfrwt beam="1">  1        2 0.76111843E-01 0.52450876E+03</pdfrwt>
<pdfrwt beam="2">  1       -2 0.10112286E+00 0.52450876E+03</pdfrwt>
<totfact> 0.51634958E+01</totfact>
</mgrwt>
</event>
<event>
12    1  0.1432447E-007  0.6951795E+03  0.7818608E-02  0.9725512E-01
         -1   -1    0    0    0  501 -0.00000000000E+00  0.00000000000E+00  0.96877534549E+03  0.96877534549E+03  0.00000000000E+00 0.  1.
          1   -1    0    0  501    0  0.00000000000E+00 -0.00000000000E+00 -0.77766515118E+03  0.77766515118E+03  0.00000000000E+00 0. -1.
         23    2    1    2    0    0 -0.16521263560E+03 -0.60039425814E+03 -0.35621096559E+03  0.72314620704E+03  0.91025845658E+02 0.  0.
    5000000    2    1    2    0    0  0.16521263560E+03  0.60039425814E+03  0.54732115990E+03  0.10232942896E+04  0.59983520316E+03 0.  0.
         23    2    4    4    0    0  0.14710808408E+03  0.10490899790E+02 -0.48280467039E+02  0.18000210900E+03  0.91208049914E+02 0.  0.
         23    2    4    4    0    0  0.18104551521E+02  0.58990335835E+03  0.59560162694E+03  0.84329218063E+03  0.89925841186E+02 0.  0.
          2    1    3    3  502    0 -0.12816574473E+03 -0.33147472267E+03 -0.16998910976E+03  0.39395208761E+03  0.00000000000E+00 0. -1.
         -2    1    3    3    0  502 -0.37046890870E+02 -0.26891953547E+03 -0.18622185583E+03  0.32919411944E+03  0.00000000000E+00 0.  1.
         11    1    5    5    0    0  0.10004810568E+03 -0.36743468794E+02 -0.33310209944E+02  0.11166591259E+03  0.00000000000E+00 0. -1.
        -11    1    5    5    0    0  0.47059978401E+02  0.47234368584E+02 -0.14970257095E+02  0.68336196413E+02  0.00000000000E+00 0.  1.
          4    1    6    6  503    0  0.17964442568E+02  0.46342027299E+03  0.51628585833E+03  0.69399723207E+03  0.00000000000E+00 0. -1.
         -4    1    6    6    0  503  0.14010895289E+00  0.12648308537E+03  0.79315768612E+02  0.14929494856E+03  0.00000000000E+00 0.  1.
<mgrwt>
<rscale>  0 0.69517947E+03</rscale>
<asrwt>0</asrwt>
<pdfrwt beam="1">  1        1 0.11964079E+00 0.69517947E+03</pdfrwt>
<pdfrwt beam="2">  1       -1 0.14904236E+00 0.69517947E+03</pdfrwt>
<totfact> 0.85413043E+00</totfact>
</mgrwt>
</event>
<event>
12    1  0.1432447E-007  0.1010629E+04  0.7818608E-02  0.9296964E-01
          2   -1    0    0  501    0  0.00000000000E+00  0.00000000000E+00  0.20938639838E+04  0.20938639838E+04  0.00000000000E+00 0. -1.
         -2   -1    0    0    0  501 -0.00000000000E+00 -0.00000000000E+00 -0.62701635541E+03  0.62701635541E+03  0.00000000000E+00 0.  1.
         23    2    1    2    0    0 -0.73301259375E+03 -0.57740367343E+03  0.74393402449E+02  0.94045365769E+03  0.90643473285E+02 0.  0.
    5000000    2    1    2    0    0  0.73301259375E+03  0.57740367343E+03  0.13924542259E+04  0.17804266815E+04  0.60023989557E+03 0.  0.
         23    2    4    4    0    0  0.14557867798E+02  0.32618107357E+03  0.37364984489E+03  0.50483390070E+03  0.92935657539E+02 0.  0.
         23    2    4    4    0    0  0.71845472596E+03  0.25122259986E+03  0.10188043810E+04  0.12755927808E+04  0.99421263769E+02 0.  0.
          3    1    3    3  502    0 -0.44713630432E+03 -0.33520010612E+03  0.19582741576E+01  0.55883255151E+03  0.00000000000E+00 0. -1.
         -3    1    3    3    0  502 -0.28587628943E+03 -0.24220356731E+03  0.72435128292E+02  0.38162110619E+03  0.00000000000E+00 0.  1.
         11    1    5    5    0    0  0.37761115191E+01  0.31829826084E+02  0.91501895055E+02  0.96953564377E+02  0.00000000000E+00 0. -1.
        -11    1    5    5    0    0  0.10781756279E+02  0.29435124749E+03  0.28214794983E+03  0.40788033633E+03  0.00000000000E+00 0.  1.
          1    1    6    6  503    0  0.60899343574E+03  0.21559617230E+03  0.91830660910E+03  0.11227830345E+04  0.00000000000E+00 0. -1.
         -1    1    6    6    0  503  0.10946129021E+03  0.35626427555E+02  0.10049777195E+03  0.15280974630E+03  0.00000000000E+00 0.  1.
<mgrwt>
<rscale>  0 0.10106287E+04</rscale>
<asrwt>0</asrwt>
<pdfrwt beam="1">  1        2 0.32213292E+00 0.10106287E+04</pdfrwt>
<pdfrwt beam="2">  1       -2 0.96464056E-01 0.10106287E+04</pdfrwt>
<totfact> 0.53296046E+00</totfact>
</mgrwt>
</event>
<event>
12    1  0.1432447E-007  0.1227678E+04  0.7818608E-02  0.9088969E-01
          1   -1    0    0  501    0  0.00000000000E+00  0.00000000000E+00  0.15324502295E+04  0.15324502295E+04  0.00000000000E+00 0. -1.
         -1   -1    0    0    0  501 -0.00000000000E+00 -0.00000000000E+00 -0.11623940861E+04  0.11623940861E+04  0.00000000000E+00 0.  1.
         23    2    1    2    0    0 -0.11498831475E+04  0.36800942853E+03  0.55881840168E+03  0.13336789732E+04  0.93591693499E+02 0.  0.
    5000000    2    1    2    0    0  0.11498831475E+04 -0.36800942853E+03 -0.18876225821E+03  0.13611653424E+04  0.59956459767E+03 0.  0.
         23    2    4    4    0    0  0.55054989231E+03 -0.20618300275E+02  0.15889884123E+03  0.58120167357E+03  0.94953911922E+02 0.  0.
         23    2    4    4    0    0  0.59933325522E+03 -0.34739112825E+03 -0.34766109944E+03  0.77996366883E+03  0.87144350522E+02 0.  0.
          4    1    3    3  502    0 -0.72891395426E+03  0.27834906940E+03  0.37420297342E+03  0.86534479976E+03  0.00000000000E+00 0. -1.
         -4    1    3    3    0  502 -0.42096919326E+03  0.89660359132E+02  0.18461542826E+03  0.46833417345E+03  0.00000000000E+00 0.  1.
         13    1    5    5    0    0  0.18611853523E+02 -0.57251734738E+01  0.26405790013E+02  0.32809212869E+02  0.00000000000E+00 0.  1.
        -13    1    5    5    0    0  0.53193803878E+03 -0.14893126801E+02  0.13249305122E+03  0.54839246070E+03  0.00000000000E+00 0. -1.
          2    1    6    6  503    0  0.31137885925E+03 -0.19298093244E+03 -0.13654286803E+03  0.39095062230E+03  0.00000000000E+00 0. -1.
         -2    1    6    6    0  503  0.28795439597E+03 -0.15441019582E+03 -0.21111823141E+03  0.38901304652E+03  0.00000000000E+00 0.  1.
<mgrwt>
<rscale>  0 0.12276779E+04</rscale>
<asrwt>0</asrwt>
<pdfrwt beam="1">  1        1 0.23576157E+00 0.12276779E+04</pdfrwt>
<pdfrwt beam="2">  1       -1 0.17882986E+00 0.12276779E+04</pdfrwt>
<totfact> 0.12875532E+00</totfact>
</mgrwt>
</event>
<event>
12    1  0.1432447E-007  0.8279702E+03  0.7818608E-02  0.9520391E-01
         -1   -1    0    0    0  501 -0.00000000000E+00  0.00000000000E+00  0.33010959707E+03  0.33010959707E+03  0.00000000000E+00 0.  1.
          1   -1    0    0  501    0  0.00000000000E+00 -0.00000000000E+00 -0.24155814520E+04  0.24155814520E+04  0.00000000000E+00 0. -1.
         23    2    1    2    0    0 -0.31298207859E+03 -0.65504066636E+03 -0.14043679442E+04  0.15834247169E+04  0.89154109301E+02 0.  0.
    5000000    2    1    2    0    0  0.31298207859E+03  0.65504066636E+03 -0.68110391075E+03  0.11622663322E+04  0.59993702473E+03 0.  0.
         23    2    4    4    0    0  0.44746521856E+03  0.28943914741E+03 -0.35062713310E+03  0.64347010299E+03  0.84345984496E+02 0.  0.
         23    2    4    4    0    0 -0.13448313998E+03  0.36560151896E+03 -0.33047677765E+03  0.51879622922E+03  0.90467901969E+02 0.  0.
          3    1    3    3  502    0 -0.13438208871E+03 -0.23284210297E+03 -0.60272730668E+03  0.65996529977E+03  0.00000000000E+00 0. -1.
         -3    1    3    3    0  502 -0.17859998987E+03 -0.42219856340E+03 -0.80164063749E+03  0.92345941708E+03  0.00000000000E+00 0.  1.
         13    1    5    5    0    0  0.24563723307E+03  0.15291941087E+03 -0.23973471905E+03  0.37575887482E+03  0.00000000000E+00 0. -1.
        -13    1    5    5    0    0  0.20182798550E+03  0.13651973654E+03 -0.11089241406E+03  0.26771122817E+03  0.00000000000E+00 0.  1.
          4    1    6    6  503    0 -0.85294335990E+02  0.30959418952E+03 -0.23635279334E+03  0.39873089780E+03  0.00000000000E+00 0. -1.
         -4    1    6    6    0  503 -0.49188803986E+02  0.56007329436E+02 -0.94123984305E+02  0.12006533142E+03  0.00000000000E+00 0.  1.
<mgrwt>
<rscale>  0 0.82797016E+03</rscale>
<asrwt>0</asrwt>
<pdfrwt beam="1">  1        1 0.37162791E+00 0.82797016E+03</pdfrwt>
<pdfrwt beam="2">  1       -1 0.50786092E-01 0.82797016E+03</pdfrwt>
<totfact> 0.62926856E+00</totfact>
</mgrwt>
</event>
<event>
12    1  0.1432447E-007  0.1036860E+04  0.7818608E-02  0.9269016E-01
         -2   -1    0    0    0  501 -0.00000000000E+00  0.00000000000E+00  0.15246883770E+04  0.15246883770E+04  0.00000000000E+00 0.  1.
          2   -1    0    0  501    0  0.00000000000E+00 -0.00000000000E+00 -0.81480754771E+03  0.81480754771E+03  0.00000000000E+00 0. -1.
         23    2    1    2    0    0 -0.30191651140E+03  0.97923993595E+03  0.20350569147E+03  0.10485955597E+04  0.89853488548E+02 0.  0.
    5000000    2    1    2    0    0  0.30191651140E+03 -0.97923993595E+03  0.50637513785E+03  0.12909003650E+04  0.59995294830E+03 0.  0.
         23    2    4    4    0    0  0.25066696377E+03 -0.59162860307E+03  0.59604491590E+03  0.88115010122E+03  0.91091319123E+02 0.  0.
         23    2    4    4    0    0  0.51249547633E+02 -0.38761133288E+03 -0.89669778052E+02  0.40975026380E+03  0.83579591281E+02 0.  0.
          4    1    3    3  502    0 -0.14443819542E+03  0.57263954517E+03  0.84281741046E+02  0.59655833986E+03  0.00000000000E+00 0. -1.
         -4    1    3    3    0  502 -0.15747831598E+03  0.40660039078E+03  0.11922395043E+03  0.45203721986E+03  0.00000000000E+00 0.  1.
         11    1    5    5    0    0  0.33659124877E+02 -0.16959824362E+03  0.18636698405E+03  0.25422264586E+03  0.00000000000E+00 0. -1.
        -11    1    5    5    0    0  0.21700783889E+03 -0.42203035944E+03  0.40967793185E+03  0.62692745536E+03  0.00000000000E+00 0.  1.
          1    1    6    6  503    0  0.52402497043E+01 -0.30539167745E+03 -0.63526902264E+02  0.31197308247E+03  0.00000000000E+00 0. -1.
         -1    1    6    6    0  503  0.46009297929E+02 -0.82219655428E+02 -0.26142875788E+02  0.97777181332E+02  0.00000000000E+00 0.  1.
<mgrwt>
<rscale>  0 0.10368603E+04</rscale>
<asrwt>0</asrwt>
<pdfrwt beam="1">  1        2 0.12535501E+00 0.10368603E+04</pdfrwt>
<pdfrwt beam="2">  1       -2 0.23456744E+00 0.10368603E+04</pdfrwt>
<totfact> 0.26683873E+00</totfact>
</mgrwt>
</event>
<event>
12    1  0.1432447E-007  0.1180685E+04  0.7818608E-02  0.9129933E-01
         -1   -1    0    0    0  501 -0.00000000000E+00  0.00000000000E+00  0.10492960589E+04  0.10492960589E+04  0.00000000000E+00 0.  1.
          1   -1    0    0  501    0  0.00000000000E+00 -0.00000000000E+00 -0.16940359742E+04  0.16940359742E+04  0.00000000000E+00 0. -1.
         23    2    1    2    0    0  0.11472982443E+04 -0.19003105504E+03 -0.81602683215E+03  0.14236080976E+04  0.91406572763E+02 0.  0.
    5000000    2    1    2    0    0 -0.11472982443E+04  0.19003105504E+03  0.17128691688E+03  0.13197239355E+04  0.59993915917E+03 0.  0.
         23    2    4    4    0    0 -0.88889865663E+03  0.67318416713E+02 -0.11571036343E+03  0.90352553201E+03  0.91087363611E+02 0.  0.
         23    2    4    4    0    0 -0.25839958769E+03  0.12271263833E+03  0.28699728031E+03  0.41619840348E+03  0.94999650649E+02 0.  0.
          3    1    3    3  502    0  0.86541227844E+03 -0.10935746016E+03 -0.58456393684E+03  0.10500535520E+04  0.00000000000E+00 0. -1.
         -3    1    3    3    0  502  0.28188596588E+03 -0.80673594881E+02 -0.23146289530E+03  0.37355454565E+03  0.00000000000E+00 0.  1.
         11    1    5    5    0    0 -0.51049803107E+03  0.82139726181E+02 -0.54657373032E+02  0.51994480743E+03  0.00000000000E+00 0. -1.
        -11    1    5    5    0    0 -0.37840062555E+03 -0.14821309468E+02 -0.61052990401E+02  0.38358072458E+03  0.00000000000E+00 0.  1.
          3    1    6    6  503    0 -0.28100836196E+02  0.52170021975E+02  0.72836504558E+02  0.93896350216E+02  0.00000000000E+00 0. -1.
         -3    1    6    6    0  503 -0.23029875150E+03  0.70542616353E+02  0.21416077576E+03  0.32230205326E+03  0.00000000000E+00 0.  1.
<mgrwt>
<rscale>  0 0.11806847E+04</rscale>
<asrwt>0</asrwt>
<pdfrwt beam="1">  1        1 0.26062092E+00 0.11806847E+04</pdfrwt>
<pdfrwt beam="2">  1       -1 0.16143016E+00 0.11806847E+04</pdfrwt>
<totfact> 0.13484674E+00</totfact>
</mgrwt>
</event>
<event>
12    1  0.1432447E-007  0.6003565E+03  0.7818608E-02  0.9904667E-01
          3   -1    0    0  501    0  0.00000000000E+00  0.00000000000E+00  0.17295090862E+04  0.17295090862E+04  0.00000000000E+00 0. -1.
         -3   -1    0    0    0  501 -0.00000000000E+00 -0.00000000000E+00 -0.51587929406E+03  0.51587929406E+03  0.00000000000E+00 0.  1.
         23    2    1    2    0    0 -0.42607373591E+03  0.40403044858E+03 -0.17842418302E+03  0.61978204178E+03  0.86690013350E+02 0.  0.
    5000000    2    1    2    0    0  0.42607373591E+03 -0.40403044858E+03  0.13920539751E+04  0.16256063384E+04  0.60000188843E+03 0.  0.
         23    2    4    4    0    0  0.66077433285E+02 -0.15815711889E+03  0.10403150215E+04  0.10582098127E+04  0.90403330346E+02 0.  0.
         23    2    4    4    0    0  0.35999630263E+03 -0.24587332969E+03  0.35173895359E+03  0.56739652578E+03  0.90374187891E+02 0.  0.
          4    1    3    3  502    0 -0.22147277102E+03  0.18690586974E+03 -0.12967262891E+03  0.31748855591E+03  0.00000000000E+00 0.  1.
         -4    1    3    3    0  502 -0.20460096490E+03  0.21712457884E+03 -0.48751554111E+02  0.30229348587E+03  0.00000000000E+00 0. -1.
         11    1    5    5    0    0  0.37123654342E+02 -0.13071427529E+03  0.56037566947E+03  0.57661536436E+03  0.00000000000E+00 0. -1.
        -11    1    5    5    0    0  0.28953778944E+02 -0.27442843603E+02  0.47993935206E+03  0.48159444831E+03  0.00000000000E+00 0.  1.
          1    1    6    6  503    0  0.54972010840E+02 -0.49929689783E+02  0.10598882111E+03  0.12941609675E+03  0.00000000000E+00 0. -1.
         -1    1    6    6    0  503  0.30502429179E+03 -0.19594363991E+03  0.24575013248E+03  0.43798042903E+03  0.00000000000E+00 0.  1.
<mgrwt>
<rscale>  0 0.60035654E+03</rscale>
<asrwt>0</asrwt>
<pdfrwt beam="1">  1        3 0.26607832E+00 0.60035654E+03</pdfrwt>
<pdfrwt beam="2">  1       -3 0.79366046E-01 0.60035654E+03</pdfrwt>
<totfact> 0.23623894E-01</totfact>
</mgrwt>
</event>
<event>
12    1  0.1432447E-007  0.3904915E+03  0.7818608E-02  0.1047123E+00
          2   -1    0    0  501    0  0.00000000000E+00  0.00000000000E+00  0.17115416344E+04  0.17115416344E+04  0.00000000000E+00 0. -1.
         -2   -1    0    0    0  501 -0.00000000000E+00 -0.00000000000E+00 -0.42630848879E+03  0.42630848879E+03  0.00000000000E+00 0.  1.
         23    2    1    2    0    0 -0.26911611806E+03 -0.25279206274E+03  0.13759572378E+04  0.14276294559E+04  0.92413371872E+02 0.  0.
    5000000    2    1    2    0    0  0.26911611806E+03  0.25279206274E+03 -0.90724092217E+02  0.71022066720E+03  0.59987934055E+03 0.  0.
         23    2    4    4    0    0  0.18741962115E+03  0.16191833595E+03  0.23287122330E+03  0.35228955317E+03  0.92386474771E+02 0.  0.
         23    2    4    4    0    0  0.81696496910E+02  0.90873726791E+02 -0.32359531551E+03  0.35793111403E+03  0.92023922663E+02 0.  0.
          1    1    3    3  502    0 -0.17058640194E+03 -0.21491610268E+03  0.95472403289E+03  0.99337134582E+03  0.00000000000E+00 0. -1.
         -1    1    3    3    0  502 -0.98529716120E+02 -0.37875960068E+02  0.42123320489E+03  0.43425811013E+03  0.00000000000E+00 0.  1.
         13    1    5    5    0    0  0.57041131465E+02  0.70805068888E+02  0.14338992857E+03  0.16978727890E+03  0.00000000000E+00 0. -1.
        -13    1    5    5    0    0  0.13037848969E+03  0.91113267064E+02  0.89481294723E+02  0.18250227427E+03  0.00000000000E+00 0.  1.
          3    1    6    6  503    0  0.14049134588E+02 -0.18024877137E+02 -0.72270450371E+02  0.75797706926E+02  0.00000000000E+00 0. -1.
         -3    1    6    6    0  503  0.67647362322E+02  0.10889860393E+03 -0.25132486514E+03  0.28213340711E+03  0.00000000000E+00 0.  1.
<mgrwt>
<rscale>  0 0.39049150E+03</rscale>
<asrwt>0</asrwt>
<pdfrwt beam="1">  1        2 0.26331409E+00 0.39049150E+03</pdfrwt>
<pdfrwt beam="2">  1       -2 0.65585922E-01 0.39049150E+03</pdfrwt>
<totfact> 0.22660833E+01</totfact>
</mgrwt>
</event>
<event>
12    1  0.1432447E-007  0.4122526E+03  0.7818608E-02  0.1039618E+00
          1   -1    0    0  501    0  0.00000000000E+00  0.00000000000E+00  0.78524286429E+03  0.78524286429E+03  0.00000000000E+00 0. -1.
         -1   -1    0    0    0  501 -0.00000000000E+00 -0.00000000000E+00 -0.41680753525E+03  0.41680753525E+03  0.00000000000E+00 0.  1.
         23    2    1    2    0    0 -0.65435661227E+02  0.38719404891E+03  0.19104956419E+02  0.40435090420E+03  0.94517707856E+02 0.  0.
    5000000    2    1    2    0    0  0.65435661227E+02 -0.38719404891E+03  0.34933037262E+03  0.79769949533E+03  0.60007642709E+03 0.  0.
         23    2    4    4    0    0  0.35996496845E+02 -0.87517237126E+02 -0.15500446616E+03  0.20276255045E+03  0.90173459271E+02 0.  0.
         23    2    4    4    0    0  0.29439164382E+02 -0.29967681178E+03  0.50433483878E+03  0.59493694488E+03  0.94464188219E+02 0.  0.
          1    1    3    3  502    0 -0.68046674652E+02  0.29461672778E+03  0.50498405930E+02  0.30656068766E+03  0.00000000000E+00 0. -1.
         -1    1    3    3    0  502  0.26110134254E+01  0.92577321128E+02 -0.31393449511E+02  0.97790216538E+02  0.00000000000E+00 0.  1.
         13    1    5    5    0    0  0.22952279052E+02  0.63168006808E+01 -0.34782668734E+01  0.24058416926E+02  0.00000000000E+00 0. -1.
        -13    1    5    5    0    0  0.13044217792E+02 -0.93834037807E+02 -0.15152619929E+03  0.17870413353E+03  0.00000000000E+00 0.  1.
          1    1    6    6  503    0  0.55418928070E+02 -0.17288873512E+03  0.34319062258E+03  0.38825452444E+03  0.00000000000E+00 0. -1.
         -1    1    6    6    0  503 -0.25979763688E+02 -0.12678807666E+03  0.16114421620E+03  0.20668242044E+03  0.00000000000E+00 0.  1.
<mgrwt>
<rscale>  0 0.41225262E+03</rscale>
<asrwt>0</asrwt>
<pdfrwt beam="1">  1        1 0.12080659E+00 0.41225262E+03</pdfrwt>
<pdfrwt beam="2">  1       -1 0.64124236E-01 0.41225262E+03</pdfrwt>
<totfact> 0.59754311E+01</totfact>
</mgrwt>
</event>
<event>
12    1  0.1432447E-007  0.6277682E+03  0.7818608E-02  0.9849414E-01
         -2   -1    0    0    0  501 -0.00000000000E+00  0.00000000000E+00  0.29880679326E+03  0.29880679326E+03  0.00000000000E+00 0.  1.
          2   -1    0    0  501    0  0.00000000000E+00 -0.00000000000E+00 -0.20250865156E+04  0.20250865156E+04  0.00000000000E+00 0. -1.
         23    2    1    2    0    0 -0.59593963806E+02 -0.58366367762E+03 -0.29193936643E+03  0.66207603375E+03  0.94346975053E+02 0.  0.
    5000000    2    1    2    0    0  0.59593963806E+02  0.58366367762E+03 -0.14343403559E+04  0.16618172751E+04  0.60007472048E+03 0.  0.
         23    2    4    4    0    0  0.41243060871E+02  0.56931039118E+03 -0.14549678411E+04  0.15656280321E+04  0.91893442491E+02 0.  0.
         23    2    4    4    0    0  0.18350902934E+02  0.14353286440E+02  0.20627485158E+02  0.96189243010E+02  0.91017058053E+02 0.  0.
          1    1    3    3  502    0  0.28119307219E+01 -0.39694200172E+03 -0.20665322571E+03  0.44752253059E+03  0.00000000000E+00 0. -1.
         -1    1    3    3    0  502 -0.62405894527E+02 -0.18672167589E+03 -0.85286140725E+02  0.21455350316E+03  0.00000000000E+00 0.  1.
         11    1    5    5    0    0 -0.26788430037E+02  0.11940143207E+03 -0.34225205525E+03  0.36347048200E+03  0.00000000000E+00 0. -1.
        -11    1    5    5    0    0  0.68031490908E+02  0.44990895911E+03 -0.11127157858E+04  0.12021575501E+04  0.00000000000E+00 0.  1.
          1    1    6    6  503    0  0.16563447868E+02  0.47920463795E+02 -0.88640158624E+01  0.51471248604E+02  0.00000000000E+00 0. -1.
         -1    1    6    6    0  503  0.17874550661E+01 -0.33567177356E+02  0.29491501020E+02  0.44717994406E+02  0.00000000000E+00 0.  1.
<mgrwt>
<rscale>  0 0.62776815E+03</rscale>
<asrwt>0</asrwt>
<pdfrwt beam="1">  1        2 0.31155177E+00 0.62776815E+03</pdfrwt>
<pdfrwt beam="2">  1       -2 0.45970277E-01 0.62776815E+03</pdfrwt>
<totfact> 0.30519334E+01</totfact>
</mgrwt>
</event>
<event>
12    1  0.1432447E-007  0.6369364E+03  0.7818608E-02  0.9831606E-01
         -3   -1    0    0    0  501 -0.00000000000E+00  0.00000000000E+00  0.81929980408E+03  0.81929980408E+03  0.00000000000E+00 0.  1.
          3   -1    0    0  501    0  0.00000000000E+00 -0.00000000000E+00 -0.67447433312E+03  0.67447433312E+03  0.00000000000E+00 0. -1.
         23    2    1    2    0    0  0.16963257195E+03 -0.59161511964E+03  0.12081014670E+03  0.63374038419E+03  0.90819181650E+02 0.  0.
    5000000    2    1    2    0    0 -0.16963257195E+03  0.59161511964E+03  0.24015324261E+02  0.86003375301E+03  0.60024799980E+03 0.  0.
         23    2    4    4    0    0 -0.13719070918E+03  0.50692416866E+03 -0.22537879589E+03  0.57876528931E+03  0.91543732771E+02 0.  0.
         23    2    4    4    0    0 -0.32441862767E+02  0.84690950971E+02  0.24939412015E+03  0.28126846370E+03  0.93217433300E+02 0.  0.
          1    1    3    3  502    0  0.13725784030E+01 -0.72400965247E+02 -0.82769329421E+01  0.72885467407E+02  0.00000000000E+00 0. -1.
         -1    1    3    3    0  502  0.16825999355E+03 -0.51921415439E+03  0.12908707964E+03  0.56085491678E+03  0.00000000000E+00 0.  1.
         11    1    5    5    0    0 -0.10855306156E+03  0.36402429141E+03 -0.11810835555E+03  0.39780275962E+03  0.00000000000E+00 0. -1.
        -11    1    5    5    0    0 -0.28637647622E+02  0.14289987726E+03 -0.10727044034E+03  0.18096252969E+03  0.00000000000E+00 0.  1.
          4    1    6    6  503    0 -0.26456886086E+02  0.10531130951E+03  0.20787776587E+03  0.23452847221E+03  0.00000000000E+00 0. -1.
         -4    1    6    6    0  503 -0.59849766818E+01 -0.20620358540E+02  0.41516354280E+02  0.46739991494E+02  0.00000000000E+00 0.  1.
<mgrwt>
<rscale>  0 0.63693635E+03</rscale>
<asrwt>0</asrwt>
<pdfrwt beam="1">  1        3 0.10376528E+00 0.63693635E+03</pdfrwt>
<pdfrwt beam="2">  1       -3 0.12604612E+00 0.63693635E+03</pdfrwt>
<totfact> 0.10474142E+00</totfact>
</mgrwt>
</event>
<event>
12    1  0.1432447E-007  0.4433901E+03  0.7818608E-02  0.1029712E+00
         -2   -1    0    0    0  501 -0.00000000000E+00  0.00000000000E+00  0.54366751718E+03  0.54366751718E+03  0.00000000000E+00 0.  1.
          2   -1    0    0  501    0  0.00000000000E+00 -0.00000000000E+00 -0.64091445230E+03  0.64091445230E+03  0.00000000000E+00 0. -1.
         23    2    1    2    0    0 -0.99980602251E+02 -0.41141383880E+03 -0.12915459155E+03  0.44956757901E+03  0.78566099552E+02 0.  0.
    5000000    2    1    2    0    0  0.99980602251E+02  0.41141383880E+03  0.31907656433E+02  0.73501439046E+03  0.59997548956E+03 0.  0.
         23    2    4    4    0    0  0.56855683887E+02  0.30799392310E+03  0.29205557148E+03  0.43752056940E+03  0.89637973865E+02 0.  0.
         23    2    4    4    0    0  0.43124918364E+02  0.10341991570E+03 -0.26014791505E+03  0.29749382107E+03  0.90940630742E+02 0.  0.
          3    1    3    3  502    0 -0.35392369574E+02 -0.28717761144E+03 -0.70897239927E+02  0.29790941402E+03  0.00000000000E+00 0. -1.
         -3    1    3    3    0  502 -0.64588232677E+02 -0.12423622736E+03 -0.58257351626E+02  0.15165816499E+03  0.00000000000E+00 0.  1.
         13    1    5    5    0    0  0.90488044427E+01  0.10215225232E+03  0.15427792225E+03  0.18525291040E+03  0.00000000000E+00 0.  1.
        -13    1    5    5    0    0  0.47806879445E+02  0.20584167078E+03  0.13777764923E+03  0.25226765900E+03  0.00000000000E+00 0. -1.
          1    1    6    6  503    0 -0.26357998213E+02  0.12685150220E+02 -0.66289697010E+02  0.72456752864E+02  0.00000000000E+00 0.  1.
         -1    1    6    6    0  503  0.69482916577E+02  0.90734765484E+02 -0.19385821804E+03  0.22503706820E+03  0.00000000000E+00 0. -1.
<mgrwt>
<rscale>  0 0.44339013E+03</rscale>
<asrwt>0</asrwt>
<pdfrwt beam="1">  1        2 0.98602223E-01 0.44339013E+03</pdfrwt>
<pdfrwt beam="2">  1       -2 0.83641157E-01 0.44339013E+03</pdfrwt>
<totfact> 0.59494906E+01</totfact>
</mgrwt>
</event>
<event>
12    1  0.1432447E-007  0.1151280E+04  0.7818608E-02  0.9156603E-01
         -2   -1    0    0    0  501 -0.00000000000E+00  0.00000000000E+00  0.14076093171E+04  0.14076093171E+04  0.00000000000E+00 0.  1.
          2   -1    0    0  501    0  0.00000000000E+00 -0.00000000000E+00 -0.96596417860E+03  0.96596417860E+03  0.00000000000E+00 0. -1.
         23    2    1    2    0    0  0.10623386862E+04 -0.22492988972E+03  0.18066393507E+03  0.11058719279E+04  0.10562350139E+03 0.  0.
    5000000    2    1    2    0    0 -0.10623386862E+04  0.22492988972E+03  0.26098120345E+03  0.12677015678E+04  0.59983259073E+03 0.  0.
         23    2    4    4    0    0 -0.10913831607E+02 -0.95241789890E+02 -0.73114227925E+01  0.13249557192E+03  0.91167480017E+02 0.  0.
         23    2    4    4    0    0 -0.10514248546E+04  0.32017167961E+03  0.26829262625E+03  0.11352059959E+04  0.93314470788E+02 0.  0.
          1    1    3    3  502    0  0.10289245866E+04 -0.22902362580E+03  0.15948981249E+03  0.10661025403E+04  0.00000000000E+00 0. -1.
         -1    1    3    3    0  502  0.33414099606E+02  0.40937360742E+01  0.21174122585E+02  0.39769387659E+02  0.00000000000E+00 0.  1.
         11    1    5    5    0    0 -0.36207083480E+02 -0.52092136730E+02 -0.37869830214E+02  0.73882796670E+02  0.00000000000E+00 0. -1.
        -11    1    5    5    0    0  0.25293251874E+02 -0.43149653160E+02  0.30558407421E+02  0.58612775248E+02  0.00000000000E+00 0.  1.
          2    1    6    6  503    0 -0.36065004717E+03  0.14491477572E+03  0.12501066156E+03  0.40828472204E+03  0.00000000000E+00 0.  1.
         -2    1    6    6    0  503 -0.69077480743E+03  0.17525690389E+03  0.14328196469E+03  0.72692127383E+03  0.00000000000E+00 0. -1.
<mgrwt>
<rscale>  0 0.11512804E+04</rscale>
<asrwt>0</asrwt>
<pdfrwt beam="1">  1        2 0.14860987E+00 0.11512804E+04</pdfrwt>
<pdfrwt beam="2">  1       -2 0.21655528E+00 0.11512804E+04</pdfrwt>
<totfact> 0.26934461E+00</totfact>
</mgrwt>
</event>
<event>
12    1  0.1432447E-007  0.8980924E+03  0.7818608E-02  0.9427969E-01
         -2   -1    0    0    0  501 -0.00000000000E+00  0.00000000000E+00  0.12993921771E+04  0.12993921771E+04  0.00000000000E+00 0.  1.
          2   -1    0    0  501    0  0.00000000000E+00 -0.00000000000E+00 -0.15514333500E+04  0.15514333500E+04  0.00000000000E+00 0. -1.
         23    2    1    2    0    0  0.69813665070E+03 -0.39138424238E+03 -0.12180001627E+04  0.14602675299E+04  0.90997001279E+02 0.  0.
    5000000    2    1    2    0    0 -0.69813665070E+03  0.39138424238E+03  0.96595898981E+03  0.13905579972E+04  0.59999863778E+03 0.  0.
         23    2    4    4    0    0 -0.56772083223E+03 -0.12166155955E+01  0.58894242261E+03  0.82333055334E+03  0.93335949140E+02 0.  0.
         23    2    4    4    0    0 -0.13041581847E+03  0.39260085798E+03  0.37701656719E+03  0.56722744386E+03  0.91987834729E+02 0.  0.
          1    1    3    3  502    0  0.27123206135E+03 -0.10376569567E+03 -0.46038666805E+03  0.54432530239E+03  0.00000000000E+00 0. -1.
         -1    1    3    3    0  502  0.42690458935E+03 -0.28761854672E+03 -0.75761349462E+03  0.91594222747E+03  0.00000000000E+00 0.  1.
         11    1    5    5    0    0 -0.11727577409E+03  0.10408550690E+02  0.17844612875E+03  0.21378719789E+03  0.00000000000E+00 0. -1.
        -11    1    5    5    0    0 -0.45044505814E+03 -0.11625166285E+02  0.41049629386E+03  0.60954335545E+03  0.00000000000E+00 0.  1.
          1    1    6    6  503    0 -0.66725271726E+02  0.31650904738E+03  0.27063369581E+03  0.42174973179E+03  0.00000000000E+00 0. -1.
         -1    1    6    6    0  503 -0.63690546748E+02  0.76091810603E+02  0.10638287138E+03  0.14547771207E+03  0.00000000000E+00 0.  1.
<mgrwt>
<rscale>  0 0.89809238E+03</rscale>
<asrwt>0</asrwt>
<pdfrwt beam="1">  1        2 0.23868205E+00 0.89809238E+03</pdfrwt>
<pdfrwt beam="2">  1       -2 0.19990649E+00 0.89809238E+03</pdfrwt>
<totfact> 0.15948319E+00</totfact>
</mgrwt>
</event>
<event>
12    1  0.1432447E-007  0.6902069E+03  0.7818608E-02  0.9734128E-01
          2   -1    0    0  501    0  0.00000000000E+00  0.00000000000E+00  0.11243356292E+04  0.11243356292E+04  0.00000000000E+00 0. -1.
         -2   -1    0    0    0  501 -0.00000000000E+00 -0.00000000000E+00 -0.54428654522E+03  0.54428654522E+03  0.00000000000E+00 0.  1.
         23    2    1    2    0    0  0.54564323550E+03  0.29560622334E+03 -0.24233620836E+01  0.62729254457E+03  0.91544983798E+02 0.  0.
    5000000    2    1    2    0    0 -0.54564323550E+03 -0.29560622334E+03  0.58247244605E+03  0.10413296298E+04  0.59998638973E+03 0.  0.
         23    2    4    4    0    0 -0.56657346706E+02  0.93349897475E+02  0.33358532492E+03  0.36241339809E+03  0.90222191369E+02 0.  0.
         23    2    4    4    0    0 -0.48898588880E+03 -0.38895612081E+03  0.24888712113E+03  0.67891623176E+03  0.92673552434E+02 0.  0.
          4    1    3    3  502    0  0.25767006435E+03  0.98517155267E+02  0.26529691268E+02  0.27713411277E+03  0.00000000000E+00 0. -1.
         -4    1    3    3    0  502  0.28797317115E+03  0.19708906807E+03 -0.28953053352E+02  0.35015843179E+03  0.00000000000E+00 0.  1.
         13    1    5    5    0    0 -0.43465642505E+02  0.10280114369E+02  0.19705898148E+03  0.20205738049E+03  0.00000000000E+00 0. -1.
        -13    1    5    5    0    0 -0.13191704201E+02  0.83069783106E+02  0.13652634344E+03  0.16035601760E+03  0.00000000000E+00 0.  1.
          2    1    6    6  503    0 -0.42393595644E+03 -0.31392182050E+03  0.17734888120E+03  0.55652603731E+03  0.00000000000E+00 0. -1.
         -2    1    6    6    0  503 -0.65049932358E+02 -0.75034300319E+02  0.71538239932E+02  0.12239019445E+03  0.00000000000E+00 0.  1.
<mgrwt>
<rscale>  0 0.69020686E+03</rscale>
<asrwt>0</asrwt>
<pdfrwt beam="1">  1        2 0.17297471E+00 0.69020686E+03</pdfrwt>
<pdfrwt beam="2">  1       -2 0.83736391E-01 0.69020686E+03</pdfrwt>
<totfact> 0.26879427E+01</totfact>
</mgrwt>
</event>
<event>
12    1  0.1432447E-007  0.4480696E+03  0.7818608E-02  0.1028299E+00
         -2   -1    0    0    0  501 -0.00000000000E+00  0.00000000000E+00  0.16235189437E+03  0.16235189437E+03  0.00000000000E+00 0. -1.
          2   -1    0    0  501    0  0.00000000000E+00 -0.00000000000E+00 -0.12837801358E+04  0.12837801358E+04  0.00000000000E+00 0.  1.
         23    2    1    2    0    0 -0.53065083660E+02 -0.23977623899E+03 -0.27145328224E+03  0.37707823466E+03  0.90512776606E+02 0.  0.
    5000000    2    1    2    0    0  0.53065083660E+02  0.23977623899E+03 -0.84997495914E+03  0.10690537955E+04  0.60009169177E+03 0.  0.
         23    2    4    4    0    0  0.30999241463E+03  0.11186335137E+03 -0.38128528513E+03  0.51217312496E+03  0.91291482409E+02 0.  0.
         23    2    4    4    0    0 -0.25692733097E+03  0.12791288763E+03 -0.46868967401E+03  0.55688067051E+03  0.89848263425E+02 0.  0.
          1    1    3    3  502    0 -0.34994212551E+02 -0.38759110655E+02 -0.23218404019E+02  0.57148559526E+02  0.00000000000E+00 0. -1.
         -1    1    3    3    0  502 -0.18070871109E+02 -0.20101712834E+03 -0.24823487822E+03  0.31992967514E+03  0.00000000000E+00 0.  1.
         11    1    5    5    0    0  0.25781263649E+03  0.53730732026E+02 -0.28211211103E+03  0.38592951466E+03  0.00000000000E+00 0. -1.
        -11    1    5    5    0    0  0.52179778143E+02  0.58132619342E+02 -0.99173174102E+02  0.12624361029E+03  0.00000000000E+00 0.  1.
          3    1    6    6  503    0 -0.24403655206E+03  0.89211046795E+02 -0.39959655397E+03  0.47664437011E+03  0.00000000000E+00 0. -1.
         -3    1    6    6    0  503 -0.12890778909E+02  0.38701840831E+02 -0.69093120045E+02  0.80236300402E+02  0.00000000000E+00 0.  1.
<mgrwt>
<rscale>  0 0.44806960E+03</rscale>
<asrwt>0</asrwt>
<pdfrwt beam="1">  1        2 0.19750463E+00 0.44806960E+03</pdfrwt>
<pdfrwt beam="2">  1       -2 0.24977215E-01 0.44806960E+03</pdfrwt>
<totfact> 0.25137408E+02</totfact>
</mgrwt>
</event>
<event>
12    1  0.1432447E-007  0.5902143E+03  0.7818608E-02  0.9925919E-01
          1   -1    0    0  501    0  0.00000000000E+00  0.00000000000E+00  0.23169395528E+04  0.23169395528E+04  0.00000000000E+00 0. -1.
         -1   -1    0    0    0  501 -0.00000000000E+00 -0.00000000000E+00 -0.18109490210E+03  0.18109490210E+03  0.00000000000E+00 0.  1.
         23    2    1    2    0    0 -0.14659233424E+03 -0.44870916507E+03  0.50791851730E+03  0.70001048952E+03  0.95938719729E+02 0.  0.
    5000000    2    1    2    0    0  0.14659233424E+03  0.44870916507E+03  0.16279261334E+04  0.17980239654E+04  0.59993121026E+03 0.  0.
         23    2    4    4    0    0  0.31891350095E+03  0.14951816007E+03  0.11125970437E+04  0.11706096565E+04  0.91614872923E+02 0.  0.
         23    2    4    4    0    0 -0.17232116670E+03  0.29919100500E+03  0.51532908969E+03  0.62741430889E+03  0.94206169407E+02 0.  0.
          3    1    3    3  502    0 -0.56315783825E+02 -0.17915142732E+03  0.27233965436E+03  0.33081050279E+03  0.00000000000E+00 0. -1.
         -3    1    3    3    0  502 -0.90276550420E+02 -0.26955773775E+03  0.23557886294E+03  0.36919998673E+03  0.00000000000E+00 0.  1.
         11    1    5    5    0    0  0.22772540385E+02 -0.11447582878E+02  0.10834084748E+03  0.11129858481E+03  0.00000000000E+00 0. -1.
        -11    1    5    5    0    0  0.29614096056E+03  0.16096574295E+03  0.10042561963E+04  0.10593110717E+04  0.00000000000E+00 0.  1.
          3    1    6    6  503    0 -0.11060724825E+03  0.17293458571E+03  0.22323804418E+03  0.30327472475E+03  0.00000000000E+00 0. -1.
         -3    1    6    6    0  503 -0.61713918454E+02  0.12625641929E+03  0.29209104551E+03  0.32413958415E+03  0.00000000000E+00 0.  1.
<mgrwt>
<rscale>  0 0.59021435E+03</rscale>
<asrwt>0</asrwt>
<pdfrwt beam="1">  1        1 0.35645222E+00 0.59021435E+03</pdfrwt>
<pdfrwt beam="2">  1       -1 0.27860756E-01 0.59021435E+03</pdfrwt>
<totfact> 0.22544402E+01</totfact>
</mgrwt>
</event>
<event>
12    1  0.1432447E-007  0.1887605E+04  0.7818608E-02  0.8661051E-01
          2   -1    0    0  501    0  0.00000000000E+00  0.00000000000E+00  0.25833269670E+04  0.25833269670E+04  0.00000000000E+00 0. -1.
         -2   -1    0    0    0  501 -0.00000000000E+00 -0.00000000000E+00 -0.14364332070E+04  0.14364332070E+04  0.00000000000E+00 0.  1.
         23    2    1    2    0    0 -0.18777347298E+04 -0.35012856846E+02  0.51715825994E+03  0.19500635260E+04  0.90451501847E+02 0.  0.
    5000000    2    1    2    0    0  0.18777347298E+04  0.35012856846E+02  0.62973550002E+03  0.20696966480E+04  0.59996983214E+03 0.  0.
         23    2    4    4    0    0  0.51043134736E+03 -0.82878474782E+02  0.43434010777E+03  0.68123142857E+03  0.89531715593E+02 0.  0.
         23    2    4    4    0    0  0.13673033824E+04  0.11789133163E+03  0.19539539225E+03  0.13884652195E+04  0.78989877907E+02 0.  0.
          2    1    3    3  502    0 -0.15148967342E+04  0.46161397088E+01  0.40205256218E+03  0.15673479789E+04  0.00000000000E+00 0. -1.
         -2    1    3    3    0  502 -0.36283799555E+03 -0.39628996554E+02  0.11510569776E+03  0.38271554716E+03  0.00000000000E+00 0.  1.
         11    1    5    5    0    0  0.34357952593E+02 -0.24325053967E+02  0.16904876612E+02  0.45364655958E+02  0.00000000000E+00 0. -1.
        -11    1    5    5    0    0  0.47607339477E+03 -0.58553420815E+02  0.41743523116E+03  0.63586677261E+03  0.00000000000E+00 0.  1.
          3    1    6    6  503    0  0.39247137764E+03  0.80729432100E+01  0.30871224519E+02  0.39376641195E+03  0.00000000000E+00 0. -1.
         -3    1    6    6    0  503  0.97483200476E+03  0.10981838842E+03  0.16452416773E+03  0.99469880753E+03  0.00000000000E+00 0.  1.
<mgrwt>
<rscale>  0 0.18876050E+04</rscale>
<asrwt>0</asrwt>
<pdfrwt beam="1">  1        2 0.39743492E+00 0.18876050E+04</pdfrwt>
<pdfrwt beam="2">  1       -2 0.22098972E+00 0.18876050E+04</pdfrwt>
<totfact> 0.27339573E-01</totfact>
</mgrwt>
</event>
<event>
12    1  0.1432447E-007  0.2364797E+04  0.7818608E-02  0.8452802E-01
          2   -1    0    0  501    0  0.00000000000E+00  0.00000000000E+00  0.29998331292E+04  0.29998331292E+04  0.00000000000E+00 0. -1.
         -2   -1    0    0    0  501 -0.00000000000E+00 -0.00000000000E+00 -0.26164134527E+04  0.26164134527E+04  0.00000000000E+00 0.  1.
         23    2    1    2    0    0  0.18492220969E+04 -0.14382070587E+04  0.16684636235E+04  0.28777329993E+04  0.97542015207E+02 0.  0.
    5000000    2    1    2    0    0 -0.18492220969E+04  0.14382070587E+04 -0.12850439470E+04  0.27385135827E+04  0.60004732258E+03 0.  0.
         23    2    4    4    0    0 -0.92358645824E+03  0.98616709011E+03 -0.51388297948E+03  0.14484770415E+04  0.92046443877E+02 0.  0.
         23    2    4    4    0    0 -0.92563563868E+03  0.45203996854E+03 -0.77116096753E+03  0.12900365411E+04  0.91452560324E+02 0.  0.
          4    1    3    3  502    0  0.74789344289E+03 -0.53988418369E+03  0.69904571861E+03  0.11573609854E+04  0.00000000000E+00 0. -1.
         -4    1    3    3    0  502  0.11013286540E+04 -0.89832287496E+03  0.96941790490E+03  0.17203720139E+04  0.00000000000E+00 0.  1.
         13    1    5    5    0    0 -0.18028774502E+03  0.21905953392E+03 -0.73269927647E+02  0.29301746144E+03  0.00000000000E+00 0. -1.
        -13    1    5    5    0    0 -0.74329871322E+03  0.76710755619E+03 -0.44061305184E+03  0.11554595801E+04  0.00000000000E+00 0.  1.
          4    1    6    6  503    0 -0.50814122569E+02  0.33534605426E+01 -0.41260485168E+02  0.65541958975E+02  0.00000000000E+00 0.  1.
         -4    1    6    6    0  503 -0.87482151611E+03  0.44868650800E+03 -0.72990048237E+03  0.12244945821E+04  0.00000000000E+00 0. -1.
<mgrwt>
<rscale>  0 0.23647966E+04</rscale>
<asrwt>0</asrwt>
<pdfrwt beam="1">  1        2 0.46151279E+00 0.23647966E+04</pdfrwt>
<pdfrwt beam="2">  1       -2 0.40252515E+00 0.23647966E+04</pdfrwt>
<totfact> 0.10519873E-02</totfact>
</mgrwt>
</event>
<event>
12    1  0.1432447E-007  0.5215528E+03  0.7818608E-02  0.1008302E+00
          1   -1    0    0  501    0  0.00000000000E+00  0.00000000000E+00  0.14692294138E+04  0.14692294138E+04  0.00000000000E+00 0. -1.
         -1   -1    0    0    0  501 -0.00000000000E+00 -0.00000000000E+00 -0.20509140716E+03  0.20509140716E+03  0.00000000000E+00 0.  1.
         23    2    1    2    0    0  0.36607105436E+03 -0.40537726285E+02  0.58374669859E+03  0.69601302139E+03  0.89568932895E+02 0.  0.
    5000000    2    1    2    0    0 -0.36607105436E+03  0.40537726285E+02  0.68039130804E+03  0.97830779957E+03  0.59875077832E+03 0.  0.
         23    2    4    4    0    0  0.95180861752E+02 -0.13526047371E+03  0.11962316575E+03  0.22665878563E+03  0.98537866461E+02 0.  0.
         23    2    4    4    0    0 -0.46125191611E+03  0.17579819999E+03  0.56076814229E+03  0.75164901394E+03  0.82806965355E+02 0.  0.
          1    1    3    3  502    0  0.29949392281E+03  0.25058982190E+01  0.45086031529E+03  0.54127434193E+03  0.00000000000E+00 0. -1.
         -1    1    3    3    0  502  0.66577131551E+02 -0.43043624504E+02  0.13288638329E+03  0.15473867946E+03  0.00000000000E+00 0.  1.
         11    1    5    5    0    0  0.85127668254E+02 -0.96518790767E+02  0.13240290071E+03  0.18464323705E+03  0.00000000000E+00 0. -1.
        -11    1    5    5    0    0  0.10053193498E+02 -0.38741682939E+02 -0.12779734956E+02  0.42015548575E+02  0.00000000000E+00 0.  1.
          2    1    6    6  503    0 -0.43694228984E+02  0.31298849574E+02  0.98278030896E+02  0.11201506590E+03  0.00000000000E+00 0. -1.
         -2    1    6    6    0  503 -0.41755768713E+03  0.14449935042E+03  0.46249011139E+03  0.63963394804E+03  0.00000000000E+00 0.  1.
<mgrwt>
<rscale>  0 0.52155285E+03</rscale>
<asrwt>0</asrwt>
<pdfrwt beam="1">  1        1 0.22603529E+00 0.52155285E+03</pdfrwt>
<pdfrwt beam="2">  1       -1 0.31552525E-01 0.52155285E+03</pdfrwt>
<totfact> 0.67631685E+01</totfact>
</mgrwt>
</event>
<event>
12    1  0.1432447E-007  0.5157131E+03  0.7818608E-02  0.1009757E+00
          2   -1    0    0  501    0  0.00000000000E+00  0.00000000000E+00  0.47798629951E+03  0.47798629951E+03  0.00000000000E+00 0. -1.
         -2   -1    0    0    0  501 -0.00000000000E+00 -0.00000000000E+00 -0.82273907800E+03  0.82273907800E+03  0.00000000000E+00 0.  1.
         23    2    1    2    0    0  0.10178338761E+03  0.39693728549E+03  0.12151290654E+03  0.43748061746E+03  0.93299719139E+02 0.  0.
    5000000    2    1    2    0    0 -0.10178338761E+03 -0.39693728549E+03 -0.46626568503E+03  0.86324476004E+03  0.59989062345E+03 0.  0.
         23    2    4    4    0    0 -0.25805325159E+03 -0.10375156848E+03 -0.12311549792E+02  0.29349747492E+03  0.92915687111E+02 0.  0.
         23    2    4    4    0    0  0.15626986398E+03 -0.29318571701E+03 -0.45395413524E+03  0.56974728512E+03  0.90329823175E+02 0.  0.
          1    1    3    3  502    0  0.11306058204E+01  0.12597946555E+03  0.69192670696E+02  0.14373492856E+03  0.00000000000E+00 0. -1.
         -1    1    3    3    0  502  0.10065278179E+03  0.27095781995E+03  0.52320235840E+02  0.29374568890E+03  0.00000000000E+00 0.  1.
         11    1    5    5    0    0 -0.20853769752E+03 -0.77973273053E+02 -0.47310373443E+02  0.22760947703E+03  0.00000000000E+00 0. -1.
        -11    1    5    5    0    0 -0.49515554067E+02 -0.25778295428E+02  0.34998823651E+02  0.65887997896E+02  0.00000000000E+00 0.  1.
          1    1    6    6  503    0  0.10412490838E+03 -0.12967013931E+03 -0.16902498412E+03  0.23711977317E+03  0.00000000000E+00 0.  1.
         -1    1    6    6    0  503  0.52144955595E+02 -0.16351557770E+03 -0.28492915112E+03  0.33262751195E+03  0.00000000000E+00 0. -1.
<mgrwt>
<rscale>  0 0.51571307E+03</rscale>
<asrwt>0</asrwt>
<pdfrwt beam="1">  1        2 0.73536354E-01 0.51571307E+03</pdfrwt>
<pdfrwt beam="2">  1       -2 0.12657524E+00 0.51571307E+03</pdfrwt>
<totfact> 0.31171840E+01</totfact>
</mgrwt>
</event>
<event>
12    1  0.1432447E-007  0.5615354E+03  0.7818608E-02  0.9988586E-01
          2   -1    0    0  501    0  0.00000000000E+00  0.00000000000E+00  0.14884904367E+04  0.14884904367E+04  0.00000000000E+00 0.  1.
         -2   -1    0    0    0  501 -0.00000000000E+00 -0.00000000000E+00 -0.47856110748E+03  0.47856110748E+03  0.00000000000E+00 0. -1.
         23    2    1    2    0    0  0.27781034659E+03  0.42277408406E+03 -0.17734969215E+03  0.54384374201E+03  0.91632895833E+02 0.  0.
    5000000    2    1    2    0    0 -0.27781034659E+03 -0.42277408406E+03  0.11872790214E+04  0.14232078021E+04  0.59997704849E+03 0.  0.
         23    2    4    4    0    0  0.61647262454E+02 -0.17965190839E+03  0.85951089469E+03  0.88472380981E+03  0.88893466565E+02 0.  0.
         23    2    4    4    0    0 -0.33945760904E+03 -0.24312217567E+03  0.32776812666E+03  0.53848399233E+03  0.90516321755E+02 0.  0.
          4    1    3    3  502    0  0.22548955925E+03  0.39511874538E+03 -0.15716485851E+03  0.48131606770E+03  0.00000000000E+00 0.  1.
         -4    1    3    3    0  502  0.52320787342E+02  0.27655338680E+02 -0.20184833645E+02  0.62527674312E+02  0.00000000000E+00 0. -1.
         13    1    5    5    0    0  0.30563250200E+02 -0.59825316625E+02  0.14812746181E+03  0.16264970248E+03  0.00000000000E+00 0. -1.
        -13    1    5    5    0    0  0.31084012254E+02 -0.11982659177E+03  0.71138343288E+03  0.72207410734E+03  0.00000000000E+00 0.  1.
          3    1    6    6  503    0 -0.23039013582E+03 -0.17593085447E+03  0.17301120029E+03  0.33758577527E+03  0.00000000000E+00 0. -1.
         -3    1    6    6    0  503 -0.10906747322E+03 -0.67191321193E+02  0.15475692637E+03  0.20089821706E+03  0.00000000000E+00 0.  1.
<mgrwt>
<rscale>  0 0.56153543E+03</rscale>
<asrwt>0</asrwt>
<pdfrwt beam="1">  1        2 0.22899853E+00 0.56153543E+03</pdfrwt>
<pdfrwt beam="2">  1       -2 0.73624787E-01 0.56153543E+03</pdfrwt>
<totfact> 0.22525779E+01</totfact>
</mgrwt>
</event>
<event>
12    1  0.1432447E-007  0.3558671E+03  0.7818608E-02  0.1060232E+00
          2   -1    0    0  501    0  0.00000000000E+00  0.00000000000E+00  0.89907994132E+03  0.89907994132E+03  0.00000000000E+00 0. -1.
         -2   -1    0    0    0  501 -0.00000000000E+00 -0.00000000000E+00 -0.39095791493E+03  0.39095791493E+03  0.00000000000E+00 0.  1.
         23    2    1    2    0    0 -0.29532057508E+03 -0.40753026820E+02 -0.15429435333E+03  0.34797636422E+03  0.91682884609E+02 0.  0.
    5000000    2    1    2    0    0  0.29532057508E+03  0.40753026820E+02  0.66241637971E+03  0.94206149203E+03  0.59984109845E+03 0.  0.
         23    2    4    4    0    0  0.12567885703E+03  0.13538136779E+03 -0.38646152012E+02  0.20902373946E+03  0.89856044543E+02 0.  0.
         23    2    4    4    0    0  0.16964171804E+03 -0.94628340974E+02  0.70106253173E+03  0.73303775257E+03  0.90126787843E+02 0.  0.
          3    1    3    3  502    0 -0.20102336710E+03 -0.57376380235E+02 -0.13891561595E+03  0.25099799100E+03  0.00000000000E+00 0. -1.
         -3    1    3    3    0  502 -0.94297207972E+02  0.16623353415E+02 -0.15378737382E+02  0.96978373226E+02  0.00000000000E+00 0.  1.
         11    1    5    5    0    0  0.10610267097E+03  0.52819707856E+02 -0.79430410319E+01  0.11878884722E+03  0.00000000000E+00 0.  1.
        -11    1    5    5    0    0  0.19576186067E+02  0.82561659937E+02 -0.30703110980E+02  0.90234892233E+02  0.00000000000E+00 0. -1.
          3    1    6    6  503    0  0.67474984182E+02 -0.50190302229E+01  0.35221263201E+03  0.35865276007E+03  0.00000000000E+00 0. -1.
         -3    1    6    6    0  503  0.10216673386E+03 -0.89609310751E+02  0.34884989971E+03  0.37438499250E+03  0.00000000000E+00 0.  1.
<mgrwt>
<rscale>  0 0.35586712E+03</rscale>
<asrwt>0</asrwt>
<pdfrwt beam="1">  1        2 0.13831999E+00 0.35586712E+03</pdfrwt>
<pdfrwt beam="2">  1       -2 0.60147372E-01 0.35586712E+03</pdfrwt>
<totfact> 0.79932716E+01</totfact>
</mgrwt>
</event>
<event>
12    1  0.1432447E-007  0.7388217E+03  0.7818608E-02  0.9653052E-01
          1   -1    0    0  501    0  0.00000000000E+00  0.00000000000E+00  0.16973764079E+04  0.16973764079E+04  0.00000000000E+00 0. -1.
         -1   -1    0    0    0  501 -0.00000000000E+00 -0.00000000000E+00 -0.65800686281E+03  0.65800686281E+03  0.00000000000E+00 0.  1.
         23    2    1    2    0    0  0.64151953924E+03  0.14655261620E+02 -0.33089971860E+03  0.72767903332E+03  0.90884849368E+02 0.  0.
    5000000    2    1    2    0    0 -0.64151953924E+03 -0.14655261620E+02  0.13702692636E+04  0.16277042374E+04  0.60001761098E+03 0.  0.
         23    2    4    4    0    0 -0.72313468350E+03  0.25402177366E+02  0.12685585932E+04  0.14633011249E+04  0.91870761327E+02 0.  0.
         23    2    4    4    0    0  0.81615144267E+02 -0.40057438987E+02  0.10171067046E+03  0.16440311242E+03  0.91747984693E+02 0.  0.
          4    1    3    3  502    0  0.27530873645E+03  0.36487324675E+02 -0.10533774954E+03  0.29702233368E+03  0.00000000000E+00 0. -1.
         -4    1    3    3    0  502  0.36621080279E+03 -0.21832063055E+02 -0.22556196906E+03  0.43065669964E+03  0.00000000000E+00 0.  1.
         11    1    5    5    0    0 -0.52563789371E+03 -0.50286063721E+01  0.84850740729E+03  0.99814092312E+03  0.00000000000E+00 0.  1.
        -11    1    5    5    0    0 -0.19749678980E+03  0.30430783738E+02  0.42005118589E+03  0.46516020181E+03  0.00000000000E+00 0. -1.
          2    1    6    6  503    0  0.71651056716E+02 -0.54505499558E+02  0.11228043872E+03  0.14391532347E+03  0.00000000000E+00 0. -1.
         -2    1    6    6    0  503  0.99640875516E+01  0.14448060571E+02 -0.10569768257E+02  0.20487788949E+02  0.00000000000E+00 0.  1.
<mgrwt>
<rscale>  0 0.73882175E+03</rscale>
<asrwt>0</asrwt>
<pdfrwt beam="1">  1        1 0.26113483E+00 0.73882175E+03</pdfrwt>
<pdfrwt beam="2">  1       -1 0.10123183E+00 0.73882175E+03</pdfrwt>
<totfact> 0.46442910E+00</totfact>
</mgrwt>
</event>
<event>
12    1  0.1432447E-007  0.5324884E+03  0.7818608E-02  0.1005630E+00
          2   -1    0    0  501    0  0.00000000000E+00  0.00000000000E+00  0.16490985016E+04  0.16490985016E+04  0.00000000000E+00 0. -1.
         -2   -1    0    0    0  501 -0.00000000000E+00 -0.00000000000E+00 -0.31715177157E+03  0.31715177157E+03  0.00000000000E+00 0.  1.
         23    2    1    2    0    0  0.37204273910E+03 -0.10309844330E+02 -0.76230988070E+02  0.39090210826E+03  0.92039133454E+02 0.  0.
    5000000    2    1    2    0    0 -0.37204273910E+03  0.10309844330E+02  0.14081777181E+04  0.15753481649E+04  0.60019601993E+03 0.  0.
         23    2    4    4    0    0 -0.11519186690E+03 -0.27111217723E+03  0.50197467461E+03  0.58887995005E+03  0.89610505958E+02 0.  0.
         23    2    4    4    0    0 -0.25685087220E+03  0.28142202156E+03  0.90620304347E+03  0.98646821485E+03  0.82127085324E+02 0.  0.
          3    1    3    3  502    0  0.23281199140E+03 -0.43729341256E+02 -0.22430825366E+02  0.23794289347E+03  0.00000000000E+00 0. -1.
         -3    1    3    3    0  502  0.13923074770E+03  0.33419496926E+02 -0.53800162705E+02  0.15295921479E+03  0.00000000000E+00 0.  1.
         13    1    5    5    0    0 -0.45575639187E+02 -0.15736014940E+03  0.35154942082E+03  0.38784836056E+03  0.00000000000E+00 0.  1.
        -13    1    5    5    0    0 -0.69616227717E+02 -0.11375202783E+03  0.15042525379E+03  0.20103158950E+03  0.00000000000E+00 0. -1.
          1    1    6    6  503    0 -0.11026272890E+03  0.70555879645E+02  0.35527386204E+03  0.37862318812E+03  0.00000000000E+00 0. -1.
         -1    1    6    6    0  503 -0.14658814330E+03  0.21086614191E+03  0.55092918144E+03  0.60784502673E+03  0.00000000000E+00 0.  1.
<mgrwt>
<rscale>  0 0.53248840E+03</rscale>
<asrwt>0</asrwt>
<pdfrwt beam="1">  1        2 0.25370746E+00 0.53248840E+03</pdfrwt>
<pdfrwt beam="2">  1       -2 0.48792581E-01 0.53248840E+03</pdfrwt>
<totfact> 0.43924183E+01</totfact>
</mgrwt>
</event>
<event>
12    1  0.1432447E-007  0.6056034E+03  0.7818608E-02  0.9893849E-01
          1   -1    0    0  501    0  0.00000000000E+00  0.00000000000E+00  0.42230261180E+04  0.42230261180E+04  0.00000000000E+00 0. -1.
         -1   -1    0    0    0  501 -0.00000000000E+00 -0.00000000000E+00 -0.96550980313E+02  0.96550980313E+02  0.00000000000E+00 0.  1.
         23    2    1    2    0    0  0.48607823357E+03  0.70203722535E+02  0.17505454809E+04  0.18203306283E+04  0.89406397491E+02 0.  0.
    5000000    2    1    2    0    0 -0.48607823357E+03 -0.70203722535E+02  0.23759296568E+04  0.24992464700E+04  0.59999214322E+03 0.  0.
         23    2    4    4    0    0 -0.57985864257E+03 -0.85137879418E+02  0.22136941347E+04  0.22918759621E+04  0.93644006477E+02 0.  0.
         23    2    4    4    0    0  0.93780408995E+02  0.14934156883E+02  0.16223552215E+03  0.20737050791E+03  0.87546380564E+02 0.  0.
          3    1    3    3  502    0  0.36044323164E+03  0.59475130302E+02  0.14287057412E+04  0.14746717293E+04  0.00000000000E+00 0. -1.
         -3    1    3    3    0  502  0.12563500193E+03  0.10728592233E+02  0.32183973969E+03  0.34565889898E+03  0.00000000000E+00 0.  1.
         13    1    5    5    0    0 -0.17217830304E+02  0.11894203527E+02  0.51980602884E+02  0.56034889436E+02  0.00000000000E+00 0.  1.
        -13    1    5    5    0    0 -0.56264081226E+03 -0.97032082945E+02  0.21617135318E+04  0.22358410727E+04  0.00000000000E+00 0. -1.
          4    1    6    6  503    0  0.10963214156E+03  0.19664264081E+02  0.14982281777E+03  0.18668895648E+03  0.00000000000E+00 0. -1.
         -4    1    6    6    0  503 -0.15851732569E+02 -0.47301071982E+01  0.12412704374E+02  0.20681551427E+02  0.00000000000E+00 0.  1.
<mgrwt>
<rscale>  0 0.60560336E+03</rscale>
<asrwt>0</asrwt>
<pdfrwt beam="1">  1        1 0.64969618E+00 0.60560336E+03</pdfrwt>
<pdfrwt beam="2">  1       -1 0.14854000E-01 0.60560336E+03</pdfrwt>
<totfact> 0.23068321E+00</totfact>
</mgrwt>
</event>
<event>
12    1  0.1432447E-007  0.4490582E+03  0.7818608E-02  0.1028003E+00
          2   -1    0    0  501    0  0.00000000000E+00  0.00000000000E+00  0.90580447697E+03  0.90580447697E+03  0.00000000000E+00 0.  1.
         -2   -1    0    0    0  501 -0.00000000000E+00 -0.00000000000E+00 -0.29510218650E+03  0.29510218650E+03  0.00000000000E+00 0. -1.
         23    2    1    2    0    0 -0.25049682928E+03  0.15231572635E+03  0.17640367196E+02  0.30773355480E+03  0.91869560905E+02 0.  0.
    5000000    2    1    2    0    0  0.25049682928E+03 -0.15231572635E+03  0.59306192327E+03  0.89317310868E+03  0.60007250833E+03 0.  0.
         23    2    4    4    0    0 -0.92471896476E+02  0.10243787066E+03  0.36895026456E+03  0.40426905141E+03  0.90909841229E+02 0.  0.
         23    2    4    4    0    0  0.34296872576E+03 -0.25475359701E+03  0.22411165872E+03  0.48890405726E+03  0.79209845325E+02 0.  0.
          4    1    3    3  502    0 -0.55948405202E+02  0.83499140452E+02 -0.11698271429E+01  0.10051715772E+03  0.00000000000E+00 0. -1.
         -4    1    3    3    0  502 -0.19454842408E+03  0.68816585895E+02  0.18810194339E+02  0.20721639708E+03  0.00000000000E+00 0.  1.
         11    1    5    5    0    0 -0.83222454045E+02  0.11883736111E+03  0.34087850557E+03  0.37046788095E+03  0.00000000000E+00 0. -1.
        -11    1    5    5    0    0 -0.92494424311E+01 -0.16399490453E+02  0.28071758984E+02  0.33801170465E+02  0.00000000000E+00 0.  1.
          4    1    6    6  503    0  0.71079158234E+02 -0.48069320095E+02  0.82966332820E+02  0.11935794339E+03  0.00000000000E+00 0.  1.
         -4    1    6    6    0  503  0.27188956753E+03 -0.20668427691E+03  0.14114532590E+03  0.36954611387E+03  0.00000000000E+00 0. -1.
<mgrwt>
<rscale>  0 0.44905818E+03</rscale>
<asrwt>0</asrwt>
<pdfrwt beam="1">  1        2 0.13935453E+00 0.44905818E+03</pdfrwt>
<pdfrwt beam="2">  1       -2 0.45400337E-01 0.44905818E+03</pdfrwt>
<totfact> 0.13857380E+02</totfact>
</mgrwt>
</event>
<event>
12    1  0.1432447E-007  0.9559003E+03  0.7818608E-02  0.9358280E-01
         -2   -1    0    0    0  501 -0.00000000000E+00  0.00000000000E+00  0.28071407050E+03  0.28071407050E+03  0.00000000000E+00 0.  1.
          2   -1    0    0  501    0  0.00000000000E+00 -0.00000000000E+00 -0.38026749243E+04  0.38026749243E+04  0.00000000000E+00 0. -1.
         23    2    1    2    0    0 -0.63551034725E+03 -0.68664086010E+03 -0.13719155682E+04  0.16630592349E+04  0.90909956772E+02 0.  0.
    5000000    2    1    2    0    0  0.63551034725E+03  0.68664086010E+03 -0.21500452856E+04  0.24203297599E+04  0.59996028565E+03 0.  0.
         23    2    4    4    0    0  0.25958426112E+03  0.46049286845E+03 -0.17105484976E+04  0.17926254826E+04  0.89957143456E+02 0.  0.
         23    2    4    4    0    0  0.37592608613E+03  0.22614799165E+03 -0.43949678797E+03  0.62770427730E+03  0.91607296322E+02 0.  0.
          4    1    3    3  502    0 -0.41158001993E+03 -0.46277853128E+03 -0.83292419713E+03  0.10379425803E+04  0.00000000000E+00 0. -1.
         -4    1    3    3    0  502 -0.22393032732E+03 -0.22386232882E+03 -0.53899137108E+03  0.62511665460E+03  0.00000000000E+00 0.  1.
         11    1    5    5    0    0  0.12261487312E+03  0.30646636970E+03 -0.10464863645E+04  0.10973102360E+04  0.00000000000E+00 0.  1.
        -11    1    5    5    0    0  0.13696938800E+03  0.15402649874E+03 -0.66406213308E+03  0.69531524660E+03  0.00000000000E+00 0. -1.
          3    1    6    6  503    0  0.28341659957E+03  0.15579808027E+03 -0.37345367287E+03  0.49403001579E+03  0.00000000000E+00 0. -1.
         -3    1    6    6    0  503  0.92509486569E+02  0.70349911385E+02 -0.66043115099E+02  0.13367426151E+03  0.00000000000E+00 0.  1.
<mgrwt>
<rscale>  0 0.95590032E+03</rscale>
<asrwt>0</asrwt>
<pdfrwt beam="1">  1        2 0.58502687E+00 0.95590032E+03</pdfrwt>
<pdfrwt beam="2">  1       -2 0.43186783E-01 0.95590032E+03</pdfrwt>
<totfact> 0.26224724E+00</totfact>
</mgrwt>
</event>
<event>
12    1  0.1432447E-007  0.6979015E+03  0.7818608E-02  0.9720828E-01
          2   -1    0    0  501    0  0.00000000000E+00  0.00000000000E+00  0.59873336068E+03  0.59873336068E+03  0.00000000000E+00 0.  1.
         -2   -1    0    0    0  501 -0.00000000000E+00 -0.00000000000E+00 -0.84964722629E+03  0.84964722629E+03  0.00000000000E+00 0. -1.
         23    2    1    2    0    0 -0.41411658555E+03  0.41022870131E+03 -0.93454349273E+02  0.59719014001E+03  0.90123327273E+02 0.  0.
    5000000    2    1    2    0    0  0.41411658555E+03 -0.41022870131E+03 -0.15745951634E+03  0.85119044696E+03  0.59995961856E+03 0.  0.
         23    2    4    4    0    0  0.10986371482E+03  0.13624272230E+03 -0.82490600104E+02  0.21482817226E+03  0.93350571899E+02 0.  0.
         23    2    4    4    0    0  0.30425287073E+03 -0.54647142362E+03 -0.74968916236E+02  0.63636227471E+03  0.90198559265E+02 0.  0.
          3    1    3    3  502    0 -0.16317567552E+03  0.22118975197E+03 -0.59030508272E+02  0.28113307946E+03  0.00000000000E+00 0. -1.
         -3    1    3    3    0  502 -0.25094091003E+03  0.18903894934E+03 -0.34423841001E+02  0.31605706055E+03  0.00000000000E+00 0.  1.
         13    1    5    5    0    0  0.44750457063E+02  0.23943633200E+02  0.14501111305E+02  0.52784308343E+02  0.00000000000E+00 0.  1.
        -13    1    5    5    0    0  0.65113257760E+02  0.11229908910E+03 -0.96991711409E+02  0.16204386391E+03  0.00000000000E+00 0. -1.
          3    1    6    6  503    0  0.16019669090E+03 -0.31862193346E+03 -0.84961381557E+02  0.36660790037E+03  0.00000000000E+00 0. -1.
         -3    1    6    6    0  503  0.14405617983E+03 -0.22784949015E+03  0.99924653215E+01  0.26975437433E+03  0.00000000000E+00 0.  1.
<mgrwt>
<rscale>  0 0.69790151E+03</rscale>
<asrwt>0</asrwt>
<pdfrwt beam="1">  1        2 0.92112825E-01 0.69790151E+03</pdfrwt>
<pdfrwt beam="2">  1       -2 0.13071496E+00 0.69790151E+03</pdfrwt>
<totfact> 0.21683665E+01</totfact>
</mgrwt>
</event>
<event>
12    1  0.1432447E-007  0.1065421E+04  0.7818608E-02  0.9239566E-01
         -2   -1    0    0    0  501 -0.00000000000E+00  0.00000000000E+00  0.76671401794E+03  0.76671401794E+03  0.00000000000E+00 0.  1.
          2   -1    0    0  501    0  0.00000000000E+00 -0.00000000000E+00 -0.17658071216E+04  0.17658071216E+04  0.00000000000E+00 0. -1.
         23    2    1    2    0    0 -0.39759523492E+03 -0.93731454596E+03 -0.62000148908E+02  0.10242557094E+04  0.92818159983E+02 0.  0.
    5000000    2    1    2    0    0  0.39759523492E+03  0.93731454596E+03 -0.93709295476E+03  0.15082654302E+04  0.60006739044E+03 0.  0.
         23    2    4    4    0    0 -0.84711914538E+02  0.23877456436E+03 -0.45222829825E+03  0.52642619127E+03  0.91786164893E+02 0.  0.
         23    2    4    4    0    0  0.48230714946E+03  0.69853998160E+03 -0.48486465650E+03  0.98183923889E+03  0.91303141167E+02 0.  0.
          1    1    3    3  502    0 -0.31708196958E+03 -0.82763119451E+03 -0.56090104404E+02  0.88806557718E+03  0.00000000000E+00 0. -1.
         -1    1    3    3    0  502 -0.80513265344E+02 -0.10968335145E+03 -0.59100445041E+01  0.13619013219E+03  0.00000000000E+00 0.  1.
         13    1    5    5    0    0 -0.51227777761E+02  0.99973352117E+02 -0.28613966716E+03  0.30740017155E+03  0.00000000000E+00 0. -1.
        -13    1    5    5    0    0 -0.33484136777E+02  0.13880121224E+03 -0.16608863109E+03  0.21902601972E+03  0.00000000000E+00 0.  1.
          1    1    6    6  503    0  0.41922295709E+03  0.54659538528E+03 -0.37946604615E+03  0.78645335726E+03  0.00000000000E+00 0. -1.
         -1    1    6    6    0  503  0.63084192373E+02  0.15194459632E+03 -0.10539861035E+03  0.19538588163E+03  0.00000000000E+00 0.  1.
<mgrwt>
<rscale>  0 0.10654206E+04</rscale>
<asrwt>0</asrwt>
<pdfrwt beam="1">  1        2 0.27166263E+00 0.10654206E+04</pdfrwt>
<pdfrwt beam="2">  1       -2 0.11795600E+00 0.10654206E+04</pdfrwt>
<totfact> 0.49402418E+00</totfact>
</mgrwt>
</event>
<event>
12    1  0.1432447E-007  0.5883086E+03  0.7818608E-02  0.9929963E-01
         -2   -1    0    0    0  501 -0.00000000000E+00  0.00000000000E+00  0.37381778624E+03  0.37381778624E+03  0.00000000000E+00 0.  1.
          2   -1    0    0  501    0  0.00000000000E+00 -0.00000000000E+00 -0.10774335993E+04  0.10774335993E+04  0.00000000000E+00 0. -1.
         23    2    1    2    0    0  0.48709487327E+03 -0.19787164611E+02 -0.26065092879E+03  0.56035143523E+03  0.91661752332E+02 0.  0.
    5000000    2    1    2    0    0 -0.48709487327E+03  0.19787164611E+02 -0.44296488427E+03  0.89089995031E+03  0.59985988807E+03 0.  0.
         23    2    4    4    0    0 -0.54331852536E+03 -0.78321511935E+02 -0.48678854084E+03  0.73933564928E+03  0.91240558793E+02 0.  0.
         23    2    4    4    0    0  0.56223652090E+02  0.98108676546E+02  0.43823656565E+02  0.15156430103E+03  0.90911016957E+02 0.  0.
          3    1    3    3  502    0  0.24874846602E+03 -0.21581178861E+02 -0.18336639626E+03  0.30978182953E+03  0.00000000000E+00 0. -1.
         -3    1    3    3    0  502  0.23834640725E+03  0.17940142508E+01 -0.77284532535E+02  0.25056960571E+03  0.00000000000E+00 0.  1.
         13    1    5    5    0    0 -0.45327401916E+02  0.18811827543E+02 -0.44432152788E+02  0.66201770530E+02  0.00000000000E+00 0. -1.
        -13    1    5    5    0    0 -0.49799112344E+03 -0.97133339478E+02 -0.44235638805E+03  0.67313387875E+03  0.00000000000E+00 0.  1.
          2    1    6    6  503    0  0.41777920464E+02  0.10720539401E+03  0.58477762326E+02  0.12906602895E+03  0.00000000000E+00 0. -1.
         -2    1    6    6    0  503  0.14445731626E+02 -0.90967174644E+01 -0.14654105760E+02  0.22498272077E+02  0.00000000000E+00 0.  1.
<mgrwt>
<rscale>  0 0.58830863E+03</rscale>
<asrwt>0</asrwt>
<pdfrwt beam="1">  1        2 0.16575902E+00 0.58830863E+03</pdfrwt>
<pdfrwt beam="2">  1       -2 0.57510429E-01 0.58830863E+03</pdfrwt>
<totfact> 0.65723675E+01</totfact>
</mgrwt>
</event>
<event>
12    1  0.1432447E-007  0.1359260E+04  0.7818608E-02  0.8983848E-01
          2   -1    0    0  501    0  0.00000000000E+00  0.00000000000E+00  0.29887417212E+04  0.29887417212E+04  0.00000000000E+00 0. -1.
         -2   -1    0    0    0  501 -0.00000000000E+00 -0.00000000000E+00 -0.69301687065E+03  0.69301687065E+03  0.00000000000E+00 0.  1.
         23    2    1    2    0    0  0.13160327957E+04  0.31873744474E+03  0.14050190166E+04  0.19534445096E+04  0.91275063122E+02 0.  0.
    5000000    2    1    2    0    0 -0.13160327957E+04 -0.31873744474E+03  0.89070583400E+03  0.17283140823E+04  0.60014732057E+03 0.  0.
         23    2    4    4    0    0 -0.39476328140E+03 -0.82840753255E+02  0.59960278672E+03  0.72882259689E+03  0.94647964355E+02 0.  0.
         23    2    4    4    0    0 -0.92126951426E+03 -0.23589669149E+03  0.29110304728E+03  0.99949148540E+03  0.99284834103E+02 0.  0.
          1    1    3    3  502    0  0.67824695584E+03  0.13077504536E+03  0.76188994337E+03  0.10283955131E+04  0.00000000000E+00 0. -1.
         -1    1    3    3    0  502  0.63778583982E+03  0.18796239938E+03  0.64312907320E+03  0.92504899646E+03  0.00000000000E+00 0.  1.
         13    1    5    5    0    0 -0.21321463934E+03 -0.74862654414E+02  0.39581251165E+03  0.45577674780E+03  0.00000000000E+00 0. -1.
        -13    1    5    5    0    0 -0.18154864205E+03 -0.79780988405E+01  0.20379027508E+03  0.27304584910E+03  0.00000000000E+00 0.  1.
          1    1    6    6  503    0 -0.13118472120E+03 -0.66737130813E+02  0.28673388889E+02  0.14995145526E+03  0.00000000000E+00 0. -1.
         -1    1    6    6    0  503 -0.79008479306E+03 -0.16915956068E+03  0.26242965839E+03  0.84954003013E+03  0.00000000000E+00 0.  1.
<mgrwt>
<rscale>  0 0.13592602E+04</rscale>
<asrwt>0</asrwt>
<pdfrwt beam="1">  1        2 0.45980641E+00 0.13592602E+04</pdfrwt>
<pdfrwt beam="2">  1       -2 0.10661798E+00 0.13592602E+04</pdfrwt>
<totfact> 0.12163960E+00</totfact>
</mgrwt>
</event>
<event>
12    1  0.1432447E-007  0.1006785E+04  0.7818608E-02  0.9301134E-01
         -2   -1    0    0    0  501 -0.00000000000E+00  0.00000000000E+00  0.34165943918E+04  0.34165943918E+04  0.00000000000E+00 0.  1.
          2   -1    0    0  501    0  0.00000000000E+00 -0.00000000000E+00 -0.69616085262E+03  0.69616085262E+03  0.00000000000E+00 0. -1.
         23    2    1    2    0    0 -0.87613516218E+03  0.36089625411E+03  0.28290701216E+04  0.29859683606E+04  0.12045899355E+03 0.  0.
    5000000    2    1    2    0    0  0.87613516218E+03 -0.36089625411E+03 -0.10863658242E+03  0.11267868838E+04  0.59998987141E+03 0.  0.
         23    2    4    4    0    0  0.85183989061E+03 -0.44142923218E+03 -0.18531626202E+03  0.98133332700E+03  0.90454493835E+02 0.  0.
         23    2    4    4    0    0  0.24295271571E+02  0.80532978069E+02  0.76679679598E+02  0.14545355679E+03  0.90560163105E+02 0.  0.
          4    1    3    3  502    0 -0.52575113176E+03  0.17490770923E+03  0.15051896610E+04  0.16039335631E+04  0.00000000000E+00 0. -1.
         -4    1    3    3    0  502 -0.35038403043E+03  0.18598854488E+03  0.13238804606E+04  0.13820347975E+04  0.00000000000E+00 0.  1.
         11    1    5    5    0    0  0.21454803576E+03 -0.89352448350E+02 -0.79351247338E+02  0.24558367236E+03  0.00000000000E+00 0.  1.
        -11    1    5    5    0    0  0.63729185486E+03 -0.35207678383E+03 -0.10596501468E+03  0.73574965465E+03  0.00000000000E+00 0. -1.
          3    1    6    6  503    0 -0.57660195588E+00  0.77216817030E+02  0.88723611456E+02  0.11762078274E+03  0.00000000000E+00 0. -1.
         -3    1    6    6    0  503  0.24871873526E+02  0.33161610391E+01 -0.12043931857E+02  0.27832774050E+02  0.00000000000E+00 0.  1.
<mgrwt>
<rscale>  0 0.10067849E+04</rscale>
<asrwt>0</asrwt>
<pdfrwt beam="1">  1        2 0.10710167E+00 0.10067849E+04</pdfrwt>
<pdfrwt beam="2">  1       -2 0.52562990E+00 0.10067849E+04</pdfrwt>
<totfact> 0.47901195E-02</totfact>
</mgrwt>
</event>
<event>
12    1  0.1432447E-007  0.6770391E+03  0.7818608E-02  0.9757325E-01
          2   -1    0    0  501    0  0.00000000000E+00  0.00000000000E+00  0.24710707448E+04  0.24710707448E+04  0.00000000000E+00 0. -1.
         -2   -1    0    0    0  501 -0.00000000000E+00 -0.00000000000E+00 -0.51257120083E+03  0.51257120083E+03  0.00000000000E+00 0.  1.
         23    2    1    2    0    0 -0.59111414390E+03  0.14133172017E+03  0.20356044085E+04  0.21263683972E+04  0.91469484709E+02 0.  0.
    5000000    2    1    2    0    0  0.59111414390E+03 -0.14133172017E+03 -0.77104864573E+02  0.85727354836E+03  0.59965172419E+03 0.  0.
         23    2    4    4    0    0  0.82692084829E+02  0.12155605769E+03 -0.19978729759E+03  0.26465607357E+03  0.92271430811E+02 0.  0.
         23    2    4    4    0    0  0.50842205907E+03 -0.26288777786E+03  0.12268243302E+03  0.59261747479E+03  0.92420334086E+02 0.  0.
          2    1    3    3  502    0 -0.51938468762E+03  0.10402761115E+03  0.16727292038E+04  0.17545954482E+04  0.00000000000E+00 0. -1.
         -2    1    3    3    0  502 -0.71729456283E+02  0.37304109017E+02  0.36287520475E+03  0.37177294908E+03  0.00000000000E+00 0.  1.
         13    1    5    5    0    0  0.93561310519E+02  0.12699937266E+03 -0.16715583502E+03  0.22983392409E+03  0.00000000000E+00 0. -1.
        -13    1    5    5    0    0 -0.10869225691E+02 -0.54433149656E+01 -0.32631462567E+02  0.34822149477E+02  0.00000000000E+00 0.  1.
          4    1    6    6  503    0  0.29944501037E+03 -0.13363234434E+03  0.27336806259E+02  0.32904744136E+03  0.00000000000E+00 0. -1.
         -4    1    6    6    0  503  0.20897704870E+03 -0.12925543352E+03  0.95345626757E+02  0.26357003343E+03  0.00000000000E+00 0.  1.
<mgrwt>
<rscale>  0 0.67703910E+03</rscale>
<asrwt>0</asrwt>
<pdfrwt beam="1">  1        2 0.38016473E+00 0.67703910E+03</pdfrwt>
<pdfrwt beam="2">  1       -2 0.78857109E-01 0.67703910E+03</pdfrwt>
<totfact> 0.54926311E+00</totfact>
</mgrwt>
</event>
<event>
12    1  0.1432447E-007  0.6494977E+03  0.7818608E-02  0.9807722E-01
         -1   -1    0    0    0  501 -0.00000000000E+00  0.00000000000E+00  0.50020474135E+03  0.50020474135E+03  0.00000000000E+00 0.  1.
          1   -1    0    0  501    0  0.00000000000E+00 -0.00000000000E+00 -0.95275823977E+03  0.95275823977E+03  0.00000000000E+00 0. -1.
         23    2    1    2    0    0 -0.49258983492E+03 -0.16729133435E+03  0.21111383253E+02  0.52829294235E+03  0.89535503652E+02 0.  0.
    5000000    2    1    2    0    0  0.49258983492E+03  0.16729133435E+03 -0.47366488167E+03  0.92467003877E+03  0.60002093668E+03 0.  0.
         23    2    4    4    0    0  0.21300717788E+03  0.36938677223E+03 -0.23355826249E+03  0.49455775733E+03  0.90660178858E+02 0.  0.
         23    2    4    4    0    0  0.27958265705E+03 -0.20209543788E+03 -0.24010661918E+03  0.43011228144E+03  0.91303657850E+02 0.  0.
          1    1    3    3  502    0 -0.70370762040E+02 -0.16013512883E+02  0.33620477919E+02  0.79616664590E+02  0.00000000000E+00 0. -1.
         -1    1    3    3    0  502 -0.42221907288E+03 -0.15127782146E+03 -0.12509094665E+02  0.44867627776E+03  0.00000000000E+00 0.  1.
         11    1    5    5    0    0  0.11842697841E+03  0.27276016164E+03 -0.13142937044E+03  0.32511034189E+03  0.00000000000E+00 0. -1.
        -11    1    5    5    0    0  0.94580199467E+02  0.96626610590E+02 -0.10212889205E+03  0.16944741543E+03  0.00000000000E+00 0.  1.
          3    1    6    6  503    0  0.18175029241E+03 -0.11756236890E+03 -0.96850370237E+02  0.23713724631E+03  0.00000000000E+00 0. -1.
         -3    1    6    6    0  503  0.97832364636E+02 -0.84533068988E+02 -0.14325624894E+03  0.19297503513E+03  0.00000000000E+00 0.  1.
<mgrwt>
<rscale>  0 0.64949774E+03</rscale>
<asrwt>0</asrwt>
<pdfrwt beam="1">  1        1 0.14657819E+00 0.64949774E+03</pdfrwt>
<pdfrwt beam="2">  1       -1 0.76954576E-01 0.64949774E+03</pdfrwt>
<totfact> 0.29028060E+01</totfact>
</mgrwt>
</event>
<event>
12    1  0.1432447E-007  0.5727587E+03  0.7818608E-02  0.9963592E-01
          2   -1    0    0  501    0  0.00000000000E+00  0.00000000000E+00  0.38228732232E+04  0.38228732232E+04  0.00000000000E+00 0. -1.
         -2   -1    0    0    0  501 -0.00000000000E+00 -0.00000000000E+00 -0.91765310611E+02  0.91765310611E+02  0.00000000000E+00 0.  1.
         23    2    1    2    0    0 -0.43088013510E+03 -0.55575261546E+02  0.14733198853E+04  0.15384400918E+04  0.85907688335E+02 0.  0.
    5000000    2    1    2    0    0  0.43088013510E+03  0.55575261546E+02  0.22577880272E+04  0.23761984420E+04  0.59997163219E+03 0.  0.
         23    2    4    4    0    0  0.10084547572E+03 -0.23862954979E+03  0.63292909986E+03  0.68978389839E+03  0.89937250529E+02 0.  0.
         23    2    4    4    0    0  0.33003465938E+03  0.29420481133E+03  0.16248589274E+04  0.16864145436E+04  0.91368110866E+02 0.  0.
          3    1    3    3  502    0 -0.26337676208E+03 -0.32541147848E+02  0.10393683070E+04  0.10727127867E+04  0.00000000000E+00 0. -1.
         -3    1    3    3    0  502 -0.16750337302E+03 -0.23034113698E+02  0.43395157836E+03  0.46572730512E+03  0.00000000000E+00 0.  1.
         11    1    5    5    0    0  0.71377008464E+02 -0.19852358803E+03  0.57978842470E+03  0.61697723602E+03  0.00000000000E+00 0. -1.
        -11    1    5    5    0    0  0.29468467258E+02 -0.40105961752E+02  0.53140675152E+02  0.72806662375E+02  0.00000000000E+00 0.  1.
          3    1    6    6  503    0  0.14417126242E+03  0.18574261843E+03  0.90823472188E+03  0.93817694666E+03  0.00000000000E+00 0. -1.
         -3    1    6    6    0  503  0.18586339696E+03  0.10846219290E+03  0.71662420550E+03  0.74823759698E+03  0.00000000000E+00 0.  1.
<mgrwt>
<rscale>  0 0.57275872E+03</rscale>
<asrwt>0</asrwt>
<pdfrwt beam="1">  1        2 0.58813422E+00 0.57275872E+03</pdfrwt>
<pdfrwt beam="2">  1       -2 0.14117743E-01 0.57275872E+03</pdfrwt>
<totfact> 0.20741687E+01</totfact>
</mgrwt>
</event>
<event>
12    1  0.1432447E-007  0.1089140E+04  0.7818608E-02  0.9215842E-01
          2   -1    0    0  501    0  0.00000000000E+00  0.00000000000E+00  0.20619901662E+04  0.20619901662E+04  0.00000000000E+00 0.  1.
         -2   -1    0    0    0  501 -0.00000000000E+00 -0.00000000000E+00 -0.89354593641E+03  0.89354593641E+03  0.00000000000E+00 0. -1.
         23    2    1    2    0    0  0.25075014189E+03 -0.10223090216E+04 -0.25465741559E+03  0.10860934764E+04  0.82202620594E+02 0.  0.
    5000000    2    1    2    0    0 -0.25075014189E+03  0.10223090216E+04  0.14231016454E+04  0.18694426262E+04  0.60133690255E+03 0.  0.
         23    2    4    4    0    0  0.66305715487E+02  0.92075407188E+02  0.48960776368E+03  0.51089720980E+03  0.91792528056E+02 0.  0.
         23    2    4    4    0    0 -0.31705585737E+03  0.93023361441E+03  0.93349388170E+03  0.13585454164E+04  0.91519545753E+02 0.  0.
          3    1    3    3  502    0  0.19588140665E+03 -0.63676691993E+03 -0.17025211954E+03  0.68762447600E+03  0.00000000000E+00 0. -1.
         -3    1    3    3    0  502  0.54868735239E+02 -0.38554210167E+03 -0.84405296043E+02  0.39846900038E+03  0.00000000000E+00 0.  1.
         11    1    5    5    0    0  0.16981097889E+02  0.87224262934E+02  0.22936810839E+03  0.24597999690E+03  0.00000000000E+00 0.  1.
        -11    1    5    5    0    0  0.49324617597E+02  0.48511442541E+01  0.26023965530E+03  0.26491721290E+03  0.00000000000E+00 0. -1.
          3    1    6    6  503    0 -0.20876004896E+03  0.53128680456E+03  0.59163592553E+03  0.82211890571E+03  0.00000000000E+00 0. -1.
         -3    1    6    6    0  503 -0.10829580841E+03  0.39894680985E+03  0.34185795616E+03  0.53642651072E+03  0.00000000000E+00 0.  1.
<mgrwt>
<rscale>  0 0.10891398E+04</rscale>
<asrwt>0</asrwt>
<pdfrwt beam="1">  1        2 0.31722926E+00 0.10891398E+04</pdfrwt>
<pdfrwt beam="2">  1       -2 0.13746861E+00 0.10891398E+04</pdfrwt>
<totfact> 0.22945868E+00</totfact>
</mgrwt>
</event>
<event>
12    1  0.1432447E-007  0.8356824E+03  0.7818608E-02  0.9509758E-01
         -1   -1    0    0    0  501 -0.00000000000E+00  0.00000000000E+00  0.11136941924E+04  0.11136941924E+04  0.00000000000E+00 0.  1.
          1   -1    0    0  501    0  0.00000000000E+00 -0.00000000000E+00 -0.70626457083E+03  0.70626457083E+03  0.00000000000E+00 0. -1.
         23    2    1    2    0    0 -0.71900598606E+03 -0.27231035190E+03  0.32969905848E+03  0.84159598355E+03  0.91977141843E+02 0.  0.
    5000000    2    1    2    0    0  0.71900598606E+03  0.27231035190E+03  0.77730563107E+02  0.97836277971E+03  0.60002429329E+03 0.  0.
         23    2    4    4    0    0  0.18141707941E+01  0.14424922702E+03  0.16612234125E+03  0.23880485050E+03  0.92843920905E+02 0.  0.
         23    2    4    4    0    0  0.71719181526E+03  0.12806112488E+03 -0.88391778139E+02  0.73955792921E+03  0.91482635669E+02 0.  0.
          1    1    3    3  502    0 -0.37868510381E+03 -0.15835291362E+03  0.12825042037E+03  0.43003049128E+03  0.00000000000E+00 0. -1.
         -1    1    3    3    0  502 -0.34032088224E+03 -0.11395743828E+03  0.20144863812E+03  0.41156549227E+03  0.00000000000E+00 0.  1.
         13    1    5    5    0    0 -0.15676000847E+02  0.15172372384E+03  0.14816402167E+03  0.21264619135E+03  0.00000000000E+00 0.  1.
        -13    1    5    5    0    0  0.17490171641E+02 -0.74744968138E+01  0.17958319578E+02  0.26158659153E+02  0.00000000000E+00 0. -1.
          4    1    6    6  503    0  0.29665919390E+03  0.26529746172E+02 -0.73049049939E+02  0.30667029275E+03  0.00000000000E+00 0. -1.
         -4    1    6    6    0  503  0.42053262136E+03  0.10153137871E+03 -0.15342728200E+02  0.43288763646E+03  0.00000000000E+00 0.  1.
<mgrwt>
<rscale>  0 0.83568243E+03</rscale>
<asrwt>0</asrwt>
<pdfrwt beam="1">  1        1 0.10865609E+00 0.83568243E+03</pdfrwt>
<pdfrwt beam="2">  1       -1 0.17133757E+00 0.83568243E+03</pdfrwt>
<totfact> 0.66065604E+00</totfact>
</mgrwt>
</event>
<event>
12    1  0.1432447E-007  0.8209845E+03  0.7818608E-02  0.9530130E-01
         -2   -1    0    0    0  501 -0.00000000000E+00  0.00000000000E+00  0.32468791458E+03  0.32468791458E+03  0.00000000000E+00 0.  1.
          2   -1    0    0  501    0  0.00000000000E+00 -0.00000000000E+00 -0.26080982044E+04  0.26080982044E+04  0.00000000000E+00 0. -1.
         23    2    1    2    0    0  0.59971644992E+03  0.55397088843E+03 -0.90860611159E+03  0.12249822163E+04  0.92047806852E+02 0.  0.
    5000000    2    1    2    0    0 -0.59971644992E+03 -0.55397088843E+03 -0.13748041783E+04  0.17078039027E+04  0.59997006252E+03 0.  0.
         23    2    4    4    0    0 -0.16034172511E+03 -0.10085094993E+03 -0.86831290563E+03  0.89341470802E+03  0.91335401229E+02 0.  0.
         23    2    4    4    0    0 -0.43937472481E+03 -0.45311993851E+03 -0.50649127263E+03  0.81438919466E+03  0.91260745403E+02 0.  0.
          2    1    3    3  502    0  0.33216483097E+03  0.36624873927E+03 -0.56353242499E+03  0.74969354270E+03  0.00000000000E+00 0. -1.
         -2    1    3    3    0  502  0.26755161894E+03  0.18772214916E+03 -0.34507368660E+03  0.47528867362E+03  0.00000000000E+00 0.  1.
         13    1    5    5    0    0 -0.15193518063E+03 -0.93873122721E+02 -0.86296284975E+03  0.88124987508E+03  0.00000000000E+00 0. -1.
        -13    1    5    5    0    0 -0.84065444728E+01 -0.69778272055E+01 -0.53500558734E+01  0.12164832935E+02  0.00000000000E+00 0.  1.
          1    1    6    6  503    0 -0.38965530869E+03 -0.40297149849E+03 -0.40851192062E+03  0.69361320451E+03  0.00000000000E+00 0. -1.
         -1    1    6    6    0  503 -0.49719416117E+02 -0.50148440020E+02 -0.97979352009E+02  0.12077599015E+03  0.00000000000E+00 0.  1.
<mgrwt>
<rscale>  0 0.82098455E+03</rscale>
<asrwt>0</asrwt>
<pdfrwt beam="1">  1        2 0.40124589E+00 0.82098455E+03</pdfrwt>
<pdfrwt beam="2">  1       -2 0.49951986E-01 0.82098455E+03</pdfrwt>
<totfact> 0.11860969E+01</totfact>
</mgrwt>
</event>
<event>
12    1  0.1432447E-007  0.3712402E+03  0.7818608E-02  0.1054220E+00
          2   -1    0    0  501    0  0.00000000000E+00  0.00000000000E+00  0.30083460447E+04  0.30083460447E+04  0.00000000000E+00 0. -1.
         -2   -1    0    0    0  501 -0.00000000000E+00 -0.00000000000E+00 -0.97360586638E+02  0.97360586638E+02  0.00000000000E+00 0.  1.
         23    2    1    2    0    0  0.34311108182E+03  0.73093203993E+02  0.70519118611E+03  0.79300099195E+03  0.92131065979E+02 0.  0.
    5000000    2    1    2    0    0 -0.34311108182E+03 -0.73093203993E+02  0.22057942720E+04  0.23127056394E+04  0.60000931108E+03 0.  0.
         23    2    4    4    0    0 -0.20365209979E+03  0.10547743133E+02  0.20127498312E+03  0.29953358575E+03  0.87311611628E+02 0.  0.
         23    2    4    4    0    0 -0.13945898203E+03 -0.83640947127E+02  0.20045192888E+04  0.20131720537E+04  0.91211417063E+02 0.  0.
          2    1    3    3  502    0  0.61603226854E+02 -0.13465929334E+02  0.79595988156E+02  0.10154708338E+03  0.00000000000E+00 0.  1.
         -2    1    3    3    0  502  0.28150785497E+03  0.86559133327E+02  0.62559519796E+03  0.69145390857E+03  0.00000000000E+00 0. -1.
         13    1    5    5    0    0 -0.10157096794E+03  0.47666636896E+02  0.11653068928E+03  0.16176579164E+03  0.00000000000E+00 0. -1.
        -13    1    5    5    0    0 -0.10208113184E+03 -0.37118893763E+02  0.84744293843E+02  0.13776779410E+03  0.00000000000E+00 0.  1.
          2    1    6    6  503    0 -0.78559978230E+02 -0.34354803634E+02  0.55964029311E+03  0.56617062833E+03  0.00000000000E+00 0.  1.
         -2    1    6    6    0  503 -0.60899003802E+02 -0.49286143493E+02  0.14448789957E+04  0.14470014253E+04  0.00000000000E+00 0. -1.
<mgrwt>
<rscale>  0 0.37124024E+03</rscale>
<asrwt>0</asrwt>
<pdfrwt beam="1">  1        2 0.46282240E+00 0.37124024E+03</pdfrwt>
<pdfrwt beam="2">  1       -2 0.14978554E-01 0.37124024E+03</pdfrwt>
<totfact> 0.68684239E+01</totfact>
</mgrwt>
</event>
<event>
12    1  0.1432447E-007  0.1165077E+04  0.7818608E-02  0.9143986E-01
          2   -1    0    0  501    0  0.00000000000E+00  0.00000000000E+00  0.31515643636E+04  0.31515643636E+04  0.00000000000E+00 0.  1.
         -2   -1    0    0    0  501 -0.00000000000E+00 -0.00000000000E+00 -0.52157462133E+03  0.52157462133E+03  0.00000000000E+00 0. -1.
         23    2    1    2    0    0  0.82518322855E+03  0.72108700033E+03  0.19795575927E+04  0.22645790350E+04  0.93680947973E+02 0.  0.
    5000000    2    1    2    0    0 -0.82518322855E+03 -0.72108700033E+03  0.65043214955E+03  0.14085599500E+04  0.60007110307E+03 0.  0.
         23    2    4    4    0    0 -0.33557704156E+03  0.17700847208E+02  0.10624242138E+03  0.36446425848E+03  0.92851886326E+02 0.  0.
         23    2    4    4    0    0 -0.48960618699E+03 -0.73878784754E+03  0.54418972817E+03  0.10440956915E+04  0.92041570552E+02 0.  0.
          4    1    3    3  502    0  0.50023972381E+03  0.41537836776E+03  0.10842807674E+04  0.12642957534E+04  0.00000000000E+00 0.  1.
         -4    1    3    3    0  502  0.32494350474E+03  0.30570863257E+03  0.89527682536E+03  0.10002832815E+04  0.00000000000E+00 0. -1.
         13    1    5    5    0    0 -0.23236742510E+03  0.49559415947E+02  0.94938938263E+02  0.25585964503E+03  0.00000000000E+00 0.  1.
        -13    1    5    5    0    0 -0.10320961646E+03 -0.31858568740E+02  0.11303483120E+02  0.10860461345E+03  0.00000000000E+00 0. -1.
          3    1    6    6  503    0 -0.48443329084E+02 -0.10870405648E+03  0.45532067740E+02  0.12742251457E+03  0.00000000000E+00 0. -1.
         -3    1    6    6    0  503 -0.44116285791E+03 -0.63008379106E+03  0.49865766043E+03  0.91667317691E+03  0.00000000000E+00 0.  1.
<mgrwt>
<rscale>  0 0.11650768E+04</rscale>
<asrwt>0</asrwt>
<pdfrwt beam="1">  1        2 0.48485605E+00 0.11650768E+04</pdfrwt>
<pdfrwt beam="2">  1       -2 0.80242251E-01 0.11650768E+04</pdfrwt>
<totfact> 0.19157235E+00</totfact>
</mgrwt>
</event>
<event>
12    1  0.1432447E-007  0.7143982E+03  0.7818608E-02  0.9692921E-01
         -1   -1    0    0    0  501 -0.00000000000E+00  0.00000000000E+00  0.75811832511E+03  0.75811832511E+03  0.00000000000E+00 0.  1.
          1   -1    0    0  501    0  0.00000000000E+00 -0.00000000000E+00 -0.71438446412E+03  0.71438446412E+03  0.00000000000E+00 0. -1.
         23    2    1    2    0    0  0.18231263847E+02  0.58779201800E+03 -0.14128171334E+03  0.61240236987E+03  0.96147307290E+02 0.  0.
    5000000    2    1    2    0    0 -0.18231263847E+02 -0.58779201800E+03  0.18501557433E+03  0.86010041935E+03  0.59975839571E+03 0.  0.
         23    2    4    4    0    0  0.26322052564E+03 -0.16520253475E+03  0.77938152501E+02  0.33292307261E+03  0.90479246543E+02 0.  0.
         23    2    4    4    0    0 -0.28145178949E+03 -0.42258948325E+03  0.10707742182E+03  0.52717734674E+03  0.93023650191E+02 0.  0.
          3    1    3    3  502    0 -0.19775081791E+02  0.49901246127E+02  0.43452802967E+01  0.53852295084E+02  0.00000000000E+00 0. -1.
         -3    1    3    3    0  502  0.38006345638E+02  0.53789077187E+03 -0.14562699364E+03  0.55855007479E+03  0.00000000000E+00 0.  1.
         13    1    5    5    0    0  0.44112953672E+02  0.29710461806E+01  0.27730298685E+02  0.52189551274E+02  0.00000000000E+00 0. -1.
        -13    1    5    5    0    0  0.21910757197E+03 -0.16817358093E+03  0.50207853817E+02  0.28073352134E+03  0.00000000000E+00 0.  1.
          4    1    6    6  503    0 -0.11316340984E+03 -0.24995950121E+03  0.43092748808E+02  0.27774573727E+03  0.00000000000E+00 0. -1.
         -4    1    6    6    0  503 -0.16828837964E+03 -0.17262998204E+03  0.63984673016E+02  0.24943160947E+03  0.00000000000E+00 0.  1.
<mgrwt>
<rscale>  0 0.71439819E+03</rscale>
<asrwt>0</asrwt>
<pdfrwt beam="1">  1        1 0.10990530E+00 0.71439819E+03</pdfrwt>
<pdfrwt beam="2">  1       -1 0.11663359E+00 0.71439819E+03</pdfrwt>
<totfact> 0.18080273E+01</totfact>
</mgrwt>
</event>
<event>
12    1  0.1432447E-007  0.3006290E+03  0.7818608E-02  0.1084927E+00
         -1   -1    0    0    0  501 -0.00000000000E+00  0.00000000000E+00  0.30842039854E+03  0.30842039854E+03  0.00000000000E+00 0.  1.
          1   -1    0    0  501    0  0.00000000000E+00 -0.00000000000E+00 -0.78815805969E+03  0.78815805969E+03  0.00000000000E+00 0. -1.
         23    2    1    2    0    0  0.92172812908E+02  0.87747453894E+00 -0.47099160260E+03  0.48944392401E+03  0.96050339038E+02 0.  0.
    5000000    2    1    2    0    0 -0.92172812908E+02 -0.87747453894E+00 -0.87460585551E+01  0.60713453422E+03  0.60003270886E+03 0.  0.
         23    2    4    4    0    0 -0.26061370977E+03 -0.10686218347E+03  0.15193122084E+03  0.33334640682E+03  0.93261455557E+02 0.  0.
         23    2    4    4    0    0  0.16844089687E+03  0.10598470893E+03 -0.16067727940E+03  0.27378812740E+03  0.97660925288E+02 0.  0.
          2    1    3    3  502    0 -0.16303606940E+00  0.54207466112E+01 -0.24785646930E+03  0.24791579306E+03  0.00000000000E+00 0. -1.
         -2    1    3    3    0  502  0.92335848978E+02 -0.45432720722E+01 -0.22313513331E+03  0.24152813096E+03  0.00000000000E+00 0.  1.
         11    1    5    5    0    0 -0.92889391946E+02 -0.71573402821E+02  0.24573664383E+02  0.11981258744E+03  0.00000000000E+00 0.  1.
        -11    1    5    5    0    0 -0.16772431783E+03 -0.35288780648E+02  0.12735755646E+03  0.21353381938E+03  0.00000000000E+00 0. -1.
          1    1    6    6  503    0  0.80174861883E+02  0.97235398131E+02 -0.59903461028E+02  0.13953908331E+03  0.00000000000E+00 0. -1.
         -1    1    6    6    0  503  0.88266034983E+02  0.87493107984E+01 -0.10077381837E+03  0.13424904409E+03  0.00000000000E+00 0.  1.
<mgrwt>
<rscale>  0 0.30062900E+03</rscale>
<asrwt>0</asrwt>
<pdfrwt beam="1">  1        1 0.12125508E+00 0.30062900E+03</pdfrwt>
<pdfrwt beam="2">  1       -1 0.47449293E-01 0.30062900E+03</pdfrwt>
<totfact> 0.10753431E+02</totfact>
</mgrwt>
</event>
<event>
12    1  0.1432447E-007  0.1003533E+04  0.7818608E-02  0.9304678E-01
         -2   -1    0    0    0  501 -0.00000000000E+00  0.00000000000E+00  0.27675635776E+03  0.27675635776E+03  0.00000000000E+00 0.  1.
          2   -1    0    0  501    0  0.00000000000E+00 -0.00000000000E+00 -0.37507359281E+04  0.37507359281E+04  0.00000000000E+00 0. -1.
         23    2    1    2    0    0  0.92702188126E+03  0.20249710347E+02 -0.15075452450E+04  0.17721448938E+04  0.89583703266E+02 0.  0.
    5000000    2    1    2    0    0 -0.92702188126E+03 -0.20249710347E+02 -0.19664343254E+04  0.22553473921E+04  0.59995690161E+03 0.  0.
         23    2    4    4    0    0 -0.96690564881E+02 -0.20024897055E+03 -0.33906850743E+03  0.41728386189E+03  0.98537572148E+02 0.  0.
         23    2    4    4    0    0 -0.83033131637E+03  0.17999926020E+03 -0.16273658180E+04  0.18380635302E+04  0.91149365899E+02 0.  0.
          1    1    3    3  502    0  0.31474076827E+03  0.47735328035E+02 -0.49339200134E+03  0.58717636170E+03  0.00000000000E+00 0. -1.
         -1    1    3    3    0  502  0.61228111299E+03 -0.27485617688E+02 -0.10141532436E+04  0.11849685321E+04  0.00000000000E+00 0.  1.
         11    1    5    5    0    0 -0.17846369932E+02 -0.18854737070E+02 -0.11725434480E+03  0.12009402734E+03  0.00000000000E+00 0.  1.
        -11    1    5    5    0    0 -0.78844194949E+02 -0.18139423348E+03 -0.22181416263E+03  0.29718983455E+03  0.00000000000E+00 0. -1.
          4    1    6    6  503    0 -0.53699871668E+03  0.84596368036E+02 -0.97060969075E+03  0.11124780173E+04  0.00000000000E+00 0. -1.
         -4    1    6    6    0  503 -0.29333259969E+03  0.95402892164E+02 -0.65675612722E+03  0.72558551289E+03  0.00000000000E+00 0.  1.
<mgrwt>
<rscale>  0 0.10035330E+04</rscale>
<asrwt>0</asrwt>
<pdfrwt beam="1">  1        2 0.57703626E+00 0.10035330E+04</pdfrwt>
<pdfrwt beam="2">  1       -2 0.42577904E-01 0.10035330E+04</pdfrwt>
<totfact> 0.29234864E+00</totfact>
</mgrwt>
</event>
<event>
12    1  0.1432447E-007  0.5297860E+03  0.7818608E-02  0.1006284E+00
         -2   -1    0    0    0  501 -0.00000000000E+00  0.00000000000E+00  0.86274669311E+03  0.86274669311E+03  0.00000000000E+00 0.  1.
          2   -1    0    0  501    0  0.00000000000E+00 -0.00000000000E+00 -0.54958583656E+03  0.54958583656E+03  0.00000000000E+00 0. -1.
         23    2    1    2    0    0  0.39259400318E+03 -0.20954726180E+03  0.46494577194E+03  0.65004114126E+03  0.91317075207E+02 0.  0.
    5000000    2    1    2    0    0 -0.39259400318E+03  0.20954726180E+03 -0.15178491540E+03  0.76229138840E+03  0.60000782830E+03 0.  0.
         23    2    4    4    0    0  0.48264815924E+02  0.12190311624E+03 -0.24907153664E+03  0.29330184921E+03  0.82458972731E+02 0.  0.
         23    2    4    4    0    0 -0.44085881911E+03  0.87644145560E+02  0.97286621241E+02  0.46898953919E+03  0.91915757942E+02 0.  0.
          2    1    3    3  502    0  0.16423469500E+03 -0.10526973772E+03  0.26525170537E+03  0.32926162838E+03  0.00000000000E+00 0. -1.
         -2    1    3    3    0  502  0.22835930818E+03 -0.10427752407E+03  0.19969406657E+03  0.32077951288E+03  0.00000000000E+00 0.  1.
         13    1    5    5    0    0  0.20018205076E+02 -0.82711562194E+01 -0.33160338931E+02  0.39607431597E+02  0.00000000000E+00 0.  1.
        -13    1    5    5    0    0  0.28246610847E+02  0.13017427246E+03 -0.21591119771E+03  0.25369441762E+03  0.00000000000E+00 0. -1.
          2    1    6    6  503    0 -0.16419275046E+03  0.77946551014E+02  0.45288294193E+02  0.18731244943E+03  0.00000000000E+00 0. -1.
         -2    1    6    6    0  503 -0.27666606865E+03  0.96975945453E+01  0.51998327048E+02  0.28167708976E+03  0.00000000000E+00 0.  1.
<mgrwt>
<rscale>  0 0.52978603E+03</rscale>
<asrwt>0</asrwt>
<pdfrwt beam="1">  1        2 0.84551667E-01 0.52978603E+03</pdfrwt>
<pdfrwt beam="2">  1       -2 0.13273026E+00 0.52978603E+03</pdfrwt>
<totfact> 0.23510601E+01</totfact>
</mgrwt>
</event>
<event>
12    1  0.1440762E-007  0.1062970E+04  0.7818608E-02  0.9242054E-01
          1   -1    0    0  501    0  0.00000000000E+00  0.00000000000E+00  0.22257219640E+04  0.22257219640E+04  0.00000000000E+00 0. -1.
         -1   -1    0    0    0  501 -0.00000000000E+00 -0.00000000000E+00 -0.84023723267E+03  0.84023723267E+03  0.00000000000E+00 0.  1.
         23    2    1    2    0    0  0.25867165473E+03  0.99546602997E+03  0.15516567344E+04  0.18637842968E+04  0.90496638461E+02 0.  0.
    5000000    2    1    2    0    0 -0.25867165473E+03 -0.99546602997E+03 -0.16617200316E+03  0.12021748998E+04  0.59978972431E+03 0.  0.
         23    2    4    4    0    0 -0.35006916315E+03 -0.78186497763E+03 -0.30787137993E+03  0.91491991210E+03  0.91828082547E+02 0.  0.
         23    2    4    4    0    0  0.91397508423E+02 -0.21360105234E+03  0.14169937677E+03  0.28725498774E+03  0.91966300880E+02 0.  0.
          1    1    3    3  502    0  0.13497712568E+03  0.59078403885E+03  0.83920260249E+03  0.10351355530E+04  0.00000000000E+00 0. -1.
         -1    1    3    3    0  502  0.12369452905E+03  0.40468199112E+03  0.71245413195E+03  0.82864874379E+03  0.00000000000E+00 0.  1.
         13    1    5    5    0    0 -0.20048978913E+03 -0.38908293912E+03 -0.19859360026E+03  0.48064655114E+03  0.00000000000E+00 0.  1.
        -13    1    5    5    0    0 -0.14957937402E+03 -0.39278203851E+03 -0.10927777967E+03  0.43427336096E+03  0.00000000000E+00 0. -1.
          1    1    6    6  503    0  0.59128369027E+02 -0.18945274400E+03  0.80923700335E+02  0.21432953951E+03  0.00000000000E+00 0. -1.
         -1    1    6    6    0  503  0.32269139396E+02 -0.24148308346E+02  0.60775676434E+02  0.72925448229E+02  0.00000000000E+00 0.  1.
<mgrwt>
<rscale>  0 0.10629705E+04</rscale>
<asrwt>0</asrwt>
<pdfrwt beam="1">  1        1 0.34241876E+00 0.10629705E+04</pdfrwt>
<pdfrwt beam="2">  1       -1 0.12926727E+00 0.10629705E+04</pdfrwt>
<totfact> 0.10809999E+00</totfact>
</mgrwt>
</event>
<event>
12    1  0.1432447E-007  0.6112026E+03  0.7818608E-02  0.9882433E-01
         -2   -1    0    0    0  501 -0.00000000000E+00  0.00000000000E+00  0.15708086090E+03  0.15708086090E+03  0.00000000000E+00 0.  1.
          2   -1    0    0  501    0  0.00000000000E+00 -0.00000000000E+00 -0.25187406865E+04  0.25187406865E+04  0.00000000000E+00 0. -1.
         23    2    1    2    0    0  0.19856066561E+03 -0.43538634681E+03 -0.10091252070E+04  0.11207265504E+04  0.93309744967E+02 0.  0.
    5000000    2    1    2    0    0 -0.19856066561E+03  0.43538634681E+03 -0.13525346186E+04  0.15550949970E+04  0.59998578833E+03 0.  0.
         23    2    4    4    0    0 -0.30269267985E+03  0.29294773494E+02 -0.75634263038E+03  0.82091568620E+03  0.96785056325E+02 0.  0.
         23    2    4    4    0    0  0.10413201424E+03  0.40609157332E+03 -0.59619198823E+03  0.73417931079E+03  0.88433767571E+02 0.  0.
          3    1    3    3  502    0  0.61817515651E+02 -0.22591157169E+03 -0.55189311295E+03  0.59953603027E+03  0.00000000000E+00 0. -1.
         -3    1    3    3    0  502  0.13674314996E+03 -0.20947477513E+03 -0.45723209401E+03  0.52119052013E+03  0.00000000000E+00 0.  1.
         13    1    5    5    0    0 -0.12058173470E+02 -0.13806219382E+02 -0.10202509035E+03  0.10365872034E+03  0.00000000000E+00 0.  1.
        -13    1    5    5    0    0 -0.29063450638E+03  0.43100992876E+02 -0.65431754003E+03  0.71725696587E+03  0.00000000000E+00 0. -1.
          1    1    6    6  503    0  0.25430737202E+02  0.24789777790E+03 -0.30869293971E+03  0.39672580166E+03  0.00000000000E+00 0. -1.
         -1    1    6    6    0  503  0.78701277038E+02  0.15819379542E+03 -0.28749904853E+03  0.33745350912E+03  0.00000000000E+00 0.  1.
<mgrwt>
<rscale>  0 0.61120263E+03</rscale>
<asrwt>0</asrwt>
<pdfrwt beam="1">  1        2 0.38749859E+00 0.61120263E+03</pdfrwt>
<pdfrwt beam="2">  1       -2 0.24166285E-01 0.61120263E+03</pdfrwt>
<totfact> 0.54960997E+01</totfact>
</mgrwt>
</event>
<event>
12    1  0.1432447E-007  0.1007103E+04  0.7818608E-02  0.9300789E-01
          2   -1    0    0  501    0  0.00000000000E+00  0.00000000000E+00  0.14496925795E+04  0.14496925795E+04  0.00000000000E+00 0. -1.
         -2   -1    0    0    0  501 -0.00000000000E+00 -0.00000000000E+00 -0.14058574519E+04  0.14058574519E+04  0.00000000000E+00 0.  1.
         23    2    1    2    0    0 -0.31005568177E+03  0.94449052541E+03 -0.91176368203E+03  0.13517772594E+04  0.88271562644E+02 0.  0.
    5000000    2    1    2    0    0  0.31005568177E+03 -0.94449052541E+03  0.95559880968E+03  0.15037727720E+04  0.59997215470E+03 0.  0.
         23    2    4    4    0    0  0.26564960429E+03 -0.63810914280E+03  0.95348207246E+03  0.11812693063E+04  0.92282832594E+02 0.  0.
         23    2    4    4    0    0  0.44406077486E+02 -0.30638138261E+03  0.21167372178E+01  0.32250346569E+03  0.90346850939E+02 0.  0.
          4    1    3    3  502    0 -0.17085013824E+03  0.62840701770E+03 -0.62939505229E+03  0.90566179199E+03  0.00000000000E+00 0.  1.
         -4    1    3    3    0  502 -0.13920554354E+03  0.31608350772E+03 -0.28236862974E+03  0.44611546741E+03  0.00000000000E+00 0. -1.
         13    1    5    5    0    0  0.22152192539E+03 -0.59745117398E+03  0.86486584942E+03  0.10742498807E+04  0.00000000000E+00 0.  1.
        -13    1    5    5    0    0  0.44127678902E+02 -0.40657968822E+02  0.88616223036E+02  0.10701942562E+03  0.00000000000E+00 0. -1.
          3    1    6    6  503    0 -0.23705244912E+02 -0.53535018463E+02 -0.13826367541E+02  0.60158999971E+02  0.00000000000E+00 0. -1.
         -3    1    6    6    0  503  0.68111322397E+02 -0.25284636415E+03  0.15943104759E+02  0.26234446572E+03  0.00000000000E+00 0.  1.
<mgrwt>
<rscale>  0 0.10071027E+04</rscale>
<asrwt>0</asrwt>
<pdfrwt beam="1">  1        2 0.22302963E+00 0.10071027E+04</pdfrwt>
<pdfrwt beam="2">  1       -2 0.21628576E+00 0.10071027E+04</pdfrwt>
<totfact> 0.14054207E+00</totfact>
</mgrwt>
</event>
<event>
12    1  0.1432447E-007  0.1777652E+04  0.7818608E-02  0.8718275E-01
          2   -1    0    0  501    0  0.00000000000E+00  0.00000000000E+00  0.33535347434E+04  0.33535347434E+04  0.00000000000E+00 0. -1.
         -2   -1    0    0    0  501 -0.00000000000E+00 -0.00000000000E+00 -0.10853845476E+04  0.10853845476E+04  0.00000000000E+00 0.  1.
         23    2    1    2    0    0 -0.17022692638E+04 -0.44160619102E+03  0.18096484121E+04  0.25250366324E+04  0.90807188824E+02 0.  0.
    5000000    2    1    2    0    0  0.17022692638E+04  0.44160619102E+03  0.45850178377E+03  0.19138826585E+04  0.59998855871E+03 0.  0.
         23    2    4    4    0    0  0.23863685911E+03  0.16453428243E+03 -0.10044790886E+03  0.32071552418E+03  0.93539213369E+02 0.  0.
         23    2    4    4    0    0  0.14636324047E+04  0.27707190860E+03  0.55894969263E+03  0.15931671344E+04  0.82268466458E+02 0.  0.
          1    1    3    3  502    0 -0.89323066668E+03 -0.18839618226E+03  0.96311645931E+03  0.13270069554E+04  0.00000000000E+00 0. -1.
         -1    1    3    3    0  502 -0.80903859710E+03 -0.25321000876E+03  0.84653195276E+03  0.11980296771E+04  0.00000000000E+00 0.  1.
         11    1    5    5    0    0  0.23148600803E+03  0.12301790878E+03 -0.91455445547E+02  0.27763875146E+03  0.00000000000E+00 0.  1.
        -11    1    5    5    0    0  0.71508510860E+01  0.41516373642E+02 -0.89924633149E+01  0.43076772722E+02  0.00000000000E+00 0. -1.
          4    1    6    6  503    0  0.22157128805E+03  0.24394732143E+02  0.10935531058E+03  0.24828919146E+03  0.00000000000E+00 0. -1.
         -4    1    6    6    0  503  0.12420611166E+04  0.25267717645E+03  0.44959438206E+03  0.13448779429E+04  0.00000000000E+00 0.  1.
<mgrwt>
<rscale>  0 0.17776516E+04</rscale>
<asrwt>0</asrwt>
<pdfrwt beam="1">  1        2 0.51592842E+00 0.17776516E+04</pdfrwt>
<pdfrwt beam="2">  1       -2 0.16698224E+00 0.17776516E+04</pdfrwt>
<totfact> 0.21113415E-01</totfact>
</mgrwt>
</event>
<event>
12    1  0.1816062E-007  0.1567483E+04  0.7818608E-02  0.8840777E-01
          4   -1    0    0  501    0  0.00000000000E+00  0.00000000000E+00  0.14101862605E+04  0.14101862605E+04  0.00000000000E+00 0. -1.
         -4   -1    0    0    0  501 -0.00000000000E+00 -0.00000000000E+00 -0.17804084437E+04  0.17804084437E+04  0.00000000000E+00 0.  1.
         23    2    1    2    0    0 -0.15143104242E+04 -0.80507375094E+02 -0.35230030954E+03  0.15596261346E+04  0.93277399992E+02 0.  0.
    5000000    2    1    2    0    0  0.15143104242E+04  0.80507375094E+02 -0.17921873631E+02  0.16309685696E+04  0.60009981095E+03 0.  0.
         23    2    4    4    0    0  0.14263996561E+04  0.20975331549E+03 -0.65120565584E+02  0.14460101507E+04  0.89956854118E+02 0.  0.
         23    2    4    4    0    0  0.87910768142E+02 -0.12924594040E+03  0.47198691952E+02  0.18495841891E+03  0.86885464485E+02 0.  0.
          1    1    3    3  502    0 -0.89058493418E+03 -0.52272586271E+01 -0.18760153253E+03  0.91014459523E+03  0.00000000000E+00 0. -1.
         -1    1    3    3    0  502 -0.62372549002E+03 -0.75280116466E+02 -0.16469877701E+03  0.64948153937E+03  0.00000000000E+00 0.  1.
         13    1    5    5    0    0  0.74653264039E+03  0.98722473989E+02 -0.77630421459E+02  0.75702284799E+03  0.00000000000E+00 0. -1.
        -13    1    5    5    0    0  0.67986701567E+03  0.11103084150E+03  0.12509855875E+02  0.68898730268E+03  0.00000000000E+00 0.  1.
          3    1    6    6  503    0  0.10046192282E+03 -0.12617955949E+03  0.31003732954E+02  0.16424101384E+03  0.00000000000E+00 0. -1.
         -3    1    6    6    0  503 -0.12551154682E+02 -0.30663809045E+01  0.16194958998E+02  0.20717405066E+02  0.00000000000E+00 0.  1.
<mgrwt>
<rscale>  0 0.15674832E+04</rscale>
<asrwt>0</asrwt>
<pdfrwt beam="1">  1        4 0.21695173E+00 0.15674832E+04</pdfrwt>
<pdfrwt beam="2">  1       -4 0.27390899E+00 0.15674832E+04</pdfrwt>
<totfact> 0.83415899E-03</totfact>
</mgrwt>
</event>
<event>
12    1  0.1432447E-007  0.7116523E+03  0.7818608E-02  0.9697510E-01
         -2   -1    0    0    0  501 -0.00000000000E+00  0.00000000000E+00  0.33748270929E+03  0.33748270929E+03  0.00000000000E+00 0. -1.
          2   -1    0    0  501    0  0.00000000000E+00 -0.00000000000E+00 -0.21629296506E+04  0.21629296506E+04  0.00000000000E+00 0.  1.
         23    2    1    2    0    0  0.62971961373E+03  0.18799328514E+03 -0.28915938522E+03  0.72501132249E+03  0.10069756949E+03 0.  0.
    5000000    2    1    2    0    0 -0.62971961373E+03 -0.18799328514E+03 -0.15362875560E+04  0.17754010374E+04  0.59998426767E+03 0.  0.
         23    2    4    4    0    0 -0.56793844286E+03 -0.27751252057E+03 -0.14966433375E+04  0.16278253429E+04  0.10152237837E+03 0.  0.
         23    2    4    4    0    0 -0.61781170862E+02  0.89519235429E+02 -0.39644218569E+02  0.14757569450E+03  0.91522210183E+02 0.  0.
          1    1    3    3  502    0  0.16976797857E+03  0.64243970048E+01 -0.62145699935E+02  0.18089921902E+03  0.00000000000E+00 0. -1.
         -1    1    3    3    0  502  0.45995163516E+03  0.18156888814E+03 -0.22701368529E+03  0.54411210346E+03  0.00000000000E+00 0.  1.
         13    1    5    5    0    0 -0.26530007879E+03 -0.84880494232E+02 -0.73208154372E+03  0.78328297362E+03  0.00000000000E+00 0.  1.
        -13    1    5    5    0    0 -0.30263836407E+03 -0.19263202634E+03 -0.76456179376E+03  0.84454236925E+03  0.00000000000E+00 0. -1.
          4    1    6    6  503    0 -0.47488441687E+02  0.21503979625E+02  0.20153871419E+02  0.55890533785E+02  0.00000000000E+00 0. -1.
         -4    1    6    6    0  503 -0.14292729175E+02  0.68015255804E+02 -0.59798089989E+02  0.91685160717E+02  0.00000000000E+00 0.  1.
<mgrwt>
<rscale>  0 0.71165225E+03</rscale>
<asrwt>0</asrwt>
<pdfrwt beam="1">  1        2 0.33275842E+00 0.71165225E+03</pdfrwt>
<pdfrwt beam="2">  1       -2 0.51920415E-01 0.71165225E+03</pdfrwt>
<totfact> 0.19804235E+01</totfact>
</mgrwt>
</event>
<event>
12    1  0.1432447E-007  0.1659130E+04  0.7818608E-02  0.8785024E-01
          1   -1    0    0  501    0  0.00000000000E+00  0.00000000000E+00  0.20894803337E+04  0.20894803337E+04  0.00000000000E+00 0. -1.
         -1   -1    0    0    0  501 -0.00000000000E+00 -0.00000000000E+00 -0.13693501433E+04  0.13693501433E+04  0.00000000000E+00 0.  1.
         23    2    1    2    0    0  0.14952131204E+04  0.59593183286E+03  0.44241843065E+02  0.16129034679E+04  0.93291111004E+02 0.  0.
    5000000    2    1    2    0    0 -0.14952131204E+04 -0.59593183286E+03  0.67588834730E+03  0.18459270090E+04  0.59985368205E+03 0.  0.
         23    2    4    4    0    0 -0.86646737399E+03 -0.62595605944E+03  0.51488192536E+03  0.11899767484E+04  0.91403315358E+02 0.  0.
         23    2    4    4    0    0 -0.62874574641E+03  0.30024226578E+02  0.16100642194E+03  0.65595026068E+03  0.90138830505E+02 0.  0.
          1    1    3    3  502    0  0.91851277323E+03  0.41449641821E+03  0.23565380448E+02  0.10079823026E+04  0.00000000000E+00 0. -1.
         -1    1    3    3    0  502  0.57670034718E+03  0.18143541465E+03  0.20676462617E+02  0.60492116530E+03  0.00000000000E+00 0.  1.
         11    1    5    5    0    0 -0.54578365529E+03 -0.33911700780E+03  0.30560142078E+03  0.71152819462E+03  0.00000000000E+00 0. -1.
        -11    1    5    5    0    0 -0.32068371870E+03 -0.28683905164E+03  0.20928050458E+03  0.47844855374E+03  0.00000000000E+00 0.  1.
          2    1    6    6  503    0 -0.50476289879E+02 -0.16335242161E+02  0.30964832984E+02  0.61428957814E+02  0.00000000000E+00 0. -1.
         -2    1    6    6    0  503 -0.57826945654E+03  0.46359468739E+02  0.13004158896E+03  0.59452130287E+03  0.00000000000E+00 0.  1.
<mgrwt>
<rscale>  0 0.16591300E+04</rscale>
<asrwt>0</asrwt>
<pdfrwt beam="1">  1        1 0.32145851E+00 0.16591300E+04</pdfrwt>
<pdfrwt beam="2">  1       -1 0.21066925E+00 0.16591300E+04</pdfrwt>
<totfact> 0.30601851E-01</totfact>
</mgrwt>
</event>
<event>
12    1  0.1432447E-007  0.8215572E+03  0.7818608E-02  0.9529328E-01
         -2   -1    0    0    0  501 -0.00000000000E+00  0.00000000000E+00  0.70767740413E+03  0.70767740413E+03  0.00000000000E+00 0.  1.
          2   -1    0    0  501    0  0.00000000000E+00 -0.00000000000E+00 -0.10632162441E+04  0.10632162441E+04  0.00000000000E+00 0. -1.
         23    2    1    2    0    0  0.73427851716E+03  0.24110836859E+02 -0.35816416266E+03  0.82235028875E+03  0.90731233706E+02 0.  0.
    5000000    2    1    2    0    0 -0.73427851716E+03 -0.24110836859E+02  0.26253226445E+01  0.94854335952E+03  0.59998444926E+03 0.  0.
         23    2    4    4    0    0  0.67694496228E+02  0.43554837494E+02 -0.56570700239E+02  0.13599706721E+03  0.93890305547E+02 0.  0.
         23    2    4    4    0    0 -0.80197301339E+03 -0.67665674353E+02  0.59196022884E+02  0.81254629231E+03  0.94804801181E+02 0.  0.
          4    1    3    3  502    0  0.99048098639E+02  0.10807185054E+02 -0.84131178458E+02  0.13040466357E+03  0.00000000000E+00 0.  1.
         -4    1    3    3    0  502  0.63523041852E+03  0.13303651805E+02 -0.27403298420E+03  0.69194562518E+03  0.00000000000E+00 0. -1.
         11    1    5    5    0    0  0.48434148149E+01  0.34021132854E+02  0.17354655132E+02  0.38497794774E+02  0.00000000000E+00 0. -1.
        -11    1    5    5    0    0  0.62851081414E+02  0.95337046405E+01 -0.73925355371E+02  0.97499272437E+02  0.00000000000E+00 0.  1.
          1    1    6    6  503    0 -0.42138926801E+03  0.11056800806E+02  0.40097351326E+02  0.42343708579E+03  0.00000000000E+00 0. -1.
         -1    1    6    6    0  503 -0.38058374538E+03 -0.78722475160E+02  0.19098671558E+02  0.38910920652E+03  0.00000000000E+00 0.  1.
<mgrwt>
<rscale>  0 0.82155719E+03</rscale>
<asrwt>0</asrwt>
<pdfrwt beam="1">  1        2 0.16357173E+00 0.82155719E+03</pdfrwt>
<pdfrwt beam="2">  1       -2 0.10887345E+00 0.82155719E+03</pdfrwt>
<totfact> 0.15620714E+01</totfact>
</mgrwt>
</event>
<event>
12    1  0.1432447E-007  0.3986476E+03  0.7818608E-02  0.1044249E+00
          2   -1    0    0  501    0  0.00000000000E+00  0.00000000000E+00  0.74086209677E+03  0.74086209677E+03  0.00000000000E+00 0. -1.
         -2   -1    0    0    0  501 -0.00000000000E+00 -0.00000000000E+00 -0.95333817793E+03  0.95333817793E+03  0.00000000000E+00 0.  1.
         23    2    1    2    0    0 -0.32238768403E+03 -0.95142452920E+02 -0.74578457520E+03  0.82384552165E+03  0.97677560222E+02 0.  0.
    5000000    2    1    2    0    0  0.32238768403E+03  0.95142452920E+02  0.53330849405E+03  0.87035475305E+03  0.60009461018E+03 0.  0.
         23    2    4    4    0    0  0.17986861034E+03 -0.90551877395E+02 -0.57184014969E+02  0.22817510527E+03  0.90782749536E+02 0.  0.
         23    2    4    4    0    0  0.14251907369E+03  0.18569433032E+03  0.59049250902E+03  0.64217964778E+03  0.94441654643E+02 0.  0.
          2    1    3    3  502    0 -0.72566171758E+01 -0.15586713459E+02 -0.11062909257E+02  0.20444854867E+02  0.00000000000E+00 0.  1.
         -2    1    3    3    0  502 -0.31513106685E+03 -0.79555739461E+02 -0.73472166595E+03  0.80340066678E+03  0.00000000000E+00 0. -1.
         11    1    5    5    0    0  0.10509694079E+03 -0.18902691198E+02  0.58458304370E+01  0.10694322060E+03  0.00000000000E+00 0. -1.
        -11    1    5    5    0    0  0.74771669542E+02 -0.71649186198E+02 -0.63029845406E+02  0.12123188467E+03  0.00000000000E+00 0.  1.
          3    1    6    6  503    0  0.14244496556E+03  0.14229174011E+03  0.41307969578E+03  0.45953491987E+03  0.00000000000E+00 0. -1.
         -3    1    6    6    0  503  0.74108128704E-01  0.43402590201E+02  0.17741281324E+03  0.18264472790E+03  0.00000000000E+00 0.  1.
<mgrwt>
<rscale>  0 0.39864757E+03</rscale>
<asrwt>0</asrwt>
<pdfrwt beam="1">  1        2 0.11397878E+00 0.39864757E+03</pdfrwt>
<pdfrwt beam="2">  1       -2 0.14666741E+00 0.39864757E+03</pdfrwt>
<totfact> 0.12939179E+01</totfact>
</mgrwt>
</event>
<event>
12    1  0.1432447E-007  0.1859451E+03  0.7818608E-02  0.1162170E+00
         -2   -1    0    0    0  501 -0.00000000000E+00  0.00000000000E+00  0.20941996362E+03  0.20941996362E+03  0.00000000000E+00 0.  1.
          2   -1    0    0  501    0  0.00000000000E+00 -0.00000000000E+00 -0.80220192983E+03  0.80220192983E+03  0.00000000000E+00 0. -1.
         23    2    1    2    0    0 -0.79035562638E+02  0.10495537988E+03 -0.27944517760E+03  0.32198754630E+03  0.91236619622E+02 0.  0.
    5000000    2    1    2    0    0  0.79035562638E+02 -0.10495537988E+03 -0.31333678861E+03  0.68963434715E+03  0.60012776785E+03 0.  0.
         23    2    4    4    0    0  0.10105581276E+03 -0.31754040516E+02 -0.47131173245E+03  0.49175418826E+03  0.92015412541E+02 0.  0.
         23    2    4    4    0    0 -0.22020250122E+02 -0.73201339362E+02  0.15797494385E+03  0.19788015889E+03  0.91417432130E+02 0.  0.
          3    1    3    3  502    0 -0.79236354771E+02  0.51021385922E+02 -0.11365451476E+03  0.14764460865E+03  0.00000000000E+00 0. -1.
         -3    1    3    3    0  502  0.20079213305E+00  0.53933993956E+02 -0.16579066284E+03  0.17434293765E+03  0.00000000000E+00 0.  1.
         11    1    5    5    0    0  0.25359773229E+02 -0.43774855709E+02 -0.94125113240E+02  0.10685922063E+03  0.00000000000E+00 0. -1.
        -11    1    5    5    0    0  0.75696039531E+02  0.12020815193E+02 -0.37718661921E+03  0.38489496764E+03  0.00000000000E+00 0.  1.
          3    1    6    6  503    0 -0.13090442113E+02  0.76327363355E+01  0.91772853050E+02  0.93015455144E+02  0.00000000000E+00 0.  1.
         -3    1    6    6    0  503 -0.89298080089E+01 -0.80834075697E+02  0.66202090797E+02  0.10486470374E+03  0.00000000000E+00 0. -1.
<mgrwt>
<rscale>  0 0.18594507E+03</rscale>
<asrwt>0</asrwt>
<pdfrwt beam="1">  1        2 0.12341568E+00 0.18594507E+03</pdfrwt>
<pdfrwt beam="2">  1       -2 0.32218456E-01 0.18594507E+03</pdfrwt>
<totfact> 0.32251499E+02</totfact>
</mgrwt>
</event>
<event>
12    1  0.1432447E-007  0.6206112E+03  0.7818608E-02  0.9863544E-01
         -3   -1    0    0    0  501 -0.00000000000E+00  0.00000000000E+00  0.18922679298E+03  0.18922679298E+03  0.00000000000E+00 0.  1.
          3   -1    0    0  501    0  0.00000000000E+00 -0.00000000000E+00 -0.22638256717E+04  0.22638256717E+04  0.00000000000E+00 0. -1.
         23    2    1    2    0    0 -0.78940504807E+02 -0.47552849035E+03 -0.50863865061E+03  0.70816529829E+03  0.10210712208E+03 0.  0.
    5000000    2    1    2    0    0  0.78940504807E+02  0.47552849035E+03 -0.15659602282E+04  0.17448871664E+04  0.60003403152E+03 0.  0.
         23    2    4    4    0    0 -0.22284889848E+03  0.78096435824E+02 -0.66464976911E+03  0.71064621648E+03  0.86591250047E+02 0.  0.
         23    2    4    4    0    0  0.30178940328E+03  0.39743205452E+03 -0.90131045904E+03  0.10342409499E+04  0.90910489308E+02 0.  0.
          2    1    3    3  502    0 -0.96868005100E+02 -0.33180670456E+03 -0.38828963136E+03  0.51985376542E+03  0.00000000000E+00 0. -1.
         -2    1    3    3    0  502  0.17927500293E+02 -0.14372178579E+03 -0.12034901924E+03  0.18831153287E+03  0.00000000000E+00 0.  1.
         13    1    5    5    0    0 -0.20452452930E+03  0.39133412423E+02 -0.53914724517E+03  0.57796319868E+03  0.00000000000E+00 0.  1.
        -13    1    5    5    0    0 -0.18324369173E+02  0.38963023401E+02 -0.12550252394E+03  0.13268301781E+03  0.00000000000E+00 0. -1.
          3    1    6    6  503    0  0.59665656039E+02  0.65798015096E+02 -0.23900720009E+03  0.25497805983E+03  0.00000000000E+00 0. -1.
         -3    1    6    6    0  503  0.24212374725E+03  0.33163403943E+03 -0.66230325895E+03  0.77926289011E+03  0.00000000000E+00 0.  1.
<mgrwt>
<rscale>  0 0.62061116E+03</rscale>
<asrwt>0</asrwt>
<pdfrwt beam="1">  1        3 0.34828088E+00 0.62061116E+03</pdfrwt>
<pdfrwt beam="2">  1       -3 0.29111814E-01 0.62061116E+03</pdfrwt>
<totfact> 0.65985549E-01</totfact>
</mgrwt>
</event>
<event>
12    1  0.1432447E-007  0.8682659E+03  0.7818608E-02  0.9466144E-01
          2   -1    0    0  501    0  0.00000000000E+00  0.00000000000E+00  0.15396374688E+04  0.15396374688E+04  0.00000000000E+00 0. -1.
         -2   -1    0    0    0  501 -0.00000000000E+00 -0.00000000000E+00 -0.81974046190E+03  0.81974046190E+03  0.00000000000E+00 0.  1.
         23    2    1    2    0    0 -0.41096201633E+03  0.65021760297E+03  0.10717416704E+04  0.13223539676E+04  0.91198121414E+02 0.  0.
    5000000    2    1    2    0    0  0.41096201633E+03 -0.65021760297E+03 -0.35184466352E+03  0.10370239632E+04  0.59995943432E+03 0.  0.
         23    2    4    4    0    0  0.35075175206E+03 -0.52217034673E+02 -0.10598594633E+03  0.38122531283E+03  0.91358130679E+02 0.  0.
         23    2    4    4    0    0  0.60210264268E+02 -0.59800056829E+03 -0.24585871719E+03  0.65579865032E+03  0.91626444546E+02 0.  0.
          1    1    3    3  502    0 -0.39636185582E+02  0.76296793606E+02  0.17305965162E+03  0.19324044851E+03  0.00000000000E+00 0. -1.
         -1    1    3    3    0  502 -0.37132583075E+03  0.57392080936E+03  0.89868201883E+03  0.11291135191E+04  0.00000000000E+00 0.  1.
         11    1    5    5    0    0  0.78193567774E+02  0.15898442712E+02  0.30894699505E+01  0.79853236293E+02  0.00000000000E+00 0. -1.
        -11    1    5    5    0    0  0.27255818429E+03 -0.68115477385E+02 -0.10907541628E+03  0.30137207654E+03  0.00000000000E+00 0.  1.
          3    1    6    6  503    0  0.54202838105E+02 -0.17490208178E+03 -0.97169197621E+02  0.20729336419E+03  0.00000000000E+00 0.  1.
         -3    1    6    6    0  503  0.60074261632E+01 -0.42309848652E+03 -0.14868951957E+03  0.44850528613E+03  0.00000000000E+00 0. -1.
<mgrwt>
<rscale>  0 0.86826589E+03</rscale>
<asrwt>0</asrwt>
<pdfrwt beam="1">  1        2 0.23686730E+00 0.86826589E+03</pdfrwt>
<pdfrwt beam="2">  1       -2 0.12611392E+00 0.86826589E+03</pdfrwt>
<totfact> 0.57072868E+00</totfact>
</mgrwt>
</event>
<event>
12    1  0.1432447E-007  0.7192247E+03  0.7818608E-02  0.9684909E-01
          1   -1    0    0  501    0  0.00000000000E+00  0.00000000000E+00  0.58673788478E+03  0.58673788478E+03  0.00000000000E+00 0. -1.
         -1   -1    0    0    0  501 -0.00000000000E+00 -0.00000000000E+00 -0.10675301665E+04  0.10675301665E+04  0.00000000000E+00 0.  1.
         23    2    1    2    0    0  0.58544721507E+02 -0.59727428919E+03 -0.52747994936E+03  0.80436493523E+03  0.92756622946E+02 0.  0.
    5000000    2    1    2    0    0 -0.58544721507E+02  0.59727428919E+03  0.46687667659E+02  0.84990311604E+03  0.59999292279E+03 0.  0.
         23    2    4    4    0    0 -0.29769288689E+03  0.22390148416E+03  0.91106335168E+02  0.39497491753E+03  0.94614436821E+02 0.  0.
         23    2    4    4    0    0  0.23914816539E+03  0.37337280502E+03 -0.44418667509E+02  0.45492819850E+03  0.91583575111E+02 0.  0.
          1    1    3    3  502    0  0.54206387333E+02 -0.17470700982E+03 -0.18798397793E+03  0.26229534435E+03  0.00000000000E+00 0. -1.
         -1    1    3    3    0  502  0.43383341743E+01 -0.42256727937E+03 -0.33949597143E+03  0.54206959088E+03  0.00000000000E+00 0.  1.
         11    1    5    5    0    0 -0.91852921645E+02  0.22277422653E+02  0.68079261178E+01  0.94760701944E+02  0.00000000000E+00 0.  1.
        -11    1    5    5    0    0 -0.20583996525E+03  0.20162406151E+03  0.84298409050E+02  0.30021421559E+03  0.00000000000E+00 0. -1.
          4    1    6    6  503    0  0.12853551358E+03  0.26933090448E+03 -0.69121442386E+01  0.29851012060E+03  0.00000000000E+00 0. -1.
         -4    1    6    6    0  503  0.11061265181E+03  0.10404190054E+03 -0.37506523271E+02  0.15641807791E+03  0.00000000000E+00 0.  1.
<mgrwt>
<rscale>  0 0.71922469E+03</rscale>
<asrwt>0</asrwt>
<pdfrwt beam="1">  1        1 0.90267368E-01 0.71922469E+03</pdfrwt>
<pdfrwt beam="2">  1       -1 0.16423541E+00 0.71922469E+03</pdfrwt>
<totfact> 0.99385429E+00</totfact>
</mgrwt>
</event>
<event>
12    1  0.1432447E-007  0.6935786E+03  0.7818608E-02  0.9728277E-01
         -1   -1    0    0    0  501 -0.00000000000E+00  0.00000000000E+00  0.10245296385E+04  0.10245296385E+04  0.00000000000E+00 0.  1.
          1   -1    0    0  501    0  0.00000000000E+00 -0.00000000000E+00 -0.94256769951E+03  0.94256769951E+03  0.00000000000E+00 0. -1.
         23    2    1    2    0    0 -0.13281126842E+03 -0.54705909897E+03  0.72586177734E+03  0.92242176541E+03  0.84107685211E+02 0.  0.
    5000000    2    1    2    0    0  0.13281126842E+03  0.54705909897E+03 -0.64389983831E+03  0.10446755726E+04  0.59985628237E+03 0.  0.
         23    2    4    4    0    0  0.22281146820E+03  0.62584588581E+03 -0.51544122398E+03  0.84588784378E+03  0.92296076520E+02 0.  0.
         23    2    4    4    0    0 -0.90000199773E+02 -0.78786786835E+02 -0.12845861433E+03  0.19878772885E+03  0.93314263683E+02 0.  0.
          3    1    3    3  502    0 -0.38005076065E+02 -0.29387646002E+03  0.33608236444E+03  0.44806150833E+03  0.00000000000E+00 0. -1.
         -3    1    3    3    0  502 -0.94806192357E+02 -0.25318263896E+03  0.38977941290E+03  0.47436025708E+03  0.00000000000E+00 0.  1.
         11    1    5    5    0    0  0.19980455422E+03  0.60860717954E+03 -0.50348257419E+03  0.81475104258E+03  0.00000000000E+00 0.  1.
        -11    1    5    5    0    0  0.23006913974E+02  0.17238706270E+02 -0.11958649795E+02  0.31136801207E+02  0.00000000000E+00 0. -1.
          4    1    6    6  503    0 -0.51980750679E+02 -0.96203740228E+02 -0.10021422670E+03  0.14832413596E+03  0.00000000000E+00 0. -1.
         -4    1    6    6    0  503 -0.38019449094E+02  0.17416953393E+02 -0.28244387634E+02  0.50463592894E+02  0.00000000000E+00 0.  1.
<mgrwt>
<rscale>  0 0.69357855E+03</rscale>
<asrwt>0</asrwt>
<pdfrwt beam="1">  1        1 0.14501041E+00 0.69357855E+03</pdfrwt>
<pdfrwt beam="2">  1       -1 0.15761995E+00 0.69357855E+03</pdfrwt>
<totfact> 0.53514590E+00</totfact>
</mgrwt>
</event>
<event>
12    1  0.1432447E-007  0.1386178E+04  0.7818608E-02  0.8963885E-01
          2   -1    0    0  501    0  0.00000000000E+00  0.00000000000E+00  0.24906564044E+04  0.24906564044E+04  0.00000000000E+00 0. -1.
         -2   -1    0    0    0  501 -0.00000000000E+00 -0.00000000000E+00 -0.78280342625E+03  0.78280342625E+03  0.00000000000E+00 0.  1.
         23    2    1    2    0    0  0.36974305220E+03 -0.12747698505E+04  0.91970509537E+03  0.16173011807E+04  0.89763858589E+02 0.  0.
    5000000    2    1    2    0    0 -0.36974305220E+03  0.12747698505E+04  0.78814788279E+03  0.16561586499E+04  0.59994690783E+03 0.  0.
         23    2    4    4    0    0 -0.10031386735E+03 -0.59839277467E+01  0.12370596410E+03  0.18487301029E+03  0.93681294855E+02 0.  0.
         23    2    4    4    0    0 -0.26942918485E+03  0.12807537783E+04  0.66444191869E+03  0.14712856397E+04  0.10137082408E+03 0.  0.
          2    1    3    3  502    0  0.31393885305E+03 -0.95941076575E+03  0.71898229895E+03  0.12393394075E+04  0.00000000000E+00 0. -1.
         -2    1    3    3    0  502  0.55804199151E+02 -0.31535908476E+03  0.20072279642E+03  0.37796177318E+03  0.00000000000E+00 0.  1.
         13    1    5    5    0    0 -0.10793719781E+03  0.13760255893E+02  0.76121882601E+02  0.13279429327E+03  0.00000000000E+00 0. -1.
        -13    1    5    5    0    0  0.76233304579E+01 -0.19744183639E+02  0.47584081497E+02  0.52078717024E+02  0.00000000000E+00 0.  1.
          2    1    6    6  503    0 -0.19914082372E+03  0.70373436685E+03  0.36358222999E+03  0.81675649047E+03  0.00000000000E+00 0.  1.
         -2    1    6    6    0  503 -0.70288361132E+02  0.57701941141E+03  0.30085968870E+03  0.65452914919E+03  0.00000000000E+00 0. -1.
<mgrwt>
<rscale>  0 0.13861776E+04</rscale>
<asrwt>0</asrwt>
<pdfrwt beam="1">  1        2 0.38317790E+00 0.13861776E+04</pdfrwt>
<pdfrwt beam="2">  1       -2 0.12043130E+00 0.13861776E+04</pdfrwt>
<totfact> 0.17816890E+00</totfact>
</mgrwt>
</event>
<event>
12    1  0.1432447E-007  0.8071817E+03  0.7818608E-02  0.9549680E-01
         -2   -1    0    0    0  501 -0.00000000000E+00  0.00000000000E+00  0.13845254878E+04  0.13845254878E+04  0.00000000000E+00 0.  1.
          2   -1    0    0  501    0  0.00000000000E+00 -0.00000000000E+00 -0.69822056292E+03  0.69822056292E+03  0.00000000000E+00 0. -1.
         23    2    1    2    0    0 -0.66095436950E+03  0.38414292343E+03 -0.16818188196E+03  0.78805295127E+03  0.91191251820E+02 0.  0.
    5000000    2    1    2    0    0  0.66095436950E+03 -0.38414292343E+03  0.85448680686E+03  0.12946930995E+04  0.60137846197E+03 0.  0.
         23    2    4    4    0    0 -0.32268175914E+01 -0.70499675213E+02  0.42210848920E+03  0.43746607710E+03  0.90666285944E+02 0.  0.
         23    2    4    4    0    0  0.66418118709E+03 -0.31364324822E+03  0.43237831766E+03  0.85722702236E+03  0.91533719727E+02 0.  0.
          4    1    3    3  502    0 -0.26409908694E+03  0.13525512944E+03 -0.22916304164E+02  0.29760281376E+03  0.00000000000E+00 0.  1.
         -4    1    3    3    0  502 -0.39685528256E+03  0.24888779399E+03 -0.14526557779E+03  0.49045013751E+03  0.00000000000E+00 0. -1.
         13    1    5    5    0    0  0.10802246032E+02  0.20148926357E+02  0.97657197173E+02  0.10029753692E+03  0.00000000000E+00 0.  1.
        -13    1    5    5    0    0 -0.14029063624E+02 -0.90648601569E+02  0.32445129202E+03  0.33716854018E+03  0.00000000000E+00 0. -1.
          3    1    6    6  503    0  0.19887751143E+03 -0.87841152694E+02  0.81250044031E+02  0.23209890632E+03  0.00000000000E+00 0.  1.
         -3    1    6    6    0  503  0.46530367566E+03 -0.22580209552E+03  0.35112827363E+03  0.62512811605E+03  0.00000000000E+00 0. -1.
<mgrwt>
<rscale>  0 0.80718173E+03</rscale>
<asrwt>0</asrwt>
<pdfrwt beam="1">  1        2 0.10741855E+00 0.80718173E+03</pdfrwt>
<pdfrwt beam="2">  1       -2 0.21300392E+00 0.80718173E+03</pdfrwt>
<totfact> 0.45729228E+00</totfact>
</mgrwt>
</event>
<event>
12    1  0.1432447E-007  0.9156405E+03  0.7818608E-02  0.9406239E-01
         -1   -1    0    0    0  501 -0.00000000000E+00  0.00000000000E+00  0.70412985125E+03  0.70412985125E+03  0.00000000000E+00 0.  1.
          1   -1    0    0  501    0  0.00000000000E+00 -0.00000000000E+00 -0.19586988924E+04  0.19586988924E+04  0.00000000000E+00 0. -1.
         23    2    1    2    0    0  0.68824141315E+03  0.53922442642E+03  0.16132677790E+03  0.89387243704E+03  0.92424994493E+02 0.  0.
    5000000    2    1    2    0    0 -0.68824141315E+03 -0.53922442642E+03 -0.14158958190E+04  0.17689563066E+04  0.60000518286E+03 0.  0.
         23    2    4    4    0    0 -0.50059976819E+03 -0.57224640907E+03 -0.13432844989E+04  0.15462250297E+04  0.91282621184E+02 0.  0.
         23    2    4    4    0    0 -0.18764164495E+03  0.33021982655E+02 -0.72611320111E+02  0.22273127686E+03  0.89649203130E+02 0.  0.
          3    1    3    3  502    0  0.29148182878E+03  0.17450910424E+03  0.47072082946E+02  0.34297356307E+03  0.00000000000E+00 0. -1.
         -3    1    3    3    0  502  0.39675958437E+03  0.36471532218E+03  0.11425469495E+03  0.55089887397E+03  0.00000000000E+00 0.  1.
         11    1    5    5    0    0 -0.95065122910E+02 -0.10307293606E+03 -0.32509660200E+03  0.35404690137E+03  0.00000000000E+00 0.  1.
        -11    1    5    5    0    0 -0.40553464528E+03 -0.46917347302E+03 -0.10181878969E+04  0.11921781284E+04  0.00000000000E+00 0. -1.
          1    1    6    6  503    0 -0.12579101896E+03  0.96985267308E+01 -0.89281656551E+02  0.15455955509E+03  0.00000000000E+00 0. -1.
         -1    1    6    6    0  503 -0.61850625994E+02  0.23323455924E+02  0.16670336440E+02  0.68171721770E+02  0.00000000000E+00 0.  1.
<mgrwt>
<rscale>  0 0.91564048E+03</rscale>
<asrwt>0</asrwt>
<pdfrwt beam="1">  1        1 0.30133829E+00 0.91564048E+03</pdfrwt>
<pdfrwt beam="2">  1       -1 0.10832767E+00 0.91564048E+03</pdfrwt>
<totfact> 0.25734382E+00</totfact>
</mgrwt>
</event>
<event>
12    1  0.1432447E-007  0.8489485E+03  0.7818608E-02  0.9491749E-01
          1   -1    0    0  501    0  0.00000000000E+00  0.00000000000E+00  0.14605822618E+04  0.14605822618E+04  0.00000000000E+00 0. -1.
         -1   -1    0    0    0  501 -0.00000000000E+00 -0.00000000000E+00 -0.74781947591E+03  0.74781947591E+03  0.00000000000E+00 0.  1.
         23    2    1    2    0    0 -0.26586698591E+03  0.74301817375E+03 -0.24332956246E+03  0.83104214149E+03  0.93061830224E+02 0.  0.
    5000000    2    1    2    0    0  0.26586698591E+03 -0.74301817375E+03  0.95609234839E+03  0.13773595963E+04  0.60020464680E+03 0.  0.
         23    2    4    4    0    0  0.35210224499E+03 -0.34011360776E+03  0.76661332831E+03  0.91437454319E+03  0.93442779152E+02 0.  0.
         23    2    4    4    0    0 -0.86235259072E+02 -0.40290456599E+03  0.18947902008E+03  0.46298505307E+03  0.93189329418E+02 0.  0.
          4    1    3    3  502    0 -0.61580773445E+02  0.16020818345E+03 -0.13793282004E+02  0.17218916438E+03  0.00000000000E+00 0. -1.
         -4    1    3    3    0  502 -0.20428621247E+03  0.58280999030E+03 -0.22953628046E+03  0.65885297711E+03  0.00000000000E+00 0.  1.
         11    1    5    5    0    0  0.15519336505E+03 -0.16424883690E+03  0.43789078893E+03  0.49275856564E+03  0.00000000000E+00 0.  1.
        -11    1    5    5    0    0  0.19690887994E+03 -0.17586477087E+03  0.32872253938E+03  0.42161597755E+03  0.00000000000E+00 0. -1.
          4    1    6    6  503    0 -0.16899361330E+02 -0.25274756652E+03  0.84249589972E+02  0.26695489170E+03  0.00000000000E+00 0. -1.
         -4    1    6    6    0  503 -0.69335897742E+02 -0.15015699947E+03  0.10522943011E+03  0.19603016137E+03  0.00000000000E+00 0.  1.
<mgrwt>
<rscale>  0 0.84894854E+03</rscale>
<asrwt>0</asrwt>
<pdfrwt beam="1">  1        1 0.22470496E+00 0.84894854E+03</pdfrwt>
<pdfrwt beam="2">  1       -1 0.11504915E+00 0.84894854E+03</pdfrwt>
<totfact> 0.48999329E+00</totfact>
</mgrwt>
</event>
<event>
12    1  0.1432447E-007  0.9275791E+03  0.7818608E-02  0.9391748E-01
         -1   -1    0    0    0  501 -0.00000000000E+00  0.00000000000E+00  0.12050340426E+04  0.12050340426E+04  0.00000000000E+00 0.  1.
          1   -1    0    0  501    0  0.00000000000E+00 -0.00000000000E+00 -0.99573640119E+03  0.99573640119E+03  0.00000000000E+00 0. -1.
         23    2    1    2    0    0  0.84101767702E+03  0.15204241740E+03  0.63970319554E+03  0.10713326270E+04  0.90032158844E+02 0.  0.
    5000000    2    1    2    0    0 -0.84101767702E+03 -0.15204241740E+03 -0.43040555412E+03  0.11294378168E+04  0.59996100803E+03 0.  0.
         23    2    4    4    0    0 -0.18663073295E+03  0.16780327573E+03  0.21399758294E+02  0.26809281908E+03  0.91797822203E+02 0.  0.
         23    2    4    4    0    0 -0.65438694406E+03 -0.31984569313E+03 -0.45180531241E+03  0.86134499767E+03  0.85226901356E+02 0.  0.
          2    1    3    3  502    0  0.60319159598E+03  0.12780709854E+03  0.41491247112E+03  0.74318713295E+03  0.00000000000E+00 0. -1.
         -2    1    3    3    0  502  0.23782608104E+03  0.24235318862E+02  0.22479072442E+03  0.32814549409E+03  0.00000000000E+00 0.  1.
         13    1    5    5    0    0 -0.14901936802E+03  0.74596176454E+02  0.10162408965E+02  0.16695698890E+03  0.00000000000E+00 0. -1.
        -13    1    5    5    0    0 -0.37611364936E+02  0.93207099273E+02  0.11237349329E+02  0.10113583018E+03  0.00000000000E+00 0.  1.
          1    1    6    6  503    0 -0.36300346445E+03 -0.13501112665E+03 -0.26111050328E+03  0.46709550891E+03  0.00000000000E+00 0. -1.
         -1    1    6    6    0  503 -0.29138347961E+03 -0.18483456648E+03 -0.19069480914E+03  0.39424948876E+03  0.00000000000E+00 0.  1.
<mgrwt>
<rscale>  0 0.92757905E+03</rscale>
<asrwt>0</asrwt>
<pdfrwt beam="1">  1        1 0.15319022E+00 0.92757905E+03</pdfrwt>
<pdfrwt beam="2">  1       -1 0.18538985E+00 0.92757905E+03</pdfrwt>
<totfact> 0.29417940E+00</totfact>
</mgrwt>
</event>
<event>
12    1  0.1432447E-007  0.6401951E+03  0.7818608E-02  0.9825353E-01
         -2   -1    0    0    0  501 -0.00000000000E+00  0.00000000000E+00  0.20270475757E+03  0.20270475757E+03  0.00000000000E+00 0. -1.
          2   -1    0    0  501    0  0.00000000000E+00 -0.00000000000E+00 -0.27539465864E+04  0.27539465864E+04  0.00000000000E+00 0.  1.
         23    2    1    2    0    0  0.55186161981E+02  0.57704458282E+03 -0.62095943236E+03  0.85379142408E+03  0.85692567623E+02 0.  0.
    5000000    2    1    2    0    0 -0.55186161981E+02 -0.57704458282E+03 -0.19302823964E+04  0.21028599199E+04  0.60000312463E+03 0.  0.
         23    2    4    4    0    0  0.13239090233E+03 -0.10228170471E+03 -0.13486523339E+03  0.23399927550E+03  0.92618203499E+02 0.  0.
         23    2    4    4    0    0 -0.18757706431E+03 -0.47476287812E+03 -0.17954171630E+04  0.18688606444E+04  0.92370846250E+02 0.  0.
          2    1    3    3  502    0  0.32239404084E+02  0.22063303455E+03 -0.29867836701E+03  0.37272923420E+03  0.00000000000E+00 0. -1.
         -2    1    3    3    0  502  0.22946757897E+02  0.35641154827E+03 -0.32228106536E+03  0.48106218987E+03  0.00000000000E+00 0.  1.
         11    1    5    5    0    0  0.36251714009E+02  0.74227461435E+01 -0.58836629716E+02  0.69505632328E+02  0.00000000000E+00 0.  1.
        -11    1    5    5    0    0  0.96139188321E+02 -0.10970445085E+03 -0.76028603676E+02  0.16449364317E+03  0.00000000000E+00 0. -1.
          1    1    6    6  503    0 -0.15513499279E+03 -0.28143223323E+03 -0.10480664659E+04  0.10962272962E+04  0.00000000000E+00 0. -1.
         -1    1    6    6    0  503 -0.32442071518E+02 -0.19333064488E+03 -0.74735069714E+03  0.77263334821E+03  0.00000000000E+00 0.  1.
<mgrwt>
<rscale>  0 0.64019512E+03</rscale>
<asrwt>0</asrwt>
<pdfrwt beam="1">  1        2 0.42368404E+00 0.64019512E+03</pdfrwt>
<pdfrwt beam="2">  1       -2 0.31185351E-01 0.64019512E+03</pdfrwt>
<totfact> 0.25164160E+01</totfact>
</mgrwt>
</event>
<event>
12    1  0.1432447E-007  0.4651009E+03  0.7818608E-02  0.1023312E+00
          2   -1    0    0  501    0  0.00000000000E+00  0.00000000000E+00  0.56758469128E+03  0.56758469128E+03  0.00000000000E+00 0. -1.
         -2   -1    0    0    0  501 -0.00000000000E+00 -0.00000000000E+00 -0.43891271196E+03  0.43891271196E+03  0.00000000000E+00 0.  1.
         23    2    1    2    0    0  0.27874993344E+03  0.32396327295E+02  0.17354920164E+03  0.34254336628E+03  0.92008613608E+02 0.  0.
    5000000    2    1    2    0    0 -0.27874993344E+03 -0.32396327295E+02 -0.44877222315E+02  0.66395403695E+03  0.60005828941E+03 0.  0.
         23    2    4    4    0    0  0.16115185944E+03  0.42135434624E+02 -0.84413339621E+02  0.20706959510E+03  0.89481219590E+02 0.  0.
         23    2    4    4    0    0 -0.43990179288E+03 -0.74531761918E+02  0.39536117306E+02  0.45688444185E+03  0.90065074932E+02 0.  0.
          4    1    3    3  502    0  0.22601684665E+03  0.52723240804E+02  0.16640910816E+03  0.28557896696E+03  0.00000000000E+00 0. -1.
         -4    1    3    3    0  502  0.52733086794E+02 -0.20326913509E+02  0.71400934801E+01  0.56964399326E+02  0.00000000000E+00 0.  1.
         13    1    5    5    0    0  0.15178632832E+03  0.77068827558E+01 -0.77961670931E+02  0.17081132176E+03  0.00000000000E+00 0. -1.
        -13    1    5    5    0    0  0.93655311119E+01  0.34428551868E+02 -0.64516686904E+01  0.36258273340E+02  0.00000000000E+00 0.  1.
          2    1    6    6  503    0 -0.10215117768E+03 -0.54049646607E+02 -0.45190224977E+01  0.11565746394E+03  0.00000000000E+00 0. -1.
         -2    1    6    6    0  503 -0.33775061520E+03 -0.20482115311E+02  0.44055139804E+02  0.34122697792E+03  0.00000000000E+00 0.  1.
<mgrwt>
<rscale>  0 0.46510085E+03</rscale>
<asrwt>0</asrwt>
<pdfrwt beam="1">  1        2 0.87320721E-01 0.46510085E+03</pdfrwt>
<pdfrwt beam="2">  1       -2 0.67525033E-01 0.46510085E+03</pdfrwt>
<totfact> 0.10989904E+02</totfact>
</mgrwt>
</event>
<event>
12    1  0.1432447E-007  0.5631923E+03  0.7818608E-02  0.9984857E-01
          2   -1    0    0  501    0  0.00000000000E+00  0.00000000000E+00  0.37441472493E+03  0.37441472493E+03  0.00000000000E+00 0. -1.
         -2   -1    0    0    0  501 -0.00000000000E+00 -0.00000000000E+00 -0.96270543265E+03  0.96270543265E+03  0.00000000000E+00 0.  1.
         23    2    1    2    0    0 -0.42603008799E+03  0.12760318428E+03 -0.20355779029E+03  0.49701634981E+03  0.88347436195E+02 0.  0.
    5000000    2    1    2    0    0  0.42603008799E+03 -0.12760318428E+03 -0.38473291744E+03  0.84010380777E+03  0.59997565080E+03 0.  0.
         23    2    4    4    0    0 -0.18876548604E+02  0.14251707725E+03 -0.23709233135E+03  0.29165278170E+03  0.90449599740E+02 0.  0.
         23    2    4    4    0    0  0.44490663659E+03 -0.27012026153E+03 -0.14764058609E+03  0.54845102607E+03  0.89966184574E+02 0.  0.
          2    1    3    3  502    0 -0.27337883666E+03  0.10724965187E+03 -0.95185962754E+02  0.30870510794E+03  0.00000000000E+00 0. -1.
         -2    1    3    3    0  502 -0.15265125133E+03  0.20353532414E+02 -0.10837182754E+03  0.18831124187E+03  0.00000000000E+00 0.  1.
         11    1    5    5    0    0 -0.11166056696E+02  0.14786696951E+03 -0.23974630792E+03  0.28190000648E+03  0.00000000000E+00 0.  1.
        -11    1    5    5    0    0 -0.77104919080E+01 -0.53498922606E+01  0.26539765754E+01  0.97527752115E+01  0.00000000000E+00 0. -1.
          4    1    6    6  503    0  0.18577822650E+03 -0.12677151281E+03 -0.19415116597E+02  0.22574656731E+03  0.00000000000E+00 0. -1.
         -4    1    6    6    0  503  0.25912841009E+03 -0.14334874872E+03 -0.12822546949E+03  0.32270445876E+03  0.00000000000E+00 0.  1.
<mgrwt>
<rscale>  0 0.56319233E+03</rscale>
<asrwt>0</asrwt>
<pdfrwt beam="1">  1        2 0.57602266E-01 0.56319233E+03</pdfrwt>
<pdfrwt beam="2">  1       -2 0.14810853E+00 0.56319233E+03</pdfrwt>
<totfact> 0.27315581E+01</totfact>
</mgrwt>
</event>
<event>
12    1  0.1432447E-007  0.3576581E+03  0.7818608E-02  0.1059515E+00
          3   -1    0    0  501    0  0.00000000000E+00  0.00000000000E+00  0.11977335036E+04  0.11977335036E+04  0.00000000000E+00 0. -1.
         -3   -1    0    0    0  501 -0.00000000000E+00 -0.00000000000E+00 -0.17187382860E+03  0.17187382860E+03  0.00000000000E+00 0.  1.
         23    2    1    2    0    0  0.13826077352E+03 -0.11438304212E+03  0.54156029148E+03  0.57784685617E+03  0.91760111463E+02 0.  0.
    5000000    2    1    2    0    0 -0.13826077352E+03  0.11438304212E+03  0.48429938350E+03  0.79176047601E+03  0.60011601937E+03 0.  0.
         23    2    4    4    0    0  0.83645845367E+02 -0.13561521642E+03 -0.15728139048E+02  0.18331617108E+03  0.89271103102E+02 0.  0.
         23    2    4    4    0    0 -0.22190661888E+03  0.24999825854E+03  0.50002752255E+03  0.60844430494E+03  0.91843737549E+02 0.  0.
          4    1    3    3  502    0  0.49720936035E+02 -0.92613185187E+02  0.35437748020E+03  0.36963870471E+03  0.00000000000E+00 0. -1.
         -4    1    3    3    0  502  0.88539837481E+02 -0.21769856933E+02  0.18718281128E+03  0.20820815145E+03  0.00000000000E+00 0.  1.
         13    1    5    5    0    0  0.10085406162E+03 -0.11093382152E+03 -0.24636780488E+02  0.15193691275E+03  0.00000000000E+00 0. -1.
        -13    1    5    5    0    0 -0.17208216257E+02 -0.24681394898E+02  0.89086414400E+01  0.31379258327E+02  0.00000000000E+00 0.  1.
          1    1    6    6  503    0 -0.12908730070E+03  0.18544160516E+03  0.26950900089E+03  0.35169194146E+03  0.00000000000E+00 0. -1.
         -1    1    6    6    0  503 -0.92819318182E+02  0.64556653377E+02  0.23051852166E+03  0.25675236348E+03  0.00000000000E+00 0.  1.
<mgrwt>
<rscale>  0 0.35765811E+03</rscale>
<asrwt>0</asrwt>
<pdfrwt beam="1">  1        3 0.18426669E+00 0.35765811E+03</pdfrwt>
<pdfrwt beam="2">  1       -3 0.26442128E-01 0.35765811E+03</pdfrwt>
<totfact> 0.67443769E+00</totfact>
</mgrwt>
</event>
<event>
12    1  0.1432447E-007  0.5705550E+03  0.7818608E-02  0.9968451E-01
          1   -1    0    0  501    0  0.00000000000E+00  0.00000000000E+00  0.74666668856E+03  0.74666668856E+03  0.00000000000E+00 0. -1.
         -1   -1    0    0    0  501 -0.00000000000E+00 -0.00000000000E+00 -0.59715099729E+03  0.59715099729E+03  0.00000000000E+00 0.  1.
         23    2    1    2    0    0  0.22439537631E+03  0.41716705673E+03  0.29516697859E+03  0.56563149117E+03  0.91835725202E+02 0.  0.
    5000000    2    1    2    0    0 -0.22439537631E+03 -0.41716705673E+03 -0.14565128732E+03  0.77818619468E+03  0.59998151469E+03 0.  0.
         23    2    4    4    0    0 -0.56325352587E+02  0.82587884245E+02  0.12018861035E+03  0.18122739647E+03  0.91677495635E+02 0.  0.
         23    2    4    4    0    0 -0.16807002372E+03 -0.49975494098E+03 -0.26583989768E+03  0.59695879821E+03  0.87672239950E+02 0.  0.
          4    1    3    3  502    0  0.31327639403E+01  0.64628789436E+02  0.56100975774E+02  0.85638858684E+02  0.00000000000E+00 0.  1.
         -4    1    3    3    0  502  0.22126261236E+03  0.35253826730E+03  0.23906600282E+03  0.47999263249E+03  0.00000000000E+00 0. -1.
         13    1    5    5    0    0 -0.17387545485E+02  0.84945104238E+02  0.47830628630E+02  0.99024070342E+02  0.00000000000E+00 0. -1.
        -13    1    5    5    0    0 -0.38937807102E+02 -0.23572199929E+01  0.72357981724E+02  0.82203326132E+02  0.00000000000E+00 0.  1.
          2    1    6    6  503    0 -0.11160423458E+03 -0.19632810439E+03 -0.10918423353E+03  0.25084143717E+03  0.00000000000E+00 0. -1.
         -2    1    6    6    0  503 -0.56465789141E+02 -0.30342683658E+03 -0.15665566414E+03  0.34611736104E+03  0.00000000000E+00 0.  1.
<mgrwt>
<rscale>  0 0.57055504E+03</rscale>
<asrwt>0</asrwt>
<pdfrwt beam="1">  1        1 0.11487180E+00 0.57055504E+03</pdfrwt>
<pdfrwt beam="2">  1       -1 0.91869384E-01 0.57055504E+03</pdfrwt>
<totfact> 0.29820297E+01</totfact>
</mgrwt>
</event>
<event>
12    1  0.1432447E-007  0.5749405E+03  0.7818608E-02  0.9958805E-01
          2   -1    0    0  501    0  0.00000000000E+00  0.00000000000E+00  0.59393447873E+03  0.59393447873E+03  0.00000000000E+00 0. -1.
         -2   -1    0    0    0  501 -0.00000000000E+00 -0.00000000000E+00 -0.16420537712E+04  0.16420537712E+04  0.00000000000E+00 0.  1.
         23    2    1    2    0    0 -0.37928832456E+03 -0.21047686732E+03  0.40805848998E+03  0.60239300511E+03  0.90583975042E+02 0.  0.
    5000000    2    1    2    0    0  0.37928832456E+03  0.21047686732E+03 -0.14561777825E+04  0.16335952449E+04  0.60001628726E+03 0.  0.
         23    2    4    4    0    0  0.39246800673E+03 -0.97829651346E+02 -0.73996914667E+03  0.84839431844E+03  0.92826744750E+02 0.  0.
         23    2    4    4    0    0 -0.13179682169E+02  0.30830651867E+03 -0.71620863583E+03  0.78520092643E+03  0.91427957202E+02 0.  0.
          3    1    3    3  502    0 -0.83489827046E+02 -0.44839185463E+02  0.14528436344E+03  0.17346080259E+03  0.00000000000E+00 0. -1.
         -3    1    3    3    0  502 -0.29579849751E+03 -0.16563768186E+03  0.26277412654E+03  0.42893220252E+03  0.00000000000E+00 0.  1.
         11    1    5    5    0    0  0.44199246064E+02  0.23404317667E+01 -0.37716724419E+02  0.58151545761E+02  0.00000000000E+00 0. -1.
        -11    1    5    5    0    0  0.34826876066E+03 -0.10017008311E+03 -0.70225242225E+03  0.79024277268E+03  0.00000000000E+00 0.  1.
          3    1    6    6  503    0 -0.12093098901E+02  0.63748914036E+02 -0.76344250829E+02  0.10019287258E+03  0.00000000000E+00 0. -1.
         -3    1    6    6    0  503 -0.10865832685E+01  0.24455760463E+03 -0.63986438500E+03  0.68500805385E+03  0.00000000000E+00 0.  1.
<mgrwt>
<rscale>  0 0.57494046E+03</rscale>
<asrwt>0</asrwt>
<pdfrwt beam="1">  1        2 0.91374537E-01 0.57494046E+03</pdfrwt>
<pdfrwt beam="2">  1       -2 0.25262365E+00 0.57494046E+03</pdfrwt>
<totfact> 0.32968168E+00</totfact>
</mgrwt>
</event>
<event>
12    1  0.1432447E-007  0.2556060E+04  0.7818608E-02  0.8383282E-01
         -2   -1    0    0    0  501 -0.00000000000E+00  0.00000000000E+00  0.14623707203E+04  0.14623707203E+04  0.00000000000E+00 0.  1.
          2   -1    0    0  501    0  0.00000000000E+00 -0.00000000000E+00 -0.45408284200E+04  0.45408284200E+04  0.00000000000E+00 0. -1.
         23    2    1    2    0    0 -0.10707760039E+04 -0.23044487091E+04 -0.14898583919E+04  0.29469653679E+04  0.88779209354E+02 0.  0.
    5000000    2    1    2    0    0  0.10707760039E+04  0.23044487091E+04 -0.15885993077E+04  0.30562337724E+04  0.59989333049E+03 0.  0.
         23    2    4    4    0    0  0.31564512059E+03  0.34222820659E+03 -0.11816271794E+03  0.48893938720E+03  0.91363608219E+02 0.  0.
         23    2    4    4    0    0  0.75513088332E+03  0.19622205025E+04 -0.14704365898E+04  0.25672943852E+04  0.91020572217E+02 0.  0.
          1    1    3    3  502    0 -0.77844275489E+03 -0.15833526550E+04 -0.10490690706E+04  0.20526871821E+04  0.00000000000E+00 0. -1.
         -1    1    3    3    0  502 -0.29233324902E+03 -0.72109605409E+03 -0.44078932136E+03  0.89427818576E+03  0.00000000000E+00 0.  1.
         13    1    5    5    0    0  0.16753950097E+03  0.17251449607E+03 -0.10756107388E+03  0.26343902588E+03  0.00000000000E+00 0. -1.
        -13    1    5    5    0    0  0.14810561962E+03  0.16971371051E+03 -0.10601644062E+02  0.22550036132E+03  0.00000000000E+00 0.  1.
          3    1    6    6  503    0  0.51834016962E+03  0.14425648335E+04 -0.10450415271E+04  0.18552039305E+04  0.00000000000E+00 0. -1.
         -3    1    6    6    0  503  0.23679071370E+03  0.51965566899E+03 -0.42539506267E+03  0.71209045475E+03  0.00000000000E+00 0.  1.
<mgrwt>
<rscale>  0 0.25560596E+04</rscale>
<asrwt>0</asrwt>
<pdfrwt beam="1">  1        2 0.69858898E+00 0.25560596E+04</pdfrwt>
<pdfrwt beam="2">  1       -2 0.22498011E+00 0.25560596E+04</pdfrwt>
<totfact> 0.86969171E-03</totfact>
</mgrwt>
</event>
<event>
12    1  0.1432447E-007  0.1061396E+04  0.7818608E-02  0.9243657E-01
          1   -1    0    0  501    0  0.00000000000E+00  0.00000000000E+00  0.39083107616E+04  0.39083107616E+04  0.00000000000E+00 0. -1.
         -1   -1    0    0    0  501 -0.00000000000E+00 -0.00000000000E+00 -0.35803538359E+03  0.35803538359E+03  0.00000000000E+00 0.  1.
         23    2    1    2    0    0 -0.92561799518E+03  0.39121690591E+03  0.83586345805E+03  0.13103660848E+04  0.92586257689E+02 0.  0.
    5000000    2    1    2    0    0  0.92561799518E+03 -0.39121690591E+03  0.27144119200E+04  0.29559800605E+04  0.59997225437E+03 0.  0.
         23    2    4    4    0    0 -0.16258004458E+01 -0.11813146511E+03  0.75114260288E+03  0.76568295764E+03  0.89986084970E+02 0.  0.
         23    2    4    4    0    0  0.92724379562E+03 -0.27308544079E+03  0.19632693171E+04  0.21902971028E+04  0.92834652036E+02 0.  0.
          2    1    3    3  502    0 -0.80499786127E+03  0.30642003960E+03  0.70102402749E+03  0.11105626882E+04  0.00000000000E+00 0. -1.
         -2    1    3    3    0  502 -0.12062013391E+03  0.84796866307E+02  0.13483943056E+03  0.19980339655E+03  0.00000000000E+00 0.  1.
         11    1    5    5    0    0  0.41192512031E+02 -0.70274768533E+02  0.49230304295E+03  0.49899664551E+03  0.00000000000E+00 0.  1.
        -11    1    5    5    0    0 -0.42818312477E+02 -0.47856696582E+02  0.25883955993E+03  0.26668631213E+03  0.00000000000E+00 0. -1.
          2    1    6    6  503    0  0.38223350002E+03 -0.14216688945E+03  0.90888533924E+03  0.99618594292E+03  0.00000000000E+00 0.  1.
         -2    1    6    6    0  503  0.54501029560E+03 -0.13091855135E+03  0.10543839779E+04  0.11941111599E+04  0.00000000000E+00 0. -1.
<mgrwt>
<rscale>  0 0.10613961E+04</rscale>
<asrwt>0</asrwt>
<pdfrwt beam="1">  1        1 0.60127855E+00 0.10613961E+04</pdfrwt>
<pdfrwt beam="2">  1       -1 0.55082369E-01 0.10613961E+04</pdfrwt>
<totfact> 0.39946891E-01</totfact>
</mgrwt>
</event>
<event>
12    1  0.1432447E-007  0.7683284E+03  0.7818608E-02  0.9607027E-01
          2   -1    0    0  501    0  0.00000000000E+00  0.00000000000E+00  0.82498245849E+03  0.82498245849E+03  0.00000000000E+00 0. -1.
         -2   -1    0    0    0  501 -0.00000000000E+00 -0.00000000000E+00 -0.76356884471E+03  0.76356884471E+03  0.00000000000E+00 0.  1.
         23    2    1    2    0    0 -0.60233217839E+03 -0.26780127312E+03  0.17820583233E+03  0.68874898684E+03  0.89979293088E+02 0.  0.
    5000000    2    1    2    0    0  0.60233217839E+03  0.26780127312E+03 -0.11679221855E+03  0.89980231636E+03  0.60123390724E+03 0.  0.
         23    2    4    4    0    0 -0.77261566025E+02  0.15491913898E+03 -0.38165564988E+02  0.19961487818E+03  0.91761647939E+02 0.  0.
         23    2    4    4    0    0  0.67959374442E+03  0.11288213414E+03 -0.78626653561E+02  0.70018743818E+03  0.97417987480E+02 0.  0.
          1    1    3    3  502    0 -0.28053609903E+03 -0.13681197474E+03  0.12949724370E+03  0.33791649178E+03  0.00000000000E+00 0. -1.
         -1    1    3    3    0  502 -0.32179607936E+03 -0.13098929838E+03  0.48708588625E+02  0.35083249506E+03  0.00000000000E+00 0.  1.
         11    1    5    5    0    0 -0.67784184309E+02  0.54969694832E+02  0.10756086823E+02  0.87932112428E+02  0.00000000000E+00 0.  1.
        -11    1    5    5    0    0 -0.94773817156E+01  0.99949444149E+02 -0.48921651811E+02  0.11168276575E+03  0.00000000000E+00 0. -1.
          3    1    6    6  503    0  0.40478340683E+03  0.53784824824E+02 -0.13405944524E+00  0.40834107288E+03  0.00000000000E+00 0. -1.
         -3    1    6    6    0  503  0.27481033758E+03  0.59097309313E+02 -0.78492594116E+02  0.29184636530E+03  0.00000000000E+00 0.  1.
<mgrwt>
<rscale>  0 0.76832842E+03</rscale>
<asrwt>0</asrwt>
<pdfrwt beam="1">  1        2 0.12692038E+00 0.76832842E+03</pdfrwt>
<pdfrwt beam="2">  1       -2 0.11747213E+00 0.76832842E+03</pdfrwt>
<totfact> 0.18741897E+01</totfact>
</mgrwt>
</event>
<event>
12    1  0.1432447E-007  0.6733219E+03  0.7818608E-02  0.9763975E-01
         -2   -1    0    0    0  501 -0.00000000000E+00  0.00000000000E+00  0.65523222993E+03  0.65523222993E+03  0.00000000000E+00 0.  1.
          2   -1    0    0  501    0  0.00000000000E+00 -0.00000000000E+00 -0.93264894641E+03  0.93264894641E+03  0.00000000000E+00 0. -1.
         23    2    1    2    0    0 -0.42390995854E+03  0.48134507588E+03 -0.28891198400E+03  0.70924843957E+03  0.90390704827E+02 0.  0.
    5000000    2    1    2    0    0  0.42390995854E+03 -0.48134507588E+03  0.11495267512E+02  0.87863273677E+03  0.60039204685E+03 0.  0.
         23    2    4    4    0    0  0.37501335557E+03 -0.28716383359E+03 -0.24572860224E+03  0.53974010781E+03  0.88536737234E+02 0.  0.
         23    2    4    4    0    0  0.48896602966E+02 -0.19418124229E+03  0.25722386975E+03  0.33889262896E+03  0.92665323358E+02 0.  0.
          4    1    3    3  502    0 -0.22713267961E+03  0.32451650332E+03 -0.17562862164E+03  0.43329623563E+03  0.00000000000E+00 0. -1.
         -4    1    3    3    0  502 -0.19677727893E+03  0.15682857256E+03 -0.11328336236E+03  0.27595220394E+03  0.00000000000E+00 0.  1.
         11    1    5    5    0    0  0.12940736723E+03 -0.48828342607E+02 -0.69231933605E+02  0.15467234519E+03  0.00000000000E+00 0. -1.
        -11    1    5    5    0    0  0.24560598834E+03 -0.23833549098E+03 -0.17649666864E+03  0.38506776262E+03  0.00000000000E+00 0.  1.
          1    1    6    6  503    0 -0.24256120729E+02 -0.29711415023E+02  0.65549210666E+02  0.75946208559E+02  0.00000000000E+00 0. -1.
         -1    1    6    6    0  503  0.73152723695E+02 -0.16446982727E+03  0.19167465909E+03  0.26294642040E+03  0.00000000000E+00 0.  1.
<mgrwt>
<rscale>  0 0.67332187E+03</rscale>
<asrwt>0</asrwt>
<pdfrwt beam="1">  1        2 0.14348445E+00 0.67332187E+03</pdfrwt>
<pdfrwt beam="2">  1       -2 0.10080496E+00 0.67332187E+03</pdfrwt>
<totfact> 0.23131713E+01</totfact>
</mgrwt>
</event>
<event>
12    1  0.1432447E-007  0.3549935E+03  0.7818608E-02  0.1060584E+00
         -1   -1    0    0    0  501 -0.00000000000E+00  0.00000000000E+00  0.15848731103E+03  0.15848731103E+03  0.00000000000E+00 0.  1.
          1   -1    0    0  501    0  0.00000000000E+00 -0.00000000000E+00 -0.10591351185E+04  0.10591351185E+04  0.00000000000E+00 0. -1.
         23    2    1    2    0    0  0.55881288823E+02 -0.14411431899E+03 -0.10772899428E+03  0.21135978262E+03  0.95790219349E+02 0.  0.
    5000000    2    1    2    0    0 -0.55881288823E+02  0.14411431899E+03 -0.79291881313E+03  0.10062626469E+04  0.59996051109E+03 0.  0.
         23    2    4    4    0    0 -0.27847284884E+03  0.90896794642E+02 -0.19714761017E+03  0.36320041966E+03  0.85076494000E+02 0.  0.
         23    2    4    4    0    0  0.22259156002E+03  0.53217524349E+02 -0.59577120297E+03  0.64306222720E+03  0.78781941288E+02 0.  0.
          4    1    3    3  502    0  0.54118263915E+01 -0.11457797125E+03 -0.39078653039E+02  0.12117978579E+03  0.00000000000E+00 0. -1.
         -4    1    3    3    0  502  0.50469462431E+02 -0.29536347740E+02 -0.68650341246E+02  0.90179996834E+02  0.00000000000E+00 0.  1.
         13    1    5    5    0    0 -0.32578982976E+02 -0.15918835276E+02 -0.15922823011E+02  0.39602218889E+02  0.00000000000E+00 0. -1.
        -13    1    5    5    0    0 -0.24589386586E+03  0.10681562992E+03 -0.18122478716E+03  0.32359820077E+03  0.00000000000E+00 0.  1.
          3    1    6    6  503    0  0.94417662252E+02  0.43365129874E+02 -0.17959273152E+03  0.20748199597E+03  0.00000000000E+00 0. -1.
         -3    1    6    6    0  503  0.12817389777E+03  0.98523944747E+01 -0.41617847144E+03  0.43558023123E+03  0.00000000000E+00 0.  1.
<mgrwt>
<rscale>  0 0.35499355E+03</rscale>
<asrwt>0</asrwt>
<pdfrwt beam="1">  1        1 0.16294387E+00 0.35499355E+03</pdfrwt>
<pdfrwt beam="2">  1       -1 0.24382662E-01 0.35499355E+03</pdfrwt>
<totfact> 0.20912126E+02</totfact>
</mgrwt>
</event>
<event>
12    1  0.1432447E-007  0.1427490E+04  0.7818608E-02  0.8934157E-01
          2   -1    0    0  501    0  0.00000000000E+00  0.00000000000E+00  0.27812021427E+04  0.27812021427E+04  0.00000000000E+00 0.  1.
         -2   -1    0    0    0  501 -0.00000000000E+00 -0.00000000000E+00 -0.84208079574E+03  0.84208079574E+03  0.00000000000E+00 0. -1.
         23    2    1    2    0    0  0.84997731731E+03  0.10778494630E+04  0.15559185620E+04  0.20769376043E+04  0.92554500236E+02 0.  0.
    5000000    2    1    2    0    0 -0.84997731731E+03 -0.10778494630E+04  0.38320278493E+03  0.15463453342E+04  0.60009883619E+03 0.  0.
         23    2    4    4    0    0 -0.89819060018E+03 -0.86714298667E+03  0.25080739050E+03  0.12767771210E+04  0.92585938185E+02 0.  0.
         23    2    4    4    0    0  0.48213282869E+02 -0.21070647635E+03  0.13239539443E+03  0.26956821317E+03  0.91742799526E+02 0.  0.
          2    1    3    3  502    0  0.46820528119E+03  0.58280319644E+03  0.77820072208E+03  0.10791070915E+04  0.00000000000E+00 0. -1.
         -2    1    3    3    0  502  0.38177203612E+03  0.49504626658E+03  0.77771783996E+03  0.99783051277E+03  0.00000000000E+00 0.  1.
         13    1    5    5    0    0 -0.34885334609E+03 -0.38224855224E+03  0.13628781841E+03  0.53515136384E+03  0.00000000000E+00 0. -1.
        -13    1    5    5    0    0 -0.54933725409E+03 -0.48489443443E+03  0.11451957210E+03  0.74162575715E+03  0.00000000000E+00 0.  1.
          2    1    6    6  503    0 -0.62053445237E+01 -0.15135916859E+03  0.10577972183E+03  0.18476323706E+03  0.00000000000E+00 0. -1.
         -2    1    6    6    0  503  0.54418627393E+02 -0.59347307766E+02  0.26615672593E+02  0.84804976115E+02  0.00000000000E+00 0.  1.
<mgrwt>
<rscale>  0 0.14274898E+04</rscale>
<asrwt>0</asrwt>
<pdfrwt beam="1">  1        2 0.42787725E+00 0.14274898E+04</pdfrwt>
<pdfrwt beam="2">  1       -2 0.12955089E+00 0.14274898E+04</pdfrwt>
<totfact> 0.99510303E-01</totfact>
</mgrwt>
</event>
<event>
12    1  0.1432447E-007  0.8372503E+03  0.7818608E-02  0.9507611E-01
          1   -1    0    0  501    0  0.00000000000E+00  0.00000000000E+00  0.23437644311E+04  0.23437644311E+04  0.00000000000E+00 0. -1.
         -1   -1    0    0    0  501 -0.00000000000E+00 -0.00000000000E+00 -0.39666781894E+03  0.39666781894E+03  0.00000000000E+00 0.  1.
         23    2    1    2    0    0 -0.31696601307E+03  0.66821197052E+03  0.23489341561E+03  0.78111972024E+03  0.89433828388E+02 0.  0.
    5000000    2    1    2    0    0  0.31696601307E+03 -0.66821197052E+03  0.17122031966E+04  0.19593125298E+04  0.60024254447E+03 0.  0.
         23    2    4    4    0    0 -0.14924535565E+03 -0.14554826439E+03  0.59818091389E+03  0.64039249118E+03  0.93934357772E+02 0.  0.
         23    2    4    4    0    0  0.46621136872E+03 -0.52266370613E+03  0.11140222827E+04  0.13189200387E+04  0.89297435549E+02 0.  0.
          2    1    3    3  502    0 -0.20486028538E+03  0.36904630866E+03  0.96681881536E+02  0.43302459593E+03  0.00000000000E+00 0.  1.
         -2    1    3    3    0  502 -0.11210572769E+03  0.29916566186E+03  0.13821153408E+03  0.34809512431E+03  0.00000000000E+00 0. -1.
         11    1    5    5    0    0 -0.45202608320E+02  0.51661153301E+01  0.11589890097E+03  0.12450911530E+03  0.00000000000E+00 0. -1.
        -11    1    5    5    0    0 -0.10404274733E+03 -0.15071437972E+03  0.48228201292E+03  0.51588337588E+03  0.00000000000E+00 0.  1.
          1    1    6    6  503    0  0.27489723585E+03 -0.25260167812E+03  0.63676911349E+03  0.73814023191E+03  0.00000000000E+00 0. -1.
         -1    1    6    6    0  503  0.19131413287E+03 -0.27006202801E+03  0.47725316921E+03  0.58077980675E+03  0.00000000000E+00 0.  1.
<mgrwt>
<rscale>  0 0.83725028E+03</rscale>
<asrwt>0</asrwt>
<pdfrwt beam="1">  1        1 0.36057913E+00 0.83725028E+03</pdfrwt>
<pdfrwt beam="2">  1       -1 0.61025820E-01 0.83725028E+03</pdfrwt>
<totfact> 0.49212169E+00</totfact>
</mgrwt>
</event>
<event>
12    1  0.1432447E-007  0.5270664E+03  0.7818608E-02  0.1006946E+00
          2   -1    0    0  501    0  0.00000000000E+00  0.00000000000E+00  0.15222043274E+04  0.15222043274E+04  0.00000000000E+00 0. -1.
         -2   -1    0    0    0  501 -0.00000000000E+00 -0.00000000000E+00 -0.32713673478E+03  0.32713673478E+03  0.00000000000E+00 0.  1.
         23    2    1    2    0    0 -0.34454962286E+03  0.10569281877E+03  0.10771611256E+04  0.11395723529E+04  0.91998055783E+02 0.  0.
    5000000    2    1    2    0    0  0.34454962286E+03 -0.10569281877E+03  0.11790646694E+03  0.70976870927E+03  0.59998689249E+03 0.  0.
         23    2    4    4    0    0  0.39543425861E+03  0.13931921391E+03  0.34052385558E+02  0.43036333692E+03  0.90966700285E+02 0.  0.
         23    2    4    4    0    0 -0.50884635751E+02 -0.24501203268E+03  0.83854081381E+02  0.27940537235E+03  0.91737194307E+02 0.  0.
          1    1    3    3  502    0 -0.24560410240E+03  0.52436433391E+02  0.84697407686E+03  0.88342291205E+03  0.00000000000E+00 0. -1.
         -1    1    3    3    0  502 -0.98945520456E+02  0.53256385382E+02  0.23018704878E+03  0.25614944081E+03  0.00000000000E+00 0.  1.
         13    1    5    5    0    0  0.85793744803E+02 -0.75635626609E+01  0.19204178330E+01  0.86147908460E+02  0.00000000000E+00 0.  1.
        -13    1    5    5    0    0  0.30964051380E+03  0.14688277657E+03  0.32131967725E+02  0.34421542846E+03  0.00000000000E+00 0. -1.
          1    1    6    6  503    0  0.68645184284E+01 -0.15299929086E+03  0.22948362840E+02  0.15486294578E+03  0.00000000000E+00 0. -1.
         -1    1    6    6    0  503 -0.57749154180E+02 -0.92012741817E+02  0.60905718541E+02  0.12454242657E+03  0.00000000000E+00 0.  1.
<mgrwt>
<rscale>  0 0.52706639E+03</rscale>
<asrwt>0</asrwt>
<pdfrwt beam="1">  1        2 0.23418528E+00 0.52706639E+03</pdfrwt>
<pdfrwt beam="2">  1       -2 0.50328729E-01 0.52706639E+03</pdfrwt>
<totfact> 0.48423756E+01</totfact>
</mgrwt>
</event>
<event>
12    1  0.1432447E-007  0.1107744E+04  0.7818608E-02  0.9197677E-01
         -2   -1    0    0    0  501 -0.00000000000E+00  0.00000000000E+00  0.10843404268E+04  0.10843404268E+04  0.00000000000E+00 0.  1.
          2   -1    0    0  501    0  0.00000000000E+00 -0.00000000000E+00 -0.15053433617E+04  0.15053433617E+04  0.00000000000E+00 0. -1.
         23    2    1    2    0    0 -0.78925513072E+03 -0.74781432984E+03  0.32810499056E+03  0.11393868367E+04  0.91649034986E+02 0.  0.
    5000000    2    1    2    0    0  0.78925513072E+03  0.74781432984E+03 -0.74910792539E+03  0.14502969518E+04  0.60004052454E+03 0.  0.
         23    2    4    4    0    0  0.56575948224E+03  0.37819594101E+03 -0.73845502721E+03  0.10083807947E+04  0.91651723302E+02 0.  0.
         23    2    4    4    0    0  0.22349564848E+03  0.36961838882E+03 -0.10652898183E+02  0.44191615704E+03  0.92781180027E+02 0.  0.
          4    1    3    3  502    0 -0.65873238608E+02 -0.91181193726E+02  0.53544347447E+02  0.12458045913E+03  0.00000000000E+00 0.  1.
         -4    1    3    3    0  502 -0.72338189211E+03 -0.65663313611E+03  0.27456064312E+03  0.10148063776E+04  0.00000000000E+00 0. -1.
         11    1    5    5    0    0  0.22783146705E+03  0.20083492128E+03 -0.35836248992E+03  0.46975048394E+03  0.00000000000E+00 0.  1.
        -11    1    5    5    0    0  0.33792801520E+03  0.17736101973E+03 -0.38009253729E+03  0.53863031077E+03  0.00000000000E+00 0. -1.
          4    1    6    6  503    0  0.14147195398E+03  0.30518204810E+03 -0.21392047873E+02  0.33705788220E+03  0.00000000000E+00 0.  1.
         -4    1    6    6    0  503  0.82023694497E+02  0.64436340726E+02  0.10739149690E+02  0.10485827483E+03  0.00000000000E+00 0. -1.
<mgrwt>
<rscale>  0 0.11077442E+04</rscale>
<asrwt>0</asrwt>
<pdfrwt beam="1">  1        2 0.23159129E+00 0.11077442E+04</pdfrwt>
<pdfrwt beam="2">  1       -2 0.16682160E+00 0.11077442E+04</pdfrwt>
<totfact> 0.27757505E+00</totfact>
</mgrwt>
</event>
<event>
12    1  0.1432447E-007  0.6048292E+03  0.7818608E-02  0.9895437E-01
          2   -1    0    0  501    0  0.00000000000E+00  0.00000000000E+00  0.15260289250E+04  0.15260289250E+04  0.00000000000E+00 0. -1.
         -2   -1    0    0    0  501 -0.00000000000E+00 -0.00000000000E+00 -0.25839495966E+03  0.25839495966E+03  0.00000000000E+00 0.  1.
         23    2    1    2    0    0  0.43944090049E+03  0.18656401353E+03  0.43075309928E+03  0.64951457451E+03  0.91687042626E+02 0.  0.
    5000000    2    1    2    0    0 -0.43944090049E+03 -0.18656401353E+03  0.83688086608E+03  0.11349093102E+04  0.59977922782E+03 0.  0.
         23    2    4    4    0    0 -0.22623983090E+03  0.19130979129E+03  0.45061295233E+03  0.54727731465E+03  0.93147887790E+02 0.  0.
         23    2    4    4    0    0 -0.21320106959E+03 -0.37787380482E+03  0.38626791375E+03  0.58763199551E+03  0.88685695103E+02 0.  0.
          1    1    3    3  502    0  0.16184641289E+03  0.66790167684E+02  0.21907973692E+03  0.28044806826E+03  0.00000000000E+00 0. -1.
         -1    1    3    3    0  502  0.27759448760E+03  0.11977384585E+03  0.21167336236E+03  0.36906650624E+03  0.00000000000E+00 0.  1.
         11    1    5    5    0    0 -0.91942916242E+02  0.62252846468E+02  0.96244001439E+02  0.14694156850E+03  0.00000000000E+00 0. -1.
        -11    1    5    5    0    0 -0.13429691466E+03  0.12905694482E+03  0.35436895089E+03  0.40033574615E+03  0.00000000000E+00 0.  1.
          4    1    6    6  503    0 -0.69330376378E+02 -0.15321046349E+03  0.97053736924E+02  0.19416378412E+03  0.00000000000E+00 0. -1.
         -4    1    6    6    0  503 -0.14387069321E+03 -0.22466334132E+03  0.28921417682E+03  0.39346821139E+03  0.00000000000E+00 0.  1.
<mgrwt>
<rscale>  0 0.60482917E+03</rscale>
<asrwt>0</asrwt>
<pdfrwt beam="1">  1        2 0.23477368E+00 0.60482917E+03</pdfrwt>
<pdfrwt beam="2">  1       -2 0.39753072E-01 0.60482917E+03</pdfrwt>
<totfact> 0.76130377E+01</totfact>
</mgrwt>
</event>
<event>
12    1  0.1432447E-007  0.1309313E+04  0.7818608E-02  0.9022212E-01
         -1   -1    0    0    0  501 -0.00000000000E+00  0.00000000000E+00  0.13171383937E+04  0.13171383937E+04  0.00000000000E+00 0.  1.
          1   -1    0    0  501    0  0.00000000000E+00 -0.00000000000E+00 -0.20026086145E+04  0.20026086145E+04  0.00000000000E+00 0. -1.
         23    2    1    2    0    0 -0.12755298754E+04 -0.16461821596E+03 -0.12467437605E+04  0.17935494018E+04  0.91508646375E+02 0.  0.
    5000000    2    1    2    0    0  0.12755298754E+04  0.16461821596E+03  0.56127353961E+03  0.15261976064E+04  0.60014625495E+03 0.  0.
         23    2    4    4    0    0  0.74721507454E+03  0.25876563339E+03  0.80487734839E+02  0.80012872848E+03  0.91856877974E+02 0.  0.
         23    2    4    4    0    0  0.52831480090E+03 -0.94147417430E+02  0.48078580477E+03  0.72606887791E+03  0.89670286899E+02 0.  0.
          3    1    3    3  502    0 -0.11250947957E+04 -0.16801920293E+03 -0.11261727716E+04  0.16007291662E+04  0.00000000000E+00 0. -1.
         -3    1    3    3    0  502 -0.15043507974E+03  0.34009869672E+01 -0.12057098881E+03  0.19282023563E+03  0.00000000000E+00 0.  1.
         13    1    5    5    0    0  0.31675632649E+03  0.79921096913E+02 -0.23524139112E+01  0.32669172924E+03  0.00000000000E+00 0. -1.
        -13    1    5    5    0    0  0.43045874805E+03  0.17884453648E+03  0.82840148750E+02  0.47343699924E+03  0.00000000000E+00 0.  1.
          1    1    6    6  503    0  0.42765017098E+03 -0.89981422002E+02  0.34389106827E+03  0.55609566793E+03  0.00000000000E+00 0. -1.
         -1    1    6    6    0  503  0.10066462991E+03 -0.41659954275E+01  0.13689473649E+03  0.16997320999E+03  0.00000000000E+00 0.  1.
<mgrwt>
<rscale>  0 0.13093131E+04</rscale>
<asrwt>0</asrwt>
<pdfrwt beam="1">  1        1 0.30809363E+00 0.13093131E+04</pdfrwt>
<pdfrwt beam="2">  1       -1 0.20263668E+00 0.13093131E+04</pdfrwt>
<totfact> 0.41434779E-01</totfact>
</mgrwt>
</event>
<event>
12    1  0.1432447E-007  0.4531283E+03  0.7818608E-02  0.1026793E+00
          2   -1    0    0  501    0  0.00000000000E+00  0.00000000000E+00  0.81004631120E+03  0.81004631120E+03  0.00000000000E+00 0. -1.
         -2   -1    0    0    0  501 -0.00000000000E+00 -0.00000000000E+00 -0.43327191979E+03  0.43327191979E+03  0.00000000000E+00 0.  1.
         23    2    1    2    0    0  0.86121613342E+02 -0.41382364698E+03  0.24872792098E+03  0.49824434542E+03  0.87834537522E+02 0.  0.
    5000000    2    1    2    0    0 -0.86121613342E+02  0.41382364698E+03  0.12804647043E+03  0.74507388557E+03  0.60006020805E+03 0.  0.
         23    2    4    4    0    0 -0.10267599369E+03  0.64180683056E+02  0.30573408167E+03  0.34208582783E+03  0.94275474826E+02 0.  0.
         23    2    4    4    0    0  0.16554380353E+02  0.34964296392E+03 -0.17768761124E+03  0.40298805774E+03  0.91116616280E+02 0.  0.
          3    1    3    3  502    0  0.62250548889E+02 -0.28100048740E+03  0.12027698254E+03  0.31193421948E+03  0.00000000000E+00 0. -1.
         -3    1    3    3    0  502  0.23871064453E+02 -0.13282315958E+03  0.12845093844E+03  0.18631012593E+03  0.00000000000E+00 0.  1.
         13    1    5    5    0    0 -0.70771133373E+02  0.25441129614E+02  0.27051615082E+03  0.28077534124E+03  0.00000000000E+00 0.  1.
        -13    1    5    5    0    0 -0.31904860322E+02  0.38739553442E+02  0.35217930846E+02  0.61310486592E+02  0.00000000000E+00 0. -1.
          1    1    6    6  503    0  0.46856166485E+02  0.22505017587E+03 -0.86354569473E+02  0.24556097749E+03  0.00000000000E+00 0. -1.
         -1    1    6    6    0  503 -0.30301786133E+02  0.12459278806E+03 -0.91333041764E+02  0.15742708025E+03  0.00000000000E+00 0.  1.
<mgrwt>
<rscale>  0 0.45312833E+03</rscale>
<asrwt>0</asrwt>
<pdfrwt beam="1">  1        2 0.12462251E+00 0.45312833E+03</pdfrwt>
<pdfrwt beam="2">  1       -2 0.66657219E-01 0.45312833E+03</pdfrwt>
<totfact> 0.72936894E+01</totfact>
</mgrwt>
</event>
<event>
12    1  0.1432447E-007  0.5545996E+03  0.7818608E-02  0.1000435E+00
         -2   -1    0    0    0  501 -0.00000000000E+00  0.00000000000E+00  0.12854167301E+04  0.12854167301E+04  0.00000000000E+00 0.  1.
          2   -1    0    0  501    0  0.00000000000E+00 -0.00000000000E+00 -0.35236414926E+03  0.35236414926E+03  0.00000000000E+00 0. -1.
         23    2    1    2    0    0 -0.10735266542E+03 -0.52374818896E+03  0.35332481052E+03  0.64799740018E+03  0.96049199388E+02 0.  0.
    5000000    2    1    2    0    0  0.10735266542E+03  0.52374818896E+03  0.57972777032E+03  0.98978347918E+03  0.59812230167E+03 0.  0.
         23    2    4    4    0    0  0.12475042724E+03  0.31618630639E+03 -0.15207370752E+02  0.35260788842E+03  0.92545174920E+02 0.  0.
         23    2    4    4    0    0 -0.17397761821E+02  0.20756188257E+03  0.59493514107E+03  0.63717559076E+03  0.93060701518E+02 0.  0.
          3    1    3    3  502    0  0.94273142833E+01 -0.12585236009E+03  0.57937640676E+02  0.13886850255E+03  0.00000000000E+00 0. -1.
         -3    1    3    3    0  502 -0.11677997970E+03 -0.39789582887E+03  0.29538716985E+03  0.50912889763E+03  0.00000000000E+00 0.  1.
         13    1    5    5    0    0  0.13557073076E+03  0.24391757488E+03 -0.79555562741E+01  0.27917467158E+03  0.00000000000E+00 0.  1.
        -13    1    5    5    0    0 -0.10820303514E+02  0.72268731509E+02 -0.72518144782E+01  0.73433216839E+02  0.00000000000E+00 0. -1.
          2    1    6    6  503    0  0.20364851882E+02  0.10333963528E+03  0.39238481996E+03  0.40627534302E+03  0.00000000000E+00 0. -1.
         -2    1    6    6    0  503 -0.37762613703E+02  0.10422224729E+03  0.20255032112E+03  0.23090024774E+03  0.00000000000E+00 0.  1.
<mgrwt>
<rscale>  0 0.55459960E+03</rscale>
<asrwt>0</asrwt>
<pdfrwt beam="1">  1        2 0.54209870E-01 0.55459960E+03</pdfrwt>
<pdfrwt beam="2">  1       -2 0.19775642E+00 0.55459960E+03</pdfrwt>
<totfact> 0.13124508E+01</totfact>
</mgrwt>
</event>
<event>
12    1  0.1432447E-007  0.6920419E+03  0.7818608E-02  0.9730939E-01
          2   -1    0    0  501    0  0.00000000000E+00  0.00000000000E+00  0.13204423317E+04  0.13204423317E+04  0.00000000000E+00 0. -1.
         -2   -1    0    0    0  501 -0.00000000000E+00 -0.00000000000E+00 -0.49267351254E+03  0.49267351254E+03  0.00000000000E+00 0.  1.
         23    2    1    2    0    0 -0.53556974880E+03  0.18623280932E+03  0.80293150631E+03  0.98710118637E+03  0.90289164471E+02 0.  0.
    5000000    2    1    2    0    0  0.53556974880E+03 -0.18623280932E+03  0.24837312817E+02  0.82601465783E+03  0.60013807390E+03 0.  0.
         23    2    4    4    0    0  0.49518960243E+03  0.10782530896E+03  0.21675145312E+02  0.51549565895E+03  0.91798272705E+02 0.  0.
         23    2    4    4    0    0  0.40380146377E+02 -0.29405811828E+03  0.31621675052E+01  0.31051899888E+03  0.91166420437E+02 0.  0.
          1    1    3    3  502    0 -0.46706315343E+03  0.18386389676E+03  0.73911760538E+03  0.89344767972E+03  0.00000000000E+00 0. -1.
         -1    1    3    3    0  502 -0.68506595373E+02  0.23689125609E+01  0.63813900932E+02  0.93653506653E+02  0.00000000000E+00 0.  1.
         11    1    5    5    0    0  0.12861904263E+03 -0.88178132462E+01  0.22175137161E+02  0.13081417608E+03  0.00000000000E+00 0. -1.
        -11    1    5    5    0    0  0.36657055980E+03  0.11664312220E+03 -0.49999184959E+00  0.38468148287E+03  0.00000000000E+00 0.  1.
          3    1    6    6  503    0  0.42843818142E+02 -0.15249103202E+03  0.41674814514E+02  0.16378613423E+03  0.00000000000E+00 0. -1.
         -3    1    6    6    0  503 -0.24636717657E+01 -0.14156708626E+03 -0.38512647009E+02  0.14673286465E+03  0.00000000000E+00 0.  1.
<mgrwt>
<rscale>  0 0.69204185E+03</rscale>
<asrwt>0</asrwt>
<pdfrwt beam="1">  1        2 0.20314497E+00 0.69204185E+03</pdfrwt>
<pdfrwt beam="2">  1       -2 0.75795926E-01 0.69204185E+03</pdfrwt>
<totfact> 0.25778610E+01</totfact>
</mgrwt>
</event>
<event>
12    1  0.1432447E-007  0.9529291E+03  0.7818608E-02  0.9361733E-01
         -2   -1    0    0    0  501 -0.00000000000E+00  0.00000000000E+00  0.52760750107E+03  0.52760750107E+03  0.00000000000E+00 0.  1.
          2   -1    0    0  501    0  0.00000000000E+00 -0.00000000000E+00 -0.20242951199E+04  0.20242951199E+04  0.00000000000E+00 0. -1.
         23    2    1    2    0    0  0.47915843092E+03 -0.72302221351E+03 -0.11466060563E+04  0.14406009063E+04  0.90948335230E+02 0.  0.
    5000000    2    1    2    0    0 -0.47915843092E+03  0.72302221351E+03 -0.35008156258E+03  0.11113017147E+04  0.60006706089E+03 0.  0.
         23    2    4    4    0    0  0.61364316118E+02  0.38528411715E+03 -0.59618768606E+02  0.40494792061E+03  0.90658648871E+02 0.  0.
         23    2    4    4    0    0 -0.54052274703E+03  0.33773809637E+03 -0.29046279397E+03  0.70635379413E+03  0.91297239825E+02 0.  0.
          3    1    3    3  502    0  0.30614618709E+03 -0.41003234891E+03 -0.61752107083E+03  0.80198771059E+03  0.00000000000E+00 0. -1.
         -3    1    3    3    0  502  0.17301224383E+03 -0.31298986460E+03 -0.52908498545E+03  0.63861319567E+03  0.00000000000E+00 0.  1.
         11    1    5    5    0    0  0.73251024679E+02  0.22041901831E+03 -0.10491769521E+02  0.23250878151E+03  0.00000000000E+00 0.  1.
        -11    1    5    5    0    0 -0.11886708561E+02  0.16486509883E+03 -0.49126999085E+02  0.17243913910E+03  0.00000000000E+00 0. -1.
          3    1    6    6  503    0 -0.10706169806E+03  0.46408331178E+02 -0.88277744064E+02  0.14631780647E+03  0.00000000000E+00 0. -1.
         -3    1    6    6    0  503 -0.43346104898E+03  0.29132976519E+03 -0.20218504991E+03  0.56003598766E+03  0.00000000000E+00 0.  1.
<mgrwt>
<rscale>  0 0.95292912E+03</rscale>
<asrwt>0</asrwt>
<pdfrwt beam="1">  1        2 0.31143002E+00 0.95292912E+03</pdfrwt>
<pdfrwt beam="2">  1       -2 0.81170383E-01 0.95292912E+03</pdfrwt>
<totfact> 0.87325565E+00</totfact>
</mgrwt>
</event>
<event>
12    1  0.1432447E-007  0.9274082E+03  0.7818608E-02  0.9391954E-01
          2   -1    0    0  501    0  0.00000000000E+00  0.00000000000E+00  0.47955042756E+03  0.47955042756E+03  0.00000000000E+00 0. -1.
         -2   -1    0    0    0  501 -0.00000000000E+00 -0.00000000000E+00 -0.19738722988E+04  0.19738722988E+04  0.00000000000E+00 0.  1.
         23    2    1    2    0    0  0.63355499198E+03 -0.58051433814E+03 -0.45133372950E+03  0.97484103049E+03  0.90686684244E+02 0.  0.
    5000000    2    1    2    0    0 -0.63355499198E+03  0.58051433814E+03 -0.10429881417E+04  0.14785816958E+04  0.59999228567E+03 0.  0.
         23    2    4    4    0    0 -0.46859783782E+03  0.10435940471E+03 -0.29755910194E+03  0.57410917170E+03  0.10288392939E+03 0.  0.
         23    2    4    4    0    0 -0.16495715416E+03  0.47615493343E+03 -0.74542903975E+03  0.90447252412E+03  0.92041893957E+02 0.  0.
          3    1    3    3  502    0  0.34712103137E+03 -0.35205041351E+03 -0.21702128891E+03  0.53993587019E+03  0.00000000000E+00 0. -1.
         -3    1    3    3    0  502  0.28643396061E+03 -0.22846392463E+03 -0.23431244059E+03  0.43490516031E+03  0.00000000000E+00 0.  1.
         11    1    5    5    0    0 -0.55639982764E+02  0.26221959675E+02 -0.79819441586E+02  0.10076974797E+03  0.00000000000E+00 0. -1.
        -11    1    5    5    0    0 -0.41295785505E+03  0.78137445032E+02 -0.21773966036E+03  0.47333942373E+03  0.00000000000E+00 0.  1.
          2    1    6    6  503    0 -0.17432133018E+03  0.41146290938E+03 -0.64740944724E+03  0.78665662416E+03  0.00000000000E+00 0. -1.
         -2    1    6    6    0  503  0.93641760197E+01  0.64692024053E+02 -0.98019592511E+02  0.11781589996E+03  0.00000000000E+00 0.  1.
<mgrwt>
<rscale>  0 0.92740822E+03</rscale>
<asrwt>0</asrwt>
<pdfrwt beam="1">  1        2 0.73776987E-01 0.92740822E+03</pdfrwt>
<pdfrwt beam="2">  1       -2 0.30367267E+00 0.92740822E+03</pdfrwt>
<totfact> 0.19834039E+00</totfact>
</mgrwt>
</event>
<event>
12    1  0.1432447E-007  0.2452359E+03  0.7818608E-02  0.1116353E+00
          2   -1    0    0  501    0  0.00000000000E+00  0.00000000000E+00  0.13217411892E+03  0.13217411892E+03  0.00000000000E+00 0. -1.
         -2   -1    0    0    0  501 -0.00000000000E+00 -0.00000000000E+00 -0.14023500309E+04  0.14023500309E+04  0.00000000000E+00 0.  1.
         23    2    1    2    0    0  0.10127614036E+03  0.15761765942E+03 -0.48987083090E+03  0.53257571005E+03  0.92537953318E+02 0.  0.
    5000000    2    1    2    0    0 -0.10127614036E+03 -0.15761765942E+03 -0.78030508109E+03  0.10019484398E+04  0.59993705771E+03 0.  0.
         23    2    4    4    0    0 -0.16160708110E+03 -0.87773354988E+02 -0.83582290385E+03  0.86049489806E+03  0.89613238346E+02 0.  0.
         23    2    4    4    0    0  0.60330940739E+02 -0.69844304432E+02  0.55517822758E+02  0.14145354171E+03  0.91699654009E+02 0.  0.
          4    1    3    3  502    0 -0.62963534415E+01  0.95210475815E-01  0.59295119867E+00  0.63249286809E+01  0.00000000000E+00 0. -1.
         -4    1    3    3    0  502  0.10757249380E+03  0.15752244894E+03 -0.49046378209E+03  0.52625078137E+03  0.00000000000E+00 0.  1.
         13    1    5    5    0    0 -0.14218109416E+03 -0.73243845143E+02 -0.52735976901E+03  0.55107935033E+03  0.00000000000E+00 0.  1.
        -13    1    5    5    0    0 -0.19425986933E+02 -0.14529509845E+02 -0.30846313483E+03  0.30941554773E+03  0.00000000000E+00 0. -1.
          2    1    6    6  503    0  0.65493510283E+02 -0.35493746666E+02  0.71466256819E+02  0.10323096340E+03  0.00000000000E+00 0. -1.
         -2    1    6    6    0  503 -0.51625695436E+01 -0.34350557766E+02 -0.15948434061E+02  0.38222578302E+02  0.00000000000E+00 0.  1.
<mgrwt>
<rscale>  0 0.24523587E+03</rscale>
<asrwt>0</asrwt>
<pdfrwt beam="1">  1        2 0.20334479E-01 0.24523587E+03</pdfrwt>
<pdfrwt beam="2">  1       -2 0.21574617E+00 0.24523587E+03</pdfrwt>
<totfact> 0.31599523E+01</totfact>
</mgrwt>
</event>
<event>
12    1  0.1432447E-007  0.2684095E+03  0.7818608E-02  0.1102193E+00
          1   -1    0    0  501    0  0.00000000000E+00  0.00000000000E+00  0.11460288862E+04  0.11460288862E+04  0.00000000000E+00 0. -1.
         -1   -1    0    0    0  501 -0.00000000000E+00 -0.00000000000E+00 -0.22388753800E+03  0.22388753800E+03  0.00000000000E+00 0.  1.
         23    2    1    2    0    0  0.55658268302E+02 -0.73683712023E+02  0.71760337371E+03  0.72919531751E+03  0.90796899067E+02 0.  0.
    5000000    2    1    2    0    0 -0.55658268302E+02  0.73683712023E+02  0.20453797451E+03  0.64072110670E+03  0.60013383616E+03 0.  0.
         23    2    4    4    0    0 -0.23828653126E+03 -0.56957771128E+00  0.30995312822E+03  0.40140825421E+03  0.90977191945E+02 0.  0.
         23    2    4    4    0    0  0.18262826296E+03  0.74253289734E+02 -0.10541515372E+03  0.23931285248E+03  0.85391177902E+02 0.  0.
          1    1    3    3  502    0  0.13598166054E+02 -0.44769199750E+02  0.58867654907E+03  0.59053303955E+03  0.00000000000E+00 0. -1.
         -1    1    3    3    0  502  0.42060102248E+02 -0.28914512273E+02  0.12892682463E+03  0.13866227797E+03  0.00000000000E+00 0.  1.
         11    1    5    5    0    0 -0.18146571607E+03  0.11845774841E+02  0.28509870871E+03  0.33815884167E+03  0.00000000000E+00 0. -1.
        -11    1    5    5    0    0 -0.56820815190E+02 -0.12415352552E+02  0.24854419517E+02  0.63249412545E+02  0.00000000000E+00 0.  1.
          1    1    6    6  503    0  0.17305396379E+03  0.76394139639E+02 -0.68612182591E+02  0.20122467681E+03  0.00000000000E+00 0. -1.
         -1    1    6    6    0  503  0.95742991649E+01 -0.21408499044E+01 -0.36802971125E+02  0.38088175678E+02  0.00000000000E+00 0.  1.
<mgrwt>
<rscale>  0 0.26840947E+03</rscale>
<asrwt>0</asrwt>
<pdfrwt beam="1">  1        1 0.17631213E+00 0.26840947E+03</pdfrwt>
<pdfrwt beam="2">  1       -1 0.34444237E-01 0.26840947E+03</pdfrwt>
<totfact> 0.10187921E+02</totfact>
</mgrwt>
</event>
<event>
12    1  0.1432447E-007  0.6675970E+03  0.7818608E-02  0.9774309E-01
         -2   -1    0    0    0  501 -0.00000000000E+00  0.00000000000E+00  0.11724111524E+04  0.11724111524E+04  0.00000000000E+00 0.  1.
          2   -1    0    0  501    0  0.00000000000E+00 -0.00000000000E+00 -0.49813891073E+03  0.49813891073E+03  0.00000000000E+00 0. -1.
         23    2    1    2    0    0 -0.44971983262E+03 -0.45145912347E+03  0.37837654165E+03  0.74661860338E+03  0.90593949104E+02 0.  0.
    5000000    2    1    2    0    0  0.44971983262E+03  0.45145912347E+03  0.29589570006E+03  0.92393145981E+03  0.60002650699E+03 0.  0.
         23    2    4    4    0    0  0.36427192091E+03  0.20274422105E+03  0.43804516207E+03  0.61145519326E+03  0.90524238855E+02 0.  0.
         23    2    4    4    0    0  0.85447911710E+02  0.24871490242E+03 -0.14214946201E+03  0.31247626654E+03  0.90964274881E+02 0.  0.
          2    1    3    3  502    0 -0.16381168118E+03 -0.22583261146E+03  0.15051656207E+03  0.31700137341E+03  0.00000000000E+00 0. -1.
         -2    1    3    3    0  502 -0.28590815144E+03 -0.22562651201E+03  0.22785997958E+03  0.42961722996E+03  0.00000000000E+00 0.  1.
         11    1    5    5    0    0 -0.10390155784E+01 -0.58395989868E+01  0.55913564029E+01  0.81513027255E+01  0.00000000000E+00 0.  1.
        -11    1    5    5    0    0  0.36531093649E+03  0.20858382004E+03  0.43245380566E+03  0.60330389054E+03  0.00000000000E+00 0. -1.
          2    1    6    6  503    0  0.19010138681E+01  0.47337878474E+02  0.75991039787E+01  0.47981610784E+02  0.00000000000E+00 0. -1.
         -2    1    6    6    0  503  0.83546897842E+02  0.20137702394E+03 -0.14974856598E+03  0.26449465576E+03  0.00000000000E+00 0.  1.
<mgrwt>
<rscale>  0 0.66759698E+03</rscale>
<asrwt>0</asrwt>
<pdfrwt beam="1">  1        2 0.76636756E-01 0.66759698E+03</pdfrwt>
<pdfrwt beam="2">  1       -2 0.18037095E+00 0.66759698E+03</pdfrwt>
<totfact> 0.11435014E+01</totfact>
</mgrwt>
</event>
<event>
12    1  0.1432447E-007  0.1122025E+04  0.7818608E-02  0.9183987E-01
         -1   -1    0    0    0  501 -0.00000000000E+00  0.00000000000E+00  0.12250893035E+04  0.12250893035E+04  0.00000000000E+00 0.  1.
          1   -1    0    0  501    0  0.00000000000E+00 -0.00000000000E+00 -0.15308154365E+04  0.15308154365E+04  0.00000000000E+00 0. -1.
         23    2    1    2    0    0  0.53653180710E+03  0.93565759168E+03  0.58827554525E+03  0.12319617556E+04  0.91324373510E+02 0.  0.
    5000000    2    1    2    0    0 -0.53653180710E+03 -0.93565759168E+03 -0.89400167826E+03  0.15239429844E+04  0.59986807724E+03 0.  0.
         23    2    4    4    0    0 -0.26592521858E+03 -0.81941426197E+03 -0.84575466336E+03  0.12101395169E+04  0.83550854070E+02 0.  0.
         23    2    4    4    0    0 -0.27060658852E+03 -0.11624332971E+03 -0.48247014899E+02  0.31380346749E+03  0.96976307973E+02 0.  0.
          1    1    3    3  502    0  0.31970736313E+02  0.22530143384E+02  0.23813372433E+02  0.45790960330E+02  0.00000000000E+00 0. -1.
         -1    1    3    3    0  502  0.50456107079E+03  0.91312744830E+03  0.56446217282E+03  0.11861707953E+04  0.00000000000E+00 0.  1.
         13    1    5    5    0    0 -0.28613743987E+02 -0.11920409379E+03 -0.16151280404E+03  0.20276771979E+03  0.00000000000E+00 0. -1.
        -13    1    5    5    0    0 -0.23731147459E+03 -0.70021016818E+03 -0.68424185931E+03  0.10073717971E+04  0.00000000000E+00 0.  1.
          3    1    6    6  503    0 -0.46396356926E+02  0.16862953863E+01  0.21325854630E+02  0.51090680206E+02  0.00000000000E+00 0. -1.
         -3    1    6    6    0  503 -0.22421023160E+03 -0.11792962510E+03 -0.69572869529E+02  0.26271278729E+03  0.00000000000E+00 0.  1.
<mgrwt>
<rscale>  0 0.11220249E+04</rscale>
<asrwt>0</asrwt>
<pdfrwt beam="1">  1        1 0.23551007E+00 0.11220249E+04</pdfrwt>
<pdfrwt beam="2">  1       -1 0.18847528E+00 0.11220249E+04</pdfrwt>
<totfact> 0.11164703E+00</totfact>
</mgrwt>
</event>
<event>
12    1  0.1432447E-007  0.9198697E+03  0.7818608E-02  0.9401079E-01
         -2   -1    0    0    0  501 -0.00000000000E+00  0.00000000000E+00  0.12351914044E+04  0.12351914044E+04  0.00000000000E+00 0.  1.
          2   -1    0    0  501    0  0.00000000000E+00 -0.00000000000E+00 -0.15984695168E+04  0.15984695168E+04  0.00000000000E+00 0. -1.
         23    2    1    2    0    0  0.50905796151E+03  0.64857405894E+03 -0.12379690183E+04  0.14902515938E+04  0.92164007800E+02 0.  0.
    5000000    2    1    2    0    0 -0.50905796151E+03 -0.64857405894E+03  0.87469090595E+03  0.13434093274E+04  0.59989675928E+03 0.  0.
         23    2    4    4    0    0 -0.27379530676E+03 -0.70048982816E+03  0.70517212859E+03  0.10349975952E+04  0.91117626437E+02 0.  0.
         23    2    4    4    0    0 -0.23526265474E+03  0.51915769211E+02  0.16951877737E+03  0.30841173214E+03  0.91309456404E+02 0.  0.
          4    1    3    3  502    0  0.24639691600E+03  0.38444886597E+03 -0.65596670335E+03  0.79925258002E+03  0.00000000000E+00 0.  1.
         -4    1    3    3    0  502  0.26266104551E+03  0.26412519297E+03 -0.58200231497E+03  0.69099901376E+03  0.00000000000E+00 0. -1.
         11    1    5    5    0    0 -0.13014427478E+03 -0.28393425892E+03  0.34952866751E+03  0.46874991739E+03  0.00000000000E+00 0.  1.
        -11    1    5    5    0    0 -0.14365103199E+03 -0.41655556923E+03  0.35564346108E+03  0.56624767784E+03  0.00000000000E+00 0. -1.
          2    1    6    6  503    0 -0.53412915975E+02  0.53761265014E+02  0.50465178111E+02  0.91049148324E+02  0.00000000000E+00 0.  1.
         -2    1    6    6    0  503 -0.18184973877E+03 -0.18454958023E+01  0.11905359925E+03  0.21736258381E+03  0.00000000000E+00 0. -1.
<mgrwt>
<rscale>  0 0.91986968E+03</rscale>
<asrwt>0</asrwt>
<pdfrwt beam="1">  1        2 0.24591839E+00 0.91986968E+03</pdfrwt>
<pdfrwt beam="2">  1       -2 0.19002945E+00 0.91986968E+03</pdfrwt>
<totfact> 0.17397724E+00</totfact>
</mgrwt>
</event>
<event>
12    1  0.1432447E-007  0.2599834E+03  0.7818608E-02  0.1107153E+00
         -4   -1    0    0    0  501 -0.00000000000E+00  0.00000000000E+00  0.24991442752E+03  0.24991442752E+03  0.00000000000E+00 0.  1.
          4   -1    0    0  501    0  0.00000000000E+00 -0.00000000000E+00 -0.73793294489E+03  0.73793294489E+03  0.00000000000E+00 0. -1.
         23    2    1    2    0    0  0.18252322592E+03 -0.23340821693E+01 -0.20920681510E+02  0.20559205222E+03  0.92250967899E+02 0.  0.
    5000000    2    1    2    0    0 -0.18252322592E+03  0.23340821693E+01 -0.46709783586E+03  0.78225532020E+03  0.60035224808E+03 0.  0.
         23    2    4    4    0    0 -0.19479107288E+03 -0.55340324831E+02  0.69423127863E+02  0.23518816346E+03  0.97405276655E+02 0.  0.
         23    2    4    4    0    0  0.12267846959E+02  0.57674407000E+02 -0.53652096372E+03  0.54706715674E+03  0.89167775447E+02 0.  0.
          4    1    3    3  502    0  0.50131190930E+02  0.33361644670E+02  0.18364715404E+02  0.62955527248E+02  0.00000000000E+00 0.  1.
         -4    1    3    3    0  502  0.13239203499E+03 -0.35695726839E+02 -0.39285396914E+02  0.14263652497E+03  0.00000000000E+00 0. -1.
         13    1    5    5    0    0 -0.13808715022E+03  0.82080807161E+01  0.31044632553E+02  0.14177165744E+03  0.00000000000E+00 0. -1.
        -13    1    5    5    0    0 -0.56703922667E+02 -0.63548405547E+02  0.38378495310E+02  0.93416506013E+02  0.00000000000E+00 0.  1.
          4    1    6    6  503    0 -0.31226283425E+02  0.63686775466E+01 -0.28251143635E+03  0.28430327556E+03  0.00000000000E+00 0. -1.
         -4    1    6    6    0  503  0.43494130384E+02  0.51305729454E+02 -0.25400952738E+03  0.26276388118E+03  0.00000000000E+00 0.  1.
<mgrwt>
<rscale>  0 0.25998343E+03</rscale>
<asrwt>0</asrwt>
<pdfrwt beam="1">  1        4 0.11352814E+00 0.25998343E+03</pdfrwt>
<pdfrwt beam="2">  1       -4 0.38448374E-01 0.25998343E+03</pdfrwt>
<totfact> 0.75341987E+00</totfact>
</mgrwt>
</event>
<event>
12    1  0.1432447E-007  0.6673776E+03  0.7818608E-02  0.9774707E-01
         -2   -1    0    0    0  501 -0.00000000000E+00  0.00000000000E+00  0.10002534729E+03  0.10002534729E+03  0.00000000000E+00 0.  1.
          2   -1    0    0  501    0  0.00000000000E+00 -0.00000000000E+00 -0.53634766944E+04  0.53634766944E+04  0.00000000000E+00 0. -1.
         23    2    1    2    0    0  0.25679494168E+03 -0.51951444792E+03 -0.15434557341E+04  0.16511041320E+04  0.89723732054E+02 0.  0.
    5000000    2    1    2    0    0 -0.25679494168E+03  0.51951444792E+03 -0.37199956131E+04  0.38123979097E+04  0.60014294708E+03 0.  0.
         23    2    4    4    0    0 -0.30427768737E+03  0.87025902085E+02 -0.91510461472E+03  0.97255241766E+03  0.91012804299E+02 0.  0.
         23    2    4    4    0    0  0.47482745685E+02  0.43248854584E+03 -0.28048909983E+04  0.28398454920E+04  0.89487164564E+02 0.  0.
          3    1    3    3  502    0  0.69795750351E+02 -0.11472272410E+03 -0.26428463377E+03  0.29644412263E+03  0.00000000000E+00 0. -1.
         -3    1    3    3    0  502  0.18699919133E+03 -0.40479172382E+03 -0.12791711003E+04  0.13546600094E+04  0.00000000000E+00 0.  1.
         11    1    5    5    0    0 -0.16412430418E+03  0.52639378264E+02 -0.62795574346E+03  0.65118054878E+03  0.00000000000E+00 0.  1.
        -11    1    5    5    0    0 -0.14015338318E+03  0.34386523821E+02 -0.28714887126E+03  0.32137186887E+03  0.00000000000E+00 0. -1.
          2    1    6    6  503    0 -0.97485102825E+01  0.10486646616E+03 -0.89970200057E+03  0.90584529530E+03  0.00000000000E+00 0. -1.
         -2    1    6    6    0  503  0.57231255968E+02  0.32762207968E+03 -0.19051889978E+04  0.19340001967E+04  0.00000000000E+00 0.  1.
<mgrwt>
<rscale>  0 0.66737764E+03</rscale>
<asrwt>0</asrwt>
<pdfrwt beam="1">  1        2 0.82515014E+00 0.66737764E+03</pdfrwt>
<pdfrwt beam="2">  1       -2 0.15388517E-01 0.66737764E+03</pdfrwt>
<totfact> 0.43128960E-01</totfact>
</mgrwt>
</event>
<event>
12    1  0.1432447E-007  0.1429691E+04  0.7818608E-02  0.8932603E-01
         -2   -1    0    0    0  501 -0.00000000000E+00  0.00000000000E+00  0.41636129146E+04  0.41636129146E+04  0.00000000000E+00 0.  1.
          2   -1    0    0  501    0  0.00000000000E+00 -0.00000000000E+00 -0.51951972357E+03  0.51951972357E+03  0.00000000000E+00 0. -1.
         23    2    1    2    0    0 -0.14074791619E+04 -0.20279300703E+02  0.17914654792E+04  0.22801768260E+04  0.91918188993E+02 0.  0.
    5000000    2    1    2    0    0  0.14074791619E+04  0.20279300703E+02  0.18526277118E+04  0.24029558121E+04  0.60046511598E+03 0.  0.
         23    2    4    4    0    0  0.95930007332E+03 -0.13793241784E+03  0.15522159841E+04  0.18324941417E+04  0.96841805886E+02 0.  0.
         23    2    4    4    0    0  0.44817908855E+03  0.15821171854E+03  0.30041172767E+03  0.57046167047E+03  0.96352831064E+02 0.  0.
          2    1    3    3  502    0 -0.57733677066E+03 -0.20875353745E+02  0.66554135327E+03  0.88130517987E+03  0.00000000000E+00 0. -1.
         -2    1    3    3    0  502 -0.83014239121E+03  0.59605304210E+00  0.11259241259E+04  0.13988716461E+04  0.00000000000E+00 0.  1.
         11    1    5    5    0    0  0.86586731177E+03 -0.12849414241E+03  0.13419012300E+04  0.16021659893E+04  0.00000000000E+00 0. -1.
        -11    1    5    5    0    0  0.93432761550E+02 -0.94382754274E+01  0.21031475410E+03  0.23032815235E+03  0.00000000000E+00 0.  1.
          1    1    6    6  503    0  0.40563049444E+03  0.11498645942E+03  0.24136675849E+03  0.48581467245E+03  0.00000000000E+00 0. -1.
         -1    1    6    6    0  503  0.42548594117E+02  0.43225259127E+02  0.59044969187E+02  0.84646998023E+02  0.00000000000E+00 0.  1.
<mgrwt>
<rscale>  0 0.14296906E+04</rscale>
<asrwt>0</asrwt>
<pdfrwt beam="1">  1        2 0.79926114E-01 0.14296906E+04</pdfrwt>
<pdfrwt beam="2">  1       -2 0.64055581E+00 0.14296906E+04</pdfrwt>
<totfact> 0.19959187E-02</totfact>
</mgrwt>
</event>
<event>
12    1  0.1432447E-007  0.7244877E+03  0.7818608E-02  0.9676248E-01
         -2   -1    0    0    0  501 -0.00000000000E+00  0.00000000000E+00  0.31793629284E+03  0.31793629284E+03  0.00000000000E+00 0.  1.
          2   -1    0    0  501    0  0.00000000000E+00 -0.00000000000E+00 -0.17975430767E+04  0.17975430767E+04  0.00000000000E+00 0. -1.
         23    2    1    2    0    0 -0.60195213065E+03  0.29993177906E+02 -0.35491183345E+03  0.70547103256E+03  0.92092398909E+02 0.  0.
    5000000    2    1    2    0    0  0.60195213065E+03 -0.29993177906E+02 -0.11246949504E+04  0.14100083369E+04  0.59994901494E+03 0.  0.
         23    2    4    4    0    0  0.60057377622E+02  0.22014516941E+03 -0.29985310113E+03  0.38785606824E+03  0.91922049544E+02 0.  0.
         23    2    4    4    0    0  0.54189475303E+03 -0.25013834732E+03 -0.82484184925E+03  0.10221522687E+04  0.90620461154E+02 0.  0.
          3    1    3    3  502    0 -0.79212804889E+02 -0.25451990318E+02 -0.36253907016E+02  0.90756917331E+02  0.00000000000E+00 0. -1.
         -3    1    3    3    0  502 -0.52273932577E+03  0.55445168224E+02 -0.31865792644E+03  0.61471411523E+03  0.00000000000E+00 0.  1.
         13    1    5    5    0    0  0.27508179522E+02  0.20601462705E+02 -0.90534858782E+02  0.96838426572E+02  0.00000000000E+00 0. -1.
        -13    1    5    5    0    0  0.32549198100E+02  0.19954370671E+03 -0.20931824235E+03  0.29101764167E+03  0.00000000000E+00 0.  1.
          4    1    6    6  503    0  0.16053377933E+03 -0.12062141220E+03 -0.26458711723E+03  0.33215502705E+03  0.00000000000E+00 0.  1.
         -4    1    6    6    0  503  0.38136097370E+03 -0.12951693511E+03 -0.56025473202E+03  0.68999724166E+03  0.00000000000E+00 0. -1.
<mgrwt>
<rscale>  0 0.72448767E+03</rscale>
<asrwt>0</asrwt>
<pdfrwt beam="1">  1        2 0.27654509E+00 0.72448767E+03</pdfrwt>
<pdfrwt beam="2">  1       -2 0.48913276E-01 0.72448767E+03</pdfrwt>
<totfact> 0.35325714E+01</totfact>
</mgrwt>
</event>
<event>
12    1  0.1432447E-007  0.5223350E+03  0.7818608E-02  0.1008108E+00
          2   -1    0    0  501    0  0.00000000000E+00  0.00000000000E+00  0.24144905772E+04  0.24144905772E+04  0.00000000000E+00 0. -1.
         -2   -1    0    0    0  501 -0.00000000000E+00 -0.00000000000E+00 -0.13178305829E+03  0.13178305829E+03  0.00000000000E+00 0.  1.
         23    2    1    2    0    0 -0.34525314811E+03 -0.19607330002E+03  0.77978218410E+03  0.87998718686E+03  0.93127434978E+02 0.  0.
    5000000    2    1    2    0    0  0.34525314811E+03  0.19607330002E+03  0.15029253349E+04  0.16662864487E+04  0.60006790584E+03 0.  0.
         23    2    4    4    0    0  0.24751438821E+03 -0.14298480367E+03  0.37008756286E+03  0.47628340914E+03  0.90404951142E+02 0.  0.
         23    2    4    4    0    0  0.97738759903E+02  0.33905810368E+03  0.11328377720E+04  0.11900030395E+04  0.90953579204E+02 0.  0.
          2    1    3    3  502    0 -0.74836912397E+02 -0.26808249202E+02  0.90487119879E+02  0.12044569127E+03  0.00000000000E+00 0. -1.
         -2    1    3    3    0  502 -0.27041623572E+03 -0.16926505081E+03  0.68929506422E+03  0.75954149559E+03  0.00000000000E+00 0.  1.
         11    1    5    5    0    0  0.15494104231E+03 -0.53768104074E+02  0.15477180320E+03  0.22550398372E+03  0.00000000000E+00 0. -1.
        -11    1    5    5    0    0  0.92573345898E+02 -0.89216699592E+02  0.21531575966E+03  0.25077942542E+03  0.00000000000E+00 0.  1.
          2    1    6    6  503    0  0.41632414805E+02  0.10643611216E+03  0.24271782301E+03  0.26827941691E+03  0.00000000000E+00 0. -1.
         -2    1    6    6    0  503  0.56106345098E+02  0.23262199152E+03  0.89011994899E+03  0.92172362261E+03  0.00000000000E+00 0.  1.
<mgrwt>
<rscale>  0 0.52233498E+03</rscale>
<asrwt>0</asrwt>
<pdfrwt beam="1">  1        2 0.37146006E+00 0.52233498E+03</pdfrwt>
<pdfrwt beam="2">  1       -2 0.20274318E-01 0.52233498E+03</pdfrwt>
<totfact> 0.87004403E+01</totfact>
</mgrwt>
</event>
<event>
12    1  0.1432447E-007  0.8060136E+03  0.7818608E-02  0.9551353E-01
         -2   -1    0    0    0  501 -0.00000000000E+00  0.00000000000E+00  0.92968757960E+03  0.92968757960E+03  0.00000000000E+00 0.  1.
          2   -1    0    0  501    0  0.00000000000E+00 -0.00000000000E+00 -0.11278350068E+04  0.11278350068E+04  0.00000000000E+00 0. -1.
         23    2    1    2    0    0 -0.63469415312E+03  0.46702156752E+03 -0.59390429848E+03  0.99102189563E+03  0.91957975858E+02 0.  0.
    5000000    2    1    2    0    0  0.63469415312E+03 -0.46702156752E+03  0.39575687132E+03  0.10665006907E+04  0.59987866243E+03 0.  0.
         23    2    4    4    0    0  0.32472272661E+03 -0.12594053445E+03 -0.10918788993E+03  0.37636638697E+03  0.91781231957E+02 0.  0.
         23    2    4    4    0    0  0.30997142651E+03 -0.34108103307E+03  0.50494476125E+03  0.69013430378E+03  0.94327032011E+02 0.  0.
          4    1    3    3  502    0 -0.85639038551E+02  0.62082485552E+02 -0.12208692595E+03  0.16153481799E+03  0.00000000000E+00 0. -1.
         -4    1    3    3    0  502 -0.54905511456E+03  0.40493908197E+03 -0.47181737253E+03  0.82948707763E+03  0.00000000000E+00 0.  1.
         11    1    5    5    0    0  0.20326957514E+03 -0.12375030346E+03 -0.83555808472E+02  0.25221861730E+03  0.00000000000E+00 0.  1.
        -11    1    5    5    0    0  0.12145315147E+03 -0.21902309896E+01 -0.25632081456E+02  0.12414776967E+03  0.00000000000E+00 0. -1.
          3    1    6    6  503    0  0.19147257537E+03 -0.16747422617E+03  0.22179595752E+03  0.33749490415E+03  0.00000000000E+00 0. -1.
         -3    1    6    6    0  503  0.11849885114E+03 -0.17360680690E+03  0.28314880372E+03  0.35263939963E+03  0.00000000000E+00 0.  1.
<mgrwt>
<rscale>  0 0.80601357E+03</rscale>
<asrwt>0</asrwt>
<pdfrwt beam="1">  1        2 0.17351308E+00 0.80601357E+03</pdfrwt>
<pdfrwt beam="2">  1       -2 0.14302886E+00 0.80601357E+03</pdfrwt>
<totfact> 0.72031676E+00</totfact>
</mgrwt>
</event>
<event>
12    1  0.1432447E-007  0.1382256E+04  0.7818608E-02  0.8966764E-01
          1   -1    0    0  501    0  0.00000000000E+00  0.00000000000E+00  0.22518420282E+04  0.22518420282E+04  0.00000000000E+00 0. -1.
         -1   -1    0    0    0  501 -0.00000000000E+00 -0.00000000000E+00 -0.97655162977E+03  0.97655162977E+03  0.00000000000E+00 0.  1.
         23    2    1    2    0    0  0.97520728844E+02 -0.13535126146E+04  0.15396895604E+03  0.13687728699E+04  0.91247133609E+02 0.  0.
    5000000    2    1    2    0    0 -0.97520728844E+02  0.13535126146E+04  0.11213214424E+04  0.18596207881E+04  0.59943390619E+03 0.  0.
         23    2    4    4    0    0 -0.22823140018E+03  0.83443591151E+03  0.40212360381E+03  0.95852105049E+03  0.93200585009E+02 0.  0.
         23    2    4    4    0    0  0.13071067133E+03  0.51907670311E+03  0.71919783859E+03  0.90109973762E+03  0.90605202895E+02 0.  0.
          3    1    3    3  502    0  0.15220018601E+02 -0.46423258895E+02 -0.65622986943E+01  0.49293323045E+02  0.00000000000E+00 0. -1.
         -3    1    3    3    0  502  0.82300710243E+02 -0.13070893557E+04  0.16053125474E+03  0.13194795468E+04  0.00000000000E+00 0.  1.
         11    1    5    5    0    0 -0.13634402324E+03  0.50741792739E+03  0.19364938021E+03  0.55996672059E+03  0.00000000000E+00 0. -1.
        -11    1    5    5    0    0 -0.91887376940E+02  0.32701798412E+03  0.20847422360E+03  0.39855432990E+03  0.00000000000E+00 0.  1.
          3    1    6    6  503    0 -0.47566911493E+01  0.36508708604E+00  0.10012703681E+01  0.48746222028E+01  0.00000000000E+00 0. -1.
         -3    1    6    6    0  503  0.13546736248E+03  0.51871161602E+03  0.71819656822E+03  0.89622511542E+03  0.00000000000E+00 0.  1.
<mgrwt>
<rscale>  0 0.13822556E+04</rscale>
<asrwt>0</asrwt>
<pdfrwt beam="1">  1        1 0.34643723E+00 0.13822556E+04</pdfrwt>
<pdfrwt beam="2">  1       -1 0.15023871E+00 0.13822556E+04</pdfrwt>
<totfact> 0.67125749E-01</totfact>
</mgrwt>
</event>
<event>
12    1  0.1432447E-007  0.8344438E+03  0.7818608E-02  0.9511457E-01
          1   -1    0    0  501    0  0.00000000000E+00  0.00000000000E+00  0.18011864037E+04  0.18011864037E+04  0.00000000000E+00 0. -1.
         -1   -1    0    0    0  501 -0.00000000000E+00 -0.00000000000E+00 -0.60519287680E+03  0.60519287680E+03  0.00000000000E+00 0.  1.
         23    2    1    2    0    0  0.17768392608E+03 -0.70462613847E+03  0.12647975189E+04  0.14615348543E+04  0.91114181426E+02 0.  0.
    5000000    2    1    2    0    0 -0.17768392608E+03  0.70462613847E+03 -0.68803991986E+02  0.94484442616E+03  0.59993952006E+03 0.  0.
         23    2    4    4    0    0 -0.31591870777E+03  0.69797458002E+03 -0.48710917705E+02  0.77317311578E+03  0.91928065254E+02 0.  0.
         23    2    4    4    0    0  0.13823478169E+03  0.66515584439E+01 -0.20093074281E+02  0.17167131038E+03  0.99570121396E+02 0.  0.
          1    1    3    3  502    0  0.11796576920E+03 -0.29273439302E+03  0.57405924192E+03  0.65509797801E+03  0.00000000000E+00 0. -1.
         -1    1    3    3    0  502  0.59718156876E+02 -0.41189174545E+03  0.69073827694E+03  0.80643687631E+03  0.00000000000E+00 0.  1.
         11    1    5    5    0    0 -0.97370103268E+02  0.13090746025E+03  0.37176417874E+01  0.16319166958E+03  0.00000000000E+00 0.  1.
        -11    1    5    5    0    0 -0.21854860450E+03  0.56706711977E+03 -0.52428559492E+02  0.60998144620E+03  0.00000000000E+00 0. -1.
          4    1    6    6  503    0  0.38944770755E+02 -0.40589040221E+02  0.11188463435E+02  0.57352829653E+02  0.00000000000E+00 0.  1.
         -4    1    6    6    0  503  0.99290010934E+02  0.47240598665E+02 -0.31281537716E+02  0.11431848073E+03  0.00000000000E+00 0. -1.
<mgrwt>
<rscale>  0 0.83444378E+03</rscale>
<asrwt>0</asrwt>
<pdfrwt beam="1">  1        1 0.27710560E+00 0.83444378E+03</pdfrwt>
<pdfrwt beam="2">  1       -1 0.93106597E-01 0.83444378E+03</pdfrwt>
<totfact> 0.47029358E+00</totfact>
</mgrwt>
</event>
<event>
12    1  0.1432447E-007  0.1506127E+04  0.7818608E-02  0.8880389E-01
         -1   -1    0    0    0  501 -0.00000000000E+00  0.00000000000E+00  0.17406534987E+04  0.17406534987E+04  0.00000000000E+00 0.  1.
          1   -1    0    0  501    0  0.00000000000E+00 -0.00000000000E+00 -0.15924512981E+04  0.15924512981E+04  0.00000000000E+00 0. -1.
         23    2    1    2    0    0 -0.82621291153E+03 -0.12389470674E+04  0.68274881011E+03  0.16409311406E+04  0.94294535067E+02 0.  0.
    5000000    2    1    2    0    0  0.82621291153E+03  0.12389470674E+04 -0.53454660945E+03  0.16921736562E+04  0.60007832320E+03 0.  0.
         23    2    4    4    0    0  0.31439538719E+03  0.70848284916E+03 -0.73401659243E+01  0.78131913735E+03  0.98047484989E+02 0.  0.
         23    2    4    4    0    0  0.51181752434E+03  0.53046421828E+03 -0.52720644352E+03  0.91085451885E+03  0.91432244447E+02 0.  0.
          3    1    3    3  502    0 -0.41823234412E+03 -0.61137477668E+03  0.28865099533E+03  0.79499484799E+03  0.00000000000E+00 0. -1.
         -3    1    3    3    0  502 -0.40798056741E+03 -0.62757229076E+03  0.39409781479E+03  0.84593629260E+03  0.00000000000E+00 0.  1.
         13    1    5    5    0    0  0.64450935835E+02  0.25183917153E+03  0.13757472199E+02  0.26031934136E+03  0.00000000000E+00 0. -1.
        -13    1    5    5    0    0  0.24994445136E+03  0.45664367763E+03 -0.21097638123E+02  0.52099979598E+03  0.00000000000E+00 0.  1.
          1    1    6    6  503    0  0.19683942365E+03  0.26761873025E+03 -0.24912695063E+03  0.41524665081E+03  0.00000000000E+00 0. -1.
         -1    1    6    6    0  503  0.31497810069E+03  0.26284548803E+03 -0.27807949290E+03  0.49560786804E+03  0.00000000000E+00 0.  1.
<mgrwt>
<rscale>  0 0.15061267E+04</rscale>
<asrwt>0</asrwt>
<pdfrwt beam="1">  1        1 0.24499251E+00 0.15061267E+04</pdfrwt>
<pdfrwt beam="2">  1       -1 0.26779285E+00 0.15061267E+04</pdfrwt>
<totfact> 0.28475210E-01</totfact>
</mgrwt>
</event>
<event>
12    1  0.1432447E-007  0.5793091E+03  0.7818608E-02  0.9949288E-01
         -2   -1    0    0    0  501 -0.00000000000E+00  0.00000000000E+00  0.33644747317E+03  0.33644747317E+03  0.00000000000E+00 0.  1.
          2   -1    0    0  501    0  0.00000000000E+00 -0.00000000000E+00 -0.11144340728E+04  0.11144340728E+04  0.00000000000E+00 0. -1.
         23    2    1    2    0    0  0.36128953607E+03 -0.28281602479E+03 -0.25679779540E+03  0.53374586706E+03  0.91785130178E+02 0.  0.
    5000000    2    1    2    0    0 -0.36128953607E+03  0.28281602479E+03 -0.52118880426E+03  0.91713567895E+03  0.59915361232E+03 0.  0.
         23    2    4    4    0    0 -0.17864597816E+03 -0.12959237693E+03 -0.20507114257E+02  0.23689713491E+03  0.83613043987E+02 0.  0.
         23    2    4    4    0    0 -0.18264355791E+03  0.41240840172E+03 -0.50068169000E+03  0.68023854403E+03  0.92752159164E+02 0.  0.
          2    1    3    3  502    0  0.10904141365E+02 -0.39941922752E+02 -0.18654466200E+02  0.45411965397E+02  0.00000000000E+00 0. -1.
         -2    1    3    3    0  502  0.35038539471E+03 -0.24287410204E+03 -0.23814332920E+03  0.48833390166E+03  0.00000000000E+00 0.  1.
         11    1    5    5    0    0 -0.58945899677E+02  0.64091711049E+00 -0.90499524801E+01  0.59640015957E+02  0.00000000000E+00 0. -1.
        -11    1    5    5    0    0 -0.11970007848E+03 -0.13023329404E+03 -0.11457161777E+02  0.17725711896E+03  0.00000000000E+00 0.  1.
          4    1    6    6  503    0 -0.44884569705E+02  0.49226855989E+02 -0.40193769946E+02  0.77803901513E+02  0.00000000000E+00 0. -1.
         -4    1    6    6    0  503 -0.13775898821E+03  0.36318154573E+03 -0.46048792005E+03  0.60243464252E+03  0.00000000000E+00 0.  1.
<mgrwt>
<rscale>  0 0.57930914E+03</rscale>
<asrwt>0</asrwt>
<pdfrwt beam="1">  1        2 0.17145139E+00 0.57930914E+03</pdfrwt>
<pdfrwt beam="2">  1       -2 0.51761151E-01 0.57930914E+03</pdfrwt>
<totfact> 0.77638943E+01</totfact>
</mgrwt>
</event>
<event>
12    1  0.1432447E-007  0.8769842E+03  0.7818608E-02  0.9454819E-01
         -2   -1    0    0    0  501 -0.00000000000E+00  0.00000000000E+00  0.15484827038E+04  0.15484827038E+04  0.00000000000E+00 0.  1.
          2   -1    0    0  501    0  0.00000000000E+00 -0.00000000000E+00 -0.23518642675E+04  0.23518642675E+04  0.00000000000E+00 0. -1.
         23    2    1    2    0    0 -0.28386868438E+03 -0.82121162188E+03 -0.20726977993E+04  0.22492471822E+04  0.89815152566E+02 0.  0.
    5000000    2    1    2    0    0  0.28386868438E+03  0.82121162188E+03  0.12693162356E+04  0.16510997891E+04  0.59999737484E+03 0.  0.
         23    2    4    4    0    0  0.83077687421E+02  0.19270133294E+03  0.13030242602E+02  0.22912526345E+03  0.91065324169E+02 0.  0.
         23    2    4    4    0    0  0.20079099696E+03  0.62851028894E+03  0.12562859930E+04  0.14219745257E+04  0.91732478982E+02 0.  0.
          2    1    3    3  502    0 -0.18682406702E+03 -0.42717781244E+03 -0.11729213942E+04  0.12621920267E+04  0.00000000000E+00 0. -1.
         -2    1    3    3    0  502 -0.97044617354E+02 -0.39403380944E+03 -0.89977640513E+03  0.98705515548E+03  0.00000000000E+00 0.  1.
         11    1    5    5    0    0  0.39060998206E+02  0.23232123637E+02  0.28022370889E+02  0.53392381665E+02  0.00000000000E+00 0. -1.
        -11    1    5    5    0    0  0.44016689215E+02  0.16946920930E+03 -0.14992128287E+02  0.17573288179E+03  0.00000000000E+00 0.  1.
          1    1    6    6  503    0  0.13939560792E+03  0.36263888124E+03  0.65271407117E+03  0.75958788327E+03  0.00000000000E+00 0. -1.
         -1    1    6    6    0  503  0.61395389039E+02  0.26587140770E+03  0.60357192183E+03  0.66238664241E+03  0.00000000000E+00 0.  1.
<mgrwt>
<rscale>  0 0.87698421E+03</rscale>
<asrwt>0</asrwt>
<pdfrwt beam="1">  1        2 0.36182527E+00 0.87698421E+03</pdfrwt>
<pdfrwt beam="2">  1       -2 0.23822811E+00 0.87698421E+03</pdfrwt>
<totfact> 0.33188348E-01</totfact>
</mgrwt>
</event>
<event>
12    1  0.1432447E-007  0.7414712E+03  0.7818608E-02  0.9648827E-01
         -2   -1    0    0    0  501 -0.00000000000E+00  0.00000000000E+00  0.34750214081E+03  0.34750214081E+03  0.00000000000E+00 0.  1.
          2   -1    0    0  501    0  0.00000000000E+00 -0.00000000000E+00 -0.21662964080E+04  0.21662964080E+04  0.00000000000E+00 0. -1.
         23    2    1    2    0    0  0.45417908506E+03  0.41945182137E+03 -0.14447975887E+04  0.15746584507E+04  0.99451959948E+02 0.  0.
    5000000    2    1    2    0    0 -0.45417908506E+03 -0.41945182137E+03 -0.37399667852E+03  0.93914009813E+03  0.59991010711E+03 0.  0.
         23    2    4    4    0    0 -0.50589999953E+03 -0.50993155719E+03 -0.31913511027E+03  0.79091723921E+03  0.87965096063E+02 0.  0.
         23    2    4    4    0    0  0.51720914466E+02  0.90479735825E+02 -0.54861568250E+02  0.14822285892E+03  0.89992158808E+02 0.  0.
          1    1    3    3  502    0  0.22026182158E+03  0.14678984860E+03 -0.54791226744E+03  0.60849846550E+03  0.00000000000E+00 0. -1.
         -1    1    3    3    0  502  0.23391726348E+03  0.27266197277E+03 -0.89688532127E+03  0.96615998523E+03  0.00000000000E+00 0.  1.
         13    1    5    5    0    0 -0.27182840582E+03 -0.21171163774E+03 -0.15457765332E+03  0.37763309001E+03  0.00000000000E+00 0.  1.
        -13    1    5    5    0    0 -0.23407159371E+03 -0.29821991945E+03 -0.16455745695E+03  0.41328414920E+03  0.00000000000E+00 0. -1.
          1    1    6    6  503    0  0.45303834629E+02  0.67738935172E+00 -0.31584512196E+02  0.55231129801E+02  0.00000000000E+00 0. -1.
         -1    1    6    6    0  503  0.64170798369E+01  0.89802346473E+02 -0.23277056055E+02  0.92991729117E+02  0.00000000000E+00 0.  1.
<mgrwt>
<rscale>  0 0.74147120E+03</rscale>
<asrwt>0</asrwt>
<pdfrwt beam="1">  1        2 0.33327636E+00 0.74147120E+03</pdfrwt>
<pdfrwt beam="2">  1       -2 0.53461869E-01 0.74147120E+03</pdfrwt>
<totfact> 0.18486782E+01</totfact>
</mgrwt>
</event>
<event>
12    1  0.1432447E-007  0.3323071E+04  0.7818608E-02  0.8157050E-01
          1   -1    0    0  501    0  0.00000000000E+00  0.00000000000E+00  0.46335225011E+04  0.46335225011E+04  0.00000000000E+00 0. -1.
         -1   -1    0    0    0  501 -0.00000000000E+00 -0.00000000000E+00 -0.29707575554E+04  0.29707575554E+04  0.00000000000E+00 0.  1.
         23    2    1    2    0    0 -0.10774320118E+04 -0.31222852367E+04 -0.84905459325E+03  0.34116291991E+04  0.93782997007E+02 0.  0.
    5000000    2    1    2    0    0  0.10774320118E+04  0.31222852367E+04  0.25118195390E+04  0.41926508574E+04  0.59963236807E+03 0.  0.
         23    2    4    4    0    0  0.49960593253E+03  0.21554518652E+04  0.18317408381E+04  0.28737581267E+04  0.87363846596E+02 0.  0.
         23    2    4    4    0    0  0.57782607928E+03  0.96683337149E+03  0.68007870089E+03  0.13188927308E+04  0.91220884616E+02 0.  0.
          2    1    3    3  502    0 -0.82561601026E+03 -0.23265161505E+04 -0.59867776444E+03  0.25402232698E+04  0.00000000000E+00 0.  1.
         -2    1    3    3    0  502 -0.25181600155E+03 -0.79576908620E+03 -0.25037682881E+03  0.87140592929E+03  0.00000000000E+00 0. -1.
         13    1    5    5    0    0  0.19874572032E+03  0.10344205048E+04  0.89420199219E+03  0.13817101161E+04  0.00000000000E+00 0.  1.
        -13    1    5    5    0    0  0.30086021221E+03  0.11210313604E+04  0.93753884592E+03  0.14920480106E+04  0.00000000000E+00 0. -1.
          1    1    6    6  503    0  0.31651102469E+03  0.45748003998E+03  0.30405125275E+03  0.63396717583E+03  0.00000000000E+00 0. -1.
         -1    1    6    6    0  503  0.26131505459E+03  0.50935333151E+03  0.37602744814E+03  0.68492555496E+03  0.00000000000E+00 0.  1.
<mgrwt>
<rscale>  0 0.33230712E+04</rscale>
<asrwt>0</asrwt>
<pdfrwt beam="1">  1        1 0.71284962E+00 0.33230712E+04</pdfrwt>
<pdfrwt beam="2">  1       -1 0.45703962E+00 0.33230712E+04</pdfrwt>
<totfact> 0.50872043E-05</totfact>
</mgrwt>
</event>
<event>
12    1  0.1432447E-007  0.6364262E+03  0.7818608E-02  0.9832588E-01
          2   -1    0    0  501    0  0.00000000000E+00  0.00000000000E+00  0.90508192692E+03  0.90508192692E+03  0.00000000000E+00 0. -1.
         -2   -1    0    0    0  501 -0.00000000000E+00 -0.00000000000E+00 -0.53085259807E+03  0.53085259807E+03  0.00000000000E+00 0.  1.
         23    2    1    2    0    0  0.48340454252E+03  0.18881710805E+03  0.36781925375E+03  0.64248792225E+03  0.90376295481E+02 0.  0.
    5000000    2    1    2    0    0 -0.48340454252E+03 -0.18881710805E+03  0.64100751032E+01  0.79344660275E+03  0.60015378890E+03 0.  0.
         23    2    4    4    0    0 -0.49990953309E+03  0.53498429738E+02 -0.85148718601E+02  0.51796137668E+03  0.90895875595E+02 0.  0.
         23    2    4    4    0    0  0.16504990571E+02 -0.24231553779E+03  0.91558793704E+02  0.27548522607E+03  0.92303101286E+02 0.  0.
          1    1    3    3  502    0  0.16166097343E+03  0.76061752958E+02  0.77700781222E+02  0.19482574778E+03  0.00000000000E+00 0.  1.
         -1    1    3    3    0  502  0.32174356908E+03  0.11275535510E+03  0.29011847253E+03  0.44766217447E+03  0.00000000000E+00 0. -1.
         13    1    5    5    0    0 -0.40079592451E+03  0.75930021304E+02 -0.83195751894E+02  0.41632232029E+03  0.00000000000E+00 0. -1.
        -13    1    5    5    0    0 -0.99113608579E+02 -0.22431591566E+02 -0.19529667074E+01  0.10163905639E+03  0.00000000000E+00 0.  1.
          3    1    6    6  503    0  0.17171791808E+02 -0.10459930916E+03 -0.68501398774E+01  0.10622057394E+03  0.00000000000E+00 0. -1.
         -3    1    6    6    0  503 -0.66680123630E+00 -0.13771622863E+03  0.98408933582E+02  0.16926465213E+03  0.00000000000E+00 0.  1.
<mgrwt>
<rscale>  0 0.63642621E+03</rscale>
<asrwt>0</asrwt>
<pdfrwt beam="1">  1        2 0.13924337E+00 0.63642621E+03</pdfrwt>
<pdfrwt beam="2">  1       -2 0.81669631E-01 0.63642621E+03</pdfrwt>
<totfact> 0.39375503E+01</totfact>
</mgrwt>
</event>
<event>
12    1  0.1432447E-007  0.5456739E+03  0.7818608E-02  0.1002500E+00
          2   -1    0    0  501    0  0.00000000000E+00  0.00000000000E+00  0.48980218805E+03  0.48980218805E+03  0.00000000000E+00 0.  1.
         -2   -1    0    0    0  501 -0.00000000000E+00 -0.00000000000E+00 -0.75832542640E+03  0.75832542640E+03  0.00000000000E+00 0. -1.
         23    2    1    2    0    0 -0.10151263416E+03  0.39001568710E+03  0.11586397698E+03  0.42937487236E+03  0.92310718579E+02 0.  0.
    5000000    2    1    2    0    0  0.10151263416E+03 -0.39001568710E+03 -0.38438721534E+03  0.81875274210E+03  0.60015453868E+03 0.  0.
         23    2    4    4    0    0  0.12046515315E+03  0.12007195229E+03 -0.42020731523E+02  0.19746154502E+03  0.91083439961E+02 0.  0.
         23    2    4    4    0    0 -0.18952518984E+02 -0.51008763940E+03 -0.34236648382E+03  0.62129119707E+03  0.90770834942E+02 0.  0.
          2    1    3    3  502    0 -0.63890073342E+02  0.24801382512E+03  0.11907441549E+03  0.28243851604E+03  0.00000000000E+00 0. -1.
         -2    1    3    3    0  502 -0.37622560822E+02  0.14200186199E+03 -0.32104385038E+01  0.14693635631E+03  0.00000000000E+00 0.  1.
         11    1    5    5    0    0  0.53880591843E+02  0.60429498965E+02 -0.66508770406E+02  0.10477718771E+03  0.00000000000E+00 0.  1.
        -11    1    5    5    0    0  0.66584561304E+02  0.59642453330E+02  0.24488038884E+02  0.92684357319E+02  0.00000000000E+00 0. -1.
          1    1    6    6  503    0  0.28375631598E+02 -0.34722976619E+03 -0.21781961638E+03  0.41087598163E+03  0.00000000000E+00 0. -1.
         -1    1    6    6    0  503 -0.47328150581E+02 -0.16285787321E+03 -0.12454686743E+03  0.21041521545E+03  0.00000000000E+00 0.  1.
<mgrwt>
<rscale>  0 0.54567391E+03</rscale>
<asrwt>0</asrwt>
<pdfrwt beam="1">  1        2 0.75354183E-01 0.54567391E+03</pdfrwt>
<pdfrwt beam="2">  1       -2 0.11666545E+00 0.54567391E+03</pdfrwt>
<totfact> 0.36970378E+01</totfact>
</mgrwt>
</event>
<event>
12    1  0.1432447E-007  0.2015061E+04  0.7818608E-02  0.8599612E-01
         -2   -1    0    0    0  501 -0.00000000000E+00  0.00000000000E+00  0.21574918251E+04  0.21574918251E+04  0.00000000000E+00 0.  1.
          2   -1    0    0  501    0  0.00000000000E+00 -0.00000000000E+00 -0.19405306235E+04  0.19405306235E+04  0.00000000000E+00 0. -1.
         23    2    1    2    0    0  0.38357951454E+03  0.19576856043E+04 -0.51869711094E+02  0.19975448343E+04  0.88480106306E+02 0.  0.
    5000000    2    1    2    0    0 -0.38357951454E+03 -0.19576856043E+04  0.26883091273E+03  0.21004776143E+04  0.60005831340E+03 0.  0.
         23    2    4    4    0    0  0.55585208309E+02 -0.58768874567E+02  0.65956551380E+02  0.13889173859E+03  0.91635977531E+02 0.  0.
         23    2    4    4    0    0 -0.43916472285E+03 -0.18989167297E+04  0.20287436135E+03  0.19615858757E+04  0.88942347764E+02 0.  0.
          3    1    3    3  502    0  0.22567671233E+03  0.13192973323E+04 -0.61089858571E+02  0.13398534995E+04  0.00000000000E+00 0. -1.
         -3    1    3    3    0  502  0.15790280220E+03  0.63838827200E+03  0.92201474769E+01  0.65769133481E+03  0.00000000000E+00 0.  1.
         13    1    5    5    0    0  0.55000782827E+02 -0.45785344916E+02 -0.10494489046E+00  0.71563922014E+02  0.00000000000E+00 0. -1.
        -13    1    5    5    0    0  0.58442548250E+00 -0.12983529650E+02  0.66061496271E+02  0.67327816576E+02  0.00000000000E+00 0.  1.
          2    1    6    6  503    0 -0.88582751776E+02 -0.46124161021E+03  0.15065432428E+02  0.46991243243E+03  0.00000000000E+00 0. -1.
         -2    1    6    6    0  503 -0.35058197107E+03 -0.14376751195E+04  0.18780892892E+03  0.14916734433E+04  0.00000000000E+00 0.  1.
<mgrwt>
<rscale>  0 0.20150607E+04</rscale>
<asrwt>0</asrwt>
<pdfrwt beam="1">  1        2 0.29854317E+00 0.20150607E+04</pdfrwt>
<pdfrwt beam="2">  1       -2 0.33192182E+00 0.20150607E+04</pdfrwt>
<totfact> 0.12943388E-01</totfact>
</mgrwt>
</event>
<event>
12    1  0.1432447E-007  0.1110118E+04  0.7818608E-02  0.9195385E-01
         -2   -1    0    0    0  501 -0.00000000000E+00  0.00000000000E+00  0.94217324424E+03  0.94217324424E+03  0.00000000000E+00 0.  1.
          2   -1    0    0  501    0  0.00000000000E+00 -0.00000000000E+00 -0.16692458656E+04  0.16692458656E+04  0.00000000000E+00 0. -1.
         23    2    1    2    0    0  0.86773428785E+03 -0.68082488283E+03  0.93688928776E+02  0.11114441045E+04  0.10022507949E+03 0.  0.
    5000000    2    1    2    0    0 -0.86773428785E+03  0.68082488283E+03 -0.82076155015E+03  0.14999750054E+04  0.59982512389E+03 0.  0.
         23    2    4    4    0    0 -0.36031022187E+03  0.19006090843E+03 -0.47294741797E+01  0.41755278977E+03  0.91549764715E+02 0.  0.
         23    2    4    4    0    0 -0.50742406598E+03  0.49076397440E+03 -0.81603207597E+03  0.10824222156E+04  0.86029312411E+02 0.  0.
          2    1    3    3  502    0  0.43285891838E+03 -0.35226255034E+03  0.96681523827E+02  0.56639479574E+03  0.00000000000E+00 0. -1.
         -2    1    3    3    0  502  0.43487536947E+03 -0.32856233249E+03 -0.29925950515E+01  0.54504930871E+03  0.00000000000E+00 0.  1.
         13    1    5    5    0    0 -0.30200659464E+03  0.16591082738E+03 -0.37201921425E+02  0.34658097006E+03  0.00000000000E+00 0. -1.
        -13    1    5    5    0    0 -0.58303627225E+02  0.24150081052E+02  0.32472447246E+02  0.70971819707E+02  0.00000000000E+00 0.  1.
          1    1    6    6  503    0 -0.43946309180E+03  0.45521425977E+03 -0.70282095760E+03  0.94567707480E+03  0.00000000000E+00 0. -1.
         -1    1    6    6    0  503 -0.67960974181E+02  0.35549714628E+02 -0.11321111837E+03  0.13674514084E+03  0.00000000000E+00 0.  1.
<mgrwt>
<rscale>  0 0.11101185E+04</rscale>
<asrwt>0</asrwt>
<pdfrwt beam="1">  1        2 0.25680705E+00 0.11101185E+04</pdfrwt>
<pdfrwt beam="2">  1       -2 0.14494973E+00 0.11101185E+04</pdfrwt>
<totfact> 0.32845725E+00</totfact>
</mgrwt>
</event>
<event>
12    1  0.1432447E-007  0.5233659E+03  0.7818608E-02  0.1007854E+00
         -1   -1    0    0    0  501 -0.00000000000E+00  0.00000000000E+00  0.42124778581E+03  0.42124778581E+03  0.00000000000E+00 0.  1.
          1   -1    0    0  501    0  0.00000000000E+00 -0.00000000000E+00 -0.75146049396E+03  0.75146049396E+03  0.00000000000E+00 0. -1.
         23    2    1    2    0    0  0.31851213935E+03 -0.16819992284E+03  0.52339760941E+02  0.37518430544E+03  0.91008876051E+02 0.  0.
    5000000    2    1    2    0    0 -0.31851213935E+03  0.16819992284E+03 -0.38255246909E+03  0.79752397433E+03  0.59996408315E+03 0.  0.
         23    2    4    4    0    0  0.69034108754E+01 -0.18172815633E+03 -0.67550289362E+02  0.21792266364E+03  0.99269662291E+02 0.  0.
         23    2    4    4    0    0 -0.32541555022E+03  0.34992807918E+03 -0.31500217973E+03  0.57960131069E+03  0.91467836959E+02 0.  0.
          1    1    3    3  502    0  0.81067129674E+02 -0.63166745628E+02 -0.22027762029E+02  0.10510537363E+03  0.00000000000E+00 0. -1.
         -1    1    3    3    0  502  0.23744500967E+03 -0.10503317721E+03  0.74367522970E+02  0.27007893181E+03  0.00000000000E+00 0.  1.
         11    1    5    5    0    0  0.38052891407E+02 -0.15305907216E+03 -0.28389480846E+02  0.16025312707E+03  0.00000000000E+00 0. -1.
        -11    1    5    5    0    0 -0.31149480532E+02 -0.28669084177E+02 -0.39160808515E+02  0.57669536573E+02  0.00000000000E+00 0.  1.
          1    1    6    6  503    0 -0.22749540606E+03  0.29318900271E+03 -0.21695036582E+03  0.42986208522E+03  0.00000000000E+00 0. -1.
         -1    1    6    6    0  503 -0.97920144164E+02  0.56739076469E+02 -0.98051813911E+02  0.14973922547E+03  0.00000000000E+00 0.  1.
<mgrwt>
<rscale>  0 0.52336590E+03</rscale>
<asrwt>0</asrwt>
<pdfrwt beam="1">  1        1 0.11560931E+00 0.52336590E+03</pdfrwt>
<pdfrwt beam="2">  1       -1 0.64807352E-01 0.52336590E+03</pdfrwt>
<totfact> 0.61645816E+01</totfact>
</mgrwt>
</event>
<event>
12    1  0.1432447E-007  0.6957166E+03  0.7818608E-02  0.9724586E-01
          2   -1    0    0  501    0  0.00000000000E+00  0.00000000000E+00  0.25643833872E+04  0.25643833872E+04  0.00000000000E+00 0. -1.
         -2   -1    0    0    0  501 -0.00000000000E+00 -0.00000000000E+00 -0.28240426031E+03  0.28240426031E+03  0.00000000000E+00 0.  1.
         23    2    1    2    0    0 -0.34566242397E+02 -0.67768359953E+03  0.15038588811E+04  0.16525854279E+04  0.94853445409E+02 0.  0.
    5000000    2    1    2    0    0  0.34566242397E+02  0.67768359953E+03  0.77812024578E+03  0.11942022196E+04  0.60016492583E+03 0.  0.
         23    2    4    4    0    0 -0.44044460440E+02  0.15768694395E+03 -0.63470277390E+02  0.19764894597E+03  0.90727850974E+02 0.  0.
         23    2    4    4    0    0  0.78610702836E+02  0.51999665557E+03  0.84159052317E+03  0.99655327362E+03  0.90926641115E+02 0.  0.
          4    1    3    3  502    0 -0.15842225154E+02 -0.36371883426E+03  0.91968156745E+03  0.98911907878E+03  0.00000000000E+00 0. -1.
         -4    1    3    3    0  502 -0.18724017243E+02 -0.31396476527E+03  0.58417731362E+03  0.66346634911E+03  0.00000000000E+00 0.  1.
         11    1    5    5    0    0  0.23475783395E+02  0.82870493177E+02 -0.23966639605E+02  0.89403751932E+02  0.00000000000E+00 0.  1.
        -11    1    5    5    0    0 -0.67520243834E+02  0.74816450775E+02 -0.39503637785E+02  0.10824519404E+03  0.00000000000E+00 0. -1.
          3    1    6    6  503    0  0.41156835800E+02  0.29120688303E+03  0.55331734751E+03  0.62662223142E+03  0.00000000000E+00 0. -1.
         -3    1    6    6    0  503  0.37453867036E+02  0.22878977254E+03  0.28827317566E+03  0.36993104220E+03  0.00000000000E+00 0.  1.
<mgrwt>
<rscale>  0 0.69571661E+03</rscale>
<asrwt>0</asrwt>
<pdfrwt beam="1">  1        2 0.39452050E+00 0.69571661E+03</pdfrwt>
<pdfrwt beam="2">  1       -2 0.43446811E-01 0.69571661E+03</pdfrwt>
<totfact> 0.16964854E+01</totfact>
</mgrwt>
</event>
<event>
12    1  0.1432447E-007  0.6478246E+03  0.7818608E-02  0.9810870E-01
          2   -1    0    0  501    0  0.00000000000E+00  0.00000000000E+00  0.32774311969E+04  0.32774311969E+04  0.00000000000E+00 0.  1.
         -2   -1    0    0    0  501 -0.00000000000E+00 -0.00000000000E+00 -0.15881140467E+03  0.15881140467E+03  0.00000000000E+00 0. -1.
         23    2    1    2    0    0  0.38981512194E+03  0.41866597214E+03  0.92776060621E+03  0.10937925260E+04  0.91680543081E+02 0.  0.
    5000000    2    1    2    0    0 -0.38981512194E+03 -0.41866597214E+03  0.21908591861E+04  0.23424500756E+04  0.59997613124E+03 0.  0.
         23    2    4    4    0    0 -0.16918198701E+03 -0.43889776742E+03  0.81099805032E+03  0.94197267833E+03  0.91328495674E+02 0.  0.
         23    2    4    4    0    0 -0.22063313494E+03  0.20231795280E+02  0.13798611357E+04  0.14004773973E+04  0.90729711774E+02 0.  0.
          2    1    3    3  502    0  0.45157838719E+02  0.96054545868E+02  0.19776961061E+03  0.22445160962E+03  0.00000000000E+00 0. -1.
         -2    1    3    3    0  502  0.34465728322E+03  0.32261142627E+03  0.72999099560E+03  0.86934091638E+03  0.00000000000E+00 0.  1.
         11    1    5    5    0    0 -0.13959717618E+02 -0.15340183693E+03  0.24951619741E+03  0.29323255286E+03  0.00000000000E+00 0. -1.
        -11    1    5    5    0    0 -0.15522226939E+03 -0.28549593049E+03  0.56148185292E+03  0.64874012547E+03  0.00000000000E+00 0.  1.
          4    1    6    6  503    0 -0.77055241690E+02  0.49911614589E+02  0.47057019691E+03  0.47944237376E+03  0.00000000000E+00 0. -1.
         -4    1    6    6    0  503 -0.14357789325E+03 -0.29679819309E+02  0.90929093882E+03  0.92103502351E+03  0.00000000000E+00 0.  1.
<mgrwt>
<rscale>  0 0.64782456E+03</rscale>
<asrwt>0</asrwt>
<pdfrwt beam="1">  1        2 0.50422013E+00 0.64782456E+03</pdfrwt>
<pdfrwt beam="2">  1       -2 0.24432526E-01 0.64782456E+03</pdfrwt>
<totfact> 0.18769307E+01</totfact>
</mgrwt>
</event>
<event>
12    1  0.1432447E-007  0.5198535E+03  0.7818608E-02  0.1008723E+00
         -2   -1    0    0    0  501 -0.00000000000E+00  0.00000000000E+00  0.26351020428E+03  0.26351020428E+03  0.00000000000E+00 0.  1.
          2   -1    0    0  501    0  0.00000000000E+00 -0.00000000000E+00 -0.17804738422E+04  0.17804738422E+04  0.00000000000E+00 0. -1.
         23    2    1    2    0    0  0.23107564848E+03  0.44710777947E+03 -0.28702390330E+03  0.58597847429E+03  0.87673995501E+02 0.  0.
    5000000    2    1    2    0    0 -0.23107564848E+03 -0.44710777947E+03 -0.12299397346E+04  0.14580055722E+04  0.59977260355E+03 0.  0.
         23    2    4    4    0    0 -0.13974849094E+03 -0.31747361842E+03 -0.12233222806E+04  0.12746470838E+04  0.88818054737E+02 0.  0.
         23    2    4    4    0    0 -0.91327157539E+02 -0.12963416105E+03 -0.66174540033E+01  0.18335848840E+03  0.91819818980E+02 0.  0.
          2    1    3    3  502    0  0.23769512672E+03  0.43293403203E+03 -0.27007283341E+03  0.56291223535E+03  0.00000000000E+00 0. -1.
         -2    1    3    3    0  502 -0.66194782462E+01  0.14173747443E+02 -0.16951069885E+02  0.23066238945E+02  0.00000000000E+00 0.  1.
         11    1    5    5    0    0 -0.27483362638E+02 -0.13019844244E+03 -0.58739594720E+03  0.60227980908E+03  0.00000000000E+00 0. -1.
        -11    1    5    5    0    0 -0.11226512830E+03 -0.18727517598E+03 -0.63592633344E+03  0.67236727473E+03  0.00000000000E+00 0.  1.
          3    1    6    6  503    0 -0.25509565943E+02 -0.10567876662E+03 -0.23692266350E+02  0.11126573216E+03  0.00000000000E+00 0. -1.
         -3    1    6    6    0  503 -0.65817591596E+02 -0.23955394427E+02  0.17074812346E+02  0.72092756240E+02  0.00000000000E+00 0.  1.
<mgrwt>
<rscale>  0 0.51985352E+03</rscale>
<asrwt>0</asrwt>
<pdfrwt beam="1">  1        2 0.27391905E+00 0.51985352E+03</pdfrwt>
<pdfrwt beam="2">  1       -2 0.40540031E-01 0.51985352E+03</pdfrwt>
<totfact> 0.53929376E+01</totfact>
</mgrwt>
</event>
<event>
12    1  0.1432447E-007  0.1624221E+04  0.7818608E-02  0.8805805E-01
         -2   -1    0    0    0  501 -0.00000000000E+00  0.00000000000E+00  0.66269926255E+03  0.66269926255E+03  0.00000000000E+00 0. -1.
          2   -1    0    0  501    0  0.00000000000E+00 -0.00000000000E+00 -0.42396594342E+04  0.42396594342E+04  0.00000000000E+00 0.  1.
         23    2    1    2    0    0  0.38826131120E+03  0.15614490675E+04 -0.20228912695E+04  0.25863205406E+04  0.89971186927E+02 0.  0.
    5000000    2    1    2    0    0 -0.38826131120E+03 -0.15614490675E+04 -0.15540689022E+04  0.23160381561E+04  0.60002712564E+03 0.  0.
         23    2    4    4    0    0 -0.35013083249E+03 -0.86815089440E+03 -0.54367567745E+03  0.10864521821E+04  0.92290446526E+02 0.  0.
         23    2    4    4    0    0 -0.38130478713E+02 -0.69329817315E+03 -0.10103932247E+04  0.12295859740E+04  0.94185500508E+02 0.  0.
          4    1    3    3  502    0  0.24115077648E+03  0.78344983622E+03 -0.10278199189E+04  0.13146714907E+04  0.00000000000E+00 0. -1.
         -4    1    3    3    0  502  0.14711053472E+03  0.77799923133E+03 -0.99507135060E+03  0.12716490499E+04  0.00000000000E+00 0.  1.
         13    1    5    5    0    0 -0.15720866398E+03 -0.49030761574E+03 -0.26751669472E+03  0.58024245281E+03  0.00000000000E+00 0. -1.
        -13    1    5    5    0    0 -0.19292216851E+03 -0.37784327866E+03 -0.27615898273E+03  0.50620972933E+03  0.00000000000E+00 0.  1.
          3    1    6    6  503    0  0.90741488801E+01 -0.44240659040E+03 -0.58565714696E+03  0.73403012554E+03  0.00000000000E+00 0. -1.
         -3    1    6    6    0  503 -0.47204627593E+02 -0.25089158275E+03 -0.42473607775E+03  0.49555584842E+03  0.00000000000E+00 0.  1.
<mgrwt>
<rscale>  0 0.16242214E+04</rscale>
<asrwt>0</asrwt>
<pdfrwt beam="1">  1        2 0.65225530E+00 0.16242214E+04</pdfrwt>
<pdfrwt beam="2">  1       -2 0.10195373E+00 0.16242214E+04</pdfrwt>
<totfact> 0.16232105E-01</totfact>
</mgrwt>
</event>
<event>
12    1  0.1432447E-007  0.4277967E+03  0.7818608E-02  0.1034558E+00
          2   -1    0    0  501    0  0.00000000000E+00  0.00000000000E+00  0.16901019334E+04  0.16901019334E+04  0.00000000000E+00 0.  1.
         -2   -1    0    0    0  501 -0.00000000000E+00 -0.00000000000E+00 -0.16524714949E+03  0.16524714949E+03  0.00000000000E+00 0. -1.
         23    2    1    2    0    0  0.22604753897E+03  0.16193555442E+03  0.89699774741E+03  0.94344642777E+03  0.90363651704E+02 0.  0.
    5000000    2    1    2    0    0 -0.22604753897E+03 -0.16193555442E+03  0.62785703651E+03  0.91190265514E+03  0.60003448275E+03 0.  0.
         23    2    4    4    0    0  0.14250523536E+03 -0.11875331071E+03  0.40493955783E+02  0.21136569328E+03  0.92874134893E+02 0.  0.
         23    2    4    4    0    0 -0.36855277432E+03 -0.43182243713E+02  0.58736308073E+03  0.70053696186E+03  0.89781917405E+02 0.  0.
          4    1    3    3  502    0  0.72946451480E+02  0.10411947544E+02  0.29527063871E+03  0.30432604804E+03  0.00000000000E+00 0. -1.
         -4    1    3    3    0  502  0.15310108748E+03  0.15152360687E+03  0.60172710871E+03  0.63912037973E+03  0.00000000000E+00 0.  1.
         11    1    5    5    0    0  0.10130979514E+03 -0.11618539528E+03  0.60373228087E+02  0.16555255159E+03  0.00000000000E+00 0. -1.
        -11    1    5    5    0    0  0.41195440214E+02 -0.25679154267E+01 -0.19879272304E+02  0.45813141689E+02  0.00000000000E+00 0.  1.
          4    1    6    6  503    0 -0.33591390508E+03 -0.39670872181E+02  0.57145621172E+03  0.66405883146E+03  0.00000000000E+00 0. -1.
         -4    1    6    6    0  503 -0.32638869247E+02 -0.35113715326E+01  0.15906869005E+02  0.36478130398E+02  0.00000000000E+00 0.  1.
<mgrwt>
<rscale>  0 0.42779670E+03</rscale>
<asrwt>0</asrwt>
<pdfrwt beam="1">  1        2 0.26001567E+00 0.42779670E+03</pdfrwt>
<pdfrwt beam="2">  1       -2 0.25422640E-01 0.42779670E+03</pdfrwt>
<totfact> 0.14608818E+02</totfact>
</mgrwt>
</event>
<event>
12    1  0.1432447E-007  0.1186527E+04  0.7818608E-02  0.9124732E-01
         -2   -1    0    0    0  501 -0.00000000000E+00  0.00000000000E+00  0.18395543688E+04  0.18395543688E+04  0.00000000000E+00 0.  1.
          2   -1    0    0  501    0  0.00000000000E+00 -0.00000000000E+00 -0.80893642953E+03  0.80893642953E+03  0.00000000000E+00 0. -1.
         23    2    1    2    0    0 -0.42435931484E+02 -0.11240860703E+04  0.71188486551E+03  0.13342808941E+04  0.90305819245E+02 0.  0.
    5000000    2    1    2    0    0  0.42435931484E+02  0.11240860703E+04  0.31873307379E+03  0.13142099042E+04  0.60015547844E+03 0.  0.
         23    2    4    4    0    0 -0.18443757597E+03  0.17405392784E+03 -0.31454893338E+02  0.27256341293E+03  0.94812523060E+02 0.  0.
         23    2    4    4    0    0  0.22687350745E+03  0.95003214245E+03  0.35018796713E+03  0.10416464913E+04  0.91450207269E+02 0.  0.
          4    1    3    3  502    0 -0.50378860864E+02 -0.56060947377E+03  0.39645960059E+03  0.68847746993E+03  0.00000000000E+00 0. -1.
         -4    1    3    3    0  502  0.79429293798E+01 -0.56347659652E+03  0.31542526491E+03  0.64580342420E+03  0.00000000000E+00 0.  1.
         13    1    5    5    0    0 -0.15034713250E+03  0.18021205253E+03 -0.36639318706E+02  0.23753543694E+03  0.00000000000E+00 0. -1.
        -13    1    5    5    0    0 -0.34090443468E+02 -0.61581246901E+01  0.51844253675E+01  0.35027975990E+02  0.00000000000E+00 0.  1.
          4    1    6    6  503    0  0.13090880601E+03  0.61704575837E+03  0.18238386006E+03  0.65661743491E+03  0.00000000000E+00 0. -1.
         -4    1    6    6    0  503  0.95964701438E+02  0.33298638408E+03  0.16780410706E+03  0.38502905637E+03  0.00000000000E+00 0.  1.
<mgrwt>
<rscale>  0 0.11865271E+04</rscale>
<asrwt>0</asrwt>
<pdfrwt beam="1">  1        2 0.12445176E+00 0.11865271E+04</pdfrwt>
<pdfrwt beam="2">  1       -2 0.28300836E+00 0.11865271E+04</pdfrwt>
<totfact> 0.13432217E+00</totfact>
</mgrwt>
</event>
<event>
12    1  0.1432447E-007  0.5237704E+03  0.7818608E-02  0.1007754E+00
         -1   -1    0    0    0  501 -0.00000000000E+00  0.00000000000E+00  0.63077661801E+03  0.63077661801E+03  0.00000000000E+00 0.  1.
          1   -1    0    0  501    0  0.00000000000E+00 -0.00000000000E+00 -0.76220039639E+03  0.76220039639E+03  0.00000000000E+00 0. -1.
         23    2    1    2    0    0 -0.16556124118E+03 -0.36418819459E+03 -0.44624670059E+03  0.60617188394E+03  0.90910227308E+02 0.  0.
    5000000    2    1    2    0    0  0.16556124118E+03  0.36418819459E+03  0.31482292221E+03  0.78680513046E+03  0.59992105756E+03 0.  0.
         23    2    4    4    0    0  0.33379277458E+03  0.22002711327E+03  0.25748014476E+02  0.41165706202E+03  0.94704960417E+02 0.  0.
         23    2    4    4    0    0 -0.16823153339E+03  0.14416108132E+03  0.28907490773E+03  0.37514806844E+03  0.89930555294E+02 0.  0.
          4    1    3    3  502    0 -0.10674639987E+03 -0.18403061434E+03 -0.29494342070E+03  0.36366699371E+03  0.00000000000E+00 0.  1.
         -4    1    3    3    0  502 -0.58814841313E+02 -0.18015758025E+03 -0.15130327990E+03  0.24250489024E+03  0.00000000000E+00 0. -1.
         11    1    5    5    0    0  0.22078817122E+03  0.19562549726E+03  0.25025341177E+02  0.29604563741E+03  0.00000000000E+00 0.  1.
        -11    1    5    5    0    0  0.11300460335E+03  0.24401616012E+02  0.72267329852E+00  0.11561142461E+03  0.00000000000E+00 0. -1.
          3    1    6    6  503    0 -0.36836296258E+02 -0.35261115686E+01  0.22610139478E+02  0.43365476960E+02  0.00000000000E+00 0. -1.
         -3    1    6    6    0  503 -0.13139523713E+03  0.14768719289E+03  0.26646476826E+03  0.33178259148E+03  0.00000000000E+00 0.  1.
<mgrwt>
<rscale>  0 0.52377037E+03</rscale>
<asrwt>0</asrwt>
<pdfrwt beam="1">  1        1 0.11726160E+00 0.52377037E+03</pdfrwt>
<pdfrwt beam="2">  1       -1 0.97042556E-01 0.52377037E+03</pdfrwt>
<totfact> 0.25757251E+01</totfact>
</mgrwt>
</event>
<event>
12    1  0.1432447E-007  0.6784549E+03  0.7818608E-02  0.9754803E-01
         -2   -1    0    0    0  501 -0.00000000000E+00  0.00000000000E+00  0.30318502829E+03  0.30318502829E+03  0.00000000000E+00 0. -1.
          2   -1    0    0  501    0  0.00000000000E+00 -0.00000000000E+00 -0.17172974181E+04  0.17172974181E+04  0.00000000000E+00 0.  1.
         23    2    1    2    0    0  0.27715853989E+03  0.52087810470E+03 -0.50499296320E+03  0.78175172621E+03  0.89370086486E+02 0.  0.
    5000000    2    1    2    0    0 -0.27715853989E+03 -0.52087810470E+03 -0.90911942659E+03  0.12387307202E+04  0.59985398980E+03 0.  0.
         23    2    4    4    0    0 -0.62406030324E+02  0.83630501313E+02 -0.37241253947E+03  0.39750708963E+03  0.91827084154E+02 0.  0.
         23    2    4    4    0    0 -0.21475250956E+03 -0.60450860601E+03 -0.53670688713E+03  0.84122363053E+03  0.89741956579E+02 0.  0.
          3    1    3    3  502    0  0.96977791488E+02  0.10326057595E+03 -0.13000941868E+03  0.19227555105E+03  0.00000000000E+00 0. -1.
         -3    1    3    3    0  502  0.18018074840E+03  0.41761752875E+03 -0.37498354452E+03  0.58947617515E+03  0.00000000000E+00 0.  1.
         11    1    5    5    0    0 -0.31096226203E+02  0.17545156264E+01 -0.27237976628E+02  0.41375850202E+02  0.00000000000E+00 0. -1.
        -11    1    5    5    0    0 -0.31309804121E+02  0.81875985687E+02 -0.34517456284E+03  0.35613123943E+03  0.00000000000E+00 0.  1.
          4    1    6    6  503    0 -0.37184302078E+02 -0.11774398549E+03 -0.60553908882E+02  0.13752488619E+03  0.00000000000E+00 0. -1.
         -4    1    6    6    0  503 -0.17756820748E+03 -0.48676462052E+03 -0.47615297824E+03  0.70369874434E+03  0.00000000000E+00 0.  1.
<mgrwt>
<rscale>  0 0.67845491E+03</rscale>
<asrwt>0</asrwt>
<pdfrwt beam="1">  1        2 0.26419960E+00 0.67845491E+03</pdfrwt>
<pdfrwt beam="2">  1       -2 0.46643851E-01 0.67845491E+03</pdfrwt>
<totfact> 0.43243793E+01</totfact>
</mgrwt>
</event>
<event>
12    1  0.1432447E-007  0.6148723E+03  0.7818608E-02  0.9875022E-01
          1   -1    0    0  501    0  0.00000000000E+00  0.00000000000E+00  0.23897705680E+04  0.23897705680E+04  0.00000000000E+00 0. -1.
         -1   -1    0    0    0  501 -0.00000000000E+00 -0.00000000000E+00 -0.20902526492E+03  0.20902526492E+03  0.00000000000E+00 0.  1.
         23    2    1    2    0    0 -0.12097950224E+03  0.56202350419E+03  0.87233925200E+03  0.10488011443E+04  0.92204178766E+02 0.  0.
    5000000    2    1    2    0    0  0.12097950224E+03 -0.56202350419E+03  0.13084060510E+04  0.15499946885E+04  0.60004223257E+03 0.  0.
         23    2    4    4    0    0 -0.51757683984E+02 -0.36016483775E+03  0.11852205049E+04  0.12431416079E+04  0.90861674295E+02 0.  0.
         23    2    4    4    0    0  0.17273718622E+03 -0.20185866644E+03  0.12318554616E+03  0.30685308065E+03  0.91646481675E+02 0.  0.
          1    1    3    3  502    0 -0.22855350499E+02  0.30326570963E+03  0.42059120851E+03  0.51902738113E+03  0.00000000000E+00 0. -1.
         -1    1    3    3    0  502 -0.98124151737E+02  0.25875779456E+03  0.45174804349E+03  0.52977376322E+03  0.00000000000E+00 0.  1.
         13    1    5    5    0    0 -0.91847991521E+00 -0.20894580027E+03  0.55463784283E+03  0.59269075220E+03  0.00000000000E+00 0.  1.
        -13    1    5    5    0    0 -0.50839204068E+02 -0.15121903748E+03  0.63058266205E+03  0.65045085567E+03  0.00000000000E+00 0. -1.
          1    1    6    6  503    0  0.11067189015E+03 -0.18583951686E+03  0.10360161681E+03  0.23982887295E+03  0.00000000000E+00 0. -1.
         -1    1    6    6    0  503  0.62065296066E+02 -0.16019149583E+02  0.19583929349E+02  0.67024207701E+02  0.00000000000E+00 0.  1.
<mgrwt>
<rscale>  0 0.61487229E+03</rscale>
<asrwt>0</asrwt>
<pdfrwt beam="1">  1        1 0.36765699E+00 0.61487229E+03</pdfrwt>
<pdfrwt beam="2">  1       -1 0.32157735E-01 0.61487229E+03</pdfrwt>
<totfact> 0.15629129E+01</totfact>
</mgrwt>
</event>
<event>
12    1  0.1432447E-007  0.9761876E+03  0.7818608E-02  0.9335054E-01
          2   -1    0    0  501    0  0.00000000000E+00  0.00000000000E+00  0.32385286000E+04  0.32385286000E+04  0.00000000000E+00 0.  1.
         -2   -1    0    0    0  501 -0.00000000000E+00 -0.00000000000E+00 -0.37535322805E+03  0.37535322805E+03  0.00000000000E+00 0. -1.
         23    2    1    2    0    0 -0.95871562842E+03 -0.78722662466E+02  0.18776306562E+04  0.21116310814E+04  0.90310737352E+02 0.  0.
    5000000    2    1    2    0    0  0.95871562842E+03  0.78722662466E+02  0.98554471580E+03  0.15022507466E+04  0.60010499513E+03 0.  0.
         23    2    4    4    0    0  0.12226648747E+03  0.49660379629E+02  0.51157541503E+03  0.53558388375E+03  0.87894505000E+02 0.  0.
         23    2    4    4    0    0  0.83644914096E+03  0.29062282837E+02  0.47396930077E+03  0.96666686289E+03  0.96468357742E+02 0.  0.
          1    1    3    3  502    0 -0.23571098749E+03 -0.46539690953E+02  0.53162660070E+03  0.58339733889E+03  0.00000000000E+00 0. -1.
         -1    1    3    3    0  502 -0.72300464093E+03 -0.32182971514E+02  0.13460040555E+04  0.15282337425E+04  0.00000000000E+00 0.  1.
         11    1    5    5    0    0  0.66572163238E+02 -0.72297623880E+01  0.33871406582E+03  0.34526995347E+03  0.00000000000E+00 0.  1.
        -11    1    5    5    0    0  0.55694324227E+02  0.56890142017E+02  0.17286134921E+03  0.19031393028E+03  0.00000000000E+00 0. -1.
          2    1    6    6  503    0  0.22363994667E+03 -0.32224050083E+02  0.11019159882E+03  0.25138695988E+03  0.00000000000E+00 0.  1.
         -2    1    6    6    0  503  0.61280919429E+03  0.61286332920E+02  0.36377770195E+03  0.71527990301E+03  0.00000000000E+00 0. -1.
<mgrwt>
<rscale>  0 0.97618759E+03</rscale>
<asrwt>0</asrwt>
<pdfrwt beam="1">  1        2 0.49823515E+00 0.97618759E+03</pdfrwt>
<pdfrwt beam="2">  1       -2 0.57746653E-01 0.97618759E+03</pdfrwt>
<totfact> 0.35482407E+00</totfact>
</mgrwt>
</event>
<event>
12    1  0.1432447E-007  0.6378059E+03  0.7818608E-02  0.9829933E-01
          1   -1    0    0  501    0  0.00000000000E+00  0.00000000000E+00  0.10266014776E+04  0.10266014776E+04  0.00000000000E+00 0. -1.
         -1   -1    0    0    0  501 -0.00000000000E+00 -0.00000000000E+00 -0.60636753663E+03  0.60636753663E+03  0.00000000000E+00 0.  1.
         23    2    1    2    0    0  0.38662598438E+03 -0.36970804774E+03 -0.23988683144E+03  0.59279412862E+03  0.87723968587E+02 0.  0.
    5000000    2    1    2    0    0 -0.38662598438E+03  0.36970804774E+03  0.66012077245E+03  0.10401748857E+04  0.60003388753E+03 0.  0.
         23    2    4    4    0    0  0.77552490972E+02  0.20568247107E+03  0.38878704339E+02  0.24222303200E+03  0.94025399859E+02 0.  0.
         23    2    4    4    0    0 -0.46417847535E+03  0.16402557667E+03  0.62124206811E+03  0.79795185366E+03  0.91757325565E+02 0.  0.
          2    1    3    3  502    0  0.24073212313E+03 -0.16992623199E+03 -0.12673253559E+03  0.32076161710E+03  0.00000000000E+00 0. -1.
         -2    1    3    3    0  502  0.14589386124E+03 -0.19978181576E+03 -0.11315429584E+03  0.27203251152E+03  0.00000000000E+00 0.  1.
         13    1    5    5    0    0 -0.65684361497E+01  0.11166295272E+03  0.68679069040E+01  0.11206662085E+03  0.00000000000E+00 0. -1.
        -13    1    5    5    0    0  0.84120927122E+02  0.94019518347E+02  0.32010797435E+02  0.13015641115E+03  0.00000000000E+00 0.  1.
          4    1    6    6  503    0 -0.26756245645E+03  0.12401416636E+03  0.31197406300E+03  0.42929826175E+03  0.00000000000E+00 0. -1.
         -4    1    6    6    0  503 -0.19661601890E+03  0.40011410310E+02  0.30926800512E+03  0.36865359191E+03  0.00000000000E+00 0.  1.
<mgrwt>
<rscale>  0 0.63780588E+03</rscale>
<asrwt>0</asrwt>
<pdfrwt beam="1">  1        1 0.15793869E+00 0.63780588E+03</pdfrwt>
<pdfrwt beam="2">  1       -1 0.93287314E-01 0.63780588E+03</pdfrwt>
<totfact> 0.16835160E+01</totfact>
</mgrwt>
</event>
<event>
12    1  0.1593510E-007  0.1647258E+04  0.7818608E-02  0.8792030E-01
         -2   -1    0    0    0  501 -0.00000000000E+00  0.00000000000E+00  0.10533302121E+04  0.10533302121E+04  0.00000000000E+00 0.  1.
          2   -1    0    0  501    0  0.00000000000E+00 -0.00000000000E+00 -0.31697226594E+04  0.31697226594E+04  0.00000000000E+00 0. -1.
         23    2    1    2    0    0  0.45763701209E+03 -0.15791233891E+04 -0.25193769836E+03  0.16658627000E+04  0.92539820418E+02 0.  0.
    5000000    2    1    2    0    0 -0.45763701209E+03  0.15791233891E+04 -0.18644547489E+04  0.25571901716E+04  0.59997312443E+03 0.  0.
         23    2    4    4    0    0 -0.24961918475E+03  0.96752958573E+03 -0.15147989433E+04  0.18169907121E+04  0.91739700175E+02 0.  0.
         23    2    4    4    0    0 -0.20801782735E+03  0.61159380338E+03 -0.34965580561E+03  0.74019945948E+03  0.91201209382E+02 0.  0.
          3    1    3    3  502    0  0.22913596763E+03 -0.75595832566E+03 -0.16679274897E+03  0.80733890213E+03  0.00000000000E+00 0. -1.
         -3    1    3    3    0  502  0.22850104446E+03 -0.82316506346E+03 -0.85144949390E+02  0.85852379782E+03  0.00000000000E+00 0.  1.
         11    1    5    5    0    0 -0.10419042291E+03  0.55895584677E+03 -0.81609364234E+03  0.99463365916E+03  0.00000000000E+00 0.  1.
        -11    1    5    5    0    0 -0.14542876183E+03  0.40857373896E+03 -0.69870530095E+03  0.82235705294E+03  0.00000000000E+00 0. -1.
          1    1    6    6  503    0 -0.15581077158E+03  0.38144831393E+03 -0.18050189629E+03  0.44984524817E+03  0.00000000000E+00 0. -1.
         -1    1    6    6    0  503 -0.52207055765E+02  0.23014548946E+03 -0.16915390932E+03  0.29035421131E+03  0.00000000000E+00 0.  1.
<mgrwt>
<rscale>  0 0.16472584E+04</rscale>
<asrwt>0</asrwt>
<pdfrwt beam="1">  1        2 0.48764964E+00 0.16472584E+04</pdfrwt>
<pdfrwt beam="2">  1       -2 0.16205080E+00 0.16472584E+04</pdfrwt>
<totfact> 0.30764822E-01</totfact>
</mgrwt>
</event>
<event>
12    1  0.1432447E-007  0.1377119E+04  0.7818608E-02  0.8970550E-01
          2   -1    0    0  501    0  0.00000000000E+00  0.00000000000E+00  0.24222944981E+04  0.24222944981E+04  0.00000000000E+00 0. -1.
         -2   -1    0    0    0  501 -0.00000000000E+00 -0.00000000000E+00 -0.87590335935E+03  0.87590335935E+03  0.00000000000E+00 0.  1.
         23    2    1    2    0    0  0.12406177606E+04 -0.43629097181E+03  0.22021541061E+03  0.13365074300E+04  0.90967265697E+02 0.  0.
    5000000    2    1    2    0    0 -0.12406177606E+04  0.43629097181E+03  0.13261757281E+04  0.19616904274E+04  0.60000419253E+03 0.  0.
         23    2    4    4    0    0 -0.67122012904E+03 -0.64934874514E+02  0.59951502842E+03  0.90710335951E+03  0.93087249208E+02 0.  0.
         23    2    4    4    0    0 -0.56939763158E+03  0.50122584632E+03  0.72666069970E+03  0.10545870679E+04  0.93150949634E+02 0.  0.
          4    1    3    3  502    0  0.82149395123E+03 -0.32684612781E+03  0.17139858942E+03  0.90058768570E+03  0.00000000000E+00 0.  1.
         -4    1    3    3    0  502  0.41912380939E+03 -0.10944484400E+03  0.48816821188E+02  0.43591974434E+03  0.00000000000E+00 0. -1.
         11    1    5    5    0    0 -0.69763892733E+02 -0.41710883201E+01  0.28298826700E+02  0.75400413126E+02  0.00000000000E+00 0. -1.
        -11    1    5    5    0    0 -0.60145623631E+03 -0.60763786194E+02  0.57121620172E+03  0.83170294638E+03  0.00000000000E+00 0.  1.
          2    1    6    6  503    0 -0.38754692106E+03  0.38751080630E+03  0.48946033335E+03  0.73479837979E+03  0.00000000000E+00 0. -1.
         -2    1    6    6    0  503 -0.18185071052E+03  0.11371504003E+03  0.23720036635E+03  0.31978868811E+03  0.00000000000E+00 0.  1.
<mgrwt>
<rscale>  0 0.13771188E+04</rscale>
<asrwt>0</asrwt>
<pdfrwt beam="1">  1        2 0.37266069E+00 0.13771188E+04</pdfrwt>
<pdfrwt beam="2">  1       -2 0.13475436E+00 0.13771188E+04</pdfrwt>
<totfact> 0.14669245E+00</totfact>
</mgrwt>
</event>
<event>
12    1  0.1432447E-007  0.9653673E+03  0.7818608E-02  0.9347367E-01
          1   -1    0    0  501    0  0.00000000000E+00  0.00000000000E+00  0.17766622241E+04  0.17766622241E+04  0.00000000000E+00 0. -1.
         -1   -1    0    0    0  501 -0.00000000000E+00 -0.00000000000E+00 -0.59735994893E+03  0.59735994893E+03  0.00000000000E+00 0.  1.
         23    2    1    2    0    0  0.25100818535E+03 -0.90309669270E+03  0.45294505538E+03  0.10450674697E+04  0.91749918469E+02 0.  0.
    5000000    2    1    2    0    0 -0.25100818535E+03  0.90309669270E+03  0.72635721983E+03  0.13289547034E+04  0.59994753716E+03 0.  0.
         23    2    4    4    0    0  0.22794375054E+01 -0.14716080378E+02 -0.42062267880E+02  0.10197303160E+03  0.91692452999E+02 0.  0.
         23    2    4    4    0    0 -0.25328762285E+03  0.91781277308E+03  0.76841948771E+03  0.12269816718E+04  0.92090213739E+02 0.  0.
          1    1    3    3  502    0  0.14579326295E+03 -0.67541098592E+03  0.33551035806E+03  0.76811644676E+03  0.00000000000E+00 0. -1.
         -1    1    3    3    0  502  0.10521492240E+03 -0.22768570679E+03  0.11743469732E+03  0.27695102294E+03  0.00000000000E+00 0.  1.
         11    1    5    5    0    0  0.11875181897E+02  0.30159403335E+01 -0.68014560919E+02  0.69109307175E+02  0.00000000000E+00 0. -1.
        -11    1    5    5    0    0 -0.95957443914E+01 -0.17732020712E+02  0.25952293039E+02  0.32863724423E+02  0.00000000000E+00 0.  1.
          4    1    6    6  503    0 -0.12441443802E+03  0.28888464975E+03  0.25738721507E+03  0.40642523511E+03  0.00000000000E+00 0. -1.
         -4    1    6    6    0  503 -0.12887318483E+03  0.62892812334E+03  0.51103227264E+03  0.82055643668E+03  0.00000000000E+00 0.  1.
<mgrwt>
<rscale>  0 0.96536726E+03</rscale>
<asrwt>0</asrwt>
<pdfrwt beam="1">  1        1 0.27333265E+00 0.96536726E+03</pdfrwt>
<pdfrwt beam="2">  1       -1 0.91901531E-01 0.96536726E+03</pdfrwt>
<totfact> 0.49365684E+00</totfact>
</mgrwt>
</event>
<event>
12    1  0.1432447E-007  0.6039172E+03  0.7818608E-02  0.9897312E-01
         -2   -1    0    0    0  501 -0.00000000000E+00  0.00000000000E+00  0.56410323881E+03  0.56410323881E+03  0.00000000000E+00 0.  1.
          2   -1    0    0  501    0  0.00000000000E+00 -0.00000000000E+00 -0.75162117978E+03  0.75162117978E+03  0.00000000000E+00 0. -1.
         23    2    1    2    0    0  0.49161083171E+03  0.11478659338E+03 -0.13027832302E+03  0.52951793063E+03  0.92518244366E+02 0.  0.
    5000000    2    1    2    0    0 -0.49161083171E+03 -0.11478659338E+03 -0.57239617947E+02  0.78620648796E+03  0.59998924655E+03 0.  0.
         23    2    4    4    0    0 -0.55340780035E+03 -0.39423611253E+01  0.93499685440E+02  0.56858425782E+03  0.90940262580E+02 0.  0.
         23    2    4    4    0    0  0.61796968648E+02 -0.11084423226E+03 -0.15073930339E+03  0.21762223014E+03  0.92367679996E+02 0.  0.
          4    1    3    3  502    0  0.25000098017E+03  0.88836668491E+02 -0.10450457786E+03  0.28515548487E+03  0.00000000000E+00 0. -1.
         -4    1    3    3    0  502  0.24160985153E+03  0.25949924891E+02 -0.25773745153E+02  0.24436244576E+03  0.00000000000E+00 0.  1.
         13    1    5    5    0    0 -0.20712816800E+03 -0.89724506590E+01 -0.86942893444E+01  0.20750463493E+03  0.00000000000E+00 0. -1.
        -13    1    5    5    0    0 -0.34627963235E+03  0.50300895337E+01  0.10219397478E+03  0.36107962289E+03  0.00000000000E+00 0.  1.
          1    1    6    6  503    0  0.50081697764E+02 -0.19429807165E+02 -0.97149205053E+02  0.11101198989E+03  0.00000000000E+00 0. -1.
         -1    1    6    6    0  503  0.11715270884E+02 -0.91414425092E+02 -0.53590098333E+02  0.10661024025E+03  0.00000000000E+00 0.  1.
<mgrwt>
<rscale>  0 0.60391723E+03</rscale>
<asrwt>0</asrwt>
<pdfrwt beam="1">  1        2 0.11563403E+00 0.60391723E+03</pdfrwt>
<pdfrwt beam="2">  1       -2 0.86785114E-01 0.60391723E+03</pdfrwt>
<totfact> 0.44112434E+01</totfact>
</mgrwt>
</event>
<event>
12    1  0.1432447E-007  0.1009320E+04  0.7818608E-02  0.9298381E-01
          2   -1    0    0  501    0  0.00000000000E+00  0.00000000000E+00  0.21154637271E+04  0.21154637271E+04  0.00000000000E+00 0. -1.
         -2   -1    0    0    0  501 -0.00000000000E+00 -0.00000000000E+00 -0.59540369146E+03  0.59540369146E+03  0.00000000000E+00 0.  1.
         23    2    1    2    0    0 -0.92610557206E+03  0.32437856881E+03  0.11229186355E+04  0.14940931162E+04  0.92059715509E+02 0.  0.
    5000000    2    1    2    0    0  0.92610557206E+03 -0.32437856881E+03  0.39714140013E+03  0.12167743024E+04  0.59993785080E+03 0.  0.
         23    2    4    4    0    0  0.21153048473E+03  0.40042899673E+02 -0.11548980730E+03  0.26046969691E+03  0.90321579004E+02 0.  0.
         23    2    4    4    0    0  0.71457508733E+03 -0.36442146848E+03  0.51263120742E+03  0.95630460551E+03  0.91143741237E+02 0.  0.
          4    1    3    3  502    0 -0.86554110622E+03  0.30686210238E+03  0.10808693801E+04  0.14183103938E+04  0.00000000000E+00 0. -1.
         -4    1    3    3    0  502 -0.60564465845E+02  0.17516466431E+02  0.42049255407E+02  0.75782722303E+02  0.00000000000E+00 0.  1.
         13    1    5    5    0    0  0.88417001586E+02  0.60790705079E+02 -0.67207802336E+02  0.12660949683E+03  0.00000000000E+00 0. -1.
        -13    1    5    5    0    0  0.12311348315E+03 -0.20747805406E+02 -0.48282004961E+02  0.13386020008E+03  0.00000000000E+00 0.  1.
          3    1    6    6  503    0  0.39958857801E+03 -0.24213701403E+03  0.33192109315E+03  0.57312562088E+03  0.00000000000E+00 0. -1.
         -3    1    6    6    0  503  0.31498650932E+03 -0.12228445446E+03  0.18071011428E+03  0.38317898462E+03  0.00000000000E+00 0.  1.
<mgrwt>
<rscale>  0 0.10093203E+04</rscale>
<asrwt>0</asrwt>
<pdfrwt beam="1">  1        2 0.32545595E+00 0.10093203E+04</pdfrwt>
<pdfrwt beam="2">  1       -2 0.91600569E-01 0.10093203E+04</pdfrwt>
<totfact> 0.58535453E+00</totfact>
</mgrwt>
</event>
<event>
12    1  0.1432447E-007  0.4095606E+03  0.7818608E-02  0.1040519E+00
          1   -1    0    0  501    0  0.00000000000E+00  0.00000000000E+00  0.11134824913E+04  0.11134824913E+04  0.00000000000E+00 0. -1.
         -1   -1    0    0    0  501 -0.00000000000E+00 -0.00000000000E+00 -0.29700504466E+03  0.29700504466E+03  0.00000000000E+00 0.  1.
         23    2    1    2    0    0  0.20076946224E+03  0.11859813070E+03 -0.11683021563E+03  0.27674989552E+03  0.92559774254E+02 0.  0.
    5000000    2    1    2    0    0 -0.20076946224E+03 -0.11859813070E+03  0.93330766223E+03  0.11337376404E+04  0.59993662275E+03 0.  0.
         23    2    4    4    0    0 -0.25134819202E+02 -0.31646270168E+03  0.68196586203E+03  0.75764682942E+03  0.90392922688E+02 0.  0.
         23    2    4    4    0    0 -0.17563464304E+03  0.19786457097E+03  0.25134180020E+03  0.37609081098E+03  0.90959778443E+02 0.  0.
          2    1    3    3  502    0  0.14816639671E+03  0.71777412824E+02 -0.34145510457E+02  0.16814039963E+03  0.00000000000E+00 0. -1.
         -2    1    3    3    0  502  0.52603065532E+02  0.46820717879E+02 -0.82684705174E+02  0.10860949588E+03  0.00000000000E+00 0.  1.
         13    1    5    5    0    0 -0.61755677704E+01 -0.25129213924E+03  0.60434420399E+03  0.65453631968E+03  0.00000000000E+00 0.  1.
        -13    1    5    5    0    0 -0.18959251431E+02 -0.65170562433E+02  0.77621658036E+02  0.10311050974E+03  0.00000000000E+00 0. -1.
          2    1    6    6  503    0 -0.36420238889E+02  0.34240184739E+02  0.65802235367E+01  0.50419474348E+02  0.00000000000E+00 0. -1.
         -2    1    6    6    0  503 -0.13921440415E+03  0.16362438623E+03  0.24476157667E+03  0.32567133663E+03  0.00000000000E+00 0.  1.
<mgrwt>
<rscale>  0 0.40956065E+03</rscale>
<asrwt>0</asrwt>
<pdfrwt beam="1">  1        1 0.17130500E+00 0.40956065E+03</pdfrwt>
<pdfrwt beam="2">  1       -1 0.45693084E-01 0.40956065E+03</pdfrwt>
<totfact> 0.63033346E+01</totfact>
</mgrwt>
</event>
<event>
12    1  0.1432447E-007  0.1163991E+04  0.7818608E-02  0.9144972E-01
         -2   -1    0    0    0  501 -0.00000000000E+00  0.00000000000E+00  0.81494336808E+03  0.81494336808E+03  0.00000000000E+00 0. -1.
          2   -1    0    0  501    0  0.00000000000E+00 -0.00000000000E+00 -0.18550342205E+04  0.18550342205E+04  0.00000000000E+00 0.  1.
         23    2    1    2    0    0 -0.11032382138E+04 -0.33950515828E+03 -0.50986930063E+03  0.12651715827E+04  0.91072064461E+02 0.  0.
    5000000    2    1    2    0    0  0.11032382138E+04  0.33950515828E+03 -0.53022155180E+03  0.14048060059E+04  0.59995559115E+03 0.  0.
         23    2    4    4    0    0  0.64081606997E+03  0.25123078102E+03 -0.60272259962E+03  0.91942711877E+03  0.91156753867E+02 0.  0.
         23    2    4    4    0    0  0.46242214385E+03  0.88274377261E+02  0.72501047824E+02  0.48537888715E+03  0.93325545007E+02 0.  0.
          4    1    3    3  502    0 -0.18775313878E+03 -0.90533993594E+02 -0.75058224371E+02  0.22154318352E+03  0.00000000000E+00 0. -1.
         -4    1    3    3    0  502 -0.91548507505E+03 -0.24897116468E+03 -0.43481107626E+03  0.10436283992E+04  0.00000000000E+00 0.  1.
         11    1    5    5    0    0  0.40565360423E+03  0.18997664928E+03 -0.34665625836E+03  0.56640668725E+03  0.00000000000E+00 0. -1.
        -11    1    5    5    0    0  0.23516246574E+03  0.61254131737E+02 -0.25606634126E+03  0.35302043153E+03  0.00000000000E+00 0.  1.
          3    1    6    6  503    0  0.10079011283E+02  0.19997339741E+02  0.51783033580E+01  0.22984666429E+02  0.00000000000E+00 0. -1.
         -3    1    6    6    0  503  0.45234313257E+03  0.68277037520E+02  0.67322744466E+02  0.46239422072E+03  0.00000000000E+00 0.  1.
<mgrwt>
<rscale>  0 0.11639910E+04</rscale>
<asrwt>0</asrwt>
<pdfrwt beam="1">  1        2 0.28538988E+00 0.11639910E+04</pdfrwt>
<pdfrwt beam="2">  1       -2 0.12537590E+00 0.11639910E+04</pdfrwt>
<totfact> 0.37454605E+00</totfact>
</mgrwt>
</event>
<event>
12    1  0.1432447E-007  0.5894709E+03  0.7818608E-02  0.9927495E-01
         -1   -1    0    0    0  501 -0.00000000000E+00  0.00000000000E+00  0.37479563759E+03  0.37479563759E+03  0.00000000000E+00 0.  1.
          1   -1    0    0  501    0  0.00000000000E+00 -0.00000000000E+00 -0.10131176552E+04  0.10131176552E+04  0.00000000000E+00 0. -1.
         23    2    1    2    0    0 -0.14594290596E+03 -0.42246181926E+03 -0.38800006390E+03  0.59900370093E+03  0.92130687671E+02 0.  0.
    5000000    2    1    2    0    0  0.14594290596E+03  0.42246181926E+03 -0.25032195368E+03  0.78890959182E+03  0.59995328405E+03 0.  0.
         23    2    4    4    0    0  0.34923506454E+03  0.30225950854E+03 -0.68118506128E+02  0.47763024706E+03  0.10081954783E+03 0.  0.
         23    2    4    4    0    0 -0.20329215858E+03  0.12020231072E+03 -0.18220344755E+03  0.31127934476E+03  0.88996836639E+02 0.  0.
          3    1    3    3  502    0 -0.13573582356E+03 -0.26421505709E+03 -0.23653009115E+03  0.37971080339E+03  0.00000000000E+00 0.  1.
         -3    1    3    3    0  502 -0.10207082405E+02 -0.15824676217E+03 -0.15146997275E+03  0.21929289754E+03  0.00000000000E+00 0. -1.
         11    1    5    5    0    0  0.16102127779E+03  0.19998627669E+03 -0.16444921318E+02  0.25727961093E+03  0.00000000000E+00 0. -1.
        -11    1    5    5    0    0  0.18821378675E+03  0.10227323185E+03 -0.51673584810E+02  0.22035063613E+03  0.00000000000E+00 0.  1.
          4    1    6    6  503    0 -0.22862414426E+02 -0.14611142798E+02 -0.20729178961E+02  0.34144902221E+02  0.00000000000E+00 0.  1.
         -4    1    6    6    0  503 -0.18042974415E+03  0.13481345352E+03 -0.16147426859E+03  0.27713444254E+03  0.00000000000E+00 0. -1.
<mgrwt>
<rscale>  0 0.58947087E+03</rscale>
<asrwt>0</asrwt>
<pdfrwt beam="1">  1        1 0.15586425E+00 0.58947087E+03</pdfrwt>
<pdfrwt beam="2">  1       -1 0.57660868E-01 0.58947087E+03</pdfrwt>
<totfact> 0.46977962E+01</totfact>
</mgrwt>
</event>
<event>
12    1  0.1432447E-007  0.9806429E+03  0.7818608E-02  0.9330034E-01
          1   -1    0    0  501    0  0.00000000000E+00  0.00000000000E+00  0.11473618653E+04  0.11473618653E+04  0.00000000000E+00 0. -1.
         -1   -1    0    0    0  501 -0.00000000000E+00 -0.00000000000E+00 -0.21211011487E+04  0.21211011487E+04  0.00000000000E+00 0.  1.
         23    2    1    2    0    0  0.49640192405E+03  0.75884585585E+03 -0.17221883251E+04  0.19484427965E+04  0.90745803893E+02 0.  0.
    5000000    2    1    2    0    0 -0.49640192405E+03 -0.75884585585E+03  0.74844904168E+03  0.13200202175E+04  0.60001291947E+03 0.  0.
         23    2    4    4    0    0 -0.32469002959E+03 -0.68163852969E+02  0.11381474267E+03  0.36208533091E+03  0.89900306146E+02 0.  0.
         23    2    4    4    0    0 -0.17171189447E+03 -0.69068200289E+03  0.63463429901E+03  0.95793488662E+03  0.91389002122E+02 0.  0.
          1    1    3    3  502    0  0.20837534468E+03  0.39472342880E+03 -0.88234233291E+03  0.98881487749E+03  0.00000000000E+00 0. -1.
         -1    1    3    3    0  502  0.28802657937E+03  0.36412242705E+03 -0.83984599218E+03  0.95962791898E+03  0.00000000000E+00 0.  1.
         11    1    5    5    0    0 -0.19045566319E+03 -0.70690981681E+02  0.34240258673E+02  0.20601691640E+03  0.00000000000E+00 0. -1.
        -11    1    5    5    0    0 -0.13423436640E+03  0.25271287118E+01  0.79574483995E+02  0.15606841450E+03  0.00000000000E+00 0.  1.
          1    1    6    6  503    0 -0.10556252368E+03 -0.51097200651E+03  0.41606481371E+03  0.66734231624E+03  0.00000000000E+00 0. -1.
         -1    1    6    6    0  503 -0.66149370786E+02 -0.17970999638E+03  0.21856948530E+03  0.29059257038E+03  0.00000000000E+00 0.  1.
<mgrwt>
<rscale>  0 0.98064293E+03</rscale>
<asrwt>0</asrwt>
<pdfrwt beam="1">  1        1 0.17651721E+00 0.98064293E+03</pdfrwt>
<pdfrwt beam="2">  1       -1 0.32632325E+00 0.98064293E+03</pdfrwt>
<totfact> 0.26564054E-01</totfact>
</mgrwt>
</event>
<event>
12    1  0.1432447E-007  0.7426321E+03  0.7818608E-02  0.9646981E-01
         -1   -1    0    0    0  501 -0.00000000000E+00  0.00000000000E+00  0.35386584155E+03  0.35386584155E+03  0.00000000000E+00 0.  1.
          1   -1    0    0  501    0  0.00000000000E+00 -0.00000000000E+00 -0.16773479246E+04  0.16773479246E+04  0.00000000000E+00 0. -1.
         23    2    1    2    0    0  0.12280830090E+03  0.63580514723E+03 -0.49087200903E+03  0.81769502004E+03  0.91322245668E+02 0.  0.
    5000000    2    1    2    0    0 -0.12280830090E+03 -0.63580514723E+03 -0.83261007403E+03  0.12135187461E+04  0.60004845454E+03 0.  0.
         23    2    4    4    0    0  0.11394639870E+03  0.34061319584E+02 -0.24336014952E+03  0.28602772138E+03  0.91889823989E+02 0.  0.
         23    2    4    4    0    0 -0.23675469959E+03 -0.66986646681E+03 -0.58924992450E+03  0.92749102474E+03  0.90830921526E+02 0.  0.
          3    1    3    3  502    0  0.28588787131E+02  0.18649562947E+03 -0.19608718347E+03  0.27211784595E+03  0.00000000000E+00 0. -1.
         -3    1    3    3    0  502  0.94219513764E+02  0.44930951775E+03 -0.29478482555E+03  0.54557717410E+03  0.00000000000E+00 0.  1.
         13    1    5    5    0    0  0.50318793229E+02  0.38155974007E+02 -0.44652643476E+02  0.77341566275E+02  0.00000000000E+00 0.  1.
        -13    1    5    5    0    0  0.63627605471E+02 -0.40946544229E+01 -0.19870750605E+03  0.20868615510E+03  0.00000000000E+00 0. -1.
          2    1    6    6  503    0 -0.19135083938E+03 -0.52501904461E+03 -0.50858864765E+03  0.75559417246E+03  0.00000000000E+00 0. -1.
         -2    1    6    6    0  503 -0.45403860218E+02 -0.14484742220E+03 -0.80661276857E+02  0.17189685228E+03  0.00000000000E+00 0.  1.
<mgrwt>
<rscale>  0 0.74263212E+03</rscale>
<asrwt>0</asrwt>
<pdfrwt beam="1">  1        1 0.25805352E+00 0.74263212E+03</pdfrwt>
<pdfrwt beam="2">  1       -1 0.54440900E-01 0.74263212E+03</pdfrwt>
<totfact> 0.17483818E+01</totfact>
</mgrwt>
</event>
<event>
12    1  0.1432447E-007  0.6848422E+03  0.7818608E-02  0.9743511E-01
          1   -1    0    0  501    0  0.00000000000E+00  0.00000000000E+00  0.12438490783E+04  0.12438490783E+04  0.00000000000E+00 0. -1.
         -1   -1    0    0    0  501 -0.00000000000E+00 -0.00000000000E+00 -0.64257438627E+03  0.64257438627E+03  0.00000000000E+00 0.  1.
         23    2    1    2    0    0 -0.82849162146E+02 -0.63761186889E+03 -0.21716628424E+03  0.68504326220E+03  0.93328436523E+02 0.  0.
    5000000    2    1    2    0    0  0.82849162146E+02  0.63761186889E+03  0.81844097627E+03  0.12013802024E+04  0.60004656486E+03 0.  0.
         23    2    4    4    0    0 -0.10030516153E+03  0.19387685373E+03 -0.10195568473E+02  0.23983610069E+03  0.98833424179E+02 0.  0.
         23    2    4    4    0    0  0.18315432367E+03  0.44373501516E+03  0.82863654474E+03  0.96154410169E+03  0.86500093894E+02 0.  0.
          1    1    3    3  502    0  0.96236721216E+01 -0.54487260788E+02  0.17359756541E+01  0.55357838332E+02  0.00000000000E+00 0. -1.
         -1    1    3    3    0  502 -0.92472834267E+02 -0.58312460810E+03 -0.21890225989E+03  0.62968542387E+03  0.00000000000E+00 0.  1.
         13    1    5    5    0    0 -0.79356696159E+02  0.49167234306E+02 -0.63051440524E+01  0.93566324049E+02  0.00000000000E+00 0. -1.
        -13    1    5    5    0    0 -0.20948465367E+02  0.14470961943E+03 -0.38904244204E+01  0.14626977664E+03  0.00000000000E+00 0.  1.
          1    1    6    6  503    0  0.13536621171E+03  0.24436356323E+03  0.42094221318E+03  0.50520283960E+03  0.00000000000E+00 0. -1.
         -1    1    6    6    0  503  0.47788111965E+02  0.19937145193E+03  0.40769433156E+03  0.45634126208E+03  0.00000000000E+00 0.  1.
<mgrwt>
<rscale>  0 0.68484219E+03</rscale>
<asrwt>0</asrwt>
<pdfrwt beam="1">  1        1 0.19136140E+00 0.68484219E+03</pdfrwt>
<pdfrwt beam="2">  1       -1 0.98857598E-01 0.68484219E+03</pdfrwt>
<totfact> 0.10154721E+01</totfact>
</mgrwt>
</event>
<event>
12    1  0.1432447E-007  0.1195731E+04  0.7818608E-02  0.9116602E-01
          1   -1    0    0  501    0  0.00000000000E+00  0.00000000000E+00  0.13792438941E+04  0.13792438941E+04  0.00000000000E+00 0. -1.
         -1   -1    0    0    0  501 -0.00000000000E+00 -0.00000000000E+00 -0.12241935634E+04  0.12241935634E+04  0.00000000000E+00 0.  1.
         23    2    1    2    0    0  0.11314252855E+04 -0.27970378397E+03 -0.31517999301E+03  0.12108319266E+04  0.91750438783E+02 0.  0.
    5000000    2    1    2    0    0 -0.11314252855E+04  0.27970378397E+03  0.47023032367E+03  0.13926055310E+04  0.59989684460E+03 0.  0.
         23    2    4    4    0    0 -0.89153997349E+03  0.34544535611E+03  0.14256221845E+03  0.97103101309E+03  0.91658190355E+02 0.  0.
         23    2    4    4    0    0 -0.23988531198E+03 -0.65741572134E+02  0.32766810523E+03  0.42157451786E+03  0.92150798791E+02 0.  0.
          1    1    3    3  502    0  0.57485512631E+03 -0.15975145273E+03 -0.11719387241E+03  0.60804057975E+03  0.00000000000E+00 0. -1.
         -1    1    3    3    0  502  0.55657015916E+03 -0.11995233124E+03 -0.19798612060E+03  0.60279134681E+03  0.00000000000E+00 0.  1.
         13    1    5    5    0    0 -0.42699181609E+03  0.11762286881E+03  0.55694554189E+02  0.44638440121E+03  0.00000000000E+00 0.  1.
        -13    1    5    5    0    0 -0.46454815740E+03  0.22782248730E+03  0.86867664256E+02  0.52464661188E+03  0.00000000000E+00 0. -1.
          1    1    6    6  503    0 -0.14895306568E+03 -0.86016960543E+02  0.20753430005E+03  0.26954854660E+03  0.00000000000E+00 0. -1.
         -1    1    6    6    0  503 -0.90932246301E+02  0.20275388409E+02  0.12013380517E+03  0.15202597126E+03  0.00000000000E+00 0.  1.
<mgrwt>
<rscale>  0 0.11957308E+04</rscale>
<asrwt>0</asrwt>
<pdfrwt beam="1">  1        1 0.21219137E+00 0.11957308E+04</pdfrwt>
<pdfrwt beam="2">  1       -1 0.18833747E+00 0.11957308E+04</pdfrwt>
<totfact> 0.14141139E+00</totfact>
</mgrwt>
</event>
<event>
12    1  0.1432447E-007  0.1219869E+04  0.7818608E-02  0.9095641E-01
          1   -1    0    0  501    0  0.00000000000E+00  0.00000000000E+00  0.20858277827E+04  0.20858277827E+04  0.00000000000E+00 0. -1.
         -1   -1    0    0    0  501 -0.00000000000E+00 -0.00000000000E+00 -0.93396136185E+03  0.93396136185E+03  0.00000000000E+00 0.  1.
         23    2    1    2    0    0 -0.83243380305E+03  0.82789924658E+03 -0.12491001566E+03  0.11843111821E+04  0.92883071773E+02 0.  0.
    5000000    2    1    2    0    0  0.83243380305E+03 -0.82789924658E+03  0.12767764365E+04  0.18354779625E+04  0.60038161442E+03 0.  0.
         23    2    4    4    0    0  0.29351931377E+03 -0.29175351500E+02  0.53021946936E+03  0.61376278779E+03  0.92559631061E+02 0.  0.
         23    2    4    4    0    0  0.53891448928E+03 -0.79872389508E+03  0.74655696712E+03  0.12217151747E+04  0.82776660338E+02 0.  0.
          2    1    3    3  502    0 -0.25053300754E+03  0.28599289535E+03 -0.75426667713E+02  0.38761824810E+03  0.00000000000E+00 0.  1.
         -2    1    3    3    0  502 -0.58190079551E+03  0.54190635124E+03 -0.49483347945E+02  0.79669293398E+03  0.00000000000E+00 0. -1.
         11    1    5    5    0    0  0.18447697290E+03  0.96529067009E+01  0.25226097701E+03  0.31266680774E+03  0.00000000000E+00 0.  1.
        -11    1    5    5    0    0  0.10904234087E+03 -0.38828258201E+02  0.27795849235E+03  0.30109598006E+03  0.00000000000E+00 0. -1.
          1    1    6    6  503    0  0.16844905094E+03 -0.27203946352E+03  0.29530272738E+03  0.43541273899E+03  0.00000000000E+00 0. -1.
         -1    1    6    6    0  503  0.37046543833E+03 -0.52668443156E+03  0.45125423974E+03  0.78630243567E+03  0.00000000000E+00 0.  1.
<mgrwt>
<rscale>  0 0.12198690E+04</rscale>
<asrwt>0</asrwt>
<pdfrwt beam="1">  1        1 0.32089658E+00 0.12198690E+04</pdfrwt>
<pdfrwt beam="2">  1       -1 0.14368636E+00 0.12198690E+04</pdfrwt>
<totfact> 0.10007329E+00</totfact>
</mgrwt>
</event>
<event>
12    1  0.1432447E-007  0.6115189E+03  0.7818608E-02  0.9881792E-01
          2   -1    0    0  501    0  0.00000000000E+00  0.00000000000E+00  0.13320296862E+04  0.13320296862E+04  0.00000000000E+00 0. -1.
         -2   -1    0    0    0  501 -0.00000000000E+00 -0.00000000000E+00 -0.29531807409E+03  0.29531807409E+03  0.00000000000E+00 0.  1.
         23    2    1    2    0    0 -0.32317947049E+03 -0.35201734394E+03  0.43172722460E+03  0.65045068152E+03  0.91304501780E+02 0.  0.
    5000000    2    1    2    0    0  0.32317947049E+03  0.35201734394E+03  0.60498438751E+03  0.97689707876E+03  0.59996717642E+03 0.  0.
         23    2    4    4    0    0  0.44139117280E+03  0.40818683967E+03  0.50349962574E+03  0.78881580715E+03  0.85298540367E+02 0.  0.
         23    2    4    4    0    0 -0.11821170231E+03 -0.56169495730E+02  0.10148476177E+03  0.18808127161E+03  0.89142520973E+02 0.  0.
          3    1    3    3  502    0 -0.25217309657E+03 -0.30119764684E+03  0.39047098028E+03  0.55387623124E+03  0.00000000000E+00 0. -1.
         -3    1    3    3    0  502 -0.71006373921E+02 -0.50819697098E+02  0.41256244325E+02  0.96574450277E+02  0.00000000000E+00 0.  1.
         11    1    5    5    0    0  0.98327276101E+01  0.32894062837E+02  0.39613690140E+02  0.52420857954E+02  0.00000000000E+00 0.  1.
        -11    1    5    5    0    0  0.43155844519E+03  0.37529277683E+03  0.46388593560E+03  0.73639494920E+03  0.00000000000E+00 0. -1.
          2    1    6    6  503    0 -0.47524199399E+02 -0.44300090381E+02  0.14091996101E+01  0.64984870392E+02  0.00000000000E+00 0. -1.
         -2    1    6    6    0  503 -0.70687502909E+02 -0.11869405349E+02  0.10007556216E+03  0.12309640122E+03  0.00000000000E+00 0.  1.
<mgrwt>
<rscale>  0 0.61151892E+03</rscale>
<asrwt>0</asrwt>
<pdfrwt beam="1">  1        2 0.20492764E+00 0.61151892E+03</pdfrwt>
<pdfrwt beam="2">  1       -2 0.45433551E-01 0.61151892E+03</pdfrwt>
<totfact> 0.75095369E+01</totfact>
</mgrwt>
</event>
<event>
12    1  0.1432447E-007  0.1216303E+04  0.7818608E-02  0.9098705E-01
         -2   -1    0    0    0  501 -0.00000000000E+00  0.00000000000E+00  0.71121043744E+03  0.71121043744E+03  0.00000000000E+00 0.  1.
          2   -1    0    0  501    0  0.00000000000E+00 -0.00000000000E+00 -0.28025496925E+04  0.28025496925E+04  0.00000000000E+00 0. -1.
         23    2    1    2    0    0 -0.57256592170E+03 -0.10029795703E+04 -0.18612957928E+04  0.21921290478E+04  0.84899827532E+02 0.  0.
    5000000    2    1    2    0    0  0.57256592170E+03  0.10029795703E+04 -0.23004346225E+03  0.13216310821E+04  0.59999080790E+03 0.  0.
         23    2    4    4    0    0  0.44225291049E+03  0.10440832649E+04 -0.20180391125E+03  0.11555685200E+04  0.94426082335E+02 0.  0.
         23    2    4    4    0    0  0.13031301120E+03 -0.41103694547E+02 -0.28239550996E+02  0.16606256212E+03  0.90046142077E+02 0.  0.
          2    1    3    3  502    0 -0.41950874750E+03 -0.67364669634E+03 -0.12286313770E+04  0.14626423081E+04  0.00000000000E+00 0.  1.
         -2    1    3    3    0  502 -0.15305717419E+03 -0.32933287399E+03 -0.63266441576E+03  0.72948673973E+03  0.00000000000E+00 0. -1.
         13    1    5    5    0    0  0.40805625122E+03  0.88079782454E+03 -0.18081767697E+03  0.98742581705E+03  0.00000000000E+00 0. -1.
        -13    1    5    5    0    0  0.34196659269E+02  0.16328544034E+03 -0.20986234285E+02  0.16814270297E+03  0.00000000000E+00 0.  1.
          3    1    6    6  503    0  0.93354225678E+02 -0.19114827439E+02  0.24129288115E+02  0.98298578957E+02  0.00000000000E+00 0. -1.
         -3    1    6    6    0  503  0.36958785524E+02 -0.21988867107E+02 -0.52368839111E+02  0.67763983162E+02  0.00000000000E+00 0.  1.
<mgrwt>
<rscale>  0 0.12163034E+04</rscale>
<asrwt>0</asrwt>
<pdfrwt beam="1">  1        2 0.43116150E+00 0.12163034E+04</pdfrwt>
<pdfrwt beam="2">  1       -2 0.10941699E+00 0.12163034E+04</pdfrwt>
<totfact> 0.15091086E+00</totfact>
</mgrwt>
</event>
<event>
12    1  0.1432447E-007  0.4977794E+03  0.7818608E-02  0.1014360E+00
          2   -1    0    0  501    0  0.00000000000E+00  0.00000000000E+00  0.11290676426E+04  0.11290676426E+04  0.00000000000E+00 0. -1.
         -2   -1    0    0    0  501 -0.00000000000E+00 -0.00000000000E+00 -0.84140264288E+03  0.84140264288E+03  0.00000000000E+00 0.  1.
         23    2    1    2    0    0 -0.29882857674E+03  0.37388797558E+03  0.87669854910E+03  0.10028872800E+04  0.89954509996E+02 0.  0.
    5000000    2    1    2    0    0  0.29882857674E+03 -0.37388797558E+03 -0.58903354941E+03  0.96758300543E+03  0.60013799539E+03 0.  0.
         23    2    4    4    0    0  0.70570739955E+02 -0.21478891869E+03  0.63716257170E+02  0.25208661379E+03  0.91506231984E+02 0.  0.
         23    2    4    4    0    0  0.22825783679E+03 -0.15909905688E+03 -0.65274980658E+03  0.71549639164E+03  0.91861997089E+02 0.  0.
          3    1    3    3  502    0 -0.14110712116E+03  0.10820779495E+03  0.30571188376E+03  0.35366637160E+03  0.00000000000E+00 0. -1.
         -3    1    3    3    0  502 -0.15772145559E+03  0.26568018063E+03  0.57098666534E+03  0.64922090842E+03  0.00000000000E+00 0.  1.
         13    1    5    5    0    0  0.42079812289E+02 -0.97153187821E+02  0.76145785073E+02  0.13041331638E+03  0.00000000000E+00 0.  1.
        -13    1    5    5    0    0  0.28490927667E+02 -0.11763573087E+03 -0.12429527902E+02  0.12167329740E+03  0.00000000000E+00 0. -1.
          3    1    6    6  503    0  0.20143288705E+03 -0.12008570263E+03 -0.45171840731E+03  0.50896493343E+03  0.00000000000E+00 0. -1.
         -3    1    6    6    0  503  0.26824949737E+02 -0.39013354253E+02 -0.20103139927E+03  0.20653145821E+03  0.00000000000E+00 0.  1.
<mgrwt>
<rscale>  0 0.49777942E+03</rscale>
<asrwt>0</asrwt>
<pdfrwt beam="1">  1        2 0.17370272E+00 0.49777942E+03</pdfrwt>
<pdfrwt beam="2">  1       -2 0.12944656E+00 0.49777942E+03</pdfrwt>
<totfact> 0.97230957E+00</totfact>
</mgrwt>
</event>
<event>
12    1  0.1432447E-007  0.4473710E+03  0.7818608E-02  0.1028509E+00
          1   -1    0    0  501    0  0.00000000000E+00  0.00000000000E+00  0.27124061026E+04  0.27124061026E+04  0.00000000000E+00 0. -1.
         -1   -1    0    0    0  501 -0.00000000000E+00 -0.00000000000E+00 -0.11883719515E+03  0.11883719515E+03  0.00000000000E+00 0.  1.
         23    2    1    2    0    0  0.24270505840E+02 -0.26851869350E+03  0.16914114376E+04  0.17147693975E+04  0.82886001619E+02 0.  0.
    5000000    2    1    2    0    0 -0.24270505840E+02  0.26851869350E+03  0.90215746988E+03  0.11164739003E+04  0.59994543357E+03 0.  0.
         23    2    4    4    0    0  0.18291558315E+03 -0.83436598402E+02  0.19100750356E+03  0.29184172656E+03  0.90928270826E+02 0.  0.
         23    2    4    4    0    0 -0.20718608899E+03  0.35195529190E+03  0.71114996633E+03  0.82463217369E+03  0.86517884338E+02 0.  0.
          3    1    3    3  502    0  0.24916285351E+01 -0.10887449397E+03  0.93936545447E+03  0.94565708410E+03  0.00000000000E+00 0. -1.
         -3    1    3    3    0  502  0.21778877305E+02 -0.15964419953E+03  0.75204598310E+03  0.76911231341E+03  0.00000000000E+00 0.  1.
         13    1    5    5    0    0  0.24772645304E+01 -0.22196580539E+02  0.50103156824E+02  0.54855732161E+02  0.00000000000E+00 0. -1.
        -13    1    5    5    0    0  0.18043831862E+03 -0.61240017863E+02  0.14090434673E+03  0.23698599440E+03  0.00000000000E+00 0.  1.
          3    1    6    6  503    0 -0.10900141247E+03  0.13363519660E+03  0.36600471846E+03  0.40459748841E+03  0.00000000000E+00 0. -1.
         -3    1    6    6    0  503 -0.98184676522E+02  0.21832009530E+03  0.34514524787E+03  0.42003468529E+03  0.00000000000E+00 0.  1.
<mgrwt>
<rscale>  0 0.44737100E+03</rscale>
<asrwt>0</asrwt>
<pdfrwt beam="1">  1        1 0.41729320E+00 0.44737100E+03</pdfrwt>
<pdfrwt beam="2">  1       -1 0.18282647E-01 0.44737100E+03</pdfrwt>
<totfact> 0.25390776E+01</totfact>
</mgrwt>
</event>
<event>
12    1  0.1432447E-007  0.5126445E+03  0.7818608E-02  0.1010530E+00
          4   -1    0    0  501    0  0.00000000000E+00  0.00000000000E+00  0.44053726460E+03  0.44053726460E+03  0.00000000000E+00 0.  1.
         -4   -1    0    0    0  501 -0.00000000000E+00 -0.00000000000E+00 -0.73789006030E+03  0.73789006030E+03  0.00000000000E+00 0. -1.
         23    2    1    2    0    0  0.30238229167E+03  0.27009491093E+03 -0.95101858253E+02  0.42616809543E+03  0.90490722693E+02 0.  0.
    5000000    2    1    2    0    0 -0.30238229167E+03 -0.27009491093E+03 -0.20225093744E+03  0.75225922947E+03  0.60050161981E+03 0.  0.
         23    2    4    4    0    0 -0.41836023773E+03 -0.18541441221E+03  0.25673399795E+02  0.46753951356E+03  0.92359517704E+02 0.  0.
         23    2    4    4    0    0  0.11597794606E+03 -0.84680498714E+02 -0.22792433724E+03  0.28471971591E+03  0.92163671199E+02 0.  0.
          1    1    3    3  502    0  0.25417839225E+03  0.23256245053E+03 -0.45567790215E+02  0.34751744127E+03  0.00000000000E+00 0. -1.
         -1    1    3    3    0  502  0.48203899422E+02  0.37532460394E+02 -0.49534068038E+02  0.78650654156E+02  0.00000000000E+00 0.  1.
         11    1    5    5    0    0 -0.27684801843E+03 -0.16063595766E+03  0.42527809588E+02  0.32288906886E+03  0.00000000000E+00 0. -1.
        -11    1    5    5    0    0 -0.14151221930E+03 -0.24778454553E+02 -0.16854409793E+02  0.14465044470E+03  0.00000000000E+00 0.  1.
          2    1    6    6  503    0  0.10541356103E+03 -0.94458551878E+02 -0.15302347825E+03  0.20844812728E+03  0.00000000000E+00 0. -1.
         -2    1    6    6    0  503  0.10564385026E+02  0.97780531640E+01 -0.74900858988E+02  0.76271588628E+02  0.00000000000E+00 0.  1.
<mgrwt>
<rscale>  0 0.51264446E+03</rscale>
<asrwt>0</asrwt>
<pdfrwt beam="1">  1        4 0.67774964E-01 0.51264446E+03</pdfrwt>
<pdfrwt beam="2">  1       -4 0.11352155E+00 0.51264446E+03</pdfrwt>
<totfact> 0.23822951E+00</totfact>
</mgrwt>
</event>
<event>
12    1  0.1432447E-007  0.8724292E+03  0.7818608E-02  0.9460718E-01
         -1   -1    0    0    0  501 -0.00000000000E+00  0.00000000000E+00  0.53415159423E+03  0.53415159423E+03  0.00000000000E+00 0.  1.
          1   -1    0    0  501    0  0.00000000000E+00 -0.00000000000E+00 -0.19475248924E+04  0.19475248924E+04  0.00000000000E+00 0. -1.
         23    2    1    2    0    0 -0.14464363143E+03  0.81892910085E+03 -0.14142112993E+03  0.84781106028E+03  0.84952961154E+02 0.  0.
    5000000    2    1    2    0    0  0.14464363143E+03 -0.81892910085E+03 -0.12719521683E+04  0.16338654264E+04  0.60007271292E+03 0.  0.
         23    2    4    4    0    0  0.26751826547E+03 -0.53169158375E+03 -0.11291942774E+04  0.12790761902E+04  0.81818223214E+02 0.  0.
         23    2    4    4    0    0 -0.12287463403E+03 -0.28723751711E+03 -0.14275789086E+03  0.35478923616E+03  0.88837040514E+02 0.  0.
          4    1    3    3  502    0 -0.12286727931E+03  0.54065696763E+03 -0.12403640953E+03  0.56814730120E+03  0.00000000000E+00 0.  1.
         -4    1    3    3    0  502 -0.21776352122E+02  0.27827213323E+03 -0.17384720395E+02  0.27966375908E+03  0.00000000000E+00 0. -1.
         13    1    5    5    0    0  0.13254582126E+03 -0.33490948963E+03 -0.62753084631E+03  0.72355215711E+03  0.00000000000E+00 0.  1.
        -13    1    5    5    0    0  0.13497244421E+03 -0.19678209412E+03 -0.50166343110E+03  0.55552403311E+03  0.00000000000E+00 0. -1.
          1    1    6    6  503    0 -0.66981459587E+02 -0.14815040369E+03 -0.25715086094E+02  0.16460960998E+03  0.00000000000E+00 0. -1.
         -1    1    6    6    0  503 -0.55893174447E+02 -0.13908711341E+03 -0.11704280477E+03  0.19017962618E+03  0.00000000000E+00 0.  1.
<mgrwt>
<rscale>  0 0.87242918E+03</rscale>
<asrwt>0</asrwt>
<pdfrwt beam="1">  1        1 0.29961922E+00 0.87242918E+03</pdfrwt>
<pdfrwt beam="2">  1       -1 0.82177168E-01 0.87242918E+03</pdfrwt>
<totfact> 0.48997441E+00</totfact>
</mgrwt>
</event>
<event>
12    1  0.1432447E-007  0.9335271E+03  0.7818608E-02  0.9384615E-01
          1   -1    0    0  501    0  0.00000000000E+00  0.00000000000E+00  0.10508325789E+04  0.10508325789E+04  0.00000000000E+00 0.  1.
         -1   -1    0    0    0  501 -0.00000000000E+00 -0.00000000000E+00 -0.91418937755E+03  0.91418937755E+03  0.00000000000E+00 0. -1.
         23    2    1    2    0    0 -0.46660967317E+03  0.75237054661E+03  0.72638130879E+02  0.89330451049E+03  0.94501978321E+02 0.  0.
    5000000    2    1    2    0    0  0.46660967317E+03 -0.75237054661E+03  0.64005070493E+02  0.10717174460E+04  0.60057939399E+03 0.  0.
         23    2    4    4    0    0 -0.47378336169E+02 -0.24147819052E+03 -0.16038682142E+03  0.30747737647E+03  0.90895441695E+02 0.  0.
         23    2    4    4    0    0  0.51398800934E+03 -0.51089235608E+03  0.22439189191E+03  0.76424006951E+03  0.92284827801E+02 0.  0.
          3    1    3    3  502    0 -0.11719243820E+03  0.21899340467E+03 -0.19043303286E+02  0.24910806141E+03  0.00000000000E+00 0. -1.
         -3    1    3    3    0  502 -0.34941723496E+03  0.53337714194E+03  0.91681434165E+02  0.64419644908E+03  0.00000000000E+00 0.  1.
         11    1    5    5    0    0 -0.68724887266E+01 -0.16078101350E+03 -0.58235149457E+02  0.17114057975E+03  0.00000000000E+00 0.  1.
        -11    1    5    5    0    0 -0.40505847443E+02 -0.80697177018E+02 -0.10215167196E+03  0.13633679672E+03  0.00000000000E+00 0. -1.
          4    1    6    6  503    0  0.26750426171E+03 -0.20527924704E+03  0.12083523828E+03  0.35818885257E+03  0.00000000000E+00 0. -1.
         -4    1    6    6    0  503  0.24648374763E+03 -0.30561310905E+03  0.10355665363E+03  0.40605121694E+03  0.00000000000E+00 0.  1.
<mgrwt>
<rscale>  0 0.93352706E+03</rscale>
<asrwt>0</asrwt>
<pdfrwt beam="1">  1        1 0.16166655E+00 0.93352706E+03</pdfrwt>
<pdfrwt beam="2">  1       -1 0.14064452E+00 0.93352706E+03</pdfrwt>
<totfact> 0.57829650E+00</totfact>
</mgrwt>
</event>
<event>
12    1  0.1432447E-007  0.4702513E+03  0.7818608E-02  0.1021849E+00
          1   -1    0    0  501    0  0.00000000000E+00  0.00000000000E+00  0.85883322630E+03  0.85883322630E+03  0.00000000000E+00 0. -1.
         -1   -1    0    0    0  501 -0.00000000000E+00 -0.00000000000E+00 -0.35262107607E+03  0.35262107607E+03  0.00000000000E+00 0.  1.
         23    2    1    2    0    0 -0.24337944741E+03 -0.21277330097E+03  0.39118020451E+03  0.52021956175E+03  0.11445700941E+03 0.  0.
    5000000    2    1    2    0    0  0.24337944741E+03  0.21277330097E+03  0.11503194573E+03  0.69123474062E+03  0.60005590163E+03 0.  0.
         23    2    4    4    0    0  0.25015966365E+03 -0.97697605935E+02 -0.10330599136E+03  0.30156932239E+03  0.90262111826E+02 0.  0.
         23    2    4    4    0    0 -0.67802162333E+01  0.31047090690E+03  0.21833793709E+03  0.38966541823E+03  0.87917734452E+02 0.  0.
          4    1    3    3  502    0 -0.17978677465E+03 -0.90482892624E+02  0.26945807343E+03  0.33633033097E+03  0.00000000000E+00 0. -1.
         -4    1    3    3    0  502 -0.63592672766E+02 -0.12229040834E+03  0.12172213108E+03  0.18388923078E+03  0.00000000000E+00 0.  1.
         11    1    5    5    0    0  0.18159719487E+03 -0.31002110619E+02 -0.45328871581E+02  0.18971921001E+03  0.00000000000E+00 0.  1.
        -11    1    5    5    0    0  0.68562468773E+02 -0.66695495316E+02 -0.57977119783E+02  0.11185011237E+03  0.00000000000E+00 0. -1.
          1    1    6    6  503    0 -0.41983018632E+02  0.10550120263E+03  0.93614393012E+02  0.14716226483E+03  0.00000000000E+00 0. -1.
         -1    1    6    6    0  503  0.35202802399E+02  0.20496970427E+03  0.12472354408E+03  0.24250315341E+03  0.00000000000E+00 0.  1.
<mgrwt>
<rscale>  0 0.47025133E+03</rscale>
<asrwt>0</asrwt>
<pdfrwt beam="1">  1        1 0.13212819E+00 0.47025133E+03</pdfrwt>
<pdfrwt beam="2">  1       -1 0.54249397E-01 0.47025133E+03</pdfrwt>
<totfact> 0.71105808E+01</totfact>
</mgrwt>
</event>
<event>
12    1  0.1432447E-007  0.1985093E+04  0.7818608E-02  0.8613622E-01
          2   -1    0    0  501    0  0.00000000000E+00  0.00000000000E+00  0.25185905800E+04  0.25185905800E+04  0.00000000000E+00 0. -1.
         -2   -1    0    0    0  501 -0.00000000000E+00 -0.00000000000E+00 -0.17065705838E+04  0.17065705838E+04  0.00000000000E+00 0.  1.
         23    2    1    2    0    0  0.16146527917E+04  0.11323932056E+04  0.88436835123E+03  0.21625300332E+04  0.70786681726E+02 0.  0.
    5000000    2    1    2    0    0 -0.16146527917E+04 -0.11323932056E+04 -0.72348355032E+02  0.20626311305E+04  0.59982904770E+03 0.  0.
         23    2    4    4    0    0 -0.34109736582E+03 -0.11647813615E+03  0.17783198246E+03  0.41193724838E+03  0.90296807544E+02 0.  0.
         23    2    4    4    0    0 -0.12735554258E+04 -0.10159150694E+04 -0.25018033749E+03  0.16506938821E+04  0.90405974803E+02 0.  0.
          3    1    3    3  502    0  0.12264843954E+04  0.89303042147E+03  0.66580279983E+03  0.16568224631E+04  0.00000000000E+00 0. -1.
         -3    1    3    3    0  502  0.38816839627E+03  0.23936278411E+03  0.21856555139E+03  0.50570757018E+03  0.00000000000E+00 0.  1.
         11    1    5    5    0    0 -0.92384540508E+02 -0.64201299290E+02  0.86371975385E+02  0.14183380516E+03  0.00000000000E+00 0. -1.
        -11    1    5    5    0    0 -0.24871282531E+03 -0.52276836862E+02  0.91460007070E+02  0.27010344322E+03  0.00000000000E+00 0.  1.
          1    1    6    6  503    0 -0.65935843981E+03 -0.56626696118E+03 -0.10070241719E+03  0.87495874205E+03  0.00000000000E+00 0. -1.
         -1    1    6    6    0  503 -0.61419698603E+03 -0.44964810825E+03 -0.14947792030E+03  0.77573514008E+03  0.00000000000E+00 0.  1.
<mgrwt>
<rscale>  0 0.19850926E+04</rscale>
<asrwt>0</asrwt>
<pdfrwt beam="1">  1        2 0.38747547E+00 0.19850926E+04</pdfrwt>
<pdfrwt beam="2">  1       -2 0.26254932E+00 0.19850926E+04</pdfrwt>
<totfact> 0.16269611E-01</totfact>
</mgrwt>
</event>
<event>
12    1  0.1432447E-007  0.8113267E+03  0.7818608E-02  0.9543765E-01
         -2   -1    0    0    0  501 -0.00000000000E+00  0.00000000000E+00  0.51233540595E+03  0.51233540595E+03  0.00000000000E+00 0.  1.
          2   -1    0    0  501    0  0.00000000000E+00 -0.00000000000E+00 -0.19443333968E+04  0.19443333968E+04  0.00000000000E+00 0. -1.
         23    2    1    2    0    0 -0.44741112249E+03  0.55123865925E+03 -0.13443058223E+04  0.15230184284E+04  0.91576293158E+02 0.  0.
    5000000    2    1    2    0    0  0.44741112249E+03 -0.55123865925E+03 -0.87692168585E+02  0.93365037435E+03  0.59997694383E+03 0.  0.
         23    2    4    4    0    0 -0.12665216549E+03 -0.62449686552E+02 -0.38679745212E+02  0.17261570544E+03  0.91429342671E+02 0.  0.
         23    2    4    4    0    0  0.57406328798E+03 -0.48878897270E+03 -0.49012423373E+02  0.76103466891E+03  0.91149499169E+02 0.  0.
          1    1    3    3  502    0 -0.13183356805E+03  0.21542978582E+03 -0.41703561296E+03  0.48755387883E+03  0.00000000000E+00 0. -1.
         -1    1    3    3    0  502 -0.31557755444E+03  0.33580887343E+03 -0.92727020933E+03  0.10354645496E+04  0.00000000000E+00 0.  1.
         13    1    5    5    0    0 -0.40838847131E+02 -0.52837931855E+02  0.18198910210E+02  0.69216030011E+02  0.00000000000E+00 0. -1.
        -13    1    5    5    0    0 -0.85813318364E+02 -0.96117546973E+01 -0.56878655422E+02  0.10339967543E+03  0.00000000000E+00 0.  1.
          2    1    6    6  503    0  0.37392590010E+03 -0.28189000381E+03 -0.64830136408E+02  0.47274252993E+03  0.00000000000E+00 0. -1.
         -2    1    6    6    0  503  0.20013738788E+03 -0.20689896888E+03  0.15817713034E+02  0.28829213898E+03  0.00000000000E+00 0.  1.
<mgrwt>
<rscale>  0 0.81132674E+03</rscale>
<asrwt>0</asrwt>
<pdfrwt beam="1">  1        2 0.29912821E+00 0.81132674E+03</pdfrwt>
<pdfrwt beam="2">  1       -2 0.78820832E-01 0.81132674E+03</pdfrwt>
<totfact> 0.10510676E+01</totfact>
</mgrwt>
</event>
<event>
12    1  0.1432447E-007  0.1414452E+04  0.7818608E-02  0.8943423E-01
          2   -1    0    0  501    0  0.00000000000E+00  0.00000000000E+00  0.17242451629E+04  0.17242451629E+04  0.00000000000E+00 0. -1.
         -2   -1    0    0    0  501 -0.00000000000E+00 -0.00000000000E+00 -0.12764810348E+04  0.12764810348E+04  0.00000000000E+00 0.  1.
         23    2    1    2    0    0 -0.13831629573E+04 -0.20581031408E+03  0.47344083489E+03  0.14787958436E+04  0.84813154555E+02 0.  0.
    5000000    2    1    2    0    0  0.13831629573E+04  0.20581031408E+03 -0.25676706786E+02  0.15219303542E+04  0.60009587393E+03 0.  0.
         23    2    4    4    0    0  0.22470322015E+03  0.12777689824E+03  0.19540369067E+03  0.33663783715E+03  0.91235728757E+02 0.  0.
         23    2    4    4    0    0  0.11584597371E+04  0.78033415841E+02 -0.22108039746E+03  0.11852925170E+04  0.89014786654E+02 0.  0.
          3    1    3    3  502    0 -0.27053654854E+03 -0.10439424042E+02  0.10836373667E+03  0.29161910963E+03  0.00000000000E+00 0. -1.
         -3    1    3    3    0  502 -0.11126264087E+04 -0.19537089004E+03  0.36507709821E+03  0.11871767340E+04  0.00000000000E+00 0.  1.
         13    1    5    5    0    0  0.19142029081E+03  0.79814033333E+02  0.11459546847E+03  0.23694752382E+03  0.00000000000E+00 0.  1.
        -13    1    5    5    0    0  0.33282929339E+02  0.47962864910E+02  0.80808222204E+02  0.99690313329E+02  0.00000000000E+00 0. -1.
          2    1    6    6  503    0  0.76534474305E+03  0.22043168434E+02 -0.11468656626E+03  0.77420377515E+03  0.00000000000E+00 0. -1.
         -2    1    6    6    0  503  0.39311499408E+03  0.55990247407E+02 -0.10639383119E+03  0.41108874187E+03  0.00000000000E+00 0.  1.
<mgrwt>
<rscale>  0 0.14144523E+04</rscale>
<asrwt>0</asrwt>
<pdfrwt beam="1">  1        2 0.26526849E+00 0.14144523E+04</pdfrwt>
<pdfrwt beam="2">  1       -2 0.19638170E+00 0.14144523E+04</pdfrwt>
<totfact> 0.12670794E+00</totfact>
</mgrwt>
</event>
<event>
12    1  0.1432447E-007  0.7972507E+03  0.7818608E-02  0.9564005E-01
          2   -1    0    0  501    0  0.00000000000E+00  0.00000000000E+00  0.21283411722E+04  0.21283411722E+04  0.00000000000E+00 0. -1.
         -2   -1    0    0    0  501 -0.00000000000E+00 -0.00000000000E+00 -0.41008037883E+03  0.41008037883E+03  0.00000000000E+00 0.  1.
         23    2    1    2    0    0  0.12894665911E+03 -0.76381136746E+03  0.34848146972E+03  0.85424452538E+03  0.90880847580E+02 0.  0.
    5000000    2    1    2    0    0 -0.12894665911E+03  0.76381136746E+03  0.13697793236E+04  0.16841770256E+04  0.60010150159E+03 0.  0.
         23    2    4    4    0    0 -0.15930346648E+03  0.59728722345E+03  0.13545582261E+04  0.14916737613E+04  0.90183150368E+02 0.  0.
         23    2    4    4    0    0  0.30356807370E+02  0.16652414400E+03  0.15221097499E+02  0.19250326426E+03  0.90410168963E+02 0.  0.
          3    1    3    3  502    0  0.12265438477E+03 -0.47679633976E+03  0.23522660284E+03  0.54562844721E+03  0.00000000000E+00 0. -1.
         -3    1    3    3    0  502  0.62922743415E+01 -0.28701502769E+03  0.11325486687E+03  0.30861607818E+03  0.00000000000E+00 0.  1.
         13    1    5    5    0    0 -0.17010373020E+03  0.56702038505E+03  0.12980233694E+04  0.14266436358E+04  0.00000000000E+00 0. -1.
        -13    1    5    5    0    0  0.10800263715E+02  0.30266838400E+02  0.56534856746E+02  0.65030125560E+02  0.00000000000E+00 0.  1.
          1    1    6    6  503    0  0.50677770915E+02  0.16255377052E+03  0.19427808149E+02  0.17137504050E+03  0.00000000000E+00 0. -1.
         -1    1    6    6    0  503 -0.20320963544E+02  0.39703734832E+01 -0.42067106503E+01  0.21128223765E+02  0.00000000000E+00 0.  1.
<mgrwt>
<rscale>  0 0.79725069E+03</rscale>
<asrwt>0</asrwt>
<pdfrwt beam="1">  1        2 0.32743710E+00 0.79725069E+03</pdfrwt>
<pdfrwt beam="2">  1       -2 0.63089290E-01 0.79725069E+03</pdfrwt>
<totfact> 0.13593358E+01</totfact>
</mgrwt>
</event>
<event>
12    1  0.1432447E-007  0.2808126E+03  0.7818608E-02  0.1095246E+00
         -4   -1    0    0    0  501 -0.00000000000E+00  0.00000000000E+00  0.40451916630E+03  0.40451916630E+03  0.00000000000E+00 0.  1.
          4   -1    0    0  501    0  0.00000000000E+00 -0.00000000000E+00 -0.59488366576E+03  0.59488366576E+03  0.00000000000E+00 0. -1.
         23    2    1    2    0    0 -0.14469964436E+03 -0.20562902807E+03 -0.22314290317E+03  0.34797705867E+03  0.89855405284E+02 0.  0.
    5000000    2    1    2    0    0  0.14469964436E+03  0.20562902807E+03  0.32778403710E+02  0.65142577339E+03  0.60004985645E+03 0.  0.
         23    2    4    4    0    0  0.98743361554E+02  0.18414423228E+03 -0.25748083426E+03  0.34403347011E+03  0.91669508626E+02 0.  0.
         23    2    4    4    0    0  0.45956282810E+02  0.21484795792E+02  0.29025923797E+03  0.30739230328E+03  0.87555847931E+02 0.  0.
          1    1    3    3  502    0 -0.36032924612E+02 -0.10864805165E+03 -0.59863305475E+02  0.12917579543E+03  0.00000000000E+00 0. -1.
         -1    1    3    3    0  502 -0.10866671975E+03 -0.96980976422E+02 -0.16327959769E+03  0.21880126323E+03  0.00000000000E+00 0.  1.
         11    1    5    5    0    0 -0.48949062267E+01 -0.56638539729E+01 -0.26837865321E+02  0.27862346703E+02  0.00000000000E+00 0. -1.
        -11    1    5    5    0    0  0.10363826778E+03  0.18980808625E+03 -0.23064296894E+03  0.31617112341E+03  0.00000000000E+00 0.  1.
          1    1    6    6  503    0  0.28305952608E+01  0.33004406885E+02  0.34733827721E+02  0.47997311711E+02  0.00000000000E+00 0.  1.
         -1    1    6    6    0  503  0.43125687549E+02 -0.11519611093E+02  0.25552541025E+03  0.25939499157E+03  0.00000000000E+00 0. -1.
<mgrwt>
<rscale>  0 0.28081257E+03</rscale>
<asrwt>0</asrwt>
<pdfrwt beam="1">  1        4 0.91520564E-01 0.28081257E+03</pdfrwt>
<pdfrwt beam="2">  1       -4 0.62233718E-01 0.28081257E+03</pdfrwt>
<totfact> 0.46689424E+00</totfact>
</mgrwt>
</event>
<event>
12    1  0.1432447E-007  0.1415095E+04  0.7818608E-02  0.8942964E-01
          1   -1    0    0  501    0  0.00000000000E+00  0.00000000000E+00  0.14325095511E+04  0.14325095511E+04  0.00000000000E+00 0. -1.
         -1   -1    0    0    0  501 -0.00000000000E+00 -0.00000000000E+00 -0.14530493838E+04  0.14530493838E+04  0.00000000000E+00 0.  1.
         23    2    1    2    0    0 -0.10716857091E+03 -0.13691787595E+04 -0.13185788347E+03  0.13827117564E+04  0.91486182819E+02 0.  0.
    5000000    2    1    2    0    0  0.10716857091E+03  0.13691787595E+04  0.11131805070E+03  0.15028471785E+04  0.60001862913E+03 0.  0.
         23    2    4    4    0    0 -0.14971340469E+03  0.96515884560E+03  0.21505562778E+03  0.10045861978E+04  0.94862030947E+02 0.  0.
         23    2    4    4    0    0  0.25688197560E+03  0.40401991395E+03 -0.10373757708E+03  0.49826098073E+03  0.91005932559E+02 0.  0.
          1    1    3    3  502    0 -0.58568720271E+02 -0.40831114439E+03 -0.70169184147E+01  0.41255002457E+03  0.00000000000E+00 0. -1.
         -1    1    3    3    0  502 -0.48599850639E+02 -0.96086761516E+03 -0.12484096506E+03  0.97016173182E+03  0.00000000000E+00 0.  1.
         11    1    5    5    0    0 -0.66224266137E+02  0.39860191634E+03  0.13676531313E+03  0.42658398002E+03  0.00000000000E+00 0.  1.
        -11    1    5    5    0    0 -0.83489138554E+02  0.56655692926E+03  0.78290314656E+02  0.57800221774E+03  0.00000000000E+00 0. -1.
          2    1    6    6  503    0  0.13640288359E+03  0.22326395370E+03 -0.10432270791E+02  0.26184226539E+03  0.00000000000E+00 0. -1.
         -2    1    6    6    0  503  0.12047909201E+03  0.18075596025E+03 -0.93305306291E+02  0.23641871533E+03  0.00000000000E+00 0.  1.
<mgrwt>
<rscale>  0 0.14150948E+04</rscale>
<asrwt>0</asrwt>
<pdfrwt beam="1">  1        1 0.22038608E+00 0.14150948E+04</pdfrwt>
<pdfrwt beam="2">  1       -1 0.22354606E+00 0.14150948E+04</pdfrwt>
<totfact> 0.72589722E-01</totfact>
</mgrwt>
</event>
<event>
12    1  0.1432447E-007  0.3525884E+03  0.7818608E-02  0.1061558E+00
         -2   -1    0    0    0  501 -0.00000000000E+00  0.00000000000E+00  0.24926751221E+03  0.24926751221E+03  0.00000000000E+00 0.  1.
          2   -1    0    0  501    0  0.00000000000E+00 -0.00000000000E+00 -0.98120359190E+03  0.98120359190E+03  0.00000000000E+00 0. -1.
         23    2    1    2    0    0  0.89040927872E+02  0.17641958916E+03 -0.52094241134E+03  0.56451985102E+03  0.90826802128E+02 0.  0.
    5000000    2    1    2    0    0 -0.89040927872E+02 -0.17641958916E+03 -0.21099366835E+03  0.66595125309E+03  0.59993381729E+03 0.  0.
         23    2    4    4    0    0 -0.26146199825E+03 -0.70933049973E+02 -0.31046354996E+03  0.42173439848E+03  0.89879991654E+02 0.  0.
         23    2    4    4    0    0  0.17242107038E+03 -0.10548653919E+03  0.99469881607E+02  0.24421685461E+03  0.94293049945E+02 0.  0.
          2    1    3    3  502    0  0.42521163819E+02  0.31674429089E+02 -0.23241066336E+03  0.23838212029E+03  0.00000000000E+00 0. -1.
         -2    1    3    3    0  502  0.46519764052E+02  0.14474516008E+03 -0.28853174798E+03  0.32613773073E+03  0.00000000000E+00 0.  1.
         11    1    5    5    0    0 -0.25529345819E+03 -0.56587461516E+02 -0.31073096500E+03  0.40611651432E+03  0.00000000000E+00 0. -1.
        -11    1    5    5    0    0 -0.61685400600E+01 -0.14345588457E+02  0.26741504357E+00  0.15617884155E+02  0.00000000000E+00 0.  1.
          3    1    6    6  503    0  0.18434789811E+03 -0.96490955803E+02  0.93783679061E+02  0.22823240468E+03  0.00000000000E+00 0. -1.
         -3    1    6    6    0  503 -0.11926827728E+02 -0.89955833877E+01  0.56862025467E+01  0.15984449930E+02  0.00000000000E+00 0.  1.
<mgrwt>
<rscale>  0 0.35258838E+03</rscale>
<asrwt>0</asrwt>
<pdfrwt beam="1">  1        2 0.15095440E+00 0.35258838E+03</pdfrwt>
<pdfrwt beam="2">  1       -2 0.38348849E-01 0.35258838E+03</pdfrwt>
<totfact> 0.17405045E+02</totfact>
</mgrwt>
</event>
<event>
12    1  0.1432447E-007  0.4835174E+03  0.7818608E-02  0.1018173E+00
         -1   -1    0    0    0  501 -0.00000000000E+00  0.00000000000E+00  0.26774983717E+03  0.26774983717E+03  0.00000000000E+00 0.  1.
          1   -1    0    0  501    0  0.00000000000E+00 -0.00000000000E+00 -0.10368318364E+04  0.10368318364E+04  0.00000000000E+00 0. -1.
         23    2    1    2    0    0 -0.15981132228E+03 -0.26196314078E+03 -0.59404767861E+02  0.32589695271E+03  0.92279745806E+02 0.  0.
    5000000    2    1    2    0    0  0.15981132228E+03  0.26196314078E+03 -0.70967723136E+03  0.97868472086E+03  0.60001472005E+03 0.  0.
         23    2    4    4    0    0 -0.19539119595E+03  0.21109712406E+03 -0.34382813978E+03  0.45810237329E+03  0.94341292521E+02 0.  0.
         23    2    4    4    0    0  0.35520251823E+03  0.50866016717E+02 -0.36584909159E+03  0.52058234757E+03  0.91674653937E+02 0.  0.
          2    1    3    3  502    0 -0.94875933434E+02 -0.16207458568E+03  0.99050236588E+01  0.18806308400E+03  0.00000000000E+00 0.  1.
         -2    1    3    3    0  502 -0.64935388848E+02 -0.99888555094E+02 -0.69309791520E+02  0.13783386871E+03  0.00000000000E+00 0. -1.
         13    1    5    5    0    0 -0.87509194651E+02  0.56343314343E+02 -0.18152572489E+03  0.20924630705E+03  0.00000000000E+00 0. -1.
        -13    1    5    5    0    0 -0.10788200130E+03  0.15475380972E+03 -0.16230241489E+03  0.24885606624E+03  0.00000000000E+00 0.  1.
          4    1    6    6  503    0  0.21679897692E+03 -0.80452705890E+01 -0.18308133379E+03  0.28387549658E+03  0.00000000000E+00 0.  1.
         -4    1    6    6    0  503  0.13840354130E+03  0.58911287306E+02 -0.18276775779E+03  0.23670685099E+03  0.00000000000E+00 0. -1.
<mgrwt>
<rscale>  0 0.48351736E+03</rscale>
<asrwt>0</asrwt>
<pdfrwt beam="1">  1        1 0.15951259E+00 0.48351736E+03</pdfrwt>
<pdfrwt beam="2">  1       -1 0.41192284E-01 0.48351736E+03</pdfrwt>
<totfact> 0.85839096E+01</totfact>
</mgrwt>
</event>
<event>
12    1  0.1432447E-007  0.7122453E+03  0.7818608E-02  0.9696517E-01
          1   -1    0    0  501    0  0.00000000000E+00  0.00000000000E+00  0.25421139745E+04  0.25421139745E+04  0.00000000000E+00 0. -1.
         -1   -1    0    0    0  501 -0.00000000000E+00 -0.00000000000E+00 -0.33262311649E+03  0.33262311649E+03  0.00000000000E+00 0.  1.
         23    2    1    2    0    0  0.42630347704E+03 -0.47675628093E+03  0.19022096286E+03  0.67319531366E+03  0.89312427363E+02 0.  0.
    5000000    2    1    2    0    0 -0.42630347704E+03  0.47675628093E+03  0.20192698952E+04  0.22015417774E+04  0.60025334812E+03 0.  0.
         23    2    4    4    0    0 -0.81745410187E+02  0.39602769654E+03  0.15630268211E+04  0.16170430482E+04  0.90857733291E+02 0.  0.
         23    2    4    4    0    0 -0.34455806685E+03  0.80728584398E+02  0.45624307409E+03  0.58449872918E+03  0.90794581276E+02 0.  0.
          3    1    3    3  502    0  0.27147724559E+03 -0.24016934484E+03  0.93041720137E+02  0.37421647580E+03  0.00000000000E+00 0. -1.
         -3    1    3    3    0  502  0.15482623145E+03 -0.23658693609E+03  0.97179242719E+02  0.29897883786E+03  0.00000000000E+00 0.  1.
         13    1    5    5    0    0 -0.95858702369E+02  0.25600491669E+03  0.10634197704E+04  0.10979931768E+04  0.00000000000E+00 0. -1.
        -13    1    5    5    0    0  0.14113292183E+02  0.14002277984E+03  0.49960705066E+03  0.51904987136E+03  0.00000000000E+00 0.  1.
          3    1    6    6  503    0 -0.11289388663E+03 -0.16219877237E+02  0.15071992037E+03  0.18900954593E+03  0.00000000000E+00 0. -1.
         -3    1    6    6    0  503 -0.23166418023E+03  0.96948461635E+02  0.30552315372E+03  0.39548918326E+03  0.00000000000E+00 0.  1.
<mgrwt>
<rscale>  0 0.71224532E+03</rscale>
<asrwt>0</asrwt>
<pdfrwt beam="1">  1        1 0.39109445E+00 0.71224532E+03</pdfrwt>
<pdfrwt beam="2">  1       -1 0.51172789E-01 0.71224532E+03</pdfrwt>
<totfact> 0.51869497E+00</totfact>
</mgrwt>
</event>
<event>
12    1  0.1432447E-007  0.8097032E+03  0.7818608E-02  0.9546077E-01
         -3   -1    0    0    0  501 -0.00000000000E+00  0.00000000000E+00  0.27395471711E+04  0.27395471711E+04  0.00000000000E+00 0.  1.
          3   -1    0    0  501    0  0.00000000000E+00 -0.00000000000E+00 -0.27072394586E+03  0.27072394586E+03  0.00000000000E+00 0. -1.
         23    2    1    2    0    0  0.52607574323E+02 -0.74385821459E+03  0.12780670977E+04  0.14825070104E+04  0.90988622552E+02 0.  0.
    5000000    2    1    2    0    0 -0.52607574323E+02  0.74385821459E+03  0.11907561276E+04  0.15277641066E+04  0.60005867189E+03 0.  0.
         23    2    4    4    0    0 -0.14765613681E+01  0.79446450898E+03  0.84654841750E+03  0.11645177724E+04  0.91002103537E+02 0.  0.
         23    2    4    4    0    0 -0.51131012955E+02 -0.50606294395E+02  0.34420771009E+03  0.36324633417E+03  0.91069062161E+02 0.  0.
          3    1    3    3  502    0  0.77030123092E+02 -0.57884346130E+03  0.10158471487E+04  0.11717247211E+04  0.00000000000E+00 0. -1.
         -3    1    3    3    0  502 -0.24422548769E+02 -0.16501475329E+03  0.26221994901E+03  0.31078228931E+03  0.00000000000E+00 0.  1.
         11    1    5    5    0    0 -0.20932907658E+02  0.52610521592E+03  0.50327125440E+03  0.72835900513E+03  0.00000000000E+00 0.  1.
        -11    1    5    5    0    0  0.19456346290E+02  0.26835929306E+03  0.34327716309E+03  0.43615876729E+03  0.00000000000E+00 0. -1.
          2    1    6    6  503    0 -0.50698138965E+02 -0.46063864534E+02  0.34956266921E+03  0.35621094960E+03  0.00000000000E+00 0. -1.
         -2    1    6    6    0  503 -0.43287399016E+00 -0.45424298610E+01 -0.53549591157E+01  0.70353845711E+01  0.00000000000E+00 0.  1.
<mgrwt>
<rscale>  0 0.80970316E+03</rscale>
<asrwt>0</asrwt>
<pdfrwt beam="1">  1        3 0.41649840E-01 0.80970316E+03</pdfrwt>
<pdfrwt beam="2">  1       -3 0.42146878E+00 0.80970316E+03</pdfrwt>
<totfact> 0.12456315E-01</totfact>
</mgrwt>
</event>
<event>
12    1  0.1432447E-007  0.5692723E+03  0.7818608E-02  0.9971290E-01
          2   -1    0    0  501    0  0.00000000000E+00  0.00000000000E+00  0.43021661847E+04  0.43021661847E+04  0.00000000000E+00 0. -1.
         -2   -1    0    0    0  501 -0.00000000000E+00 -0.00000000000E+00 -0.10813867483E+03  0.10813867483E+03  0.00000000000E+00 0.  1.
         23    2    1    2    0    0 -0.46850289279E+03 -0.18100051903E+03  0.23896540175E+04  0.24435711123E+04  0.91308867451E+02 0.  0.
    5000000    2    1    2    0    0  0.46850289279E+03  0.18100051903E+03  0.18043734924E+04  0.19667337472E+04  0.60001815300E+03 0.  0.
         23    2    4    4    0    0  0.23536880111E+03 -0.96162114328E+02  0.25056204366E+03  0.36871268630E+03  0.92315126297E+02 0.  0.
         23    2    4    4    0    0  0.23313409168E+03  0.27716263336E+03  0.15538114487E+04  0.15980210609E+04  0.90391719099E+02 0.  0.
          3    1    3    3  502    0 -0.27643570640E+03 -0.58927360038E+02  0.13623483953E+04  0.13913598685E+04  0.00000000000E+00 0. -1.
         -3    1    3    3    0  502 -0.19206718639E+03 -0.12207315900E+03  0.10273056222E+04  0.10522112438E+04  0.00000000000E+00 0.  1.
         11    1    5    5    0    0  0.56894794654E+02 -0.61857952800E+02  0.48878215294E+02  0.97223988365E+02  0.00000000000E+00 0. -1.
        -11    1    5    5    0    0  0.17847400646E+03 -0.34304161528E+02  0.20168382837E+03  0.27148869793E+03  0.00000000000E+00 0.  1.
          4    1    6    6  503    0  0.13233157319E+03  0.14481504800E+03  0.64739707935E+03  0.67646583191E+03  0.00000000000E+00 0. -1.
         -4    1    6    6    0  503  0.10080251849E+03  0.13234758536E+03  0.90641436937E+03  0.92155522899E+03  0.00000000000E+00 0.  1.
<mgrwt>
<rscale>  0 0.56927232E+03</rscale>
<asrwt>0</asrwt>
<pdfrwt beam="1">  1        2 0.66187159E+00 0.56927232E+03</pdfrwt>
<pdfrwt beam="2">  1       -2 0.16636723E-01 0.56927232E+03</pdfrwt>
<totfact> 0.64966831E+00</totfact>
</mgrwt>
</event>
<event>
12    1  0.1432447E-007  0.1073509E+04  0.7818608E-02  0.9231404E-01
          2   -1    0    0  501    0  0.00000000000E+00  0.00000000000E+00  0.10325492228E+04  0.10325492228E+04  0.00000000000E+00 0. -1.
         -2   -1    0    0    0  501 -0.00000000000E+00 -0.00000000000E+00 -0.13279871446E+04  0.13279871446E+04  0.00000000000E+00 0.  1.
         23    2    1    2    0    0 -0.72568969012E+03 -0.70688604741E+03  0.27222469287E+03  0.10534145794E+04  0.96242310885E+02 0.  0.
    5000000    2    1    2    0    0  0.72568969012E+03  0.70688604741E+03 -0.56766261475E+03  0.13071217880E+04  0.60001092824E+03 0.  0.
         23    2    4    4    0    0  0.76914888661E+03  0.51301648184E+03 -0.56769678724E+03  0.10884320472E+04  0.87342765388E+02 0.  0.
         23    2    4    4    0    0 -0.43459196487E+02  0.19386956557E+03  0.34172485148E-01  0.21868974079E+03  0.91384305793E+02 0.  0.
          4    1    3    3  502    0 -0.56772736617E+03 -0.50100747070E+03  0.22252501284E+03  0.78920227403E+03  0.00000000000E+00 0. -1.
         -4    1    3    3    0  502 -0.15796232395E+03 -0.20587857671E+03  0.49699680029E+02  0.26421230541E+03  0.00000000000E+00 0.  1.
         13    1    5    5    0    0  0.50637678117E+03  0.38568025116E+03 -0.38065418384E+03  0.74166320410E+03  0.00000000000E+00 0. -1.
        -13    1    5    5    0    0  0.26277210544E+03  0.12733623068E+03 -0.18704260340E+03  0.34676884308E+03  0.00000000000E+00 0.  1.
          3    1    6    6  503    0 -0.32820005572E+02  0.18521261329E+03 -0.25387756221E+02  0.18980359073E+03  0.00000000000E+00 0. -1.
         -3    1    6    6    0  503 -0.10639190915E+02  0.86569522769E+01  0.25421928706E+02  0.28886150058E+02  0.00000000000E+00 0.  1.
<mgrwt>
<rscale>  0 0.10735087E+04</rscale>
<asrwt>0</asrwt>
<pdfrwt beam="1">  1        2 0.15885373E+00 0.10735087E+04</pdfrwt>
<pdfrwt beam="2">  1       -2 0.20430571E+00 0.10735087E+04</pdfrwt>
<totfact> 0.29465738E+00</totfact>
</mgrwt>
</event>
<event>
12    1  0.1432447E-007  0.4750501E+03  0.7818608E-02  0.1020504E+00
          2   -1    0    0  501    0  0.00000000000E+00  0.00000000000E+00  0.79059686449E+03  0.79059686449E+03  0.00000000000E+00 0. -1.
         -2   -1    0    0    0  501 -0.00000000000E+00 -0.00000000000E+00 -0.62704900407E+03  0.62704900407E+03  0.00000000000E+00 0.  1.
         23    2    1    2    0    0  0.39691153512E+03  0.15641444437E+03 -0.31637015005E+03  0.53877180178E+03  0.90447429107E+02 0.  0.
    5000000    2    1    2    0    0 -0.39691153512E+03 -0.15641444437E+03  0.47991801046E+03  0.87887406679E+03  0.60007839770E+03 0.  0.
         23    2    4    4    0    0 -0.39194113886E+03 -0.20546951495E+03  0.57871822378E+03  0.73409511935E+03  0.90251226107E+02 0.  0.
         23    2    4    4    0    0 -0.49703962608E+01  0.49055070575E+02 -0.98800213317E+02  0.14477894744E+03  0.93639503853E+02 0.  0.
          1    1    3    3  502    0  0.10426981120E+03  0.34011440776E+02 -0.13294994525E+03  0.17235039766E+03  0.00000000000E+00 0. -1.
         -1    1    3    3    0  502  0.29264172392E+03  0.12240300360E+03 -0.18342020479E+03  0.36642140412E+03  0.00000000000E+00 0.  1.
         13    1    5    5    0    0 -0.66480878517E+02 -0.20501177857E+01  0.66657829182E+02  0.94165685802E+02  0.00000000000E+00 0. -1.
        -13    1    5    5    0    0 -0.32546026034E+03 -0.20341939716E+03  0.51206039460E+03  0.63992943355E+03  0.00000000000E+00 0.  1.
          2    1    6    6  503    0 -0.12652705427E+02  0.58995496344E+02 -0.17938594451E+02  0.62947221658E+02  0.00000000000E+00 0. -1.
         -2    1    6    6    0  503  0.76823091662E+01 -0.99404257697E+01 -0.80861618866E+02  0.81831725781E+02  0.00000000000E+00 0.  1.
<mgrwt>
<rscale>  0 0.47505012E+03</rscale>
<asrwt>0</asrwt>
<pdfrwt beam="1">  1        2 0.12163029E+00 0.47505012E+03</pdfrwt>
<pdfrwt beam="2">  1       -2 0.96469077E-01 0.47505012E+03</pdfrwt>
<totfact> 0.32871393E+01</totfact>
</mgrwt>
</event>
<event>
12    1  0.1432447E-007  0.3784363E+03  0.7818608E-02  0.1051513E+00
         -2   -1    0    0    0  501 -0.00000000000E+00  0.00000000000E+00  0.26489061631E+03  0.26489061631E+03  0.00000000000E+00 0. -1.
          2   -1    0    0  501    0  0.00000000000E+00 -0.00000000000E+00 -0.19623409348E+04  0.19623409348E+04  0.00000000000E+00 0.  1.
         23    2    1    2    0    0  0.25020800830E+02 -0.25600615314E+03 -0.15289000523E+04  0.15530848462E+04  0.91498517298E+02 0.  0.
    5000000    2    1    2    0    0 -0.25020800830E+02  0.25600615314E+03 -0.16855026620E+03  0.67414670491E+03  0.59991615796E+03 0.  0.
         23    2    4    4    0    0 -0.20616544937E+03  0.10796378112E+03  0.13215364918E+03  0.28293140004E+03  0.91788994928E+02 0.  0.
         23    2    4    4    0    0  0.18114464854E+03  0.14804237201E+03 -0.30070391538E+03  0.39121530487E+03  0.88863054365E+02 0.  0.
          1    1    3    3  502    0  0.58415795439E+01 -0.15987683528E+03 -0.11756926140E+04  0.11865276436E+04  0.00000000000E+00 0. -1.
         -1    1    3    3    0  502  0.19179221287E+02 -0.96129317858E+02 -0.35320743833E+03  0.36655720260E+03  0.00000000000E+00 0.  1.
         13    1    5    5    0    0 -0.20684557682E+03  0.79370804503E+02  0.11814937445E+03  0.25108582584E+03  0.00000000000E+00 0. -1.
        -13    1    5    5    0    0  0.68012744711E+00  0.28592976621E+02  0.14004274732E+02  0.31845574200E+02  0.00000000000E+00 0.  1.
          1    1    6    6  503    0  0.13733932406E+03  0.58994315899E+02 -0.20157173385E+03  0.25094537878E+03  0.00000000000E+00 0. -1.
         -1    1    6    6    0  503  0.43805324479E+02  0.89048056115E+02 -0.99132181530E+02  0.14026992609E+03  0.00000000000E+00 0.  1.
<mgrwt>
<rscale>  0 0.37843633E+03</rscale>
<asrwt>0</asrwt>
<pdfrwt beam="1">  1        2 0.30189861E+00 0.37843633E+03</pdfrwt>
<pdfrwt beam="2">  1       -2 0.40752402E-01 0.37843633E+03</pdfrwt>
<totfact> 0.43894223E+01</totfact>
</mgrwt>
</event>
<event>
12    1  0.1432447E-007  0.6375685E+03  0.7818608E-02  0.9830390E-01
          2   -1    0    0  501    0  0.00000000000E+00  0.00000000000E+00  0.18574480568E+04  0.18574480568E+04  0.00000000000E+00 0.  1.
         -2   -1    0    0    0  501 -0.00000000000E+00 -0.00000000000E+00 -0.33081555510E+03  0.33081555510E+03  0.00000000000E+00 0. -1.
         23    2    1    2    0    0  0.20814907681E+03  0.58946655285E+03  0.33560265706E+03  0.71537118796E+03  0.91268494155E+02 0.  0.
    5000000    2    1    2    0    0 -0.20814907681E+03 -0.58946655285E+03  0.11910298447E+04  0.14728924240E+04  0.60005261987E+03 0.  0.
         23    2    4    4    0    0 -0.16396289720E+03 -0.37952346722E+03  0.22572726720E+03  0.47968747565E+03  0.90693887960E+02 0.  0.
         23    2    4    4    0    0 -0.44186179617E+02 -0.20994308563E+03  0.96530257747E+03  0.99320494832E+03  0.92835799319E+02 0.  0.
          3    1    3    3  502    0  0.22971892346E+02  0.84146283838E+02  0.84679278412E+02  0.12156843798E+03  0.00000000000E+00 0. -1.
         -3    1    3    3    0  502  0.18517718447E+03  0.50532026901E+03  0.25092337865E+03  0.59380274997E+03  0.00000000000E+00 0.  1.
         11    1    5    5    0    0 -0.14750189733E+03 -0.29393112024E+03  0.21245488163E+03  0.39152188941E+03  0.00000000000E+00 0. -1.
        -11    1    5    5    0    0 -0.16460999861E+02 -0.85592346985E+02  0.13272385573E+02  0.88165586243E+02  0.00000000000E+00 0.  1.
          4    1    6    6  503    0 -0.73165982703E+02 -0.16057582749E+03  0.73864530217E+03  0.75943053653E+03  0.00000000000E+00 0. -1.
         -4    1    6    6    0  503  0.28979803086E+02 -0.49367258144E+02  0.22665727530E+03  0.23377441179E+03  0.00000000000E+00 0.  1.
<mgrwt>
<rscale>  0 0.63756845E+03</rscale>
<asrwt>0</asrwt>
<pdfrwt beam="1">  1        2 0.28576123E+00 0.63756845E+03</pdfrwt>
<pdfrwt beam="2">  1       -2 0.50894702E-01 0.63756845E+03</pdfrwt>
<totfact> 0.30596767E+01</totfact>
</mgrwt>
</event>
<event>
12    1  0.1432447E-007  0.7486985E+03  0.7818608E-02  0.9637394E-01
         -2   -1    0    0    0  501 -0.00000000000E+00  0.00000000000E+00  0.46969550499E+03  0.46969550499E+03  0.00000000000E+00 0.  1.
          2   -1    0    0  501    0  0.00000000000E+00 -0.00000000000E+00 -0.17758571937E+04  0.17758571937E+04  0.00000000000E+00 0. -1.
         23    2    1    2    0    0 -0.16449735999E+03 -0.71826564916E+03 -0.10033575051E+04  0.12481159899E+04  0.90012870916E+02 0.  0.
    5000000    2    1    2    0    0  0.16449735999E+03  0.71826564916E+03 -0.30280418357E+03  0.99743670879E+03  0.60018721267E+03 0.  0.
         23    2    4    4    0    0  0.10183101331E+03  0.26234606876E+03 -0.42008562066E+03  0.51399927576E+03  0.92348858837E+02 0.  0.
         23    2    4    4    0    0  0.62666346679E+02  0.45591958039E+03  0.11728143708E+03  0.48343743303E+03  0.90371905922E+02 0.  0.
          1    1    3    3  502    0 -0.11767652572E+03 -0.64013548847E+03 -0.89309811729E+03  0.11050997491E+04  0.00000000000E+00 0. -1.
         -1    1    3    3    0  502 -0.46820834270E+02 -0.78130160684E+02 -0.11025938782E+03  0.14301624080E+03  0.00000000000E+00 0.  1.
         13    1    5    5    0    0 -0.16731553995E+02  0.32919133951E+02 -0.39576767958E+02  0.54128872528E+02  0.00000000000E+00 0.  1.
        -13    1    5    5    0    0  0.11856256731E+03  0.22942693481E+03 -0.38050885270E+03  0.45987040323E+03  0.00000000000E+00 0. -1.
          1    1    6    6  503    0  0.31252208917E+02  0.19914479305E+03  0.97693782881E+02  0.22400764356E+03  0.00000000000E+00 0. -1.
         -1    1    6    6    0  503  0.31414137763E+02  0.25677478735E+03  0.19587654203E+02  0.25942978947E+03  0.00000000000E+00 0.  1.
<mgrwt>
<rscale>  0 0.74869853E+03</rscale>
<asrwt>0</asrwt>
<pdfrwt beam="1">  1        2 0.27320881E+00 0.74869853E+03</pdfrwt>
<pdfrwt beam="2">  1       -2 0.72260845E-01 0.74869853E+03</pdfrwt>
<totfact> 0.15889427E+01</totfact>
</mgrwt>
</event>
<event>
12    1  0.1480819E-007  0.1080578E+04  0.7818608E-02  0.9224331E-01
         -2   -1    0    0    0  501 -0.00000000000E+00  0.00000000000E+00  0.10956065618E+04  0.10956065618E+04  0.00000000000E+00 0.  1.
          2   -1    0    0  501    0  0.00000000000E+00 -0.00000000000E+00 -0.12878231300E+04  0.12878231300E+04  0.00000000000E+00 0. -1.
         23    2    1    2    0    0 -0.86254042294E+03  0.57905291897E+03 -0.48232048348E+03  0.11491345460E+04  0.92730210342E+02 0.  0.
    5000000    2    1    2    0    0  0.86254042294E+03 -0.57905291897E+03  0.29010391534E+03  0.12342951458E+04  0.60003829970E+03 0.  0.
         23    2    4    4    0    0  0.14837667958E+03 -0.31306086650E+03  0.30106837883E+03  0.46789574727E+03  0.90892884243E+02 0.  0.
         23    2    4    4    0    0  0.71416374336E+03 -0.26599205246E+03 -0.10964463491E+02  0.76639939854E+03  0.80412650239E+02 0.  0.
          4    1    3    3  502    0 -0.66987714075E+03  0.49033547270E+03 -0.36645846058E+03  0.90744479877E+03  0.00000000000E+00 0. -1.
         -4    1    3    3    0  502 -0.19266328219E+03  0.88717446268E+02 -0.11586202289E+03  0.24168974725E+03  0.00000000000E+00 0.  1.
         13    1    5    5    0    0  0.14388635262E+03 -0.22606817013E+03  0.19944778378E+03  0.33405017358E+03  0.00000000000E+00 0.  1.
        -13    1    5    5    0    0  0.44903269645E+01 -0.86992696372E+02  0.10162059505E+03  0.13384557369E+03  0.00000000000E+00 0. -1.
          1    1    6    6  503    0  0.35629782530E+03 -0.15999516071E+03  0.25407692981E+02  0.39139767837E+03  0.00000000000E+00 0. -1.
         -1    1    6    6    0  503  0.35786591805E+03 -0.10599689175E+03 -0.36372156472E+02  0.37500172017E+03  0.00000000000E+00 0.  1.
<mgrwt>
<rscale>  0 0.10805779E+04</rscale>
<asrwt>0</asrwt>
<pdfrwt beam="1">  1        2 0.19812664E+00 0.10805779E+04</pdfrwt>
<pdfrwt beam="2">  1       -2 0.16855485E+00 0.10805779E+04</pdfrwt>
<totfact> 0.36049555E+00</totfact>
</mgrwt>
</event>
<event>
12    1  0.1432447E-007  0.4865745E+03  0.7818608E-02  0.1017344E+00
         -1   -1    0    0    0  501 -0.00000000000E+00  0.00000000000E+00  0.42974707975E+03  0.42974707975E+03  0.00000000000E+00 0.  1.
          1   -1    0    0  501    0  0.00000000000E+00 -0.00000000000E+00 -0.10902934412E+04  0.10902934412E+04  0.00000000000E+00 0. -1.
         23    2    1    2    0    0 -0.33796063617E+03  0.11467323744E+03 -0.73090130312E+03  0.81841552732E+03  0.90663760492E+02 0.  0.
    5000000    2    1    2    0    0  0.33796063617E+03 -0.11467323744E+03  0.70354941680E+02  0.70162499363E+03  0.59996705816E+03 0.  0.
         23    2    4    4    0    0 -0.15023324240E+02 -0.21811917634E+03 -0.13307560468E+03  0.27192635773E+03  0.91832195368E+02 0.  0.
         23    2    4    4    0    0  0.35298396041E+03  0.10344593891E+03  0.20343054636E+03  0.42969863590E+03  0.89208698665E+02 0.  0.
          3    1    3    3  502    0 -0.20333614010E+03  0.11302973309E+03 -0.49074483077E+03  0.54309464678E+03  0.00000000000E+00 0. -1.
         -3    1    3    3    0  502 -0.13462449607E+03  0.16435043489E+01 -0.24015647235E+03  0.27532088054E+03  0.00000000000E+00 0.  1.
         13    1    5    5    0    0 -0.48320337081E+02 -0.11196903873E+03 -0.94141890353E+02  0.15406043012E+03  0.00000000000E+00 0. -1.
        -13    1    5    5    0    0  0.33297012841E+02 -0.10615013761E+03 -0.38933714327E+02  0.11786592760E+03  0.00000000000E+00 0.  1.
          3    1    6    6  503    0  0.30713350810E+03  0.11024907583E+03  0.15054219316E+03  0.35937279035E+03  0.00000000000E+00 0. -1.
         -3    1    6    6    0  503  0.45850452314E+02 -0.68031369195E+01  0.52888353196E+02  0.70325845555E+02  0.00000000000E+00 0.  1.
<mgrwt>
<rscale>  0 0.48657445E+03</rscale>
<asrwt>0</asrwt>
<pdfrwt beam="1">  1        1 0.16773745E+00 0.48657445E+03</pdfrwt>
<pdfrwt beam="2">  1       -1 0.66114936E-01 0.48657445E+03</pdfrwt>
<totfact> 0.31872413E+01</totfact>
</mgrwt>
</event>
<event>
12    1  0.1432447E-007  0.5481681E+03  0.7818608E-02  0.1001919E+00
         -2   -1    0    0    0  501 -0.00000000000E+00  0.00000000000E+00  0.96436866158E+03  0.96436866158E+03  0.00000000000E+00 0.  1.
          2   -1    0    0  501    0  0.00000000000E+00 -0.00000000000E+00 -0.38794887789E+03  0.38794887789E+03  0.00000000000E+00 0. -1.
         23    2    1    2    0    0  0.23575168957E+03  0.38923558641E+03  0.15280955297E+03  0.48831632939E+03  0.89548183691E+02 0.  0.
    5000000    2    1    2    0    0 -0.23575168957E+03 -0.38923558641E+03  0.42361023072E+03  0.86400121009E+03  0.59997438495E+03 0.  0.
         23    2    4    4    0    0 -0.42020482930E+01 -0.38884581567E+03  0.46396497378E+03  0.61235403407E+03  0.92169629309E+02 0.  0.
         23    2    4    4    0    0 -0.23154964128E+03 -0.38977074092E+00 -0.40354743061E+02  0.25164717602E+03  0.89902211392E+02 0.  0.
          3    1    3    3  502    0  0.11236085981E+03  0.23200559331E+03  0.12511521331E+03  0.28654035448E+03  0.00000000000E+00 0. -1.
         -3    1    3    3    0  502  0.12339082976E+03  0.15722999311E+03  0.27694339656E+02  0.20177597491E+03  0.00000000000E+00 0.  1.
         11    1    5    5    0    0 -0.16732042424E+02 -0.26427708666E+02  0.13517970370E+02  0.34075219030E+02  0.00000000000E+00 0. -1.
        -11    1    5    5    0    0  0.12529994131E+02 -0.36241810701E+03  0.45044700341E+03  0.57827881504E+03  0.00000000000E+00 0.  1.
          4    1    6    6  503    0  0.69606976997E+00 -0.12208046941E+02 -0.12419871530E+02  0.17429117363E+02  0.00000000000E+00 0. -1.
         -4    1    6    6    0  503 -0.23224571105E+03  0.11818276200E+02 -0.27934871532E+02  0.23421805865E+03  0.00000000000E+00 0.  1.
<mgrwt>
<rscale>  0 0.54816813E+03</rscale>
<asrwt>0</asrwt>
<pdfrwt beam="1">  1        2 0.59684443E-01 0.54816813E+03</pdfrwt>
<pdfrwt beam="2">  1       -2 0.14836441E+00 0.54816813E+03</pdfrwt>
<totfact> 0.26178785E+01</totfact>
</mgrwt>
</event>
<event>
12    1  0.1432447E-007  0.7605369E+03  0.7818608E-02  0.9618963E-01
          2   -1    0    0  501    0  0.00000000000E+00  0.00000000000E+00  0.93125788624E+03  0.93125788624E+03  0.00000000000E+00 0. -1.
         -2   -1    0    0    0  501 -0.00000000000E+00 -0.00000000000E+00 -0.85912528723E+03  0.85912528723E+03  0.00000000000E+00 0.  1.
         23    2    1    2    0    0  0.47862988204E+01 -0.65780834170E+03  0.47149690995E+03  0.81464449035E+03  0.92744738408E+02 0.  0.
    5000000    2    1    2    0    0 -0.47862988204E+01  0.65780834170E+03 -0.39936431094E+03  0.97573868312E+03  0.59986615326E+03 0.  0.
         23    2    4    4    0    0 -0.20015679654E+03  0.62776605577E+03 -0.35495174924E+03  0.75444138147E+03  0.95068868746E+02 0.  0.
         23    2    4    4    0    0  0.19537049772E+03  0.30042285927E+02 -0.44412561694E+02  0.22129730165E+03  0.89038473468E+02 0.  0.
          4    1    3    3  502    0 -0.24860464674E+02 -0.17118678797E+03  0.86326266908E+02  0.19332662371E+03  0.00000000000E+00 0.  1.
         -4    1    3    3    0  502  0.29646763494E+02 -0.48662155373E+03  0.38517064304E+03  0.62131786664E+03  0.00000000000E+00 0. -1.
         11    1    5    5    0    0 -0.43646480771E+02  0.20679613821E+03 -0.15875648604E+03  0.26433554418E+03  0.00000000000E+00 0. -1.
        -11    1    5    5    0    0 -0.15651031577E+03  0.42096991757E+03 -0.19619526321E+03  0.49010583729E+03  0.00000000000E+00 0.  1.
          2    1    6    6  503    0  0.97736973534E+02  0.30739021340E+02 -0.65239904660E+02  0.12146459809E+03  0.00000000000E+00 0. -1.
         -2    1    6    6    0  503  0.97633524189E+02 -0.69673541271E+00  0.20827342966E+02  0.99832703564E+02  0.00000000000E+00 0.  1.
<mgrwt>
<rscale>  0 0.76053691E+03</rscale>
<asrwt>0</asrwt>
<pdfrwt beam="1">  1        2 0.14327044E+00 0.76053691E+03</pdfrwt>
<pdfrwt beam="2">  1       -2 0.13217312E+00 0.76053691E+03</pdfrwt>
<totfact> 0.11811842E+01</totfact>
</mgrwt>
</event>
<event>
12    1  0.1953728E-007  0.8973563E+03  0.7818608E-02  0.9428892E-01
          1   -1    0    0  501    0  0.00000000000E+00  0.00000000000E+00  0.17370793804E+04  0.17370793804E+04  0.00000000000E+00 0. -1.
         -1   -1    0    0    0  501 -0.00000000000E+00 -0.00000000000E+00 -0.61112029514E+03  0.61112029514E+03  0.00000000000E+00 0.  1.
         23    2    1    2    0    0  0.48458550162E+03 -0.72886353728E+03  0.12442723259E+03  0.88908825731E+03  0.94502003851E+02 0.  0.
    5000000    2    1    2    0    0 -0.48458550162E+03  0.72886353728E+03  0.10015318526E+04  0.14591114182E+04  0.59989575306E+03 0.  0.
         23    2    4    4    0    0 -0.33249046146E+02  0.23922051239E+03  0.65208009471E+03  0.70139039527E+03  0.91695605358E+02 0.  0.
         23    2    4    4    0    0 -0.45133645547E+03  0.48964302489E+03  0.34945175793E+03  0.75772102293E+03  0.92572834124E+02 0.  0.
          2    1    3    3  502    0  0.37258870193E+03 -0.53075100609E+03  0.13029390685E+03  0.66143440600E+03  0.00000000000E+00 0. -1.
         -2    1    3    3    0  502  0.11199679969E+03 -0.19811253118E+03 -0.58666742569E+01  0.22765385132E+03  0.00000000000E+00 0.  1.
         11    1    5    5    0    0 -0.43427737990E+02  0.70997580149E+02  0.29538255438E+03  0.30688349295E+03  0.00000000000E+00 0. -1.
        -11    1    5    5    0    0  0.10178691845E+02  0.16822293224E+03  0.35669754033E+03  0.39450690231E+03  0.00000000000E+00 0.  1.
          1    1    6    6  503    0 -0.14307687771E+03  0.18056039490E+03  0.75866858575E+02  0.24254655094E+03  0.00000000000E+00 0. -1.
         -1    1    6    6    0  503 -0.30825957776E+03  0.30908262998E+03  0.27358489935E+03  0.51517447199E+03  0.00000000000E+00 0.  1.
<mgrwt>
<rscale>  0 0.89735633E+03</rscale>
<asrwt>0</asrwt>
<pdfrwt beam="1">  1        1 0.26724298E+00 0.89735633E+03</pdfrwt>
<pdfrwt beam="2">  1       -1 0.94018508E-01 0.89735633E+03</pdfrwt>
<totfact> 0.50356766E+00</totfact>
</mgrwt>
</event>
<event>
12    1  0.1432447E-007  0.7007156E+03  0.7818608E-02  0.9716009E-01
          2   -1    0    0  501    0  0.00000000000E+00  0.00000000000E+00  0.96114158378E+03  0.96114158378E+03  0.00000000000E+00 0.  1.
         -2   -1    0    0    0  501 -0.00000000000E+00 -0.00000000000E+00 -0.73639956527E+03  0.73639956527E+03  0.00000000000E+00 0. -1.
         23    2    1    2    0    0  0.43754817954E+03 -0.53482649050E+03  0.33954314300E+03  0.77504534850E+03  0.88982930471E+02 0.  0.
    5000000    2    1    2    0    0 -0.43754817954E+03  0.53482649050E+03 -0.11480112448E+03  0.92249580055E+03  0.60027611937E+03 0.  0.
         23    2    4    4    0    0 -0.22781348550E+03  0.22468242885E+03 -0.34044551264E+03  0.47631789948E+03  0.92706074672E+02 0.  0.
         23    2    4    4    0    0 -0.20973469405E+03  0.31014406166E+03  0.22564438815E+03  0.44617790107E+03  0.89338393938E+02 0.  0.
          2    1    3    3  502    0  0.34905876182E+03 -0.43995267801E+03  0.23651563872E+03  0.60937675165E+03  0.00000000000E+00 0. -1.
         -2    1    3    3    0  502  0.88489417724E+02 -0.94873812488E+02  0.10302750428E+03  0.16566859685E+03  0.00000000000E+00 0.  1.
         13    1    5    5    0    0 -0.20528174158E+03  0.15131453898E+03 -0.24280269817E+03  0.35212190129E+03  0.00000000000E+00 0. -1.
        -13    1    5    5    0    0 -0.22531743916E+02  0.73367889868E+02 -0.97642814468E+02  0.12419599818E+03  0.00000000000E+00 0.  1.
          4    1    6    6  503    0 -0.20185555978E+03  0.26838589521E+03  0.17069557747E+03  0.37671426298E+03  0.00000000000E+00 0. -1.
         -4    1    6    6    0  503 -0.78791342679E+01  0.41758166440E+02  0.54948810685E+02  0.69463638092E+02  0.00000000000E+00 0.  1.
<mgrwt>
<rscale>  0 0.70071558E+03</rscale>
<asrwt>0</asrwt>
<pdfrwt beam="1">  1        2 0.14786793E+00 0.70071558E+03</pdfrwt>
<pdfrwt beam="2">  1       -2 0.11329224E+00 0.70071558E+03</pdfrwt>
<totfact> 0.16683288E+01</totfact>
</mgrwt>
</event>
<event>
12    1  0.1432447E-007  0.3893171E+03  0.7818608E-02  0.1047543E+00
          1   -1    0    0  501    0  0.00000000000E+00  0.00000000000E+00  0.11652385947E+04  0.11652385947E+04  0.00000000000E+00 0. -1.
         -1   -1    0    0    0  501 -0.00000000000E+00 -0.00000000000E+00 -0.24622263822E+03  0.24622263822E+03  0.00000000000E+00 0.  1.
         23    2    1    2    0    0 -0.43996892196E+01 -0.31467280102E+03  0.55003119917E+03  0.64009396958E+03  0.90264283435E+02 0.  0.
    5000000    2    1    2    0    0  0.43996892196E+01  0.31467280102E+03  0.36898475732E+03  0.77136726335E+03  0.59984946017E+03 0.  0.
         23    2    4    4    0    0  0.14110948664E+03  0.77146964674E+02  0.43677578352E+03  0.47492540725E+03  0.94432600316E+02 0.  0.
         23    2    4    4    0    0 -0.13670979742E+03  0.23752583634E+03 -0.67791026200E+02  0.29644185610E+03  0.90410503687E+02 0.  0.
          3    1    3    3  502    0  0.10160489403E+02 -0.27982986707E+03  0.42074111130E+03  0.50540189235E+03  0.00000000000E+00 0. -1.
         -3    1    3    3    0  502 -0.14560178623E+02 -0.34842933949E+02  0.12929008787E+03  0.13469207723E+03  0.00000000000E+00 0.  1.
         11    1    5    5    0    0  0.14576341233E+03  0.51868495858E+02  0.40795590989E+03  0.43630876413E+03  0.00000000000E+00 0.  1.
        -11    1    5    5    0    0 -0.46539256952E+01  0.25278468816E+02  0.28819873627E+02  0.38616643121E+02  0.00000000000E+00 0. -1.
          1    1    6    6  503    0  0.39328643467E+01  0.26805930098E+02  0.13639538156E+02  0.30332528934E+02  0.00000000000E+00 0. -1.
         -1    1    6    6    0  503 -0.14064266176E+03  0.21071990625E+03 -0.81430564356E+02  0.26610932717E+03  0.00000000000E+00 0.  1.
<mgrwt>
<rscale>  0 0.38931713E+03</rscale>
<asrwt>0</asrwt>
<pdfrwt beam="1">  1        1 0.17926747E+00 0.38931713E+03</pdfrwt>
<pdfrwt beam="2">  1       -1 0.37880406E-01 0.38931713E+03</pdfrwt>
<totfact> 0.81479809E+01</totfact>
</mgrwt>
</event>
<event>
12    1  0.1432447E-007  0.9100781E+03  0.7818608E-02  0.9413070E-01
          1   -1    0    0  501    0  0.00000000000E+00  0.00000000000E+00  0.55236083684E+03  0.55236083684E+03  0.00000000000E+00 0. -1.
         -1   -1    0    0    0  501 -0.00000000000E+00 -0.00000000000E+00 -0.16678356427E+04  0.16678356427E+04  0.00000000000E+00 0.  1.
         23    2    1    2    0    0  0.34307859556E+03 -0.74130697967E+03 -0.82802140246E+03  0.11667149431E+04  0.91462313065E+02 0.  0.
    5000000    2    1    2    0    0 -0.34307859556E+03  0.74130697967E+03 -0.28745340336E+03  0.10534815364E+04  0.59996243846E+03 0.  0.
         23    2    4    4    0    0  0.14780705186E+03  0.30110651163E+03 -0.11279714537E+03  0.36480517867E+03  0.88586491407E+02 0.  0.
         23    2    4    4    0    0 -0.49088564741E+03  0.44020046804E+03 -0.17465625800E+03  0.68867635771E+03  0.95000770078E+02 0.  0.
          4    1    3    3  502    0  0.31594377134E+03 -0.71225550374E+03 -0.76329334413E+03  0.10907543713E+04  0.00000000000E+00 0. -1.
         -4    1    3    3    0  502  0.27134824221E+02 -0.29051475929E+02 -0.64728058325E+02  0.75960571837E+02  0.00000000000E+00 0.  1.
         13    1    5    5    0    0  0.10636642722E+03  0.22597575750E+03 -0.41363434591E+02  0.25315962067E+03  0.00000000000E+00 0.  1.
        -13    1    5    5    0    0  0.41440624639E+02  0.75130754126E+02 -0.71433710774E+02  0.11164555800E+03  0.00000000000E+00 0. -1.
          4    1    6    6  503    0 -0.35183745736E+03  0.25718574379E+03 -0.12701202354E+03  0.45394510388E+03  0.00000000000E+00 0. -1.
         -4    1    6    6    0  503 -0.13904819005E+03  0.18301472425E+03 -0.47644234452E+02  0.23473125383E+03  0.00000000000E+00 0.  1.
<mgrwt>
<rscale>  0 0.91007806E+03</rscale>
<asrwt>0</asrwt>
<pdfrwt beam="1">  1        1 0.84978592E-01 0.91007806E+03</pdfrwt>
<pdfrwt beam="2">  1       -1 0.25659009E+00 0.91007806E+03</pdfrwt>
<totfact> 0.24848921E+00</totfact>
</mgrwt>
</event>
<event>
12    1  0.1432447E-007  0.3780438E+03  0.7818608E-02  0.1051659E+00
         -1   -1    0    0    0  501 -0.00000000000E+00  0.00000000000E+00  0.29828736335E+03  0.29828736335E+03  0.00000000000E+00 0.  1.
          1   -1    0    0  501    0  0.00000000000E+00 -0.00000000000E+00 -0.59665598522E+03  0.59665598522E+03  0.00000000000E+00 0. -1.
         23    2    1    2    0    0  0.14763329764E+03  0.71434587153E+02 -0.18292123565E+03  0.26231271662E+03  0.91920030642E+02 0.  0.
    5000000    2    1    2    0    0 -0.14763329764E+03 -0.71434587153E+02 -0.11544738622E+03  0.63263063195E+03  0.59999577222E+03 0.  0.
         23    2    4    4    0    0 -0.25462803774E+03 -0.24750465108E+03 -0.16402417926E+03  0.40123123248E+03  0.89378860061E+02 0.  0.
         23    2    4    4    0    0  0.10699474010E+03  0.17607006393E+03  0.48576793042E+02  0.23139939948E+03  0.93474250120E+02 0.  0.
          3    1    3    3  502    0  0.11440630426E+02  0.81642314084E+01 -0.77665285402E+02  0.78926796815E+02  0.00000000000E+00 0. -1.
         -3    1    3    3    0  502  0.13619266721E+03  0.63270355744E+02 -0.10525595025E+03  0.18338591980E+03  0.00000000000E+00 0.  1.
         13    1    5    5    0    0 -0.10710309518E+03 -0.16502668177E+03 -0.97812906108E+02  0.21970945200E+03  0.00000000000E+00 0. -1.
        -13    1    5    5    0    0 -0.14752494256E+03 -0.82477969304E+02 -0.66211273150E+02  0.18152178048E+03  0.00000000000E+00 0.  1.
          4    1    6    6  503    0  0.11046404476E+03  0.97130546954E+02  0.35381878934E+02  0.15128954257E+03  0.00000000000E+00 0. -1.
         -4    1    6    6    0  503 -0.34693046551E+01  0.78939516971E+02  0.13194914108E+02  0.80109856901E+02  0.00000000000E+00 0.  1.
<mgrwt>
<rscale>  0 0.37804378E+03</rscale>
<asrwt>0</asrwt>
<pdfrwt beam="1">  1        1 0.91793227E-01 0.37804378E+03</pdfrwt>
<pdfrwt beam="2">  1       -1 0.45890364E-01 0.37804378E+03</pdfrwt>
<totfact> 0.17020432E+02</totfact>
</mgrwt>
</event>
<event>
12    1  0.1432447E-007  0.5174016E+03  0.7818608E-02  0.1009334E+00
          2   -1    0    0  501    0  0.00000000000E+00  0.00000000000E+00  0.11812832148E+04  0.11812832148E+04  0.00000000000E+00 0. -1.
         -2   -1    0    0    0  501 -0.00000000000E+00 -0.00000000000E+00 -0.27323645048E+03  0.27323645048E+03  0.00000000000E+00 0.  1.
         23    2    1    2    0    0  0.34922516713E+03 -0.14419409162E+03  0.14867746655E+03  0.41543440409E+03  0.87923839942E+02 0.  0.
    5000000    2    1    2    0    0 -0.34922516713E+03  0.14419409162E+03  0.75936929777E+03  0.10390852612E+04  0.60025519258E+03 0.  0.
         23    2    4    4    0    0 -0.41468529228E+02  0.28607342819E+03  0.55709740482E+03  0.63430484879E+03  0.91801293646E+02 0.  0.
         23    2    4    4    0    0 -0.30775663790E+03 -0.14187933657E+03  0.20227189295E+03  0.40478041240E+03  0.89940920999E+02 0.  0.
          3    1    3    3  502    0  0.31333734808E+03 -0.10239269835E+03  0.10776365174E+03  0.34681055781E+03  0.00000000000E+00 0. -1.
         -3    1    3    3    0  502  0.35887819052E+02 -0.41801393269E+02  0.40913814816E+02  0.68623846281E+02  0.00000000000E+00 0.  1.
         11    1    5    5    0    0 -0.44990589053E+02  0.67962282418E+02  0.19834152484E+03  0.21443503774E+03  0.00000000000E+00 0. -1.
        -11    1    5    5    0    0  0.35220598255E+01  0.21811114577E+03  0.35875587998E+03  0.41986981105E+03  0.00000000000E+00 0.  1.
          2    1    6    6  503    0 -0.29980832418E+03 -0.11288148473E+03  0.18861796905E+03  0.37175798456E+03  0.00000000000E+00 0. -1.
         -2    1    6    6    0  503 -0.79483137233E+01 -0.28997851840E+02  0.13653923910E+02  0.33022427841E+02  0.00000000000E+00 0.  1.
<mgrwt>
<rscale>  0 0.51740162E+03</rscale>
<asrwt>0</asrwt>
<pdfrwt beam="1">  1        2 0.18173588E+00 0.51740162E+03</pdfrwt>
<pdfrwt beam="2">  1       -2 0.42036377E-01 0.51740162E+03</pdfrwt>
<totfact> 0.10811347E+02</totfact>
</mgrwt>
</event>
<event>
12    1  0.1432447E-007  0.1768844E+04  0.7818608E-02  0.8723046E-01
         -2   -1    0    0    0  501 -0.00000000000E+00  0.00000000000E+00  0.27886586867E+04  0.27886586867E+04  0.00000000000E+00 0.  1.
          2   -1    0    0  501    0  0.00000000000E+00 -0.00000000000E+00 -0.17749175559E+04  0.17749175559E+04  0.00000000000E+00 0. -1.
         23    2    1    2    0    0  0.99619214332E+03 -0.14269335362E+04 -0.85358901097E+03  0.19414454353E+04  0.10980926800E+03 0.  0.
    5000000    2    1    2    0    0 -0.99619214332E+03  0.14269335362E+04  0.18673301418E+04  0.26221308074E+04  0.60009166750E+03 0.  0.
         23    2    4    4    0    0 -0.50105699223E+03  0.37662263676E+03  0.40093324011E+03  0.74966662256E+03  0.91377579132E+02 0.  0.
         23    2    4    4    0    0 -0.49513515109E+03  0.10503108994E+04  0.14663969017E+04  0.18724641848E+04  0.86547367656E+02 0.  0.
          3    1    3    3  502    0  0.20661911855E+03 -0.34335320687E+03 -0.15534052958E+03  0.42978316038E+03  0.00000000000E+00 0. -1.
         -3    1    3    3    0  502  0.78957302477E+03 -0.10835803293E+04 -0.69824848139E+03  0.15116622749E+04  0.00000000000E+00 0.  1.
         13    1    5    5    0    0 -0.35358733575E+03  0.31367938419E+03  0.31128893240E+03  0.56596780784E+03  0.00000000000E+00 0.  1.
        -13    1    5    5    0    0 -0.14746965648E+03  0.62943252572E+02  0.89644307713E+02  0.18369881473E+03  0.00000000000E+00 0. -1.
          4    1    6    6  503    0 -0.25252593998E+03  0.45531000019E+03  0.61464617568E+03  0.80552248132E+03  0.00000000000E+00 0.  1.
         -4    1    6    6    0  503 -0.24260921111E+03  0.59500089925E+03  0.85175072599E+03  0.10669417035E+04  0.00000000000E+00 0. -1.
<mgrwt>
<rscale>  0 0.17688439E+04</rscale>
<asrwt>0</asrwt>
<pdfrwt beam="1">  1        2 0.27306424E+00 0.17688439E+04</pdfrwt>
<pdfrwt beam="2">  1       -2 0.42902441E+00 0.17688439E+04</pdfrwt>
<totfact> 0.38718158E-02</totfact>
</mgrwt>
</event>
<event>
12    1  0.1432447E-007  0.8607673E+03  0.7818608E-02  0.9475998E-01
         -1   -1    0    0    0  501 -0.00000000000E+00  0.00000000000E+00  0.10405110031E+04  0.10405110031E+04  0.00000000000E+00 0.  1.
          1   -1    0    0  501    0  0.00000000000E+00 -0.00000000000E+00 -0.18973222394E+04  0.18973222394E+04  0.00000000000E+00 0. -1.
         23    2    1    2    0    0 -0.18012722541E+03 -0.75066001922E+03 -0.15536444773E+04  0.17372288399E+04  0.90645454518E+02 0.  0.
    5000000    2    1    2    0    0  0.18012722541E+03  0.75066001922E+03  0.69683324094E+03  0.12006044026E+04  0.59994840116E+03 0.  0.
         23    2    4    4    0    0 -0.11947032693E+03  0.60234288577E+03  0.53118749409E+03  0.81700186056E+03  0.90784223406E+02 0.  0.
         23    2    4    4    0    0  0.29959755234E+03  0.14831713346E+03  0.16564574685E+03  0.38360254204E+03  0.89194906631E+02 0.  0.
          3    1    3    3  502    0 -0.69963853982E+02 -0.29834357935E+03 -0.51980698799E+03  0.60340959303E+03  0.00000000000E+00 0. -1.
         -3    1    3    3    0  502 -0.11016337143E+03 -0.45231643988E+03 -0.10338374893E+04  0.11338192468E+04  0.00000000000E+00 0.  1.
         11    1    5    5    0    0 -0.55449317644E+02  0.37300486878E+03  0.27145780988E+03  0.46464674916E+03  0.00000000000E+00 0. -1.
        -11    1    5    5    0    0 -0.64021009282E+02  0.22933801699E+03  0.25972968421E+03  0.35235511139E+03  0.00000000000E+00 0.  1.
          3    1    6    6  503    0  0.17830475071E+03  0.91382964893E+02  0.14660287411E+03  0.24826565025E+03  0.00000000000E+00 0. -1.
         -3    1    6    6    0  503  0.12129280163E+03  0.56934168563E+02  0.19042872737E+02  0.13533689179E+03  0.00000000000E+00 0.  1.
<mgrwt>
<rscale>  0 0.86076733E+03</rscale>
<asrwt>0</asrwt>
<pdfrwt beam="1">  1        1 0.29189573E+00 0.86076733E+03</pdfrwt>
<pdfrwt beam="2">  1       -1 0.16007862E+00 0.86076733E+03</pdfrwt>
<totfact> 0.10556058E+00</totfact>
</mgrwt>
</event>
<event>
12    1  0.1432447E-007  0.9423063E+03  0.7818608E-02  0.9374189E-01
         -2   -1    0    0    0  501 -0.00000000000E+00  0.00000000000E+00  0.73669330245E+03  0.73669330245E+03  0.00000000000E+00 0.  1.
          2   -1    0    0  501    0  0.00000000000E+00 -0.00000000000E+00 -0.15201546349E+04  0.15201546349E+04  0.00000000000E+00 0. -1.
         23    2    1    2    0    0 -0.88511530296E+03  0.24222726666E+03 -0.69845353440E+03  0.11570842738E+04  0.94358511821E+02 0.  0.
    5000000    2    1    2    0    0  0.88511530296E+03 -0.24222726666E+03 -0.85007798098E+02  0.10997636636E+04  0.60012552165E+03 0.  0.
         23    2    4    4    0    0  0.44180819312E+02  0.61299783698E+01  0.15799527036E+03  0.18548977196E+03  0.86339032974E+02 0.  0.
         23    2    4    4    0    0  0.84093448365E+03 -0.24835724502E+03 -0.24300306846E+03  0.91427389162E+03  0.89409902492E+02 0.  0.
          1    1    3    3  502    0 -0.68521129429E+03  0.22601751976E+03 -0.53203718562E+03  0.89647197611E+03  0.00000000000E+00 0. -1.
         -1    1    3    3    0  502 -0.19990400867E+03  0.16209746893E+02 -0.16641634877E+03  0.26061229771E+03  0.00000000000E+00 0.  1.
         11    1    5    5    0    0 -0.45911386082E+01  0.29667387859E+02  0.10690061024E+03  0.11103590827E+03  0.00000000000E+00 0. -1.
        -11    1    5    5    0    0  0.48771957920E+02 -0.23537409490E+02  0.51094660119E+02  0.74453863684E+02  0.00000000000E+00 0.  1.
          2    1    6    6  503    0  0.54474879729E+03 -0.18638848786E+03 -0.19507376904E+03  0.60790270268E+03  0.00000000000E+00 0. -1.
         -2    1    6    6    0  503  0.29618568636E+03 -0.61968757166E+02 -0.47929299417E+02  0.30637118894E+03  0.00000000000E+00 0.  1.
<mgrwt>
<rscale>  0 0.94230626E+03</rscale>
<asrwt>0</asrwt>
<pdfrwt beam="1">  1        2 0.23386994E+00 0.94230626E+03</pdfrwt>
<pdfrwt beam="2">  1       -2 0.11333743E+00 0.94230626E+03</pdfrwt>
<totfact> 0.75616498E+00</totfact>
</mgrwt>
</event>
<event>
12    1  0.1432447E-007  0.1102052E+04  0.7818608E-02  0.9203194E-01
         -2   -1    0    0    0  501 -0.00000000000E+00  0.00000000000E+00  0.11637023753E+04  0.11637023753E+04  0.00000000000E+00 0.  1.
          2   -1    0    0  501    0  0.00000000000E+00 -0.00000000000E+00 -0.15777252122E+04  0.15777252122E+04  0.00000000000E+00 0. -1.
         23    2    1    2    0    0  0.36810078991E+03  0.96600250846E+03  0.57865068840E+03  0.11877204273E+04  0.84759402609E+02 0.  0.
    5000000    2    1    2    0    0 -0.36810078991E+03 -0.96600250846E+03 -0.99267352534E+03  0.15537071602E+04  0.59995514309E+03 0.  0.
         23    2    4    4    0    0  0.12921375111E+03 -0.21492301583E+03 -0.36527279243E+03  0.45227589351E+03  0.90780916259E+02 0.  0.
         23    2    4    4    0    0 -0.49731454101E+03 -0.75107949263E+03 -0.62740073292E+03  0.11014312666E+04  0.89872123150E+02 0.  0.
          2    1    3    3  502    0  0.33935121019E+03  0.82477655671E+03  0.51781133360E+03  0.10312827884E+04  0.00000000000E+00 0. -1.
         -2    1    3    3    0  502  0.28749579713E+02  0.14122595176E+03  0.60839354799E+02  0.15643763894E+03  0.00000000000E+00 0.  1.
         13    1    5    5    0    0  0.11153095661E+03 -0.10240343107E+03 -0.18537777065E+03  0.23935441259E+03  0.00000000000E+00 0.  1.
        -13    1    5    5    0    0  0.17682794493E+02 -0.11251958476E+03 -0.17989502178E+03  0.21292148092E+03  0.00000000000E+00 0. -1.
          3    1    6    6  503    0 -0.39955603493E+03 -0.64342396122E+03 -0.55511407025E+03  0.93903729953E+03  0.00000000000E+00 0. -1.
         -3    1    6    6    0  503 -0.97758506079E+02 -0.10765553142E+03 -0.72286662667E+02  0.16239396711E+03  0.00000000000E+00 0.  1.
<mgrwt>
<rscale>  0 0.11020520E+04</rscale>
<asrwt>0</asrwt>
<pdfrwt beam="1">  1        2 0.24272696E+00 0.11020520E+04</pdfrwt>
<pdfrwt beam="2">  1       -2 0.17903113E+00 0.11020520E+04</pdfrwt>
<totfact> 0.20733985E+00</totfact>
</mgrwt>
</event>
<event>
12    1  0.1432447E-007  0.6939294E+03  0.7818608E-02  0.9727670E-01
          2   -1    0    0  501    0  0.00000000000E+00  0.00000000000E+00  0.99354405548E+03  0.99354405548E+03  0.00000000000E+00 0. -1.
         -2   -1    0    0    0  501 -0.00000000000E+00 -0.00000000000E+00 -0.56435069800E+03  0.56435069800E+03  0.00000000000E+00 0.  1.
         23    2    1    2    0    0  0.11960043921E+03  0.60794354765E+03  0.11063424328E+03  0.63851107506E+03  0.10750272089E+03 0.  0.
    5000000    2    1    2    0    0 -0.11960043921E+03 -0.60794354765E+03  0.31855911420E+03  0.91938367842E+03  0.59990567317E+03 0.  0.
         23    2    4    4    0    0  0.13061849324E+03 -0.40224320199E+03  0.38180737091E+03  0.57689992287E+03  0.90420507626E+02 0.  0.
         23    2    4    4    0    0 -0.25021893245E+03 -0.20570034566E+03 -0.63248256710E+02  0.34248375555E+03  0.91502100918E+02 0.  0.
          1    1    3    3  502    0  0.51928986843E+02  0.48955596996E+03  0.93039921970E+02  0.50101706007E+03  0.00000000000E+00 0. -1.
         -1    1    3    3    0  502  0.67671452364E+02  0.11838757769E+03  0.17594321305E+02  0.13749401499E+03  0.00000000000E+00 0.  1.
         11    1    5    5    0    0  0.55679963721E+02 -0.95793774483E+02  0.58984440317E+02  0.12552238760E+03  0.00000000000E+00 0.  1.
        -11    1    5    5    0    0  0.74938529524E+02 -0.30644942751E+03  0.32282293060E+03  0.45137753527E+03  0.00000000000E+00 0. -1.
          1    1    6    6  503    0 -0.13128304978E+03 -0.58658885161E+02 -0.52432806123E+02  0.15305326892E+03  0.00000000000E+00 0. -1.
         -1    1    6    6    0  503 -0.11893588267E+03 -0.14704146050E+03 -0.10815450588E+02  0.18943048663E+03  0.00000000000E+00 0.  1.
<mgrwt>
<rscale>  0 0.69392939E+03</rscale>
<asrwt>0</asrwt>
<pdfrwt beam="1">  1        2 0.15285293E+00 0.69392939E+03</pdfrwt>
<pdfrwt beam="2">  1       -2 0.86823184E-01 0.69392939E+03</pdfrwt>
<totfact> 0.29828416E+01</totfact>
</mgrwt>
</event>
<event>
12    1  0.1432447E-007  0.1222947E+04  0.7818608E-02  0.9093005E-01
         -1   -1    0    0    0  501 -0.00000000000E+00  0.00000000000E+00  0.15602781875E+04  0.15602781875E+04  0.00000000000E+00 0.  1.
          1   -1    0    0  501    0  0.00000000000E+00 -0.00000000000E+00 -0.10211907160E+04  0.10211907160E+04  0.00000000000E+00 0. -1.
         23    2    1    2    0    0 -0.11672417220E+04 -0.22605074987E+03  0.23277510909E+03  0.12149081420E+04  0.90914041409E+02 0.  0.
    5000000    2    1    2    0    0  0.11672417220E+04  0.22605074987E+03  0.30631236234E+03  0.13665607615E+04  0.60009072000E+03 0.  0.
         23    2    4    4    0    0  0.11292905068E+04  0.15627501771E+03  0.40243944119E+03  0.12122049757E+04  0.88116226804E+02 0.  0.
         23    2    4    4    0    0  0.37951215236E+02  0.69775732161E+02 -0.96127078849E+02  0.15435578573E+03  0.90974423677E+02 0.  0.
          1    1    3    3  502    0 -0.74142131517E+03 -0.14400558357E+03  0.19228574288E+03  0.77936960526E+03  0.00000000000E+00 0. -1.
         -1    1    3    3    0  502 -0.42582040687E+03 -0.82045166302E+02  0.40489366216E+02  0.43553853675E+03  0.00000000000E+00 0.  1.
         13    1    5    5    0    0  0.48718965648E+03  0.74958969994E+02  0.21974138755E+03  0.53968406125E+03  0.00000000000E+00 0.  1.
        -13    1    5    5    0    0  0.64210085032E+03  0.81316047719E+02  0.18269805364E+03  0.67252091447E+03  0.00000000000E+00 0. -1.
          2    1    6    6  503    0  0.78871911800E+01 -0.20339155136E+02 -0.35479941369E+02  0.41649913036E+02  0.00000000000E+00 0. -1.
         -2    1    6    6    0  503  0.30064024056E+02  0.90114887296E+02 -0.60647137481E+02  0.11270587269E+03  0.00000000000E+00 0.  1.
<mgrwt>
<rscale>  0 0.12229468E+04</rscale>
<asrwt>0</asrwt>
<pdfrwt beam="1">  1        1 0.15710626E+00 0.12229468E+04</pdfrwt>
<pdfrwt beam="2">  1       -1 0.24004280E+00 0.12229468E+04</pdfrwt>
<totfact> 0.11554977E+00</totfact>
</mgrwt>
</event>
<event>
12    1  0.1432447E-007  0.8988880E+03  0.7818608E-02  0.9426973E-01
         -3   -1    0    0    0  501 -0.00000000000E+00  0.00000000000E+00  0.48926489965E+03  0.48926489965E+03  0.00000000000E+00 0.  1.
          3   -1    0    0  501    0  0.00000000000E+00 -0.00000000000E+00 -0.17283383116E+04  0.17283383116E+04  0.00000000000E+00 0. -1.
         23    2    1    2    0    0  0.12809300436E+03  0.79092406166E+03 -0.35137288734E+03  0.87962354283E+03  0.91137160722E+02 0.  0.
    5000000    2    1    2    0    0 -0.12809300436E+03 -0.79092406166E+03 -0.88770052464E+03  0.13379796684E+04  0.60017387701E+03 0.  0.
         23    2    4    4    0    0  0.22695054740E+03 -0.28582165102E+03 -0.32949787938E+03  0.50037395634E+03  0.92761395593E+02 0.  0.
         23    2    4    4    0    0 -0.35504355176E+03 -0.50510241064E+03 -0.55820264526E+03  0.83760571211E+03  0.93855031241E+02 0.  0.
          2    1    3    3  502    0  0.13540911019E+03  0.59733792586E+03 -0.25899806853E+03  0.66500242428E+03  0.00000000000E+00 0. -1.
         -2    1    3    3    0  502 -0.73161058292E+01  0.19358613580E+03 -0.92374818802E+02  0.21462111855E+03  0.00000000000E+00 0.  1.
         13    1    5    5    0    0  0.58837250260E+02 -0.45094562126E+02 -0.27227268072E+02  0.78972562818E+02  0.00000000000E+00 0. -1.
        -13    1    5    5    0    0  0.16811329714E+03 -0.24072708889E+03 -0.30227061131E+03  0.42140139352E+03  0.00000000000E+00 0.  1.
          2    1    6    6  503    0 -0.31683786162E+03 -0.38970072060E+03 -0.46459639644E+03  0.68418030794E+03  0.00000000000E+00 0. -1.
         -2    1    6    6    0  503 -0.38205690147E+02 -0.11540169005E+03 -0.93606248819E+02  0.15342540416E+03  0.00000000000E+00 0.  1.
<mgrwt>
<rscale>  0 0.89888797E+03</rscale>
<asrwt>0</asrwt>
<pdfrwt beam="1">  1        3 0.26589820E+00 0.89888797E+03</pdfrwt>
<pdfrwt beam="2">  1       -3 0.75271523E-01 0.89888797E+03</pdfrwt>
<totfact> 0.25901022E-01</totfact>
</mgrwt>
</event>
<event>
12    1  0.1432447E-007  0.1002738E+04  0.7818608E-02  0.9305547E-01
         -1   -1    0    0    0  501 -0.00000000000E+00  0.00000000000E+00  0.85044087245E+03  0.85044087245E+03  0.00000000000E+00 0.  1.
          1   -1    0    0  501    0  0.00000000000E+00 -0.00000000000E+00 -0.15747211976E+04  0.15747211976E+04  0.00000000000E+00 0. -1.
         23    2    1    2    0    0 -0.53292068638E+03 -0.74805074677E+03  0.25174680255E+03  0.95676835631E+03  0.91895904783E+02 0.  0.
    5000000    2    1    2    0    0  0.53292068638E+03  0.74805074677E+03 -0.97602712767E+03  0.14683937137E+04  0.59997230500E+03 0.  0.
         23    2    4    4    0    0 -0.46469078167E+01  0.46230592463E+03 -0.33230631871E+03  0.57762920611E+03  0.97363486997E+02 0.  0.
         23    2    4    4    0    0  0.53756759420E+03  0.28574482214E+03 -0.64372080897E+03  0.89076450759E+03  0.91956002401E+02 0.  0.
          2    1    3    3  502    0 -0.38969304616E+03 -0.60334388223E+03  0.17571807446E+03  0.73943312892E+03  0.00000000000E+00 0.  1.
         -2    1    3    3    0  502 -0.14322764022E+03 -0.14470686454E+03  0.76028728089E+02  0.21733522739E+03  0.00000000000E+00 0. -1.
         13    1    5    5    0    0 -0.47363336511E+02  0.26953357042E+03 -0.21447665753E+03  0.34769507885E+03  0.00000000000E+00 0.  1.
        -13    1    5    5    0    0  0.42716428694E+02  0.19277235421E+03 -0.11782966117E+03  0.22993412726E+03  0.00000000000E+00 0. -1.
          2    1    6    6  503    0  0.28644802068E+03  0.19012293965E+03 -0.40584239556E+03  0.53189026196E+03  0.00000000000E+00 0.  1.
         -2    1    6    6    0  503  0.25111957351E+03  0.95621882499E+02 -0.23787841340E+03  0.35887424563E+03  0.00000000000E+00 0. -1.
<mgrwt>
<rscale>  0 0.10027381E+04</rscale>
<asrwt>0</asrwt>
<pdfrwt beam="1">  1        1 0.24226480E+00 0.10027381E+04</pdfrwt>
<pdfrwt beam="2">  1       -1 0.13083706E+00 0.10027381E+04</pdfrwt>
<totfact> 0.29146821E+00</totfact>
</mgrwt>
</event>
<event>
12    1  0.1432447E-007  0.1136895E+04  0.7818608E-02  0.9169959E-01
          1   -1    0    0  501    0  0.00000000000E+00  0.00000000000E+00  0.17556269315E+04  0.17556269315E+04  0.00000000000E+00 0. -1.
         -1   -1    0    0    0  501 -0.00000000000E+00 -0.00000000000E+00 -0.75866969933E+03  0.75866969933E+03  0.00000000000E+00 0.  1.
         23    2    1    2    0    0  0.63469004411E+01 -0.10660235433E+04  0.32241059631E+03  0.11173145325E+04  0.89424235409E+02 0.  0.
    5000000    2    1    2    0    0 -0.63469004411E+01  0.10660235433E+04  0.67454663588E+03  0.13969820984E+04  0.60008277852E+03 0.  0.
         23    2    4    4    0    0 -0.14186803991E+03  0.26057215509E+02  0.11309107752E+03  0.20388883312E+03  0.89305908125E+02 0.  0.
         23    2    4    4    0    0  0.13552113947E+03  0.10399663278E+04  0.56145555835E+03  0.11930932652E+04  0.91341410717E+02 0.  0.
          1    1    3    3  502    0  0.35517734373E+02 -0.73555159616E+03  0.25054771708E+03  0.77786362468E+03  0.00000000000E+00 0. -1.
         -1    1    3    3    0  502 -0.29170833932E+02 -0.33047194716E+03  0.71862879234E+02  0.33945090783E+03  0.00000000000E+00 0.  1.
         13    1    5    5    0    0 -0.79005103597E+01 -0.12355005945E+02 -0.10160632006E+02  0.17841039168E+02  0.00000000000E+00 0. -1.
        -13    1    5    5    0    0 -0.13396752955E+03  0.38412221454E+02  0.12325170953E+03  0.18604779395E+03  0.00000000000E+00 0.  1.
          4    1    6    6  503    0  0.33572343703E+02  0.55564750680E+03  0.26951262883E+03  0.61847256299E+03  0.00000000000E+00 0. -1.
         -4    1    6    6    0  503  0.10194879576E+03  0.48431882101E+03  0.29194292953E+03  0.57462070224E+03  0.00000000000E+00 0.  1.
<mgrwt>
<rscale>  0 0.11368949E+04</rscale>
<asrwt>0</asrwt>
<pdfrwt beam="1">  1        1 0.27009645E+00 0.11368949E+04</pdfrwt>
<pdfrwt beam="2">  1       -1 0.11671842E+00 0.11368949E+04</pdfrwt>
<totfact> 0.28659623E+00</totfact>
</mgrwt>
</event>
<event>
12    1  0.1432447E-007  0.5470683E+03  0.7818608E-02  0.1002175E+00
          2   -1    0    0  501    0  0.00000000000E+00  0.00000000000E+00  0.16840212308E+04  0.16840212308E+04  0.00000000000E+00 0. -1.
         -2   -1    0    0    0  501 -0.00000000000E+00 -0.00000000000E+00 -0.46428132598E+03  0.46428132598E+03  0.00000000000E+00 0.  1.
         23    2    1    2    0    0 -0.36689472422E+03  0.10410882816E+03  0.13670581079E+04  0.14222928470E+04  0.92836876218E+02 0.  0.
    5000000    2    1    2    0    0  0.36689472422E+03 -0.10410882816E+03 -0.14731820306E+03  0.72600970975E+03  0.59994754683E+03 0.  0.
         23    2    4    4    0    0 -0.11259167466E+03 -0.16292542925E+03 -0.30497280378E+02  0.22079257394E+03  0.92723761223E+02 0.  0.
         23    2    4    4    0    0  0.47948639888E+03  0.58816601094E+02 -0.11682092269E+03  0.50521713582E+03  0.90722803485E+02 0.  0.
          3    1    3    3  502    0 -0.33530037946E+03  0.12014942190E+03  0.12129487051E+04  0.12641624853E+04  0.00000000000E+00 0.  1.
         -3    1    3    3    0  502 -0.31594344758E+02 -0.16040593747E+02  0.15410940284E+03  0.15813036176E+03  0.00000000000E+00 0. -1.
         11    1    5    5    0    0 -0.98118204899E+02 -0.66767106230E+02  0.65760846502E+00  0.11868218508E+03  0.00000000000E+00 0. -1.
        -11    1    5    5    0    0 -0.14473469762E+02 -0.96158323021E+02 -0.31154888843E+02  0.10211038885E+03  0.00000000000E+00 0.  1.
          1    1    6    6  503    0  0.36467769081E+03  0.69707968624E+02 -0.11896224227E+03  0.38987310006E+03  0.00000000000E+00 0. -1.
         -1    1    6    6    0  503  0.11480870807E+03 -0.10891367530E+02  0.21413195863E+01  0.11534403576E+03  0.00000000000E+00 0.  1.
<mgrwt>
<rscale>  0 0.54706828E+03</rscale>
<asrwt>0</asrwt>
<pdfrwt beam="1">  1        2 0.25908019E+00 0.54706828E+03</pdfrwt>
<pdfrwt beam="2">  1       -2 0.71427897E-01 0.54706828E+03</pdfrwt>
<totfact> 0.18868817E+01</totfact>
</mgrwt>
</event>
<event>
12    1  0.1432447E-007  0.9086352E+03  0.7818608E-02  0.9414851E-01
         -2   -1    0    0    0  501 -0.00000000000E+00  0.00000000000E+00  0.21674191581E+04  0.21674191581E+04  0.00000000000E+00 0.  1.
          2   -1    0    0  501    0  0.00000000000E+00 -0.00000000000E+00 -0.45994787365E+03  0.45994787365E+03  0.00000000000E+00 0. -1.
         23    2    1    2    0    0  0.76827045958E+01 -0.87813680200E+03  0.10713218415E+04  0.13879723635E+04  0.86911028035E+02 0.  0.
    5000000    2    1    2    0    0 -0.76827045958E+01  0.87813680200E+03  0.63614944302E+03  0.12393946683E+04  0.60019143866E+03 0.  0.
         23    2    4    4    0    0  0.67745602014E+02  0.80380079637E+03  0.71255315499E+03  0.10800784246E+04  0.90289632770E+02 0.  0.
         23    2    4    4    0    0 -0.75428306610E+02  0.74336005621E+02 -0.76403711975E+02  0.15931624370E+03  0.91262627262E+02 0.  0.
          4    1    3    3  502    0  0.37507013112E+02 -0.55194968863E+03  0.71389066011E+03  0.90315840770E+03  0.00000000000E+00 0. -1.
         -4    1    3    3    0  502 -0.29824308516E+02 -0.32618711337E+03  0.35743118136E+03  0.48481395577E+03  0.00000000000E+00 0.  1.
         13    1    5    5    0    0  0.49849983620E+02  0.16152244248E+03  0.15603242003E+03  0.23004485734E+03  0.00000000000E+00 0. -1.
        -13    1    5    5    0    0  0.17895618395E+02  0.64227835390E+03  0.55652073496E+03  0.85003356727E+03  0.00000000000E+00 0.  1.
          3    1    6    6  503    0 -0.82885491448E+02  0.44293540279E+02 -0.21683087999E+02  0.96447284608E+02  0.00000000000E+00 0. -1.
         -3    1    6    6    0  503  0.74571848385E+01  0.30042465342E+02 -0.54720623975E+02  0.62868959096E+02  0.00000000000E+00 0.  1.
<mgrwt>
<rscale>  0 0.90863520E+03</rscale>
<asrwt>0</asrwt>
<pdfrwt beam="1">  1        2 0.70761213E-01 0.90863520E+03</pdfrwt>
<pdfrwt beam="2">  1       -2 0.33344909E+00 0.90863520E+03</pdfrwt>
<totfact> 0.13733019E+00</totfact>
</mgrwt>
</event>
